
Running Job 1 of 1 ./7/11.qcin
qchem ./7/11.qcin_134603.0 /tmpu/cab_g/afmv_a/scratch_qchem/qchem134603/ 1
/tmpu/appuserlic/qchem4.4/serial-multicore/exe/qcprog.exe_s ./7/11.qcin_134603.0 /tmpu/cab_g/afmv_a/scratch_qchem/qchem134603/
Check license passed

                  Welcome to Q-Chem
     A Quantum Leap Into The Future Of Chemistry


 Q-Chem 4.4, Q-Chem, Inc., Pleasanton, CA (2016)

 Y. Shao,  Z. Gan,  E. Epifanovsky,  A. T. B. Gilbert,  M. Wormit,  
 J. Kussmann,  A. W. Lange,  A. Behn,  J. Deng,  X. Feng,  D. Ghosh,  
 M. Goldey,  P. R. Horn,  L. D. Jacobson,  I. Kaliman,  F. Rob,  
 R. Z. Khaliullin,  T. Kus,  A. Landau,  J. Liu,  E. I. Proynov,  Y. M. Rhee,  
 R. M. Richard,  M. A. Rohrdanz,  R. P. Steele,  E. J. Sundstrom,  
 H. L. Woodcock III,  P. M. Zimmerman,  D. Zuev,  B. Albrecht,  E. Alguire,  
 B. Austin,  S. A. Baeppler,  G. J. O. Beran,  Y. A. Bernard,  E. Berquist,  
 K. Brandhorst,  K. B. Bravaya,  S. T. Brown,  D. Casanova,  C.-M. Chang,  
 Y. Chen,  S. H. Chien,  K. D. Closser,  M. P. Coons,  D. L. Crittenden,  
 S. Dasgupta,  M. Diedenhofen,  R. A. DiStasio Jr.,  H. Do,  A. D. Dutoi,  
 R. G. Edgar,  P.-T. Fang,  S. Fatehi,  Q. Feng,  L. Fusti-Molnar,  
 A. Ghysels,  A. Golubeva-Zadorozhnaya,  J. Gomes,  A. Gunina,  
 M. W. D. Hanson-Heine,  P. H. P. Harbach,  A. W. Hauser,  J. E. Herr,  
 E. G. Hohenstein,  Z. C. Holden,  K. Hui,  T.-C. Jagau,  H. Ji,  B. Kaduk,  
 K. Khistyaev,  Jaehoon Kim,  Jihan Kim,  R. A. King,  P. Klunzinger,  
 K. Koh,  D. Kosenkov,  T. Kowalczyk,  C. M. Krauter,  A. Kunitsa,  
 K. U. Lao,  A. Laurent,  K. V. Lawler,  J. Lee,  D. Lefrancois,  S. Lehtola,  
 S. V. Levchenko,  C. Y. Lin,  Y.-S. Lin,  F. Liu,  E. Livshits,  
 R. C. Lochan,  A. Luenser,  P. Manohar,  S. F. Manzer,  S.-P. Mao,  Y. Mao,  
 N. Mardirossian,  A. V. Marenich,  L. A. Martinez-Martinez,  S. A. Maurer,  
 N. J. Mayhall,  J.-M. Mewes,  A. F. Morrison,  K. Nanda,  T. S. Nguyen-Beck,  
 C. M. Oana,  R. Olivares-Amaya,  D. P. O'Neill,  J. A. Parkhill,  
 T. M. Perrine,  R. Peverati,  P. A. Pieniazek,  F. Plasser,  A. Prociuk,  
 D. R. Rehn,  E. Rosta,  N. J. Russ,  N. Sergueev,  S. M. Sharada,  
 S. Sharma,  D. W. Small,  A. Sodt,  T. Stauch,  T. Stein,  D. Stuck,  
 Y.-C. Su,  A. J. W. Thom,  T. Tsuchimochi,  L. Vogt,  O. Vydrov,  T. Wang,  
 M. A. Watson,  J. Wenzel,  A. White,  C. F. Williams,  V. Vanovschi,  
 K. Yao,  S. Yeganeh,  S. R. Yost,  Z.-Q. You,  I. Y. Zhang,  X. Zhang,  
 Y. Zhao,  B. R. Brooks,  G. K. L. Chan,  D. M. Chipman,  C. J. Cramer,  
 W. A. Goddard III,  M. S. Gordon,  W. J. Hehre,  A. Klamt,  
 H. F. Schaefer III,  M. W. Schmidt,  C. D. Sherrill,  D. G. Truhlar,  
 A. Warshel,  X. Xu,  A. Aspuru-Guzik,  R. Baer,  A. T. Bell,  N. A. Besley,  
 J.-D. Chai,  A. Dreuw,  B. D. Dunietz,  T. R. Furlani,  S. R. Gwaltney,  
 C.-P. Hsu,  Y. Jung,  J. Kong,  D. S. Lambrecht,  W. Liang,  C. Ochsenfeld,  
 V. A. Rassolov,  L. V. Slipchenko,  J. E. Subotnik,  T. Van Voorhis,  
 J. M. Herbert,  A. I. Krylov,  P. M. W. Gill,  M. Head-Gordon

 Contributors to earlier versions of Q-Chem not listed above: 
 R. D. Adamson,  J. Baker,  E. F. C. Byrd,  A. K. Chakraborty,  C.-L. Cheng,  
 H. Dachsel,  R. J. Doerksen,  G. Hawkins,  A. Heyden,  S. Hirata,  
 G. Kedziora,  F. J. Keil,  C. Kelley,  P. P. Korambath,  W. Kurlancheek,  
 A. M. Lee,  M. S. Lee,  D. Liotard,  I. Lotan,  P. E. Maslen,  N. Nair,  
 D. Neuhauser,  R. Olson,  B. Peters,  J. Ritchie,  N. E. Schultz,  
 N. Shenvi,  A. C. Simmonett,  K. S. Thanthiriwatte,  Q. Wu,  W. Zhang

 Please cite Q-Chem as follows:
 Y. Shao et al., Mol. Phys. 113, 184-215 (2015)
 DOI: 10.1080/00268976.2014.952696

 Q-Chem 4.4.2 for Intel X86 Linux

 Parts of Q-Chem use Armadillo 5.200.1 (Boston Tea Smuggler).
 http://arma.sourceforge.net/

 Q-Chem begins on Sat Oct  6 03:39:53 2018  

Host: 
0

     Scratch files written to /tmpu/cab_g/afmv_a/scratch_qchem/qchem134603//
 Dec716 11556_ 22328  22283 4050   
Processing $rem in /tmpu/appuserlic/qchem4.4/serial-multicore/config/preferences.
 MEM_TOTAL  2000 
FILE_GEOM_ORG=        593

Checking the input file for inconsistencies... 	...done.

--------------------------------------------------------------
User input:
--------------------------------------------------------------
$comment
SP
$end

$rem
MEM_STATIC 5000
MEM_TOTAL 20000
JOBTYPE SP
EXCHANGE B3LYP
BASIS 6-31g(d,p)
$end

$molecule
0 1
O          31.476000    -11.755000      8.488000
C          32.387000    -11.316000      9.548000
H          32.792000    -12.175000     10.099000
H          32.008000    -10.685000     10.361000
H          33.314000    -10.856000      9.183000
O          30.123000    -12.611000     10.025000
C          30.397000    -12.462000      8.875000
C          29.506000    -13.043000      7.806000
H          29.091000    -13.960000      8.242000
H          30.222000    -13.343000      7.031000
C          28.429000    -12.121000      7.145000
H          27.848000    -11.754000      8.000000
H          28.832000    -11.202000      6.704000
C          27.547000    -12.947000      6.191000
H          28.165000    -13.545000      5.510000
H          27.004000    -13.663000      6.820000
C          26.462000    -12.157000      5.444000
C          27.044000    -11.388000      4.269000
C          27.051000    -12.009000      3.038000
H          26.912000    -13.086000      3.017000
C          27.389000    -11.372000      1.844000
H          27.331000    -11.887000      0.889000
C          27.712000     -9.984000      1.940000
H          28.015000     -9.408000      1.071000
C          27.700000     -9.331000      3.195000
H          27.826000     -8.253000      3.232000
C          27.358000    -10.000000      4.317000
H          27.352000     -9.421000      5.235000
C          22.165000     -8.788000      5.884000
C          21.699000     -9.953000      3.793000
C          18.284000    -12.496000      5.408000
C          23.006000    -12.008000      9.739000
C          20.303000    -15.297000      5.950000
C          22.612000     -9.351000      4.654000
C          21.412000    -14.317000      9.194000
C          18.865000    -10.167000      5.772000
C          23.325000    -13.635000      3.842000
C          23.570000    -13.192000      9.174000
C          25.098000    -12.738000      5.265000
C          23.600000    -14.533000      4.909000
C          23.174000    -14.897000      7.692000
C          20.472000    -14.986000      8.343000
C          23.578000    -11.228000      3.826000
C          18.687000    -13.937000      7.122000
C          25.264000    -11.602000      6.182000
C          24.961000    -11.789000      7.614000
C          19.189000    -14.488000      5.927000
C          19.773000    -10.599000      9.155000
C          18.351000    -11.556000      7.691000
C          18.715000    -10.328000      7.164000
C          19.898000     -9.348000      5.330000
C          24.305000    -10.623000      8.112000
C          24.114000    -12.466000      4.074000
C          20.343000     -9.968000      4.121000
C          22.752000    -14.321000      8.871000
C          22.303000    -11.148000      3.306000
C          22.497000    -15.277000      5.434000
C          22.118000    -10.022000      9.106000
C          18.617000    -11.223000      4.876000
C          24.532000    -14.032000      5.802000
C          20.660000     -8.925000      7.546000
C          22.295000    -15.561000      6.844000
C          22.032000    -13.510000      3.218000
C          19.544000    -13.035000      9.135000
C          20.832000    -13.122000      9.656000
C          20.958000    -14.299000      3.775000
C          23.302000    -10.772000      9.126000
C          24.499000    -13.063000      8.090000
C          21.084000    -10.723000      9.725000
C          24.575000    -10.339000      5.882000
C          20.118000    -12.270000      3.256000
C          24.257000    -14.091000      7.167000
C          21.209000    -15.146000      4.890000
C          21.939000     -9.053000      8.105000
C          18.926000    -13.611000      4.872000
C          20.787000     -8.693000      6.148000
C          18.178000    -12.659000      6.814000
C          21.512000    -12.273000      2.928000
C          19.842000    -13.510000      3.800000
C          23.813000    -10.125000      4.670000
C          24.025000     -9.799000      7.065000
C          18.986000    -11.730000      8.912000
C          19.549000    -11.098000      3.859000
C          20.932000    -15.625000      7.154000
C          21.637000    -11.994000      9.942000
C          19.344000    -14.149000      8.306000
C          22.885000     -8.962000      7.112000
C          19.593000     -9.736000      8.058000
O          23.258000    -15.579000     13.695000
C          23.219000    -14.521000     14.750000
H          24.182000    -13.996000     14.776000
H          23.176000    -15.031000     15.720000
H          22.403000    -13.815000     14.551000
O          24.189000    -14.139000     12.187000
C          23.855000    -15.243000     12.535000
C          24.082000    -16.388000     11.640000
H          24.694000    -17.111000     12.193000
H          24.712000    -16.064000     10.803000
C          22.769000    -17.102000     11.050000
H          22.276000    -17.745000     11.789000
H          22.030000    -16.344000     10.763000
C          23.051000    -17.916000      9.713000
H          22.150000    -18.243000      9.180000
H          23.577000    -17.299000      8.974000
C          24.177000    -19.088000      9.777000
C          23.981000    -20.072000     10.824000
C          23.039000    -21.087000     10.659000
H          22.643000    -21.022000      9.650000
C          22.680000    -21.945000     11.679000
H          21.973000    -22.744000     11.473000
C          23.219000    -21.764000     12.984000
H          23.033000    -22.457000     13.800000
C          24.127000    -20.755000     13.171000
H          24.561000    -20.635000     14.158000
C          24.520000    -19.911000     12.122000
H          25.295000    -19.161000     12.250000
C          29.591000    -20.537000      9.168000
C          28.371000    -22.385000      8.280000
C          29.288000    -21.865000      3.888000
C          28.057000    -16.291000      6.889000
C          26.136000    -20.236000      3.204000
C          28.468000    -21.352000      9.176000
C          27.267000    -16.947000      4.288000
C          30.687000    -21.571000      5.859000
C          24.806000    -21.314000      6.837000
C          26.703000    -16.356000      6.629000
C          24.681000    -19.613000      8.460000
C          24.299000    -20.185000      6.184000
C          25.245000    -17.683000      5.354000
C          27.081000    -18.007000      3.393000
C          26.301000    -21.551000      8.678000
C          28.578000    -19.903000      2.967000
C          25.686000    -18.838000      9.328000
C          26.294000    -17.588000      8.712000
C          27.449000    -20.782000      2.987000
C          30.913000    -18.075000      5.662000
C          30.585000    -19.795000      4.226000
C          31.074000    -20.313000      5.387000
C          30.415000    -21.780000      7.238000
C          27.648000    -17.513000      8.960000
C          25.051000    -21.022000      8.164000
C          29.361000    -22.665000      7.308000
C          26.307000    -16.741000      5.325000
C          27.066000    -22.538000      7.933000
C          24.605000    -19.931000      4.823000
C          29.831000    -17.411000      7.766000
C          29.778000    -22.356000      5.100000
C          24.416000    -19.115000      7.122000
C          30.982000    -19.528000      7.684000
C          24.931000    -18.674000      4.370000
C          25.569000    -22.235000      6.100000
C          29.294000    -17.772000      3.840000
C          28.615000    -16.738000      4.546000
C          25.797000    -22.025000      4.771000
C          28.556000    -16.891000      8.071000
C          25.876000    -17.130000      7.464000
C          30.156000    -17.137000      6.420000
C          26.994000    -19.507000      9.720000
C          27.574000    -23.216000      5.630000
C          24.992000    -17.879000      6.664000
C          25.300000    -20.910000      4.094000
C          30.283000    -18.546000      8.446000
C          27.901000    -21.997000      3.553000
C          30.522000    -20.754000      8.166000
C          29.712000    -20.590000      3.456000
C          26.652000    -22.929000      6.640000
C          27.035000    -22.678000      4.468000
C          27.198000    -20.851000      9.430000
C          28.120000    -18.645000      9.584000
C          30.412000    -18.406000      4.387000
C          28.933000    -23.063000      5.997000
C          25.950000    -18.894000      3.434000
C          29.045000    -16.462000      5.852000
C          28.385000    -18.558000      3.175000
C          29.415000    -19.186000      9.357000
C          31.184000    -19.281000      6.290000
$end

--------------------------------------------------------------
 ----------------------------------------------------------------
             Standard Nuclear Orientation (Angstroms)
    I     Atom           X                Y                Z
 ----------------------------------------------------------------
    1      O      -0.6020228450     4.8170269915    -6.0025586530
    2      C      -0.8129495903     4.9037980908    -7.4497015915
    3      H      -1.7679373433     4.4438962299    -7.7360504520
    4      H      -0.1106102658     4.4073608573    -8.1301724185
    5      H      -0.9617578254     5.9250773023    -7.8225271287
    6      O      -0.5733809394     2.6029831556    -6.1538977885
    7      C      -0.5670478918     3.5798099060    -5.4715881869
    8      C      -0.4829679992     3.4513398999    -3.9713785252
    9      H      -1.0056034527     2.5173448285    -3.7311382511
   10      H      -1.1125840629     4.2788853645    -3.6220461384
   11      C       0.9169200850     3.5797323103    -3.2852570048
   12      H       1.5197995251     2.8153850658    -3.7908108303
   13      H       1.4483281755     4.5101288710    -3.5163818217
   14      C       0.7919524181     3.2791890653    -1.7804736848
   15      H      -0.0270513198     3.8573733190    -1.3352491952
   16      H       0.4997697112     2.2247967806    -1.7028066024
   17      C       2.0922942150     3.4017173807    -0.9721222618
   18      C       2.4258264053     4.8542246671    -0.6726412755
   19      C       1.9631272068     5.3859915215     0.5123416207
   20      H       1.1677096916     4.8538358079     1.0259682098
   21      C       2.3313215727     6.6389701040     1.0023687429
   22      H       1.9820664740     6.9969269391     1.9669939449
   23      C       3.2704339500     7.3723296836     0.2147516596
   24      H       3.5968686215     8.3683173833     0.4979387131
   25      C       3.7611668614     6.8355309478    -0.9987582608
   26      H       4.5643222947     7.3495357363    -1.5184403053
   27      C       3.3719831291     5.6126741379    -1.4189561248
   28      H       3.8118371177     5.2647904276    -2.3482065715
   29      C       7.3082743272     1.8058786288    -0.4673251272
   30      C       6.7095831776     2.3574020582     1.8313816428
   31      C       6.5568172265    -1.9385339008     3.3343439844
   32      C       4.0526877263    -1.4998435222    -2.5673401140
   33      C       3.0859146293    -2.1864461828     3.0070816107
   34      C       6.6377752255     2.6424372512     0.4709065211
   35      C       3.1174527765    -3.1467279838    -0.4266745262
   36      C       8.1022605764    -0.8134342994     1.8376630768
   37      C       2.7679995357     1.8015773821     2.4300287202
   38      C       2.7835042258    -1.2792574333    -1.9511485695
   39      C       2.4165657572     2.3996431658     0.0865529645
   40      C       1.8369367294     0.9106913600     1.8300602659
   41      C       1.6814394658    -1.3033656749     0.0600791792
   42      C       3.1499825480    -3.4838450399     0.9663997376
   43      C       4.5814949538     2.9945287828     1.3595076676
   44      C       5.0848798810    -3.3937165915     2.3896060379
   45      C       3.2102287807     2.3984934034    -1.1499900728
   46      C       3.1790213400     1.2058854436    -2.0183876486
   47      C       4.3909438955    -2.5394466407     3.2684152887
   48      C       7.0954958613    -2.5903508141    -1.0406644773
   49      C       7.1962433958    -2.9635115253     1.1801079149
   50      C       8.0050803388    -1.8716651941     0.9120344391
   51      C       8.1872153954     0.4772716274     1.3276876958
   52      C       4.4894178592     0.9619835142    -2.5295322575
   53      C       3.2536003065     2.6520817168     1.3890002537
   54      C       7.4706724067     1.2748809381     2.2734633208
   55      C       2.3499774072    -2.0856916086    -0.8569399887
   56      C       5.4052929640     2.5487456141     2.3719597429
   57      C       1.8504405117    -0.4461892202     2.2822358280
   58      C       6.2081686873    -0.8173952813    -2.4203869729
   59      C       7.4204428296    -0.8441694469     3.0679621912
   60      C       1.6706766731     1.1444466894     0.4755160475
   61      C       8.0055629606    -0.2804310915    -0.9224496295
   62      C       1.6825760386    -1.6013557230     1.4179604846
   63      C       3.6428248000     1.4302047848     3.5133629950
   64      C       5.2458557579    -3.7571624095     0.0567502978
   65      C       4.4087876034    -3.3066942888    -0.9602793856
   66      C       3.6016701742     0.0521854262     3.9441935234
   67      C       4.9107198580    -0.3927592368    -2.7382969683
   68      C       2.3914704397     0.0647364597    -1.6433695478
   69      C       6.2131112201    -2.1723772400    -2.0921835861
   70      C       4.6491198160     2.6872994020    -1.0720562294
   71      C       5.7599972893     0.7102816503     3.9625081061
   72      C       1.7299987860     0.0670542674    -0.4065482676
   73      C       2.7242046672    -0.8632151640     3.2994214369
   74      C       7.1388850038     0.1224877996    -1.9477455314
   75      C       5.2974997711    -1.6575197164     3.8614450893
   76      C       8.1741001504     0.7970970510    -0.0087290389
   77      C       6.4319775374    -2.9785238953     2.3764938587
   78      C       4.9622336788     1.8094192982     3.5083069911
   79      C       4.8897478936    -0.3414108307     4.1777310476
   80      C       5.3110893560     3.0703106549     0.1569607388
   81      C       5.3623739547     1.8054354233    -1.9129922893
   82      C       6.6400903793    -3.4163905755    -0.0072995081
   83      C       7.0208614157     0.4570028930     3.3245225844
   84      C       2.4085174921    -2.6975705875     1.8967996819
   85      C       4.8496815247    -2.4980611325    -2.0344907097
   86      C       4.4864525248    -3.8249083011     1.2344405048
   87      C       6.7025973639     1.4027536062    -1.7031672013
   88      C       7.9441565938    -1.6344095561    -0.4519971073
   89      O       0.8488333001    -5.3952867553    -4.3069722110
   90      C       1.6925366752    -5.6490167436    -5.5143229090
   91      H       1.5608842598    -4.8283530414    -6.2304574838
   92      H       1.2653140525    -6.5159400062    -6.0327569815
   93      H       2.7477311601    -5.7424614183    -5.2284458518
   94      O       1.5390587867    -3.2214416113    -4.1955672399
   95      C       0.8206034440    -4.1265467803    -3.8548583413
   96      C      -0.2089668425    -3.8925181183    -2.8307516035
   97      H      -1.1732713266    -4.1638888205    -3.2774694160
   98      H      -0.2783958969    -2.8152949192    -2.6378402621
   99      C      -0.0068629833    -4.6544519350    -1.4305816534
  100      H      -0.2727836246    -5.7166223931    -1.4914021298
  101      H       1.0493955090    -4.6201611376    -1.1369898645
  102      C      -0.7820031403    -3.9609588057    -0.2272886647
  103      H      -0.5057735519    -4.3323626604     0.7669826218
  104      H      -0.5563720624    -2.8887571287    -0.1728811234
  105      C      -2.3910607713    -3.7806438637    -0.3821307188
  106      C      -3.1184296738    -4.9957813610    -0.6939902104
  107      C      -3.3925513954    -5.9216398277     0.3122192019
  108      H      -3.0717107453    -5.4986490482     1.2594583890
  109      C      -3.9218590662    -7.1700098099     0.0536640299
  110      H      -4.1547584010    -7.8279031805     0.8865026775
  111      C      -4.1365813392    -7.5875069399    -1.2901728247
  112      H      -4.6240455113    -8.5244128504    -1.5456860257
  113      C      -3.8484794572    -6.7000265953    -2.2936118829
  114      H      -4.0398973442    -7.0061434392    -3.3166351820
  115      C      -3.3491669019    -5.4172670881    -2.0245375089
  116      H      -3.1925915166    -4.6866566299    -2.8127008848
  117      C      -6.6848598119    -0.5487434779    -2.0850657426
  118      C      -7.4484653656    -1.5410051909    -0.0542109346
  119      C      -7.3891986850     2.0861980630     2.6366694075
  120      C      -2.2524804418     1.7375830837    -1.2470699357
  121      C      -4.2104213168     1.2049636979     4.1115936215
  122      C      -6.6978675039    -1.6164027712    -1.1988646179
  123      C      -2.2296144059     2.6258770343     1.4043538331
  124      C      -8.0356725067     1.8377087259     0.3024023604
  125      C      -4.4556951851    -2.4350080998     2.4322726156
  126      C      -1.5108506591     1.0128428364    -0.3360936246
  127      C      -3.0603411955    -2.8356966716     0.5787379080
  128      C      -3.2179098991    -1.8601339635     2.7413135728
  129      C      -1.6976532515     0.3383193640     1.9049866678
  130      C      -2.9506553948     2.6323735360     2.6040532487
  131      C      -5.5851257400    -2.7640000872     0.3594422091
  132      C      -5.3454329235     3.0570757720     2.9233800390
  133      C      -3.0448931615    -2.4230424783    -0.9023265319
  134      C      -2.3561525897    -1.1089595499    -1.2346554085
  135      C      -5.4075221840     1.9507257526     3.8288172584
  136      C      -5.3130975760     3.5917187080    -1.0477590112
  137      C      -6.4685320457     3.5750977466     0.8997457846
  138      C      -7.2178370784     2.9216317833    -0.0313236020
  139      C      -8.1007348015     0.6895985078    -0.5324124844
  140      C      -3.0891843206    -0.3722681660    -2.1404121563
  141      C      -4.4105203590    -3.0071879430     1.1765706357
  142      C      -8.2130759064    -0.4035476811     0.2991233751
  143      C      -1.5451075371     1.4344169710     1.0154087674
  144      C      -6.8035554264    -2.2159197853     0.9334248589
  145      C      -3.1366025780    -0.6827944838     3.5272740484
  146      C      -4.2256962896     1.8312889496    -2.3732330804
  147      C      -8.1190461446     1.4120641991     1.6553482474
  148      C      -2.4503811583    -1.9340488188     1.5397024768
  149      C      -6.6129872366     1.7204196709    -2.0542284762
  150      C      -2.2849558521     0.3495663260     3.2103150407
  151      C      -5.6195411921    -1.8653420264     2.9749714608
  152      C      -4.0588038378     3.8573646647     1.0471952709
  153      C      -2.8504630086     3.4091662585     0.4408425442
  154      C      -5.5300720283    -0.7770090759     3.7934161185
  155      C      -3.0751354068     1.0422201839    -2.1667624094
  156      C      -1.6935219995    -0.3797472584    -0.2491798204
  157      C      -4.1396892667     3.0196046321    -1.6163145706
  158      C      -4.3624326353    -2.1238632063    -1.5999442625
  159      C      -7.5621404533    -0.6999482805     2.7076672756
  160      C      -1.7605138973    -0.7478248442     1.1082029467
  161      C      -4.3085644402    -0.1862751324     4.1213118647
  162      C      -5.4375224881     1.2014217026    -2.6726884458
  163      C      -6.6801314697     1.3601485093     3.6483480767
  164      C      -7.3628497415     0.5970574740    -1.7038521095
  165      C      -6.5804892878     3.1752534980     2.2468330694
  166      C      -6.8326849771    -1.8154457399     2.2880089309
  167      C      -6.7675408083    -0.0692668623     3.6569097909
  168      C      -5.5637285091    -2.3775800841    -0.9483554586
  169      C      -4.3080245202    -0.9521246733    -2.4083281858
  170      C      -5.2436517268     3.9505585243     0.3133428440
  171      C      -8.2391052558    -0.0034160913     1.6773563684
  172      C      -3.0188984605     1.5078630273     3.4976023518
  173      C      -2.9247203080     2.9617631129    -0.8861948626
  174      C      -4.1465731049     3.3709124710     2.3285862413
  175      C      -5.4902430113    -0.2093059196    -2.6763109063
  176      C      -6.4758534705     2.8496104651    -1.1875269818
 ----------------------------------------------------------------
 Molecular Point Group                 C1    NOp =  1
 Largest Abelian Subgroup              C1    NOp =  1
 Nuclear Repulsion Energy = 35844.6803148170 hartrees
 There are      462 alpha and      462 beta electrons
 Requested basis set is 6-31G(d,p)
 There are 676 shells and 2360 basis functions

 Total QAlloc Memory Limit  20000 MB
 Mega-Array Size      4888 MB
 MEM_STATIC part      5000 MB
 A cutoff of  1.0D-08 yielded  39157 shell pairs
 There are    544849 function pairs
 
 -------------------------------------------------------
 OpenMP Integral Computing Module                       
 Release: version 1.0, May 2013, Q-Chem Inc. Pittsburgh 
 -------------------------------------------------------
 Integral Job Info:
 Integral job number is                      11
 Integral operator is                         1
 short-range coefficients                     0
 long-range coefficients              100000000
 Omega coefficients                           0
 if combine SR and LR in K                    0
 Integral screening is                        0
 Integral computing path is                   2
 max size of driver memory is            800000
 size of driver memory is                593474
 size of scratch memory is              2260544
 max col of scratch BK array               1296
 max len of scratch array in speh3          155
 max len of scratch index in speh4           18
 max int batch size is                      520
 min int batch size is                       52
 fixed nKL is                                52
 max L of basis functions is                  2
 order of int derivative is                   0
 number of shells is                        676
 number of basis is                        2360
 number of cartesian basis is              2360
 number of contracted shell pairs         39157
 number of primitive shell pairs         117020
 maxK2 (contraction) of shell pair           36
 max number of K2 of shell pair               1
 max number of CS2 of shell pair           7405
 max number of PS2 of shell pair          35076
 mem total for path MDJ                 1546472
 -------------------------------------------------------
 Smallest overlap matrix eigenvalue = 2.37E-04

 Scale SEOQF with 1.000000e-02/1.000000e-02/1.000000e-02

 Standard Electronic Orientation quadrupole field applied
 Nucleus-field energy     =     0.0000000749 hartrees
 Guess from superposition of atomic densities
 Warning:  Energy on first SCF cycle will be non-variational
 A restricted hybrid HF-DFT SCF calculation will be
 performed using Pulay DIIS extrapolation
 Exchange:     0.2000 Hartree-Fock + 0.0800 Slater + 0.7200 B88
 Correlation:  0.1900 VWN1RPA + 0.8100 LYP
 Using SG-1 standard quadrature grid
 SCF converges when DIIS error is below 1.0E-05
 using 16 threads for integral computing 
 -------------------------------------------------------
 OpenMP BLAS3 based DFT computing Module                
 Release: version 1.0, May 2013, Q-Chem Inc. Pittsburgh 
 -------------------------------------------------------
 ---------------------------------------
  Cycle       Energy         DIIS Error
 ---------------------------------------
    1   -5858.4241424226      1.83E-02
    2   -5803.1290437123      1.28E-03
    3   -5802.4282064488      1.74E-03
    4   -5803.9724844915      6.35E-04
    5   -5804.1794466385      3.24E-04
    6   -5804.2475577968      1.49E-04
    7   -5804.2622957224      5.27E-05
    8   -5804.2636645414      3.24E-05
    9   -5804.2644025074      8.14E-06 Convergence criterion met
 ---------------------------------------
 SCF time:  CPU 7449.99 s  wall 877.72 s
 SCF   energy in the final basis set = -5804.2644025074
 Total energy in the final basis set = -5804.2644025074
 
 --------------------------------------------------------------
 
                    Orbital Energies (a.u.)
 --------------------------------------------------------------
 
 Alpha MOs
 -- Occupied --
-19.195 -19.193 -19.130 -19.123 -10.309 -10.305 -10.251 -10.248
-10.247 -10.243 -10.238 -10.237 -10.235 -10.233 -10.232 -10.230
-10.229 -10.226 -10.226 -10.225 -10.224 -10.224 -10.224 -10.223
-10.223 -10.223 -10.223 -10.222 -10.222 -10.222 -10.222 -10.221
-10.220 -10.220 -10.220 -10.219 -10.219 -10.219 -10.219 -10.219
-10.219 -10.218 -10.218 -10.218 -10.218 -10.218 -10.218 -10.218
-10.218 -10.218 -10.217 -10.217 -10.217 -10.217 -10.216 -10.216
-10.216 -10.216 -10.216 -10.216 -10.215 -10.215 -10.215 -10.215
-10.215 -10.215 -10.215 -10.215 -10.215 -10.215 -10.214 -10.214
-10.214 -10.214 -10.214 -10.214 -10.214 -10.214 -10.214 -10.213
-10.213 -10.213 -10.213 -10.213 -10.213 -10.213 -10.213 -10.213
-10.213 -10.213 -10.212 -10.212 -10.212 -10.212 -10.212 -10.212
-10.212 -10.212 -10.212 -10.212 -10.212 -10.212 -10.211 -10.211
-10.211 -10.211 -10.211 -10.210 -10.210 -10.210 -10.210 -10.210
-10.210 -10.210 -10.210 -10.209 -10.209 -10.209 -10.209 -10.209
-10.209 -10.209 -10.209 -10.208 -10.208 -10.208 -10.208 -10.208
-10.208 -10.207 -10.206 -10.206 -10.202 -10.202 -10.201 -10.201
-10.200 -10.199 -10.199 -10.199 -10.198 -10.198 -10.198 -10.196
-10.195 -10.194 -10.192 -10.191  -1.098  -1.094  -1.012  -1.009
 -0.985  -0.980  -0.967  -0.966  -0.964  -0.962  -0.960  -0.959
 -0.936  -0.934  -0.929  -0.927  -0.924  -0.923  -0.922  -0.922
 -0.920  -0.918  -0.900  -0.894  -0.892  -0.888  -0.887  -0.885
 -0.877  -0.873  -0.854  -0.854  -0.844  -0.841  -0.839  -0.836
 -0.836  -0.835  -0.820  -0.817  -0.802  -0.799  -0.798  -0.796
 -0.795  -0.795  -0.793  -0.793  -0.791  -0.788  -0.786  -0.782
 -0.772  -0.771  -0.768  -0.768  -0.765  -0.765  -0.764  -0.760
 -0.753  -0.750  -0.742  -0.738  -0.734  -0.731  -0.718  -0.716
 -0.714  -0.712  -0.711  -0.711  -0.711  -0.710  -0.709  -0.708
 -0.708  -0.706  -0.705  -0.704  -0.702  -0.702  -0.677  -0.671
 -0.661  -0.658  -0.656  -0.655  -0.650  -0.646  -0.636  -0.628
 -0.628  -0.627  -0.625  -0.625  -0.623  -0.622  -0.620  -0.616
 -0.615  -0.614  -0.613  -0.612  -0.611  -0.610  -0.610  -0.609
 -0.607  -0.605  -0.603  -0.600  -0.567  -0.567  -0.564  -0.563
 -0.561  -0.560  -0.560  -0.558  -0.557  -0.555  -0.554  -0.551
 -0.537  -0.535  -0.534  -0.531  -0.530  -0.525  -0.525  -0.524
 -0.524  -0.523  -0.520  -0.518  -0.516  -0.516  -0.515  -0.511
 -0.506  -0.504  -0.498  -0.494  -0.492  -0.488  -0.485  -0.485
 -0.483  -0.482  -0.481  -0.479  -0.478  -0.476  -0.475  -0.474
 -0.472  -0.471  -0.470  -0.469  -0.468  -0.467  -0.466  -0.465
 -0.465  -0.464  -0.464  -0.462  -0.461  -0.460  -0.459  -0.456
 -0.455  -0.454  -0.452  -0.449  -0.448  -0.446  -0.446  -0.441
 -0.441  -0.440  -0.440  -0.437  -0.436  -0.434  -0.434  -0.431
 -0.429  -0.429  -0.428  -0.427  -0.426  -0.426  -0.424  -0.423
 -0.422  -0.421  -0.421  -0.420  -0.420  -0.419  -0.418  -0.418
 -0.417  -0.416  -0.415  -0.414  -0.413  -0.412  -0.412  -0.411
 -0.410  -0.409  -0.408  -0.408  -0.405  -0.400  -0.397  -0.396
 -0.395  -0.394  -0.391  -0.390  -0.389  -0.387  -0.386  -0.384
 -0.382  -0.382  -0.374  -0.372  -0.371  -0.368  -0.367  -0.367
 -0.365  -0.364  -0.363  -0.361  -0.360  -0.360  -0.359  -0.358
 -0.356  -0.355  -0.354  -0.354  -0.353  -0.352  -0.351  -0.350
 -0.350  -0.349  -0.348  -0.348  -0.347  -0.347  -0.346  -0.346
 -0.344  -0.343  -0.342  -0.340  -0.339  -0.338  -0.335  -0.333
 -0.332  -0.331  -0.329  -0.327  -0.326  -0.326  -0.325  -0.322
 -0.312  -0.310  -0.304  -0.297  -0.289  -0.287  -0.272  -0.270
 -0.269  -0.268  -0.266  -0.265  -0.265  -0.263  -0.263  -0.262
 -0.260  -0.260  -0.259  -0.258  -0.257  -0.257  -0.255  -0.254
 -0.248  -0.247  -0.243  -0.242  -0.225  -0.219  -0.212  -0.210
 -0.210  -0.208  -0.205  -0.205  -0.198  -0.194
 -- Virtual --
 -0.127  -0.120  -0.118  -0.115  -0.113  -0.109  -0.078  -0.077
 -0.074  -0.071  -0.065  -0.061  -0.058  -0.054  -0.025  -0.023
 -0.021  -0.019  -0.018  -0.018  -0.017  -0.015  -0.014  -0.013
 -0.012  -0.009  -0.008  -0.007  -0.003   0.001   0.004   0.010
  0.013   0.018   0.032   0.034   0.037   0.041   0.042   0.047
  0.050   0.053   0.054   0.056   0.058   0.064   0.065   0.068
  0.072   0.079   0.081   0.083   0.084   0.084   0.090   0.092
  0.093   0.095   0.097   0.098   0.100   0.101   0.104   0.106
  0.108   0.111   0.114   0.115   0.115   0.118   0.119   0.120
  0.123   0.124   0.126   0.126   0.130   0.131   0.137   0.138
  0.141   0.143   0.146   0.146   0.150   0.151   0.151   0.156
  0.157   0.158   0.161   0.163   0.164   0.165   0.167   0.169
  0.169   0.170   0.172   0.174   0.175   0.177   0.179   0.182
  0.183   0.184   0.187   0.188   0.190   0.191   0.192   0.192
  0.194   0.196   0.196   0.200   0.202   0.202   0.203   0.206
  0.208   0.211   0.212   0.213   0.215   0.217   0.218   0.219
  0.219   0.222   0.223   0.224   0.226   0.227   0.227   0.229
  0.231   0.231   0.233   0.234   0.236   0.238   0.239   0.240
  0.242   0.244   0.245   0.248   0.250   0.256   0.260   0.261
  0.262   0.266   0.268   0.275   0.276   0.278   0.279   0.280
  0.282   0.285   0.287   0.294   0.296   0.300   0.302   0.304
  0.306   0.309   0.310   0.312   0.313   0.315   0.315   0.319
  0.320   0.321   0.323   0.326   0.326   0.330   0.333   0.335
  0.337   0.340   0.343   0.344   0.346   0.348   0.351   0.352
  0.355   0.355   0.363   0.371   0.373   0.376   0.385   0.388
  0.392   0.395   0.397   0.397   0.404   0.405   0.407   0.409
  0.411   0.412   0.414   0.415   0.416   0.417   0.421   0.423
  0.427   0.428   0.430   0.436   0.439   0.441   0.443   0.445
  0.447   0.449   0.452   0.455   0.456   0.460   0.461   0.464
  0.464   0.467   0.468   0.469   0.471   0.474   0.474   0.476
  0.476   0.479   0.480   0.481   0.482   0.483   0.483   0.485
  0.486   0.488   0.488   0.490   0.490   0.491   0.492   0.493
  0.495   0.497   0.498   0.499   0.500   0.500   0.502   0.503
  0.505   0.507   0.507   0.508   0.509   0.511   0.511   0.512
  0.513   0.513   0.516   0.516   0.517   0.517   0.518   0.520
  0.520   0.521   0.522   0.522   0.523   0.524   0.525   0.525
  0.526   0.527   0.527   0.528   0.528   0.530   0.531   0.532
  0.533   0.534   0.534   0.536   0.536   0.537   0.538   0.538
  0.539   0.539   0.540   0.541   0.542   0.543   0.544   0.544
  0.545   0.546   0.547   0.548   0.549   0.549   0.550   0.551
  0.551   0.553   0.554   0.554   0.555   0.556   0.556   0.557
  0.557   0.559   0.560   0.560   0.561   0.562   0.563   0.564
  0.564   0.565   0.566   0.566   0.568   0.570   0.571   0.572
  0.572   0.575   0.575   0.576   0.576   0.577   0.578   0.579
  0.580   0.581   0.582   0.583   0.583   0.585   0.586   0.587
  0.587   0.588   0.589   0.589   0.590   0.591   0.592   0.593
  0.593   0.595   0.595   0.596   0.597   0.598   0.599   0.600
  0.601   0.601   0.603   0.603   0.605   0.606   0.607   0.609
  0.610   0.610   0.611   0.612   0.613   0.613   0.614   0.615
  0.616   0.618   0.619   0.620   0.623   0.625   0.626   0.626
  0.627   0.628   0.629   0.630   0.631   0.632   0.633   0.634
  0.635   0.636   0.636   0.637   0.638   0.639   0.640   0.640
  0.642   0.643   0.644   0.645   0.646   0.648   0.650   0.650
  0.652   0.652   0.653   0.654   0.655   0.656   0.658   0.658
  0.659   0.659   0.660   0.661   0.662   0.663   0.664   0.666
  0.667   0.667   0.669   0.669   0.670   0.671   0.672   0.673
  0.673   0.674   0.674   0.675   0.676   0.678   0.680   0.681
  0.682   0.683   0.683   0.685   0.686   0.687   0.689   0.690
  0.690   0.691   0.691   0.693   0.694   0.695   0.696   0.697
  0.698   0.700   0.702   0.702   0.703   0.703   0.705   0.705
  0.708   0.709   0.710   0.712   0.714   0.715   0.716   0.717
  0.719   0.720   0.721   0.722   0.724   0.725   0.725   0.727
  0.727   0.729   0.731   0.733   0.733   0.734   0.734   0.737
  0.737   0.739   0.740   0.742   0.744   0.745   0.746   0.748
  0.748   0.750   0.751   0.752   0.754   0.755   0.757   0.758
  0.759   0.761   0.761   0.762   0.765   0.766   0.767   0.769
  0.770   0.771   0.772   0.773   0.776   0.776   0.777   0.778
  0.779   0.781   0.783   0.784   0.786   0.787   0.788   0.791
  0.792   0.793   0.793   0.795   0.796   0.796   0.798   0.799
  0.800   0.801   0.802   0.804   0.805   0.805   0.807   0.808
  0.808   0.809   0.810   0.811   0.812   0.812   0.812   0.814
  0.815   0.816   0.816   0.817   0.818   0.819   0.820   0.821
  0.822   0.822   0.823   0.824   0.825   0.827   0.827   0.827
  0.828   0.830   0.831   0.832   0.833   0.834   0.836   0.837
  0.839   0.841   0.843   0.845   0.848   0.852   0.853   0.854
  0.855   0.858   0.861   0.863   0.864   0.867   0.867   0.871
  0.875   0.879   0.881   0.885   0.889   0.891   0.894   0.896
  0.897   0.901   0.903   0.907   0.909   0.912   0.914   0.917
  0.918   0.920   0.922   0.923   0.926   0.928   0.930   0.930
  0.933   0.934   0.935   0.936   0.938   0.940   0.941   0.942
  0.944   0.946   0.947   0.949   0.950   0.952   0.954   0.957
  0.957   0.960   0.962   0.964   0.966   0.971   0.973   0.975
  0.979   0.981   0.983   0.986   0.988   0.989   0.992   0.993
  0.997   0.999   0.999   1.004   1.005   1.006   1.008   1.009
  1.012   1.013   1.015   1.017   1.019   1.020   1.022   1.023
  1.024   1.026   1.026   1.028   1.032   1.033   1.035   1.037
  1.040   1.043   1.044   1.045   1.046   1.046   1.048   1.050
  1.051   1.053   1.054   1.057   1.058   1.060   1.062   1.063
  1.064   1.067   1.069   1.069   1.072   1.072   1.074   1.076
  1.076   1.078   1.078   1.081   1.083   1.083   1.089   1.090
  1.091   1.093   1.095   1.097   1.099   1.100   1.102   1.104
  1.106   1.107   1.109   1.112   1.114   1.116   1.118   1.118
  1.122   1.124   1.125   1.128   1.130   1.133   1.135   1.137
  1.138   1.142   1.144   1.145   1.146   1.148   1.150   1.152
  1.154   1.157   1.158   1.160   1.161   1.163   1.164   1.167
  1.168   1.169   1.171   1.173   1.173   1.175   1.176   1.177
  1.182   1.183   1.185   1.186   1.189   1.189   1.191   1.193
  1.194   1.196   1.198   1.200   1.201   1.202   1.204   1.206
  1.210   1.213   1.214   1.219   1.223   1.224   1.225   1.227
  1.232   1.233   1.234   1.239   1.240   1.242   1.245   1.248
  1.251   1.253   1.253   1.255   1.257   1.260   1.263   1.265
  1.268   1.270   1.272   1.273   1.275   1.276   1.278   1.279
  1.283   1.284   1.286   1.287   1.290   1.292   1.294   1.295
  1.297   1.298   1.302   1.308   1.309   1.312   1.315   1.316
  1.321   1.325   1.326   1.328   1.331   1.332   1.335   1.335
  1.338   1.339   1.340   1.342   1.346   1.347   1.349   1.350
  1.352   1.354   1.357   1.359   1.359   1.362   1.363   1.366
  1.368   1.372   1.374   1.376   1.379   1.380   1.383   1.386
  1.390   1.392   1.394   1.396   1.399   1.403   1.404   1.406
  1.407   1.410   1.415   1.416   1.418   1.419   1.423   1.429
  1.430   1.434   1.435   1.439   1.440   1.444   1.448   1.449
  1.451   1.452   1.456   1.458   1.460   1.461   1.464   1.466
  1.467   1.468   1.469   1.472   1.473   1.474   1.476   1.479
  1.482   1.483   1.484   1.488   1.490   1.493   1.494   1.496
  1.499   1.500   1.505   1.508   1.511   1.513   1.515   1.518
  1.521   1.524   1.525   1.528   1.532   1.534   1.535   1.541
  1.543   1.544   1.545   1.548   1.551   1.552   1.553   1.557
  1.559   1.562   1.564   1.564   1.565   1.569   1.574   1.574
  1.580   1.581   1.584   1.587   1.589   1.590   1.593   1.594
  1.600   1.602   1.602   1.606   1.610   1.612   1.620   1.621
  1.624   1.627   1.630   1.631   1.636   1.638   1.638   1.640
  1.645   1.648   1.650   1.654   1.657   1.662   1.666   1.668
  1.672   1.676   1.679   1.685   1.688   1.689   1.692   1.694
  1.696   1.701   1.705   1.705   1.709   1.713   1.714   1.716
  1.718   1.721   1.722   1.725   1.727   1.729   1.731   1.734
  1.735   1.737   1.738   1.740   1.741   1.742   1.744   1.746
  1.748   1.751   1.752   1.753   1.756   1.757   1.758   1.761
  1.762   1.764   1.765   1.767   1.768   1.769   1.770   1.771
  1.772   1.774   1.774   1.777   1.778   1.779   1.780   1.781
  1.782   1.783   1.785   1.785   1.787   1.787   1.788   1.790
  1.792   1.793   1.794   1.795   1.796   1.797   1.798   1.799
  1.800   1.802   1.803   1.806   1.807   1.809   1.809   1.810
  1.813   1.815   1.816   1.819   1.819   1.822   1.826   1.827
  1.829   1.830   1.835   1.837   1.839   1.841   1.842   1.843
  1.844   1.846   1.849   1.850   1.852   1.855   1.857   1.859
  1.861   1.861   1.864   1.864   1.865   1.867   1.870   1.873
  1.874   1.876   1.876   1.878   1.879   1.881   1.882   1.884
  1.886   1.889   1.891   1.893   1.895   1.897   1.898   1.901
  1.902   1.905   1.910   1.913   1.914   1.915   1.918   1.920
  1.922   1.923   1.925   1.926   1.928   1.932   1.934   1.935
  1.937   1.938   1.941   1.942   1.944   1.946   1.948   1.949
  1.954   1.955   1.958   1.960   1.963   1.965   1.969   1.970
  1.972   1.973   1.976   1.977   1.978   1.979   1.984   1.985
  1.988   1.989   1.990   1.991   1.994   1.995   1.996   1.998
  1.999   2.001   2.001   2.003   2.005   2.007   2.007   2.008
  2.009   2.010   2.011   2.013   2.013   2.016   2.018   2.019
  2.020   2.021   2.022   2.023   2.024   2.025   2.026   2.027
  2.028   2.029   2.030   2.031   2.033   2.034   2.036   2.037
  2.039   2.040   2.041   2.042   2.044   2.046   2.047   2.048
  2.049   2.050   2.050   2.053   2.054   2.054   2.056   2.056
  2.058   2.059   2.060   2.063   2.063   2.064   2.066   2.066
  2.067   2.070   2.071   2.073   2.074   2.077   2.078   2.082
  2.083   2.084   2.085   2.087   2.089   2.090   2.094   2.095
  2.096   2.098   2.098   2.104   2.105   2.107   2.107   2.110
  2.113   2.114   2.116   2.118   2.118   2.120   2.122   2.125
  2.128   2.130   2.136   2.141   2.143   2.146   2.148   2.151
  2.154   2.158   2.161   2.166   2.170   2.172   2.176   2.178
  2.180   2.185   2.186   2.189   2.190   2.196   2.197   2.202
  2.204   2.209   2.212   2.214   2.217   2.219   2.225   2.227
  2.228   2.230   2.232   2.235   2.238   2.239   2.244   2.246
  2.248   2.250   2.255   2.255   2.257   2.260   2.264   2.266
  2.268   2.272   2.273   2.274   2.275   2.280   2.283   2.287
  2.289   2.293   2.294   2.296   2.299   2.300   2.304   2.304
  2.306   2.307   2.309   2.312   2.314   2.317   2.321   2.323
  2.324   2.327   2.329   2.330   2.335   2.338   2.341   2.343
  2.344   2.346   2.349   2.351   2.352   2.354   2.357   2.358
  2.359   2.361   2.363   2.366   2.366   2.367   2.369   2.371
  2.372   2.373   2.375   2.376   2.380   2.382   2.384   2.384
  2.385   2.386   2.387   2.389   2.392   2.393   2.395   2.396
  2.399   2.400   2.401   2.403   2.404   2.405   2.405   2.408
  2.409   2.410   2.413   2.414   2.416   2.418   2.420   2.422
  2.424   2.425   2.429   2.430   2.436   2.436   2.439   2.441
  2.443   2.445   2.447   2.449   2.453   2.456   2.457   2.462
  2.463   2.466   2.467   2.468   2.469   2.471   2.474   2.476
  2.479   2.481   2.482   2.485   2.488   2.490   2.491   2.493
  2.494   2.496   2.497   2.500   2.500   2.502   2.505   2.507
  2.509   2.511   2.512   2.515   2.517   2.518   2.521   2.523
  2.526   2.527   2.529   2.531   2.532   2.536   2.538   2.540
  2.543   2.548   2.551   2.552   2.555   2.556   2.565   2.567
  2.569   2.572   2.575   2.577   2.581   2.584   2.587   2.588
  2.590   2.593   2.594   2.597   2.601   2.602   2.608   2.609
  2.611   2.612   2.614   2.615   2.616   2.618   2.620   2.624
  2.625   2.626   2.631   2.633   2.634   2.634   2.635   2.641
  2.642   2.643   2.644   2.644   2.647   2.647   2.651   2.652
  2.653   2.655   2.655   2.657   2.659   2.660   2.662   2.663
  2.665   2.666   2.668   2.670   2.672   2.672   2.675   2.676
  2.677   2.679   2.681   2.683   2.685   2.686   2.686   2.689
  2.691   2.693   2.696   2.703   2.703   2.704   2.706   2.710
  2.712   2.715   2.715   2.719   2.720   2.724   2.726   2.728
  2.729   2.730   2.734   2.736   2.740   2.741   2.742   2.743
  2.746   2.746   2.751   2.753   2.756   2.758   2.759   2.761
  2.763   2.767   2.769   2.771   2.773   2.775   2.776   2.780
  2.781   2.782   2.785   2.786   2.791   2.792   2.792   2.797
  2.800   2.801   2.806   2.808   2.810   2.811   2.813   2.820
  2.820   2.826   2.830   2.833   2.833   2.837   2.840   2.841
  2.844   2.844   2.850   2.851   2.854   2.857   2.857   2.859
  2.864   2.868   2.869   2.870   2.871   2.874   2.874   2.875
  2.878   2.881   2.882   2.883   2.885   2.888   2.889   2.892
  2.894   2.896   2.899   2.899   2.901   2.904   2.906   2.908
  2.908   2.909   2.911   2.912   2.913   2.914   2.916   2.918
  2.919   2.923   2.924   2.926   2.928   2.930   2.933   2.935
  2.938   2.943   2.944   2.944   2.948   2.953   2.955   2.960
  2.961   2.965   2.967   2.970   2.973   2.975   2.979   2.982
  2.986   2.987   2.988   2.992   2.994   2.998   3.000   3.004
  3.006   3.010   3.011   3.012   3.013   3.020   3.023   3.026
  3.029   3.032   3.036   3.037   3.040   3.041   3.043   3.044
  3.050   3.053   3.055   3.057   3.063   3.067   3.070   3.072
  3.073   3.078   3.081   3.082   3.083   3.089   3.104   3.105
  3.113   3.114   3.127   3.132   3.135   3.141   3.143   3.150
  3.151   3.154   3.164   3.174   3.180   3.183   3.186   3.188
  3.191   3.197   3.198   3.212   3.219   3.231   3.237   3.241
  3.248   3.256   3.257   3.258   3.262   3.273   3.274   3.283
  3.291   3.300   3.301   3.307   3.310   3.323   3.331   3.334
  3.339   3.343   3.348   3.351   3.353   3.360   3.374   3.383
  3.396   3.407   3.416   3.423   3.430   3.441   3.448   3.456
  3.457   3.460   3.467   3.470   3.474   3.479   3.481   3.484
  3.503   3.506   3.519   3.531   3.540   3.542   3.545   3.548
  3.552   3.563   3.568   3.577   3.579   3.582   3.599   3.604
  3.614   3.618   3.678   3.684   3.866   3.884   4.013   4.050
  4.072   4.075   4.084   4.085   4.087   4.091   4.097   4.099
  4.101   4.101   4.107   4.110   4.114   4.117   4.122   4.128
  4.129   4.130   4.134   4.141   4.150   4.152   4.157   4.158
  4.161   4.164   4.166   4.169   4.175   4.178   4.184   4.186
  4.187   4.191   4.198   4.207   4.210   4.219   4.236   4.238
  4.244   4.247   4.251   4.254   4.258   4.259   4.263   4.269
  4.274   4.276   4.277   4.285   4.288   4.290   4.301   4.310
  4.316   4.318   4.327   4.362   4.380   4.384   4.392   4.395
  4.397   4.400   4.401   4.408   4.412   4.413   4.418   4.423
  4.425   4.428   4.429   4.438   4.443   4.452   4.460   4.484
  4.490   4.493   4.503   4.506   4.527   4.536   4.549   4.551
  4.561   4.568   4.616   4.620   4.624   4.628   4.631   4.637
  4.643   4.650   4.679   4.684   4.692   4.695   4.697   4.703
  4.704   4.709   4.712   4.721   4.756   4.765   4.781   4.838
  4.849   4.850   4.860   4.864   4.881   4.882   4.884   4.892
  4.902   4.909   4.941   4.946   4.960   4.962   4.975   4.979
  4.982   5.001   5.013   5.019   5.146   5.159   5.177   5.183
  5.195   5.211   5.217   5.229   5.301   5.314   5.344   5.353
  5.358   5.377
 --------------------------------------------------------------
 
          Ground-State Mulliken Net Atomic Charges

     Atom                 Charge (a.u.)
  ----------------------------------------
      1 O                    -0.461951
      2 C                    -0.095935
      3 H                     0.124679
      4 H                     0.134621
      5 H                     0.120679
      6 O                    -0.455597
      7 C                     0.573287
      8 C                    -0.250190
      9 H                     0.138611
     10 H                     0.115270
     11 C                    -0.193173
     12 H                     0.120133
     13 H                     0.114974
     14 C                    -0.177979
     15 H                     0.112595
     16 H                     0.113658
     17 C                     0.009522
     18 C                     0.087318
     19 C                    -0.113161
     20 H                     0.088949
     21 C                    -0.083619
     22 H                     0.097086
     23 C                    -0.098436
     24 H                     0.087563
     25 C                    -0.080437
     26 H                     0.090524
     27 C                    -0.105021
     28 H                     0.089126
     29 C                    -0.003078
     30 C                    -0.010070
     31 C                    -0.022080
     32 C                    -0.006304
     33 C                     0.012853
     34 C                    -0.009322
     35 C                    -0.033554
     36 C                     0.007921
     37 C                     0.013242
     38 C                     0.013266
     39 C                    -0.108156
     40 C                     0.004211
     41 C                    -0.004939
     42 C                    -0.008341
     43 C                     0.033038
     44 C                    -0.008641
     45 C                    -0.064075
     46 C                     0.017269
     47 C                    -0.002195
     48 C                    -0.006967
     49 C                    -0.002065
     50 C                     0.000208
     51 C                     0.019809
     52 C                    -0.016455
     53 C                     0.025937
     54 C                    -0.006850
     55 C                     0.019647
     56 C                     0.010510
     57 C                    -0.011947
     58 C                     0.029847
     59 C                    -0.011351
     60 C                     0.025217
     61 C                    -0.021877
     62 C                    -0.014854
     63 C                    -0.019701
     64 C                     0.009282
     65 C                     0.012690
     66 C                    -0.013306
     67 C                     0.008133
     68 C                    -0.009827
     69 C                    -0.034879
     70 C                     0.043236
     71 C                    -0.023946
     72 C                     0.030224
     73 C                     0.008669
     74 C                    -0.004932
     75 C                     0.015700
     76 C                    -0.015113
     77 C                     0.011190
     78 C                    -0.008162
     79 C                     0.026904
     80 C                    -0.031043
     81 C                     0.018741
     82 C                    -0.020814
     83 C                     0.010152
     84 C                    -0.016876
     85 C                     0.015872
     86 C                     0.002240
     87 C                     0.004226
     88 C                     0.022490
     89 O                    -0.472501
     90 C                    -0.095170
     91 H                     0.140301
     92 H                     0.127962
     93 H                     0.139162
     94 O                    -0.469621
     95 C                     0.595518
     96 C                    -0.247166
     97 H                     0.120131
     98 H                     0.133088
     99 C                    -0.196148
    100 H                     0.126671
    101 H                     0.115486
    102 C                    -0.186474
    103 H                     0.118185
    104 H                     0.117911
    105 C                    -0.022779
    106 C                     0.117319
    107 C                    -0.089454
    108 H                     0.083950
    109 C                    -0.105550
    110 H                     0.092489
    111 C                    -0.081506
    112 H                     0.093891
    113 C                    -0.086354
    114 H                     0.088769
    115 C                    -0.116471
    116 H                     0.086697
    117 C                     0.002352
    118 C                     0.014221
    119 C                     0.008887
    120 C                    -0.020397
    121 C                     0.000630
    122 C                    -0.005014
    123 C                    -0.009864
    124 C                    -0.008153
    125 C                     0.011289
    126 C                    -0.005265
    127 C                    -0.090162
    128 C                    -0.015424
    129 C                     0.021222
    130 C                     0.000840
    131 C                    -0.003961
    132 C                    -0.003743
    133 C                    -0.069966
    134 C                     0.019620
    135 C                     0.004543
    136 C                    -0.044444
    137 C                     0.005814
    138 C                     0.006117
    139 C                     0.011983
    140 C                     0.010046
    141 C                     0.024290
    142 C                    -0.018567
    143 C                    -0.019329
    144 C                    -0.008935
    145 C                     0.010978
    146 C                     0.030135
    147 C                     0.003996
    148 C                     0.012676
    149 C                    -0.011567
    150 C                    -0.030973
    151 C                     0.022284
    152 C                    -0.003934
    153 C                    -0.019704
    154 C                     0.026787
    155 C                    -0.006817
    156 C                    -0.002486
    157 C                    -0.001867
    158 C                    -0.005412
    159 C                     0.005472
    160 C                     0.028245
    161 C                    -0.012213
    162 C                    -0.040603
    163 C                    -0.017424
    164 C                     0.013182
    165 C                    -0.020997
    166 C                    -0.026453
    167 C                    -0.021939
    168 C                     0.021447
    169 C                     0.016979
    170 C                     0.009987
    171 C                    -0.002796
    172 C                     0.002116
    173 C                     0.007555
    174 C                     0.020558
    175 C                     0.009565
    176 C                     0.032155
  ----------------------------------------
  Sum of atomic charges =     0.000000

 -----------------------------------------------------------------
                    Cartesian Multipole Moments
 -----------------------------------------------------------------
    Charge (ESU x 10^10)
                 0.0000
    Dipole Moment (Debye)
         X      -0.9436      Y      -1.1916      Z      -2.0162
       Tot       2.5250
    Quadrupole Moments (Debye-Ang)
        XX    -823.6749     XY       9.9099     YY    -761.7520
        XZ       1.0006     YZ       3.6425     ZZ    -797.8419
    Octopole Moments (Debye-Ang^2)
       XXX     -28.9695    XXY     -14.0200    XYY       1.6117
       YYY     -94.8861    XXZ    -120.7797    XYZ       7.2721
       YYZ    -230.8014    XZZ      -9.7977    YZZ     -10.2357
       ZZZ    -385.0393
    Hexadecapole Moments (Debye-Ang^3)
      XXXX -114663.9995   XXXY     274.0409   XXYY  -25644.0167
      XYYY    1199.2175   YYYY  -41113.1033   XXXZ     -17.1103
      XXYZ      -5.0589   XYYZ     -30.8299   YYYZ     431.9635
      XXZZ  -23826.6305   XYZZ     -95.1040   YYZZ  -10613.9157
      XZZZ      70.7370   YZZZ    -339.9269   ZZZZ  -27719.2645
 -----------------------------------------------------------------
Archival summary:
1\1\mn366\SP\ProcedureUnspecified\6-31G**\428\afmv_a\SatOct603:54:472018SatOct603:54:472018\0\\#,ProcedureUnspecified,6-31G**,\\0,1\O\C,1,1.20477\O,2,1.34718,1,126.878\C,2,1.47091,1,119.655,3,-179.325,0\H,4,1.09656,2,108.851,1,-9.81427,0\H,4,1.09685,2,107.004,1,-122.808,0\C,3,1.49463,2,116.283,1,11.3179,0\H,7,1.09674,3,107.226,2,153.105,0\H,7,1.09712,3,109.424,2,41.3088,0\H,7,1.09722,3,110.295,2,-80.3706,0\C,4,1.60682,2,116.309,1,113.319,0\H,11,1.09664,4,112.362,2,76.6362,0\H,11,1.09684,4,109.849,2,-41.3229,0\C,11,1.5905,4,113.029,2,-157.806,0\H,14,1.09673,11,114.549,4,168.297,0\H,14,1.09704,11,111.311,4,51.2593,0\C,14,1.62652,11,117.286,4,-57.5137,0\C,17,1.45013,14,115.074,11,-53.5819,0\C,18,1.39457,17,119.983,14,-78.2612,0\H,19,1.08587,18,108.223,17,-5.81997,0\C,19,1.38038,18,122.727,17,171.28,0\H,21,1.08659,19,119.09,18,177.226,0\C,18,1.41465,17,122.259,14,89.3771,0\H,23,1.08605,18,117.298,17,15.3284,0\C,23,1.40256,18,120.73,17,-168.962,0\H,25,1.08486,23,120.119,18,-178.814,0\C,25,1.37022,23,121.785,18,-0.298979,0\H,27,1.0866,25,118.723,23,-173.248,0\C,17,1.5047,14,116.67,11,165.232,0\C,29,1.45206,17,128.735,14,-7.82456,0\C,30,1.42774,29,111.303,17,143.175,0\C,31,1.39932,30,105.568,29,14.1295,0\C,32,1.38066,31,110.009,30,-8.01142,0\C,32,1.40484,31,118.745,30,141.655,0\C,34,1.36467,32,120.05,31,0.403293,0\C,34,1.39504,32,123.005,31,-144.868,0\C,35,1.39591,34,122.394,32,-0.216452,0\C,37,1.39473,35,118.821,34,-136.619,0\C,38,1.37421,37,106.499,35,136.579,0\C,36,1.39734,34,109.55,32,150.813,0\C,40,1.38932,36,105.606,34,-0.294785,0\C,39,1.40102,38,111.322,37,5.10624,0\C,42,1.37533,39,104.414,38,-6.82021,0\C,36,1.41284,34,116.363,32,7.89587,0\C,44,1.35899,36,123.108,34,136.65,0\C,45,1.37088,44,108.643,36,-145.337,0\C,46,1.38759,45,119.741,44,146.146,0\C,47,1.37546,46,118.2,45,-140.032,0\C,47,1.38487,46,117.143,45,-4.99165,0\C,49,1.38756,47,123.225,46,3.72689,0\C,50,1.37806,49,119.992,47,1.69263,0\C,46,1.38867,45,109.068,44,-1.25697,0\C,52,1.36386,46,108.389,45,1.03365,0\C,52,1.38998,46,121.414,45,148.036,0\C,49,1.39535,47,109.504,46,-138.946,0\C,48,1.41172,47,106.137,46,138.727,0\C,56,1.39819,48,118.887,47,-139.295,0\C,57,1.41034,56,119.103,48,-3.93924,0\C,57,1.41153,56,123.155,48,142.394,0\C,58,1.4148,57,123.641,56,5.17011,0\C,60,1.37608,58,115.243,57,-3.53909,0\C,60,1.37857,58,122.767,57,139.1,0\C,62,1.39355,60,115.966,58,-6.12612,0\C,63,1.40721,62,122.404,60,14.458,0\C,64,1.38027,63,119.382,62,-15.0695,0\C,63,1.408,62,121.489,60,-132.618,0\C,66,1.34853,63,110.906,62,147.934,0\C,40,1.41597,36,115.071,34,-139.584,0\C,64,1.41614,63,103.445,62,-147.762,0\C,59,1.41865,57,107.088,56,-147.303,0\C,70,1.4024,59,121.288,57,140.097,0\C,71,1.38829,70,120.027,59,-132.864,0\C,72,1.39972,71,111.215,70,138.465,0\C,68,1.42073,40,117.449,36,133.299,0\C,74,1.39647,68,120.946,40,1.67819,0\C,75,1.41139,74,118.546,68,-139.835,0\C,76,1.40963,75,121.893,74,1.50194,0\C,77,1.36212,76,118.258,75,-3.15552,0\C,78,1.37569,77,107.632,76,145.013,0\C,79,1.38646,78,109.851,77,6.89936,0\C,78,1.39825,77,122.04,76,3.06319,0\C,77,1.40896,76,122.845,75,138.248,0\C,82,1.39681,77,120.065,76,-3.9954,0\C,83,1.37343,82,117.361,77,-1.09063,0\C,84,1.3746,83,122.704,82,3.95117,0\C,85,1.43097,84,119.219,83,-145.221,0\C,86,1.41453,85,106.326,84,145.173,0\C,62,1.5204,60,111.384,58,-149.6,0\C,13,2.63674,11,147.659,4,-64.2674,0\C,89,1.37838,13,84.7993,11,12.9978,0\C,90,1.37837,89,119.953,13,-100.769,0\C,91,1.39019,90,121.855,89,4.30874,0\C,92,1.39927,91,120.172,90,-1.98595,0\C,93,1.39744,92,103.699,91,-133.579,0\C,94,1.37696,93,121.094,92,139.771,0\C,95,1.3969,94,122.262,93,-146.976,0\C,96,1.3938,95,107.369,94,147.003,0\C,94,1.40258,93,112.684,92,-5.06406,0\C,98,1.40429,94,106.837,93,4.64253,0\C,89,1.40637,13,123.669,11,134.26,0\C,100,1.3921,89,108.163,13,113.457,0\C,101,1.40294,100,107.663,89,2.35198,0\C,102,1.37057,101,117.128,100,138.807,0\C,102,1.40511,101,110.06,100,-2.8981,0\C,103,1.40969,102,120.137,101,3.54205,0\C,96,1.41366,95,119.708,94,1.78424,0\C,106,1.36697,96,120.108,95,-2.12995,0\C,106,1.38192,96,119.474,95,139.995,0\C,100,1.41499,89,120.607,13,-96.1671,0\C,109,1.38404,100,121.669,89,-2.13071,0\C,109,1.40298,100,117.819,89,-147.77,0\C,111,1.39417,109,103.406,100,136.574,0\C,112,1.4017,111,110.555,109,8.29861,0\C,112,1.40464,111,124.664,109,-144.77,0\C,114,1.3745,112,118.217,111,145.261,0\C,114,1.40168,112,117.612,111,10.1702,0\C,115,1.41505,114,122.636,112,0.222325,0\C,117,1.36146,115,119.877,114,8.18856,0\C,117,1.41195,115,124.601,114,-141.414,0\C,97,1.41931,96,117.729,95,-141.715,0\C,120,1.38511,97,120.932,96,0.0107109,0\C,121,1.4057,120,108.407,97,139.769,0\C,122,1.39519,121,120.918,120,-144.818,0\C,123,1.39187,122,119.785,121,140.953,0\C,120,1.40693,97,118.414,96,134.198,0\C,125,1.3904,120,111.754,97,-142.195,0\C,126,1.37422,125,124.901,120,146.995,0\C,127,1.40627,126,119.338,125,-130.842,0\C,125,1.40929,120,121.636,97,3.70155,0\C,129,1.38499,125,120.338,120,-1.81276,0\C,129,1.38585,125,121.396,120,-141.642,0\C,130,1.38721,129,109.016,125,-145.249,0\C,132,1.39914,130,107.996,129,0.51736,0\C,123,1.42478,122,118.905,121,6.06101,0\C,134,1.37928,123,108.159,122,142.342,0\C,135,1.37166,134,118.799,123,-148.599,0\C,135,1.40861,134,109.554,123,-1.35617,0\C,134,1.42625,123,121.135,122,-11.1747,0\C,138,1.37283,134,116.403,123,143.236,0\C,90,1.42674,89,120.352,13,117.242,0\C,118,1.42755,117,108.698,115,-149.164,0\C,136,1.4293,135,119.546,134,2.56358,0\C,142,1.42145,136,106.742,135,140.137,0\C,143,1.38458,142,112.691,136,1.08538,0\C,144,1.39368,143,118.917,142,-131.701,0\C,145,1.4026,144,125.412,143,137.453,0\C,119,1.46966,117,109.893,115,152.413,0\C,147,1.46933,119,118.951,117,-137.833,0\C,148,1.49335,147,61.3934,119,-117.111,0\C,149,1.5201,148,116.992,147,109.827,0\C,150,1.37879,149,117.66,148,51.7783,0\H,151,1.08614,150,117.595,149,16.9864,0\C,151,1.39487,150,124.041,149,-171.355,0\H,153,1.08656,151,121.531,150,176.768,0\C,150,1.42388,149,123.471,148,-116.736,0\H,155,1.08536,150,123.183,149,-9.83372,0\C,155,1.35034,150,120.716,149,170.926,0\H,157,1.08597,155,119.53,150,-173.108,0\C,157,1.41477,155,120.7,150,-2.0594,0\H,159,1.0857,157,117.873,155,178.696,0\C,149,1.53601,148,120.224,147,-109.67,0\H,161,1.09688,149,105.362,148,22.3237,0\H,161,1.09695,149,112.112,148,-92.7631,0\C,161,1.53958,149,115.473,148,139.117,0\H,164,1.09611,161,114.277,149,48.6216,0\H,164,1.09694,161,111.042,149,-67.5645,0\C,164,1.56427,161,109.88,149,178.607,0\H,167,1.09691,164,113.592,161,49.9056,0\H,167,1.09694,164,108.183,161,-69.2395,0\C,167,1.50805,164,118.636,161,174.412,0\O,170,1.19154,167,120.007,164,-96.3101,0\O,170,1.3468,167,118.158,164,82.1719,0\C,172,1.46501,170,116.589,167,174.315,0\H,173,1.09671,172,119.596,170,58.2727,0\H,173,1.09734,172,114.221,170,-172.643,0\H,173,1.09796,172,110.98,170,-59.8287,0\\\@

 Total job time:  893.78s(wall), 7476.01s(cpu) 
 Sat Oct  6 03:54:47 2018

        *************************************************************
        *                                                           *
        *  Thank you very much for using Q-Chem.  Have a nice day.  *
        *                                                           *
        *************************************************************


