
Running Job 1 of 1 ./7/12.qcin
qchem ./7/12.qcin_134974.0 /tmpu/cab_g/afmv_a/scratch_qchem/qchem134974/ 1
/tmpu/appuserlic/qchem4.4/serial-multicore/exe/qcprog.exe_s ./7/12.qcin_134974.0 /tmpu/cab_g/afmv_a/scratch_qchem/qchem134974/
Check license passed

                  Welcome to Q-Chem
     A Quantum Leap Into The Future Of Chemistry


 Q-Chem 4.4, Q-Chem, Inc., Pleasanton, CA (2016)

 Y. Shao,  Z. Gan,  E. Epifanovsky,  A. T. B. Gilbert,  M. Wormit,  
 J. Kussmann,  A. W. Lange,  A. Behn,  J. Deng,  X. Feng,  D. Ghosh,  
 M. Goldey,  P. R. Horn,  L. D. Jacobson,  I. Kaliman,  F. Rob,  
 R. Z. Khaliullin,  T. Kus,  A. Landau,  J. Liu,  E. I. Proynov,  Y. M. Rhee,  
 R. M. Richard,  M. A. Rohrdanz,  R. P. Steele,  E. J. Sundstrom,  
 H. L. Woodcock III,  P. M. Zimmerman,  D. Zuev,  B. Albrecht,  E. Alguire,  
 B. Austin,  S. A. Baeppler,  G. J. O. Beran,  Y. A. Bernard,  E. Berquist,  
 K. Brandhorst,  K. B. Bravaya,  S. T. Brown,  D. Casanova,  C.-M. Chang,  
 Y. Chen,  S. H. Chien,  K. D. Closser,  M. P. Coons,  D. L. Crittenden,  
 S. Dasgupta,  M. Diedenhofen,  R. A. DiStasio Jr.,  H. Do,  A. D. Dutoi,  
 R. G. Edgar,  P.-T. Fang,  S. Fatehi,  Q. Feng,  L. Fusti-Molnar,  
 A. Ghysels,  A. Golubeva-Zadorozhnaya,  J. Gomes,  A. Gunina,  
 M. W. D. Hanson-Heine,  P. H. P. Harbach,  A. W. Hauser,  J. E. Herr,  
 E. G. Hohenstein,  Z. C. Holden,  K. Hui,  T.-C. Jagau,  H. Ji,  B. Kaduk,  
 K. Khistyaev,  Jaehoon Kim,  Jihan Kim,  R. A. King,  P. Klunzinger,  
 K. Koh,  D. Kosenkov,  T. Kowalczyk,  C. M. Krauter,  A. Kunitsa,  
 K. U. Lao,  A. Laurent,  K. V. Lawler,  J. Lee,  D. Lefrancois,  S. Lehtola,  
 S. V. Levchenko,  C. Y. Lin,  Y.-S. Lin,  F. Liu,  E. Livshits,  
 R. C. Lochan,  A. Luenser,  P. Manohar,  S. F. Manzer,  S.-P. Mao,  Y. Mao,  
 N. Mardirossian,  A. V. Marenich,  L. A. Martinez-Martinez,  S. A. Maurer,  
 N. J. Mayhall,  J.-M. Mewes,  A. F. Morrison,  K. Nanda,  T. S. Nguyen-Beck,  
 C. M. Oana,  R. Olivares-Amaya,  D. P. O'Neill,  J. A. Parkhill,  
 T. M. Perrine,  R. Peverati,  P. A. Pieniazek,  F. Plasser,  A. Prociuk,  
 D. R. Rehn,  E. Rosta,  N. J. Russ,  N. Sergueev,  S. M. Sharada,  
 S. Sharma,  D. W. Small,  A. Sodt,  T. Stauch,  T. Stein,  D. Stuck,  
 Y.-C. Su,  A. J. W. Thom,  T. Tsuchimochi,  L. Vogt,  O. Vydrov,  T. Wang,  
 M. A. Watson,  J. Wenzel,  A. White,  C. F. Williams,  V. Vanovschi,  
 K. Yao,  S. Yeganeh,  S. R. Yost,  Z.-Q. You,  I. Y. Zhang,  X. Zhang,  
 Y. Zhao,  B. R. Brooks,  G. K. L. Chan,  D. M. Chipman,  C. J. Cramer,  
 W. A. Goddard III,  M. S. Gordon,  W. J. Hehre,  A. Klamt,  
 H. F. Schaefer III,  M. W. Schmidt,  C. D. Sherrill,  D. G. Truhlar,  
 A. Warshel,  X. Xu,  A. Aspuru-Guzik,  R. Baer,  A. T. Bell,  N. A. Besley,  
 J.-D. Chai,  A. Dreuw,  B. D. Dunietz,  T. R. Furlani,  S. R. Gwaltney,  
 C.-P. Hsu,  Y. Jung,  J. Kong,  D. S. Lambrecht,  W. Liang,  C. Ochsenfeld,  
 V. A. Rassolov,  L. V. Slipchenko,  J. E. Subotnik,  T. Van Voorhis,  
 J. M. Herbert,  A. I. Krylov,  P. M. W. Gill,  M. Head-Gordon

 Contributors to earlier versions of Q-Chem not listed above: 
 R. D. Adamson,  J. Baker,  E. F. C. Byrd,  A. K. Chakraborty,  C.-L. Cheng,  
 H. Dachsel,  R. J. Doerksen,  G. Hawkins,  A. Heyden,  S. Hirata,  
 G. Kedziora,  F. J. Keil,  C. Kelley,  P. P. Korambath,  W. Kurlancheek,  
 A. M. Lee,  M. S. Lee,  D. Liotard,  I. Lotan,  P. E. Maslen,  N. Nair,  
 D. Neuhauser,  R. Olson,  B. Peters,  J. Ritchie,  N. E. Schultz,  
 N. Shenvi,  A. C. Simmonett,  K. S. Thanthiriwatte,  Q. Wu,  W. Zhang

 Please cite Q-Chem as follows:
 Y. Shao et al., Mol. Phys. 113, 184-215 (2015)
 DOI: 10.1080/00268976.2014.952696

 Q-Chem 4.4.2 for Intel X86 Linux

 Parts of Q-Chem use Armadillo 5.200.1 (Boston Tea Smuggler).
 http://arma.sourceforge.net/

 Q-Chem begins on Sat Oct  6 03:54:48 2018  

Host: 
0

     Scratch files written to /tmpu/cab_g/afmv_a/scratch_qchem/qchem134974//
 Dec716 11556_ 22328  22283 4050   
Processing $rem in /tmpu/appuserlic/qchem4.4/serial-multicore/config/preferences.
 MEM_TOTAL  2000 
FILE_GEOM_ORG=        593

Checking the input file for inconsistencies... 	...done.

--------------------------------------------------------------
User input:
--------------------------------------------------------------
$comment
SP
$end

$rem
MEM_STATIC 5000
MEM_TOTAL 20000
JOBTYPE SP
EXCHANGE B3LYP
BASIS 6-31g(d,p)
$end

$molecule
0 1
O          26.592000     15.904000     13.460000
C          25.483000     16.504000     14.230000
H          25.836000     16.700000     15.250000
H          24.562000     15.916000     14.328000
H          25.197000     17.396000     13.659000
O          25.767000     16.570000     11.429000
C          26.606000     15.975000     12.088000
C          27.822000     15.227000     11.541000
H          27.606000     14.158000     11.651000
H          28.652000     15.453000     12.223000
C          28.111000     15.573000     10.103000
H          28.073000     16.663000      9.985000
H          29.103000     15.149000      9.905000
C          27.110000     14.811000      9.230000
H          27.264000     13.727000      9.291000
H          26.099000     15.051000      9.583000
C          27.176000     15.292000      7.753000
C          28.286000     14.715000      6.894000
C          28.041000     13.435000      6.390000
H          27.150000     12.828000      6.521000
C          29.078000     12.866000      5.675000
H          28.832000     11.920000      5.202000
C          30.239000     13.569000      5.360000
H          31.070000     13.169000      4.786000
C          30.447000     14.862000      5.873000
H          31.404000     15.343000      5.694000
C          29.481000     15.429000      6.618000
H          29.653000     16.373000      7.126000
C          26.815000     19.571000      4.496000
C          26.184000     17.768000      3.003000
C          21.765000     18.966000      2.886000
C          24.135000     19.768000      8.823000
C          20.824000     16.763000      5.395000
C          26.971000     18.225000      4.065000
C          21.530000     18.846000      8.167000
C          23.762000     20.276000      2.787000
C          24.354000     14.847000      5.186000
C          23.720000     18.479000      9.136000
C          25.831000     15.489000      6.931000
C          23.601000     14.943000      6.362000
C          22.489000     16.637000      8.310000
C          20.669000     18.368000      7.146000
C          26.325000     16.047000      4.605000
C          20.552000     19.074000      4.790000
C          26.611000     16.668000      7.399000
C          25.934000     17.662000      8.379000
C          20.659000     17.751000      4.400000
C          23.295000     21.669000      5.976000
C          21.982000     20.943000      4.311000
C          23.301000     21.179000      3.766000
C          25.175000     19.971000      2.823000
C          26.288000     18.969000      8.023000
C          25.629000     15.276000      5.507000
C          25.236000     18.638000      2.392000
C          22.451000     17.950000      8.786000
C          25.779000     16.448000      3.391000
C          22.255000     15.288000      6.363000
C          25.296000     21.056000      7.240000
C          23.019000     19.210000      2.329000
C          24.419000     15.394000      7.408000
C          25.451000     21.267000      4.839000
C          21.637000     16.135000      7.344000
C          23.721000     15.231000      3.987000
C          21.340000     20.480000      6.604000
C          21.913000     20.189000      7.851000
C          22.382000     15.578000      3.941000
C          25.418000     20.077000      8.236000
C          24.585000     17.404000      8.823000
C          23.903000     21.367000      7.184000
C          27.227000     17.541000      6.423000
C          23.530000     16.836000      2.420000
C          23.868000     16.289000      8.312000
C          21.664000     15.622000      5.136000
C          26.042000     20.991000      6.068000
C          21.365000     17.678000      3.199000
C          25.986000     20.491000      3.832000
C          21.276000     19.866000      3.840000
C          24.464000     16.028000      3.082000
C          22.292000     16.649000      3.026000
C          27.131000     17.191000      5.035000
C          27.037000     18.896000      6.867000
C          21.969000     21.320000      5.646000
C          23.911000     18.174000      2.132000
C          20.765000     17.003000      6.722000
C          23.212000     20.609000      8.156000
C          20.581000     19.396000      6.144000
C          26.850000     19.894000      5.866000
C          24.044000     21.688000      4.800000
O          28.566000      7.651000      4.686000
C          29.379000      8.743000      5.179000
H          29.897000      8.292000      6.035000
H          28.801000      9.649000      5.401000
H          30.151000      8.953000      4.428000
O          27.331000      7.557000      6.652000
C          27.557000      7.154000      5.510000
C          26.802000      6.005000      4.869000
H          25.970000      5.735000      5.531000
H          27.584000      5.237000      4.834000
C          26.454000      6.125000      3.318000
H          27.394000      6.511000      2.906000
H          26.258000      5.130000      2.901000
C          25.542000      7.247000      2.979000
H          24.522000      7.154000      3.373000
H          25.984000      8.068000      3.556000
C          25.479000      7.555000      1.460000
C          24.956000      6.397000      0.675000
C          23.584000      6.231000      0.355000
H          22.856000      6.997000      0.605000
C          23.127000      5.046000     -0.291000
H          22.093000      4.891000     -0.583000
C          24.016000      3.987000     -0.499000
H          23.668000      3.030000     -0.879000
C          25.357000      4.080000     -0.162000
H          25.960000      3.190000     -0.312000
C          25.831000      5.356000      0.325000
H          26.884000      5.291000      0.584000
C          28.819000      9.074000     -2.550000
C          26.705000      9.835000     -3.397000
C          27.465000     14.181000     -2.888000
C          29.743000     10.967000      2.048000
C          25.674000     14.351000      0.131000
C          27.455000      8.842000     -2.701000
C          28.432000     13.489000      2.220000
C          28.916000     12.514000     -3.773000
C          24.172000     10.660000     -0.439000
C          28.518000     11.073000      2.712000
C          25.248000      9.041000      0.919000
C          24.383000     11.202000      0.884000
C          26.505000     12.114000      2.617000
C          27.671000     14.479000      1.532000
C          25.434000      9.012000     -1.657000
C          27.784000     15.005000     -0.789000
C          26.640000      8.353000      0.967000
C          27.766000      8.966000      1.685000
C          26.428000     14.857000     -0.939000
C          30.896000     12.523000     -0.890000
C          29.671000     14.016000     -2.009000
C          29.915000     12.937000     -2.888000
C          28.636000     11.153000     -3.857000
C          29.008000      8.885000      1.036000
C          24.738000      9.380000     -0.446000
C          27.286000     10.946000     -3.950000
C          27.860000     12.353000      2.737000
C          25.445000      9.834000     -2.787000
C          24.735000     12.568000      1.050000
C          30.749000     10.322000      0.096000
C          27.678000     13.131000     -3.804000
C          25.154000     10.279000      1.664000
C          30.415000     10.633000     -2.273000
C          25.691000     13.035000      1.985000
C          24.214000     11.528000     -1.545000
C          29.625000     14.184000      0.397000
C          29.654000     13.343000      1.586000
C          24.506000     12.864000     -1.329000
C          30.049000      9.853000      1.194000
C          27.514000     10.077000      2.484000
C          30.918000     11.680000      0.278000
C          27.325000      8.128000     -0.337000
C          25.465000     12.262000     -3.219000
C          26.278000     10.723000      2.489000
C          24.679000     13.418000     -0.065000
C          30.464000      9.787000     -1.143000
C          26.195000     14.351000     -2.239000
C          29.412000     10.208000     -3.071000
C          28.422000     14.676000     -1.991000
C          24.874000     11.115000     -2.684000
C          25.226000     13.336000     -2.384000
C          26.723000      8.377000     -1.560000
C          28.711000      8.381000     -0.212000
C          30.288000     13.769000     -0.784000
C          26.678000     12.145000     -3.904000
C          26.262000     14.221000      1.404000
C          30.381000     12.095000      1.516000
C          28.403000     14.844000      0.414000
C          29.464000      8.821000     -1.325000
C          30.652000     11.973000     -2.158000
$end

--------------------------------------------------------------
 ----------------------------------------------------------------
             Standard Nuclear Orientation (Angstroms)
    I     Atom           X                Y                Z
 ----------------------------------------------------------------
    1      O      -7.6166853081    -6.9681400799     1.1275432182
    2      C      -8.8210545176    -6.9814420326     0.2719154573
    3      H      -9.5153299362    -7.7353761209     0.6630548615
    4      H      -8.6807034422    -7.2109715779    -0.7916665863
    5      H      -9.1938124801    -5.9500060775     0.2982284187
    6      O      -7.0444274727    -4.8182797999     0.5800363724
    7      C      -6.8065196163    -5.8594526744     1.1729831637
    8      C      -5.6055978729    -6.1298128328     2.0796591537
    9      H      -4.9401385461    -6.8006324567     1.5240676522
   10      H      -5.9901468996    -6.7028182294     2.9334078647
   11      C      -4.8877030590    -4.8653037799     2.4755441009
   12      H      -5.6276740416    -4.1224490519     2.7981550090
   13      H      -4.2008260742    -5.1695896224     3.2747024918
   14      C      -4.0311744108    -4.4235372181     1.2855966316
   15      H      -3.2307023246    -5.1428029428     1.0748971858
   16      H      -4.6841207223    -4.3446297139     0.4070952257
   17      C      -3.4446843556    -3.0021062128     1.5153993996
   18      C      -2.2013100501    -2.9060557732     2.3800985666
   19      C      -1.0030384958    -3.2164807380     1.7318527619
   20      H      -0.8617676061    -3.4892549010     0.6901580889
   21      C       0.1258718134    -3.2126390610     2.5292872453
   22      H       1.0580347105    -3.3500386113     1.9895144256
   23      C       0.0970288311    -2.7965568386     3.8587227145
   24      H       0.9610320135    -2.7596627072     4.5161223827
   25      C      -1.1257965120    -2.4777016067     4.4762269828
   26      H      -1.1274064564    -2.2556923692     5.5392228937
   27      C      -2.2541175841    -2.5210441863     3.7450067841
   28      H      -3.2253717186    -2.3965529083     4.2139964726
   29      C      -4.6537624921     2.1369721376     2.5999337551
   30      C      -2.5476611695     2.3703921547     1.4218542525
   31      C      -4.4722593596     4.0974169142    -2.3583258076
   32      C      -8.1838504507    -0.5570700596     0.1049881357
   33      C      -4.6548518345     1.0397287325    -3.9865069926
   34      C      -3.3514185325     1.6463793931     2.3083313376
   35      C      -7.7494472218    -0.0415690028    -2.6539967311
   36      C      -4.8734977384     4.5272808111    -0.0414022453
   37      C      -2.2204425027    -0.6696303745    -1.2795936862
   38      C      -7.5333229565    -1.4740748558    -0.7120988751
   39      C      -3.4144120866    -1.9621694162     0.3149273887
   40      C      -3.2173924115    -1.3716025391    -1.9669996503
   41      C      -5.9673023822    -1.6575500077    -2.4740629581
   42      C      -6.9745183187     0.6536514565    -3.6175317374
   43      C      -2.2452836185     0.0766437234     0.9798000134
   44      C      -6.0498244020     2.9316264558    -3.4810324229
   45      C      -4.3807626032    -1.7957445272     1.4356121952
   46      C      -5.8984407841    -1.8312547075     1.1159921609
   47      C      -4.8024732813     2.4329345671    -3.8116372959
   48      C      -8.0157306066     2.9605613337    -0.0460585413
   49      C      -6.7685300252     4.1066959162    -1.5137561357
   50      C      -6.2689572617     4.3934591744    -0.1868515092
   51      C      -4.3148161031     4.0221978170     1.1929623683
   52      C      -6.5507032303    -0.8572792088     1.8816464099
   53      C      -2.4165815154    -0.9350130648     0.0634657002
   54      C      -3.0460108938     3.5592491614     0.8158909121
   55      C      -7.2437277303    -1.2463202373    -2.0821223927
   56      C      -1.9186975306     1.3745234098     0.6035516289
   57      C      -3.8118662223    -0.8858665584    -3.1251893780
   58      C      -7.8504352557     1.1927002444     1.6346587508
   59      C      -3.9874606267     4.4119233286    -1.0901156894
   60      C      -3.9988906741    -2.0931974706    -1.0531056627
   61      C      -6.4637602157     3.1566244454     1.8659184883
   62      C      -5.2068322293    -1.0212606369    -3.4373308248
   63      C      -1.9126343233     0.6248221789    -1.7436978896
   64      C      -8.0244001667     2.1807640594    -2.2870340097
   65      C      -8.4460073146     0.9163520367    -1.8493941465
   66      C      -2.4773921387     1.1469119277    -2.8943137699
   67      C      -7.7209196521    -0.1869350832     1.4221191751
   68      C      -6.3261052773    -2.0459342362    -0.2458142795
   69      C      -8.3959804841     1.7127103591     0.4212849895
   70      C      -4.2585602110    -0.6494093500     2.3103368587
   71      C      -2.1639367861     2.8333807731    -1.3871715817
   72      C      -5.3641750527    -2.1543338109    -1.2857059927
   73      C      -3.4390467616     0.3920969237    -3.5658490972
   74      C      -6.8806281074     1.9113087050     2.3256008435
   75      C      -3.8186887052     3.1778476385    -3.1609158317
   76      C      -5.1258254429     3.3716187257     2.1231304696
   77      C      -5.8569104093     3.9872065490    -2.5310456555
   78      C      -1.7467953842     1.6442689856    -0.7744153433
   79      C      -2.7174402382     2.5109215817    -2.6218792387
   80      C      -3.1554628162     0.2465878243     2.1138039070
   81      C      -5.5842547382    -0.1564951295     2.5726927082
   82      C      -7.8858413289     3.2908681407    -1.4109772894
   83      C      -2.8748428139     3.7669417101    -0.5862810794
   84      C      -5.6776617966     0.1590120081    -3.9720905860
   85      C      -8.6194381085     0.6530898282    -0.4865145592
   86      C      -7.1278623441     2.0597145181    -3.3567554413
   87      C      -5.7410436761     1.2519129737     2.7301025041
   88      C      -7.1046435212     3.7311991642     0.6753121381
   89      O       4.4640065995    -5.4095391494     0.3405189662
   90      C       3.5545158599    -5.3208570186     1.4636592399
   91      H       3.4819131134    -6.3632028114     1.7993750265
   92      H       2.6013172639    -4.8380684036     1.2135960681
   93      H       4.0643707239    -4.7737832153     2.2666805792
   94      O       2.9911259913    -6.7381804179    -0.8696678348
   95      C       4.0604728184    -6.1329606739    -0.7810369999
   96      C       5.1193063920    -6.1520601065    -1.8671372140
   97      H       4.6943233014    -6.6525097240    -2.7459475195
   98      H       5.9050185991    -6.7421622819    -1.3803017693
   99      C       5.9141418976    -4.7987833548    -2.1463925675
  100      H       6.1242280439    -4.4475566730    -1.1291199250
  101      H       6.8600013780    -5.0192598019    -2.6553817417
  102      C       5.0686221200    -3.6809525050    -2.6374114032
  103      H       4.6334458768    -3.8285166548    -3.6339712153
  104      H       4.2129822208    -3.7395803697    -1.9542005014
  105      C       5.7765428005    -2.3016788981    -2.5859660208
  106      C       6.9906571098    -2.2625944828    -3.4549406191
  107      C       6.9676607110    -1.8224822110    -4.8033145857
  108      H       6.0624219216    -1.4125517859    -5.2411955978
  109      C       8.1313043859    -1.9215797335    -5.6197109840
  110      H       8.1678594534    -1.5678876254    -6.6453866733
  111      C       9.2670241318    -2.5709186367    -5.1261872788
  112      H      10.1233641912    -2.7658694856    -5.7665222451
  113      C       9.3254267049    -3.0608209486    -3.8311645515
  114      H      10.2280411207    -3.5955690608    -3.5527032924
  115      C       8.1984741721    -2.7876550974    -2.9678109700
  116      H       8.3497005318    -3.2493635653    -1.9961778712
  117      C       8.0083410419     1.0184689790     1.0935387942
  118      C       7.4442692852     2.5722418222    -0.6480521465
  119      C       4.1103863061     4.5787330168     1.4928855844
  120      C       3.9656111482    -1.6444723456     2.5577476277
  121      C       1.6432635661     2.7016803328    -0.1626870074
  122      C       7.9302474529     1.2862032250    -0.2700376667
  123      C       1.6665611151    -0.0154782368     2.1459999640
  124      C       6.2602683945     3.9804904278     2.3221188512
  125      C       4.3450026114     1.2850867944    -2.7891397250
  126      C       3.1628754732    -1.8420830875     1.4311055236
  127      C       4.9605730529    -0.9548713027    -2.3129446444
  128      C       3.1699201339     0.5288253636    -2.4205426287
  129      C       1.9468242741    -0.7307500997    -0.1280716540
  130      C       1.1750148988     1.2648664967     1.7565584657
  131      C       6.6417195095     0.9974358624    -2.1300339435
  132      C       2.2685864538     3.3610263482     2.0510090236
  133      C       5.7890504566    -1.6907799866    -1.2241950862
  134      C       5.1710196459    -2.1258545496     0.0359307178
  135      C       2.1299025855     3.6758400129     0.7225515944
  136      C       4.9476430990     1.3215429708     4.1766223574
  137      C       4.2378448534     3.3321714548     3.5167780201
  138      C       5.6458587253     3.3298530377     3.3988392165
  139      C       7.2465177764     3.3021766734     1.6114996793
  140      C       5.9502021674    -1.9287697656     1.1867383412
  141      C       5.4365241336     0.4166075536    -2.6745553679
  142      C       7.1171920273     3.5364884403     0.2689756212
  143      C       2.0368936495    -0.9682924445     1.2295023374
  144      C       6.7454728709     2.3609888564    -1.8425213825
  145      C       2.1467891917     1.1310116513    -1.6408050126
  146      C       5.9172852486    -0.7144382883     3.3089931656
  147      C       5.5123540855     4.6288861117     1.3554228165
  148      C       3.5569477629    -0.7858400313    -2.0002635379
  149      C       7.0868767090     1.3863419771     3.1109626318
  150      C       1.4577689103     0.4763814057    -0.5905858482
  151      C       4.4076015930     2.6505378481    -2.4574037043
  152      C       2.5958636275     1.5649538407     3.5128336367
  153      C       2.4792718612     0.1357810254     3.2564853888
  154      C       3.3601769341     3.2086624953    -1.7445120841
  155      C       5.3994257665    -1.6999632700     2.4867237041
  156      C       3.7874664588    -2.0406044411     0.1573349897
  157      C       4.8439109301    -0.0909635812     3.9131420397
  158      C       6.9441866764    -0.9507875361    -0.6425272368
  159      C       5.2294566745     4.1255985780    -1.0239522512
  160      C       2.9961181630    -1.4035951760    -0.7981879409
  161      C       2.2036020580     2.5134718684    -1.4074875330
  162      C       7.0159562265    -0.0039827340     2.8722484031
  163      C       3.2584758269     4.4400264700     0.3448394054
  164      C       7.6472821216     1.9688064936     2.0292423073
  165      C       3.4247500979     3.9700351271     2.5534858244
  166      C       5.5918464218     3.1562574859    -1.9621241536
  167      C       3.8539413857     4.1582237622    -0.9026456656
  168      C       7.3744475185     0.2762390686    -1.1215004292
  169      C       7.0286094944    -1.1904903134     0.7488912360
  170      C       3.8086370825     2.1016107363     4.0105634061
  171      C       6.0504323958     4.3356189959     0.0878810497
  172      C       1.0903621711     1.5087960295     0.3417930086
  173      C       3.6272097275    -0.6985595067     3.5340597600
  174      C       1.7902008302     2.1979195547     2.5750517527
  175      C       7.5906183798    -0.2215183591     1.6118033779
  176      C       6.0858741037     2.0371416923     3.7738710077
 ----------------------------------------------------------------
 Molecular Point Group                 C1    NOp =  1
 Largest Abelian Subgroup              C1    NOp =  1
 Nuclear Repulsion Energy = 35133.9242855405 hartrees
 There are      462 alpha and      462 beta electrons
 Requested basis set is 6-31G(d,p)
 There are 676 shells and 2360 basis functions

 Total QAlloc Memory Limit  20000 MB
 Mega-Array Size      4888 MB
 MEM_STATIC part      5000 MB
 A cutoff of  1.0D-08 yielded  38596 shell pairs
 There are    540144 function pairs
 
 -------------------------------------------------------
 OpenMP Integral Computing Module                       
 Release: version 1.0, May 2013, Q-Chem Inc. Pittsburgh 
 -------------------------------------------------------
 Integral Job Info:
 Integral job number is                      11
 Integral operator is                         1
 short-range coefficients                     0
 long-range coefficients              100000000
 Omega coefficients                           0
 if combine SR and LR in K                    0
 Integral screening is                        0
 Integral computing path is                   2
 max size of driver memory is            800000
 size of driver memory is                593474
 size of scratch memory is              2260544
 max col of scratch BK array               1296
 max len of scratch array in speh3          155
 max len of scratch index in speh4           18
 max int batch size is                      520
 min int batch size is                       52
 fixed nKL is                                52
 max L of basis functions is                  2
 order of int derivative is                   0
 number of shells is                        676
 number of basis is                        2360
 number of cartesian basis is              2360
 number of contracted shell pairs         38596
 number of primitive shell pairs         116063
 maxK2 (contraction) of shell pair           36
 max number of K2 of shell pair               1
 max number of CS2 of shell pair           7371
 max number of PS2 of shell pair          35148
 mem total for path MDJ                 1539400
 -------------------------------------------------------
 Smallest overlap matrix eigenvalue = 2.50E-04

 Scale SEOQF with 1.000000e-02/1.000000e-02/1.000000e-02

 Standard Electronic Orientation quadrupole field applied
 Nucleus-field energy     =     0.0000001022 hartrees
 Guess from superposition of atomic densities
 Warning:  Energy on first SCF cycle will be non-variational
 A restricted hybrid HF-DFT SCF calculation will be
 performed using Pulay DIIS extrapolation
 Exchange:     0.2000 Hartree-Fock + 0.0800 Slater + 0.7200 B88
 Correlation:  0.1900 VWN1RPA + 0.8100 LYP
 Using SG-1 standard quadrature grid
 SCF converges when DIIS error is below 1.0E-05
 using 16 threads for integral computing 
 -------------------------------------------------------
 OpenMP BLAS3 based DFT computing Module                
 Release: version 1.0, May 2013, Q-Chem Inc. Pittsburgh 
 -------------------------------------------------------
 ---------------------------------------
  Cycle       Energy         DIIS Error
 ---------------------------------------
    1   -5858.5990379056      1.83E-02
    2   -5803.1289822438      1.29E-03
    3   -5802.3725561857      1.78E-03
    4   -5803.9827339185      6.46E-04
    5   -5804.2100256738      2.99E-04
    6   -5804.2688997882      1.30E-04
    7   -5804.2800074100      4.66E-05
    8   -5804.2809949806      2.83E-05
    9   -5804.2815840053      8.78E-06 Convergence criterion met
 ---------------------------------------
 SCF time:  CPU 7301.40 s  wall 847.04 s
 SCF   energy in the final basis set = -5804.2815840053
 Total energy in the final basis set = -5804.2815840053
 
 --------------------------------------------------------------
 
                    Orbital Energies (a.u.)
 --------------------------------------------------------------
 
 Alpha MOs
 -- Occupied --
-19.194 -19.193 -19.145 -19.141 -10.324 -10.323 -10.250 -10.246
-10.245 -10.244 -10.238 -10.232 -10.231 -10.229 -10.228 -10.227
-10.224 -10.224 -10.224 -10.223 -10.221 -10.221 -10.220 -10.219
-10.219 -10.218 -10.218 -10.218 -10.217 -10.217 -10.217 -10.217
-10.216 -10.216 -10.216 -10.216 -10.216 -10.216 -10.215 -10.215
-10.215 -10.215 -10.215 -10.215 -10.214 -10.214 -10.214 -10.214
-10.214 -10.214 -10.214 -10.214 -10.214 -10.213 -10.213 -10.213
-10.213 -10.213 -10.213 -10.213 -10.212 -10.212 -10.212 -10.212
-10.212 -10.212 -10.211 -10.211 -10.211 -10.211 -10.211 -10.211
-10.211 -10.211 -10.211 -10.210 -10.210 -10.210 -10.210 -10.210
-10.210 -10.210 -10.210 -10.210 -10.210 -10.209 -10.209 -10.209
-10.209 -10.209 -10.209 -10.209 -10.209 -10.208 -10.208 -10.208
-10.208 -10.208 -10.207 -10.207 -10.207 -10.207 -10.207 -10.207
-10.207 -10.207 -10.207 -10.207 -10.206 -10.206 -10.206 -10.206
-10.206 -10.206 -10.206 -10.206 -10.206 -10.206 -10.205 -10.205
-10.205 -10.205 -10.204 -10.204 -10.204 -10.204 -10.204 -10.204
-10.204 -10.203 -10.203 -10.203 -10.203 -10.203 -10.202 -10.202
-10.201 -10.201 -10.201 -10.201 -10.198 -10.197 -10.195 -10.194
-10.194 -10.193 -10.191 -10.190  -1.090  -1.084  -1.012  -1.007
 -0.984  -0.976  -0.966  -0.964  -0.962  -0.958  -0.956  -0.953
 -0.934  -0.930  -0.927  -0.925  -0.922  -0.920  -0.918  -0.918
 -0.917  -0.911  -0.895  -0.891  -0.887  -0.886  -0.883  -0.880
 -0.874  -0.869  -0.853  -0.852  -0.843  -0.839  -0.837  -0.836
 -0.833  -0.829  -0.823  -0.820  -0.808  -0.807  -0.800  -0.796
 -0.793  -0.792  -0.790  -0.788  -0.786  -0.786  -0.784  -0.780
 -0.771  -0.768  -0.767  -0.766  -0.766  -0.761  -0.761  -0.759
 -0.755  -0.748  -0.745  -0.741  -0.732  -0.727  -0.716  -0.715
 -0.713  -0.711  -0.709  -0.709  -0.708  -0.708  -0.707  -0.705
 -0.704  -0.703  -0.703  -0.701  -0.700  -0.698  -0.673  -0.666
 -0.660  -0.658  -0.653  -0.650  -0.649  -0.643  -0.630  -0.627
 -0.624  -0.624  -0.624  -0.620  -0.619  -0.618  -0.617  -0.616
 -0.615  -0.613  -0.611  -0.611  -0.610  -0.608  -0.608  -0.606
 -0.604  -0.603  -0.601  -0.595  -0.566  -0.564  -0.563  -0.559
 -0.559  -0.558  -0.557  -0.555  -0.553  -0.553  -0.549  -0.549
 -0.536  -0.531  -0.531  -0.529  -0.526  -0.525  -0.522  -0.521
 -0.520  -0.518  -0.518  -0.516  -0.515  -0.513  -0.511  -0.510
 -0.507  -0.505  -0.502  -0.501  -0.490  -0.487  -0.486  -0.485
 -0.483  -0.481  -0.479  -0.478  -0.477  -0.476  -0.475  -0.473
 -0.472  -0.472  -0.469  -0.468  -0.467  -0.466  -0.465  -0.464
 -0.464  -0.463  -0.463  -0.460  -0.459  -0.457  -0.457  -0.455
 -0.453  -0.452  -0.451  -0.449  -0.448  -0.445  -0.445  -0.442
 -0.440  -0.438  -0.437  -0.437  -0.436  -0.435  -0.435  -0.433
 -0.432  -0.430  -0.429  -0.428  -0.424  -0.424  -0.423  -0.422
 -0.421  -0.419  -0.419  -0.418  -0.418  -0.416  -0.416  -0.416
 -0.414  -0.414  -0.413  -0.412  -0.411  -0.410  -0.410  -0.409
 -0.408  -0.407  -0.405  -0.404  -0.403  -0.401  -0.398  -0.394
 -0.392  -0.392  -0.390  -0.388  -0.387  -0.385  -0.384  -0.381
 -0.376  -0.375  -0.373  -0.371  -0.370  -0.368  -0.366  -0.366
 -0.364  -0.362  -0.361  -0.361  -0.359  -0.358  -0.357  -0.357
 -0.355  -0.355  -0.354  -0.352  -0.352  -0.351  -0.351  -0.350
 -0.347  -0.346  -0.346  -0.345  -0.344  -0.344  -0.342  -0.341
 -0.341  -0.340  -0.338  -0.337  -0.335  -0.334  -0.331  -0.330
 -0.329  -0.329  -0.327  -0.327  -0.326  -0.325  -0.322  -0.318
 -0.312  -0.303  -0.301  -0.297  -0.284  -0.283  -0.277  -0.272
 -0.272  -0.269  -0.267  -0.266  -0.265  -0.264  -0.262  -0.262
 -0.260  -0.259  -0.257  -0.256  -0.255  -0.253  -0.253  -0.251
 -0.249  -0.244  -0.241  -0.234  -0.221  -0.217  -0.210  -0.209
 -0.205  -0.203  -0.202  -0.199  -0.198  -0.193
 -- Virtual --
 -0.120  -0.118  -0.116  -0.113  -0.108  -0.100  -0.075  -0.072
 -0.071  -0.067  -0.061  -0.053  -0.049  -0.046  -0.022  -0.022
 -0.019  -0.017  -0.016  -0.016  -0.014  -0.013  -0.013  -0.011
 -0.008  -0.007  -0.004  -0.003  -0.003  -0.001   0.002   0.002
  0.004   0.012   0.038   0.041   0.043   0.047   0.048   0.049
  0.051   0.056   0.059   0.064   0.065   0.065   0.068   0.071
  0.073   0.074   0.076   0.081   0.082   0.086   0.087   0.091
  0.093   0.098   0.101   0.101   0.102   0.105   0.105   0.108
  0.109   0.113   0.115   0.117   0.120   0.121   0.123   0.124
  0.125   0.126   0.129   0.129   0.130   0.132   0.136   0.136
  0.138   0.139   0.142   0.146   0.149   0.152   0.153   0.155
  0.158   0.158   0.160   0.163   0.164   0.165   0.166   0.167
  0.169   0.174   0.175   0.176   0.180   0.180   0.182   0.184
  0.186   0.187   0.190   0.191   0.192   0.193   0.195   0.196
  0.199   0.200   0.201   0.204   0.204   0.206   0.208   0.210
  0.211   0.213   0.217   0.218   0.219   0.221   0.223   0.223
  0.225   0.226   0.229   0.229   0.231   0.232   0.232   0.232
  0.235   0.235   0.236   0.238   0.239   0.242   0.242   0.244
  0.245   0.247   0.248   0.249   0.252   0.253   0.256   0.258
  0.262   0.264   0.270   0.271   0.276   0.276   0.280   0.282
  0.284   0.284   0.289   0.292   0.294   0.297   0.301   0.301
  0.304   0.308   0.311   0.314   0.316   0.319   0.320   0.322
  0.323   0.325   0.326   0.326   0.328   0.331   0.333   0.336
  0.337   0.338   0.341   0.343   0.346   0.348   0.350   0.351
  0.353   0.356   0.358   0.363   0.373   0.373   0.381   0.390
  0.395   0.399   0.403   0.404   0.405   0.410   0.411   0.412
  0.413   0.416   0.417   0.418   0.418   0.421   0.425   0.426
  0.430   0.433   0.434   0.436   0.440   0.444   0.446   0.449
  0.452   0.453   0.454   0.456   0.460   0.461   0.462   0.465
  0.467   0.468   0.471   0.471   0.473   0.474   0.477   0.479
  0.481   0.482   0.483   0.484   0.484   0.485   0.487   0.489
  0.490   0.491   0.492   0.493   0.495   0.495   0.496   0.497
  0.497   0.498   0.500   0.501   0.502   0.502   0.505   0.505
  0.506   0.507   0.508   0.510   0.511   0.511   0.512   0.513
  0.513   0.514   0.515   0.516   0.517   0.519   0.520   0.521
  0.522   0.523   0.523   0.525   0.526   0.526   0.527   0.528
  0.529   0.529   0.530   0.531   0.531   0.533   0.534   0.535
  0.536   0.537   0.538   0.538   0.539   0.540   0.541   0.541
  0.541   0.542   0.543   0.544   0.545   0.546   0.547   0.547
  0.548   0.549   0.550   0.551   0.551   0.552   0.553   0.553
  0.555   0.556   0.556   0.558   0.558   0.559   0.560   0.561
  0.562   0.563   0.564   0.565   0.566   0.567   0.569   0.569
  0.570   0.570   0.571   0.571   0.572   0.572   0.573   0.574
  0.575   0.576   0.577   0.577   0.578   0.580   0.581   0.581
  0.582   0.584   0.585   0.586   0.587   0.588   0.588   0.588
  0.589   0.590   0.590   0.591   0.592   0.593   0.594   0.595
  0.596   0.596   0.598   0.599   0.600   0.601   0.602   0.602
  0.603   0.604   0.605   0.606   0.608   0.608   0.609   0.611
  0.612   0.613   0.614   0.615   0.617   0.617   0.619   0.620
  0.620   0.621   0.624   0.624   0.625   0.626   0.628   0.630
  0.631   0.631   0.632   0.634   0.635   0.635   0.636   0.637
  0.638   0.638   0.639   0.639   0.640   0.641   0.642   0.643
  0.644   0.645   0.647   0.648   0.649   0.651   0.652   0.652
  0.654   0.656   0.656   0.657   0.659   0.659   0.660   0.661
  0.662   0.663   0.664   0.664   0.665   0.666   0.666   0.667
  0.668   0.669   0.670   0.670   0.671   0.672   0.673   0.673
  0.674   0.676   0.677   0.679   0.679   0.679   0.681   0.683
  0.684   0.684   0.685   0.686   0.687   0.691   0.692   0.692
  0.693   0.694   0.695   0.696   0.697   0.699   0.699   0.701
  0.702   0.703   0.703   0.703   0.704   0.705   0.706   0.707
  0.709   0.710   0.711   0.714   0.714   0.718   0.718   0.719
  0.720   0.721   0.723   0.725   0.725   0.727   0.729   0.730
  0.731   0.733   0.733   0.734   0.735   0.737   0.739   0.740
  0.742   0.742   0.743   0.745   0.746   0.748   0.749   0.751
  0.753   0.754   0.754   0.756   0.757   0.758   0.761   0.762
  0.763   0.764   0.765   0.768   0.770   0.770   0.771   0.772
  0.773   0.773   0.775   0.776   0.777   0.780   0.781   0.782
  0.782   0.784   0.786   0.787   0.789   0.789   0.790   0.792
  0.793   0.794   0.796   0.798   0.799   0.800   0.802   0.803
  0.804   0.805   0.805   0.806   0.806   0.808   0.809   0.809
  0.810   0.810   0.811   0.812   0.812   0.813   0.814   0.814
  0.816   0.816   0.817   0.818   0.818   0.819   0.820   0.820
  0.821   0.822   0.823   0.823   0.825   0.826   0.826   0.827
  0.828   0.829   0.830   0.831   0.834   0.835   0.835   0.838
  0.840   0.841   0.843   0.846   0.847   0.849   0.851   0.853
  0.854   0.857   0.860   0.861   0.863   0.864   0.866   0.868
  0.870   0.877   0.880   0.880   0.884   0.887   0.888   0.891
  0.894   0.896   0.899   0.901   0.903   0.904   0.910   0.913
  0.915   0.917   0.917   0.920   0.923   0.925   0.926   0.928
  0.931   0.933   0.935   0.936   0.939   0.940   0.942   0.942
  0.944   0.944   0.946   0.947   0.951   0.953   0.953   0.956
  0.958   0.961   0.963   0.966   0.970   0.973   0.975   0.978
  0.979   0.982   0.987   0.988   0.991   0.993   0.997   1.000
  1.001   1.003   1.004   1.006   1.009   1.011   1.012   1.015
  1.018   1.018   1.020   1.022   1.024   1.024   1.026   1.027
  1.028   1.029   1.030   1.032   1.033   1.034   1.036   1.039
  1.040   1.042   1.043   1.044   1.046   1.049   1.051   1.052
  1.054   1.056   1.059   1.060   1.061   1.062   1.064   1.065
  1.067   1.070   1.071   1.071   1.072   1.073   1.075   1.076
  1.078   1.080   1.081   1.082   1.085   1.085   1.087   1.090
  1.090   1.091   1.095   1.098   1.099   1.102   1.103   1.105
  1.106   1.106   1.109   1.113   1.114   1.115   1.117   1.119
  1.122   1.123   1.125   1.127   1.132   1.134   1.136   1.137
  1.141   1.142   1.144   1.146   1.148   1.149   1.152   1.155
  1.155   1.157   1.159   1.160   1.162   1.163   1.164   1.165
  1.167   1.168   1.170   1.172   1.173   1.174   1.176   1.177
  1.178   1.180   1.183   1.184   1.186   1.188   1.189   1.191
  1.195   1.197   1.197   1.200   1.201   1.203   1.206   1.208
  1.210   1.214   1.216   1.216   1.219   1.222   1.225   1.227
  1.228   1.236   1.240   1.242   1.244   1.247   1.248   1.251
  1.252   1.254   1.256   1.258   1.262   1.264   1.266   1.267
  1.269   1.273   1.273   1.275   1.277   1.277   1.281   1.282
  1.284   1.287   1.290   1.291   1.293   1.294   1.296   1.298
  1.301   1.305   1.307   1.309   1.310   1.314   1.317   1.322
  1.322   1.323   1.326   1.329   1.330   1.334   1.335   1.337
  1.338   1.340   1.343   1.345   1.349   1.349   1.352   1.355
  1.356   1.357   1.360   1.361   1.368   1.369   1.372   1.373
  1.376   1.378   1.380   1.383   1.384   1.385   1.387   1.392
  1.392   1.393   1.396   1.401   1.404   1.407   1.409   1.411
  1.411   1.414   1.419   1.420   1.423   1.425   1.427   1.431
  1.432   1.435   1.441   1.443   1.446   1.449   1.452   1.453
  1.455   1.458   1.459   1.460   1.463   1.466   1.470   1.470
  1.471   1.473   1.474   1.475   1.476   1.479   1.481   1.483
  1.486   1.488   1.489   1.492   1.493   1.497   1.499   1.501
  1.505   1.509   1.512   1.513   1.520   1.521   1.523   1.525
  1.525   1.528   1.528   1.530   1.535   1.538   1.539   1.542
  1.545   1.549   1.551   1.552   1.554   1.559   1.561   1.563
  1.565   1.566   1.570   1.572   1.574   1.575   1.579   1.579
  1.581   1.584   1.585   1.586   1.590   1.592   1.592   1.596
  1.598   1.599   1.601   1.603   1.610   1.615   1.625   1.627
  1.629   1.633   1.635   1.637   1.639   1.641   1.644   1.646
  1.652   1.655   1.658   1.660   1.663   1.665   1.670   1.675
  1.680   1.685   1.687   1.693   1.698   1.700   1.700   1.703
  1.705   1.706   1.711   1.711   1.712   1.714   1.716   1.718
  1.721   1.727   1.729   1.730   1.734   1.736   1.737   1.738
  1.742   1.743   1.744   1.746   1.747   1.748   1.749   1.752
  1.753   1.756   1.760   1.760   1.762   1.763   1.765   1.765
  1.766   1.767   1.769   1.771   1.772   1.773   1.773   1.774
  1.776   1.777   1.778   1.779   1.780   1.782   1.784   1.784
  1.785   1.786   1.787   1.788   1.790   1.791   1.792   1.792
  1.793   1.795   1.796   1.798   1.801   1.802   1.804   1.805
  1.806   1.807   1.807   1.808   1.809   1.810   1.812   1.814
  1.815   1.817   1.817   1.818   1.819   1.821   1.824   1.825
  1.830   1.830   1.832   1.833   1.839   1.841   1.843   1.844
  1.847   1.849   1.851   1.852   1.855   1.857   1.860   1.861
  1.863   1.865   1.867   1.868   1.869   1.870   1.872   1.873
  1.875   1.877   1.879   1.880   1.882   1.884   1.886   1.889
  1.891   1.891   1.896   1.899   1.900   1.902   1.903   1.906
  1.906   1.910   1.916   1.917   1.918   1.919   1.921   1.925
  1.926   1.927   1.931   1.932   1.934   1.939   1.940   1.942
  1.943   1.946   1.947   1.949   1.951   1.951   1.954   1.958
  1.961   1.962   1.964   1.965   1.968   1.969   1.971   1.973
  1.978   1.978   1.980   1.983   1.983   1.985   1.985   1.986
  1.988   1.989   1.990   1.992   1.994   1.995   1.999   1.999
  2.001   2.004   2.005   2.007   2.007   2.008   2.010   2.012
  2.012   2.014   2.016   2.017   2.018   2.019   2.020   2.021
  2.022   2.023   2.024   2.025   2.028   2.029   2.030   2.031
  2.032   2.033   2.034   2.034   2.036   2.037   2.039   2.040
  2.041   2.042   2.044   2.044   2.046   2.047   2.047   2.049
  2.051   2.052   2.054   2.057   2.058   2.060   2.061   2.062
  2.062   2.064   2.064   2.065   2.066   2.068   2.069   2.069
  2.071   2.073   2.075   2.076   2.077   2.079   2.081   2.082
  2.083   2.084   2.085   2.088   2.089   2.091   2.093   2.094
  2.095   2.096   2.097   2.100   2.102   2.103   2.103   2.107
  2.109   2.115   2.116   2.117   2.118   2.119   2.125   2.127
  2.128   2.129   2.131   2.133   2.135   2.138   2.145   2.150
  2.150   2.154   2.156   2.157   2.162   2.167   2.168   2.169
  2.173   2.179   2.182   2.188   2.191   2.203   2.206   2.207
  2.208   2.211   2.213   2.216   2.217   2.220   2.224   2.228
  2.231   2.236   2.239   2.240   2.242   2.246   2.248   2.251
  2.252   2.252   2.257   2.259   2.262   2.264   2.264   2.266
  2.270   2.270   2.274   2.277   2.279   2.282   2.284   2.286
  2.288   2.290   2.291   2.293   2.295   2.298   2.300   2.301
  2.303   2.308   2.308   2.311   2.311   2.314   2.314   2.319
  2.320   2.325   2.326   2.328   2.333   2.334   2.340   2.341
  2.344   2.347   2.348   2.351   2.352   2.354   2.354   2.356
  2.361   2.363   2.364   2.366   2.369   2.373   2.375   2.375
  2.376   2.376   2.380   2.381   2.382   2.384   2.384   2.386
  2.387   2.391   2.391   2.393   2.396   2.397   2.399   2.400
  2.401   2.402   2.404   2.405   2.406   2.408   2.410   2.411
  2.415   2.417   2.417   2.422   2.424   2.426   2.428   2.431
  2.433   2.434   2.439   2.442   2.444   2.447   2.449   2.451
  2.453   2.456   2.458   2.460   2.460   2.462   2.466   2.467
  2.469   2.472   2.473   2.476   2.477   2.478   2.481   2.482
  2.484   2.486   2.486   2.488   2.492   2.495   2.496   2.497
  2.499   2.500   2.502   2.503   2.505   2.506   2.510   2.511
  2.512   2.514   2.517   2.518   2.519   2.522   2.522   2.524
  2.528   2.531   2.532   2.536   2.537   2.538   2.541   2.542
  2.544   2.545   2.553   2.554   2.555   2.558   2.561   2.565
  2.568   2.572   2.576   2.579   2.580   2.583   2.586   2.587
  2.588   2.592   2.595   2.596   2.602   2.603   2.607   2.608
  2.611   2.613   2.614   2.616   2.618   2.619   2.620   2.621
  2.624   2.626   2.626   2.629   2.631   2.632   2.633   2.634
  2.638   2.639   2.641   2.643   2.644   2.644   2.647   2.650
  2.650   2.653   2.654   2.656   2.657   2.659   2.661   2.663
  2.664   2.666   2.669   2.671   2.672   2.673   2.675   2.677
  2.678   2.680   2.682   2.683   2.684   2.685   2.687   2.689
  2.691   2.692   2.695   2.696   2.699   2.700   2.705   2.707
  2.710   2.713   2.716   2.718   2.722   2.725   2.726   2.727
  2.730   2.735   2.739   2.741   2.742   2.744   2.745   2.747
  2.752   2.755   2.757   2.759   2.761   2.761   2.764   2.765
  2.767   2.769   2.771   2.773   2.776   2.777   2.779   2.780
  2.781   2.786   2.790   2.791   2.793   2.793   2.795   2.797
  2.802   2.803   2.808   2.809   2.810   2.816   2.820   2.822
  2.825   2.828   2.832   2.834   2.835   2.839   2.839   2.844
  2.850   2.852   2.854   2.855   2.862   2.864   2.866   2.868
  2.871   2.873   2.874   2.875   2.877   2.878   2.882   2.883
  2.885   2.886   2.887   2.890   2.891   2.894   2.896   2.898
  2.899   2.900   2.904   2.905   2.907   2.908   2.910   2.912
  2.912   2.916   2.916   2.918   2.919   2.921   2.922   2.925
  2.927   2.929   2.929   2.931   2.932   2.935   2.935   2.937
  2.939   2.941   2.942   2.946   2.948   2.951   2.954   2.955
  2.960   2.963   2.966   2.969   2.972   2.975   2.978   2.984
  2.987   2.988   2.994   2.996   3.002   3.003   3.007   3.010
  3.011   3.013   3.015   3.018   3.018   3.023   3.024   3.028
  3.030   3.033   3.035   3.039   3.040   3.041   3.042   3.045
  3.048   3.051   3.054   3.055   3.062   3.065   3.068   3.069
  3.070   3.072   3.079   3.081   3.084   3.089   3.097   3.106
  3.116   3.121   3.122   3.123   3.129   3.139   3.148   3.159
  3.160   3.169   3.170   3.172   3.174   3.178   3.180   3.188
  3.196   3.201   3.208   3.211   3.214   3.229   3.242   3.248
  3.253   3.255   3.259   3.274   3.278   3.287   3.290   3.298
  3.301   3.308   3.311   3.314   3.317   3.325   3.326   3.335
  3.336   3.339   3.348   3.349   3.357   3.363   3.373   3.381
  3.389   3.400   3.421   3.424   3.429   3.444   3.451   3.453
  3.458   3.461   3.464   3.474   3.478   3.480   3.484   3.489
  3.494   3.501   3.508   3.516   3.525   3.537   3.542   3.552
  3.554   3.556   3.565   3.572   3.579   3.589   3.595   3.610
  3.621   3.633   3.691   3.703   3.826   3.903   3.974   4.002
  4.073   4.077   4.083   4.088   4.097   4.098   4.102   4.104
  4.104   4.109   4.115   4.116   4.120   4.121   4.125   4.127
  4.128   4.132   4.140   4.144   4.151   4.154   4.157   4.160
  4.162   4.167   4.169   4.175   4.178   4.183   4.190   4.195
  4.206   4.208   4.211   4.215   4.218   4.223   4.241   4.245
  4.248   4.251   4.253   4.256   4.259   4.261   4.263   4.269
  4.273   4.276   4.283   4.283   4.288   4.291   4.294   4.298
  4.307   4.314   4.323   4.337   4.385   4.391   4.393   4.397
  4.401   4.405   4.411   4.413   4.416   4.417   4.420   4.421
  4.424   4.426   4.428   4.434   4.458   4.463   4.475   4.490
  4.492   4.500   4.524   4.534   4.539   4.548   4.551   4.556
  4.570   4.579   4.632   4.634   4.636   4.638   4.641   4.650
  4.665   4.671   4.679   4.689   4.695   4.696   4.699   4.704
  4.706   4.711   4.712   4.735   4.749   4.761   4.810   4.813
  4.837   4.867   4.870   4.876   4.884   4.884   4.894   4.897
  4.904   4.908   4.967   4.971   4.973   4.976   4.986   4.991
  4.995   5.000   5.012   5.014   5.166   5.173   5.184   5.187
  5.193   5.209   5.214   5.215   5.316   5.327   5.329   5.351
  5.374   5.381
 --------------------------------------------------------------
 
          Ground-State Mulliken Net Atomic Charges

     Atom                 Charge (a.u.)
  ----------------------------------------
      1 O                    -0.482808
      2 C                    -0.092833
      3 H                     0.129625
      4 H                     0.127516
      5 H                     0.141665
      6 O                    -0.470991
      7 C                     0.612012
      8 C                    -0.270311
      9 H                     0.138433
     10 H                     0.131203
     11 C                    -0.166800
     12 H                     0.118827
     13 H                     0.106246
     14 C                    -0.190814
     15 H                     0.104852
     16 H                     0.132563
     17 C                     0.011326
     18 C                     0.051763
     19 C                    -0.084809
     20 H                     0.101969
     21 C                    -0.099473
     22 H                     0.078024
     23 C                    -0.086477
     24 H                     0.088003
     25 C                    -0.092884
     26 H                     0.091143
     27 C                    -0.075580
     28 H                     0.091187
     29 C                     0.006161
     30 C                    -0.020208
     31 C                    -0.004246
     32 C                     0.002814
     33 C                     0.027905
     34 C                    -0.005542
     35 C                    -0.018058
     36 C                    -0.001233
     37 C                    -0.007594
     38 C                     0.002752
     39 C                    -0.084138
     40 C                     0.006950
     41 C                     0.014766
     42 C                    -0.028358
     43 C                     0.004922
     44 C                    -0.016399
     45 C                    -0.084050
     46 C                     0.028015
     47 C                     0.005268
     48 C                     0.016186
     49 C                    -0.000001
     50 C                     0.000322
     51 C                    -0.009358
     52 C                     0.013758
     53 C                     0.060641
     54 C                     0.009185
     55 C                    -0.010640
     56 C                     0.003663
     57 C                     0.000509
     58 C                    -0.001611
     59 C                     0.016068
     60 C                     0.011827
     61 C                    -0.010838
     62 C                    -0.028984
     63 C                    -0.000595
     64 C                     0.006691
     65 C                     0.008283
     66 C                    -0.002641
     67 C                    -0.009030
     68 C                     0.028478
     69 C                     0.007576
     70 C                     0.018528
     71 C                    -0.028050
     72 C                     0.012231
     73 C                    -0.024334
     74 C                    -0.006340
     75 C                    -0.007839
     76 C                    -0.003624
     77 C                     0.006903
     78 C                    -0.001524
     79 C                     0.015371
     80 C                    -0.008220
     81 C                    -0.016264
     82 C                    -0.021928
     83 C                    -0.010987
     84 C                     0.008195
     85 C                    -0.013186
     86 C                     0.007894
     87 C                     0.003006
     88 C                    -0.009696
     89 O                    -0.485404
     90 C                    -0.078519
     91 H                     0.125705
     92 H                     0.133470
     93 H                     0.126942
     94 O                    -0.476439
     95 C                     0.597221
     96 C                    -0.256385
     97 H                     0.133988
     98 H                     0.137067
     99 C                    -0.198588
    100 H                     0.126217
    101 H                     0.112643
    102 C                    -0.166923
    103 H                     0.105408
    104 H                     0.111635
    105 C                     0.010933
    106 C                     0.103422
    107 C                    -0.115500
    108 H                     0.095754
    109 C                    -0.086071
    110 H                     0.094988
    111 C                    -0.074859
    112 H                     0.086000
    113 C                    -0.092047
    114 H                     0.096313
    115 C                    -0.125965
    116 H                     0.093171
    117 C                    -0.007728
    118 C                     0.010131
    119 C                     0.011296
    120 C                    -0.007067
    121 C                     0.015812
    122 C                    -0.031469
    123 C                     0.038708
    124 C                    -0.012648
    125 C                    -0.009333
    126 C                    -0.034141
    127 C                    -0.096959
    128 C                    -0.015577
    129 C                    -0.008889
    130 C                    -0.032079
    131 C                    -0.004584
    132 C                     0.023814
    133 C                    -0.072986
    134 C                     0.051250
    135 C                    -0.002611
    136 C                    -0.013314
    137 C                    -0.023825
    138 C                     0.012811
    139 C                    -0.015139
    140 C                     0.012754
    141 C                     0.045326
    142 C                     0.054942
    143 C                     0.015733
    144 C                    -0.013100
    145 C                    -0.008021
    146 C                     0.018744
    147 C                    -0.007785
    148 C                     0.026057
    149 C                     0.000587
    150 C                     0.009250
    151 C                    -0.006323
    152 C                    -0.001864
    153 C                    -0.023423
    154 C                     0.023830
    155 C                    -0.027815
    156 C                    -0.016583
    157 C                     0.006661
    158 C                     0.045098
    159 C                    -0.000718
    160 C                    -0.006976
    161 C                    -0.000830
    162 C                    -0.003497
    163 C                    -0.036824
    164 C                     0.010224
    165 C                     0.000800
    166 C                    -0.005270
    167 C                     0.012792
    168 C                     0.005979
    169 C                    -0.007312
    170 C                     0.005332
    171 C                    -0.016211
    172 C                    -0.013094
    173 C                    -0.022835
    174 C                     0.017496
    175 C                    -0.010402
    176 C                     0.005708
  ----------------------------------------
  Sum of atomic charges =     0.000000

 -----------------------------------------------------------------
                    Cartesian Multipole Moments
 -----------------------------------------------------------------
    Charge (ESU x 10^10)
                 0.0000
    Dipole Moment (Debye)
         X       2.4047      Y      -5.3739      Z       0.1613
       Tot       5.8896
    Quadrupole Moments (Debye-Ang)
        XX    -775.8155     XY       9.0698     YY    -794.7157
        XZ     -21.5915     YZ      -4.4692     ZZ    -791.6753
    Octopole Moments (Debye-Ang^2)
       XXX     120.2738    XXY    -547.6509    XYY    -115.7855
       YYY    -344.1490    XXZ    -134.6740    XYZ      56.5048
       YYZ      31.0606    XZZ      90.0273    YZZ    -154.1104
       ZZZ     -22.7680
    Hexadecapole Moments (Debye-Ang^3)
      XXXX -136844.6411   XXXY     953.0464   XXYY  -27941.1537
      XYYY    1530.7260   YYYY  -41731.4208   XXXZ   -1978.2521
      XXYZ     520.8203   XYYZ    -220.5036   YYYZ    -240.0440
      XXZZ  -27072.3881   XYZZ     -55.4355   YYZZ  -11222.4641
      XZZZ   -1257.1447   YZZZ     -92.4727   ZZZZ  -25658.5198
 -----------------------------------------------------------------
Archival summary:
1\1\mn366\SP\ProcedureUnspecified\6-31G**\428\afmv_a\SatOct604:09:112018SatOct604:09:112018\0\\#,ProcedureUnspecified,6-31G**,\\0,1\C\C,1,1.40825\C,2,1.37802,1,111.565\C,3,1.39088,2,119.258,1,144.074,0\C,4,1.36169,3,120.017,2,6.34713,0\C,5,1.38124,4,106.878,3,-146.674,0\C,4,1.38449,3,123.53,2,-140.091,0\C,7,1.37967,4,108.468,3,143.43,0\C,6,1.39796,5,120.76,4,143.491,0\C,9,1.34513,6,118.918,5,-136.396,0\C,10,1.36894,9,107.977,6,142.497,0\C,10,1.37029,9,121.148,6,-3.26198,0\C,11,1.39204,10,110.506,9,1.09124,0\C,13,1.38358,11,104.754,10,-0.626422,0\C,12,1.39989,10,123.922,9,-1.97512,0\C,15,1.39739,12,111.092,10,141.486,0\C,13,1.40006,11,118.494,10,-139.418,0\C,3,1.40316,2,105.563,1,6.84379,0\C,2,1.40337,1,119.879,3,151.212,0\C,19,1.37228,2,119.108,1,-10.9517,0\C,20,1.36246,19,122.189,2,8.72686,0\C,21,1.38527,20,120.243,19,-2.02822,0\C,21,1.38895,20,116.427,19,-139.899,0\C,20,1.40003,19,109.336,2,-142.453,0\C,24,1.40196,20,108.737,19,5.87321,0\C,7,1.40656,4,118.628,3,4.20508,0\C,26,1.39957,7,123.256,4,136.825,0\C,5,1.41075,4,122.204,3,-2.38544,0\C,24,1.41277,20,121.574,19,143.767,0\C,29,1.39367,24,117.58,20,3.58837,0\C,30,1.39047,29,106.582,24,-142.509,0\C,31,1.40352,30,110.121,29,0.93725,0\C,32,1.36565,31,119.391,30,141.58,0\C,33,1.35035,32,119.176,31,-135.987,0\C,34,1.38168,33,110.748,32,145.805,0\C,35,1.3918,34,121.099,33,-145.704,0\C,35,1.40736,34,106.204,33,-2.58034,0\C,37,1.40224,35,108.419,34,1.62773,0\C,38,1.37934,37,122.082,35,-142.647,0\C,39,1.38052,38,121.685,37,134.248,0\C,39,1.38404,38,118.469,37,-2.07664,0\C,40,1.41182,39,110.989,38,-143.053,0\C,42,1.40088,40,105.637,39,5.91317,0\C,43,1.39741,42,121.239,40,140.203,0\C,37,1.41399,35,119.803,34,-140.402,0\C,45,1.37831,37,118.959,35,139.87,0\C,46,1.40368,45,104.423,37,-145.287,0\C,47,1.39148,46,118.151,45,140.126,0\C,48,1.39465,47,122.167,46,-138.776,0\C,45,1.41444,37,120.526,35,-3.20193,0\C,50,1.38569,45,118.136,37,2.65004,0\C,49,1.4152,48,108.267,47,142.859,0\C,52,1.38114,49,109.591,48,1.9553,0\C,53,1.37294,52,121.279,49,-146.567,0\C,52,1.38212,49,121.275,48,-145.175,0\C,54,1.3844,53,116.933,52,138.74,0\C,18,1.42036,3,118.674,2,148.155,0\C,57,1.43345,18,114.984,3,-143.74,0\C,58,1.44793,57,107.787,18,148.678,0\C,47,1.46941,46,115.343,45,-8.01881,0\C,60,1.49257,47,131.125,46,-140.938,0\C,61,1.49356,60,120.884,47,142.227,0\C,62,1.40421,61,119.182,60,-55.8189,0\H,63,1.08633,62,126.082,61,-0.936424,0\C,62,1.41857,61,123.228,60,129.755,0\H,65,1.08593,62,120.925,61,-5.08756,0\C,65,1.42492,62,120.649,61,174.255,0\H,67,1.08556,65,123.105,62,177.946,0\C,67,1.39824,65,119.563,62,-5.95906,0\H,69,1.0869,67,121.018,65,-172.574,0\C,69,1.38582,67,121.886,65,3.68337,0\H,71,1.08545,69,116.675,67,-176.913,0\C,61,1.55119,60,113.454,47,4.85635,0\H,73,1.09651,61,112.52,60,-35.1979,0\H,73,1.0974,61,109.309,60,-150.736,0\C,73,1.48511,61,113.483,60,79.2492,0\H,76,1.09651,73,119.274,61,60.469,0\H,76,1.09651,73,100.062,61,-58.4413,0\C,76,1.59408,73,114.395,61,-166.441,0\H,79,1.09662,76,100.215,73,171.52,0\H,79,1.09698,76,116.111,73,-66.6716,0\C,79,1.51694,76,117.566,73,63.4157,0\O,82,1.23193,79,123.243,76,-141.918,0\O,82,1.3943,79,112.361,76,40.8725,0\C,84,1.44792,82,118.29,79,179.318,0\H,85,1.09731,84,107.839,82,-176.46,0\H,85,1.09736,84,113.316,82,60.8399,0\H,85,1.09748,84,102.748,82,-64.4482,0\H,87,2.27991,85,142.899,84,138.278,0\C,89,1.08589,87,146.39,85,94.0898,0\C,90,1.38216,89,114.457,87,91.1279,0\H,91,1.08604,90,116.605,89,-8.16799,0\C,90,1.39333,89,121.995,87,-101.348,0\H,93,1.0863,90,124.827,89,12.2843,0\C,91,1.3973,90,115.604,89,173.723,0\C,93,1.40651,90,120.305,89,-172.463,0\H,96,1.08593,93,118.515,90,-173.799,0\C,96,1.34524,93,118.899,90,3.08499,0\H,98,1.08572,96,120.786,93,-172.712,0\C,95,1.51753,91,115.102,90,176.173,0\C,100,1.52902,95,118.777,91,126.476,0\C,101,1.44712,100,122.803,95,10.4368,0\C,102,1.43466,101,118.48,100,-71.9307,0\C,103,1.42676,102,119.239,101,-143.314,0\C,104,1.39859,103,110.032,102,146.636,0\C,104,1.4219,103,119.489,102,4.4153,0\C,106,1.40518,104,122.77,103,144.446,0\C,107,1.37929,106,104.607,104,-144.198,0\C,108,1.39137,107,111.625,106,-8.00655,0\C,109,1.37734,108,106.119,107,7.69738,0\C,109,1.3908,108,120.48,107,145.803,0\C,107,1.39506,106,116.148,104,-8.33536,0\C,111,1.40191,109,121.29,108,-137.113,0\C,112,1.40227,107,123.459,106,5.23642,0\C,113,1.42476,111,119.341,109,2.24351,0\C,115,1.37937,113,119.869,111,-2.45663,0\C,115,1.40011,113,122.246,111,138.139,0\C,114,1.42777,112,108.937,107,-141.017,0\C,118,1.38122,114,109.244,112,-2.873,0\C,119,1.37774,118,106.229,114,3.73776,0\C,119,1.39366,118,120.449,114,143.246,0\C,121,1.38453,119,120.876,118,2.82071,0\C,122,1.39505,121,106.987,119,-141.271,0\C,123,1.38343,122,109.383,121,-3.452,0\C,124,1.39206,123,119.59,122,145.379,0\C,122,1.39574,121,117.771,119,-4.405,0\C,126,1.39099,122,123.093,121,7.41271,0\C,121,1.39973,119,118.305,118,-138.085,0\C,128,1.37121,121,124.005,119,3.25755,0\C,129,1.38727,128,122.627,121,139.684,0\C,125,1.40098,124,120.639,123,-136.084,0\C,127,1.40124,126,108.053,122,-143.47,0\C,131,1.40286,125,110.649,124,143.285,0\C,133,1.39887,131,120.719,125,-141.189,0\C,120,1.40939,119,123.384,118,142.622,0\C,135,1.37124,120,125.76,119,-138.635,0\C,136,1.3944,135,109.868,120,136.567,0\C,137,1.38569,136,120.166,135,-142.31,0\C,126,1.41151,122,121.426,121,-141.519,0\C,139,1.384,126,105.871,122,146.03,0\C,139,1.39481,126,119.909,122,8.62162,0\C,141,1.40227,139,121.681,126,134.057,0\C,142,1.38951,141,117.825,139,-1.73953,0\C,143,1.39971,142,122.599,141,3.62582,0\C,144,1.38301,143,106.241,142,-145.324,0\C,145,1.37567,144,119.215,143,140.664,0\C,146,1.39022,145,122.38,144,-1.9476,0\C,143,1.40237,142,118.989,141,-140.356,0\C,148,1.38631,143,117.527,142,7.08189,0\C,123,1.41188,122,120.727,121,139.73,0\C,150,1.34982,123,124.284,122,-146.163,0\C,151,1.37866,150,107.695,123,147.143,0\C,152,1.38241,151,118.454,150,-133.803,0\C,153,1.39714,152,124.234,151,-5.75024,0\C,134,1.41566,133,121.993,131,137.517,0\C,155,1.38986,134,117.541,133,-1.88199,0\C,156,1.41486,155,118.183,134,-132.436,0\C,154,1.42626,153,117.393,152,4.32379,0\C,158,1.41854,154,119.514,153,-2.30602,0\C,145,1.45394,144,113.631,143,-8.34104,0\C,100,1.55475,95,116.818,91,-80.0542,0\H,161,1.09658,100,110.653,95,43.453,0\H,161,1.09742,100,106.083,95,161.689,0\C,161,1.53127,100,111.094,95,-81.1148,0\H,164,1.09683,161,107.214,100,77.2423,0\H,164,1.09703,161,114.235,100,-49.2064,0\C,164,1.50701,161,107.722,100,-170.337,0\H,167,1.09614,164,110.944,161,-41.5543,0\H,167,1.09777,164,113.613,161,-161.766,0\C,167,1.52885,164,112.433,161,77.6278,0\O,170,1.22157,167,126.269,164,-14.7664,0\O,170,1.37391,167,109.884,164,164.329,0\C,172,1.47742,170,120.472,167,177.488,0\H,173,1.09701,172,108.398,170,157.569,0\H,173,1.09704,172,104.752,170,34.3329,0\H,173,1.09708,172,117.326,170,-81.9419,0\\\@

 Total job time:  863.16s(wall), 7328.81s(cpu) 
 Sat Oct  6 04:09:11 2018

        *************************************************************
        *                                                           *
        *  Thank you very much for using Q-Chem.  Have a nice day.  *
        *                                                           *
        *************************************************************


