
Running Job 1 of 1 ./7/14.qcin
qchem ./7/14.qcin_135327.0 /tmpu/cab_g/afmv_a/scratch_qchem/qchem135327/ 1
/tmpu/appuserlic/qchem4.4/serial-multicore/exe/qcprog.exe_s ./7/14.qcin_135327.0 /tmpu/cab_g/afmv_a/scratch_qchem/qchem135327/
Check license passed

                  Welcome to Q-Chem
     A Quantum Leap Into The Future Of Chemistry


 Q-Chem 4.4, Q-Chem, Inc., Pleasanton, CA (2016)

 Y. Shao,  Z. Gan,  E. Epifanovsky,  A. T. B. Gilbert,  M. Wormit,  
 J. Kussmann,  A. W. Lange,  A. Behn,  J. Deng,  X. Feng,  D. Ghosh,  
 M. Goldey,  P. R. Horn,  L. D. Jacobson,  I. Kaliman,  F. Rob,  
 R. Z. Khaliullin,  T. Kus,  A. Landau,  J. Liu,  E. I. Proynov,  Y. M. Rhee,  
 R. M. Richard,  M. A. Rohrdanz,  R. P. Steele,  E. J. Sundstrom,  
 H. L. Woodcock III,  P. M. Zimmerman,  D. Zuev,  B. Albrecht,  E. Alguire,  
 B. Austin,  S. A. Baeppler,  G. J. O. Beran,  Y. A. Bernard,  E. Berquist,  
 K. Brandhorst,  K. B. Bravaya,  S. T. Brown,  D. Casanova,  C.-M. Chang,  
 Y. Chen,  S. H. Chien,  K. D. Closser,  M. P. Coons,  D. L. Crittenden,  
 S. Dasgupta,  M. Diedenhofen,  R. A. DiStasio Jr.,  H. Do,  A. D. Dutoi,  
 R. G. Edgar,  P.-T. Fang,  S. Fatehi,  Q. Feng,  L. Fusti-Molnar,  
 A. Ghysels,  A. Golubeva-Zadorozhnaya,  J. Gomes,  A. Gunina,  
 M. W. D. Hanson-Heine,  P. H. P. Harbach,  A. W. Hauser,  J. E. Herr,  
 E. G. Hohenstein,  Z. C. Holden,  K. Hui,  T.-C. Jagau,  H. Ji,  B. Kaduk,  
 K. Khistyaev,  Jaehoon Kim,  Jihan Kim,  R. A. King,  P. Klunzinger,  
 K. Koh,  D. Kosenkov,  T. Kowalczyk,  C. M. Krauter,  A. Kunitsa,  
 K. U. Lao,  A. Laurent,  K. V. Lawler,  J. Lee,  D. Lefrancois,  S. Lehtola,  
 S. V. Levchenko,  C. Y. Lin,  Y.-S. Lin,  F. Liu,  E. Livshits,  
 R. C. Lochan,  A. Luenser,  P. Manohar,  S. F. Manzer,  S.-P. Mao,  Y. Mao,  
 N. Mardirossian,  A. V. Marenich,  L. A. Martinez-Martinez,  S. A. Maurer,  
 N. J. Mayhall,  J.-M. Mewes,  A. F. Morrison,  K. Nanda,  T. S. Nguyen-Beck,  
 C. M. Oana,  R. Olivares-Amaya,  D. P. O'Neill,  J. A. Parkhill,  
 T. M. Perrine,  R. Peverati,  P. A. Pieniazek,  F. Plasser,  A. Prociuk,  
 D. R. Rehn,  E. Rosta,  N. J. Russ,  N. Sergueev,  S. M. Sharada,  
 S. Sharma,  D. W. Small,  A. Sodt,  T. Stauch,  T. Stein,  D. Stuck,  
 Y.-C. Su,  A. J. W. Thom,  T. Tsuchimochi,  L. Vogt,  O. Vydrov,  T. Wang,  
 M. A. Watson,  J. Wenzel,  A. White,  C. F. Williams,  V. Vanovschi,  
 K. Yao,  S. Yeganeh,  S. R. Yost,  Z.-Q. You,  I. Y. Zhang,  X. Zhang,  
 Y. Zhao,  B. R. Brooks,  G. K. L. Chan,  D. M. Chipman,  C. J. Cramer,  
 W. A. Goddard III,  M. S. Gordon,  W. J. Hehre,  A. Klamt,  
 H. F. Schaefer III,  M. W. Schmidt,  C. D. Sherrill,  D. G. Truhlar,  
 A. Warshel,  X. Xu,  A. Aspuru-Guzik,  R. Baer,  A. T. Bell,  N. A. Besley,  
 J.-D. Chai,  A. Dreuw,  B. D. Dunietz,  T. R. Furlani,  S. R. Gwaltney,  
 C.-P. Hsu,  Y. Jung,  J. Kong,  D. S. Lambrecht,  W. Liang,  C. Ochsenfeld,  
 V. A. Rassolov,  L. V. Slipchenko,  J. E. Subotnik,  T. Van Voorhis,  
 J. M. Herbert,  A. I. Krylov,  P. M. W. Gill,  M. Head-Gordon

 Contributors to earlier versions of Q-Chem not listed above: 
 R. D. Adamson,  J. Baker,  E. F. C. Byrd,  A. K. Chakraborty,  C.-L. Cheng,  
 H. Dachsel,  R. J. Doerksen,  G. Hawkins,  A. Heyden,  S. Hirata,  
 G. Kedziora,  F. J. Keil,  C. Kelley,  P. P. Korambath,  W. Kurlancheek,  
 A. M. Lee,  M. S. Lee,  D. Liotard,  I. Lotan,  P. E. Maslen,  N. Nair,  
 D. Neuhauser,  R. Olson,  B. Peters,  J. Ritchie,  N. E. Schultz,  
 N. Shenvi,  A. C. Simmonett,  K. S. Thanthiriwatte,  Q. Wu,  W. Zhang

 Please cite Q-Chem as follows:
 Y. Shao et al., Mol. Phys. 113, 184-215 (2015)
 DOI: 10.1080/00268976.2014.952696

 Q-Chem 4.4.2 for Intel X86 Linux

 Parts of Q-Chem use Armadillo 5.200.1 (Boston Tea Smuggler).
 http://arma.sourceforge.net/

 Q-Chem begins on Sat Oct  6 04:23:38 2018  

Host: 
0

     Scratch files written to /tmpu/cab_g/afmv_a/scratch_qchem/qchem135327//
 Dec716 11556_ 22328  22283 4050   
Processing $rem in /tmpu/appuserlic/qchem4.4/serial-multicore/config/preferences.
 MEM_TOTAL  2000 
FILE_GEOM_ORG=        593

Checking the input file for inconsistencies... 	...done.

--------------------------------------------------------------
User input:
--------------------------------------------------------------
$comment
SP
$end

$rem
MEM_STATIC 5000
MEM_TOTAL 20000
JOBTYPE SP
EXCHANGE B3LYP
BASIS 6-31g(d,p)
$end

$molecule
0 1
O          -8.828000     15.822000     -1.054000
C          -7.683000     15.198000     -1.780000
H          -6.793000     15.836000     -1.842000
H          -7.925000     14.938000     -2.818000
H          -7.557000     14.248000     -1.246000
O          -9.939000     13.802000     -0.883000
C          -9.900000     15.003000     -0.753000
C         -11.107000     15.813000     -0.348000
H         -11.975000     15.149000     -0.446000
H         -11.241000     16.579000     -1.122000
C         -11.033000     16.467000      1.017000
H         -11.315000     15.674000      1.722000
H         -10.035000     16.835000      1.285000
C         -12.104000     17.625000      1.023000
H         -12.002000     18.230000      0.114000
H         -13.137000     17.259000      1.057000
C         -12.022000     18.493000      2.307000
C         -12.841000     17.932000      3.434000
C         -12.275000     17.050000      4.272000
H         -11.232000     16.773000      4.152000
C         -13.009000     16.492000      5.299000
H         -12.634000     15.697000      5.936000
C         -14.392000     16.805000      5.443000
H         -15.042000     16.331000      6.172000
C         -15.001000     17.670000      4.481000
H         -16.068000     17.867000      4.517000
C         -14.210000     18.370000      3.588000
H         -14.715000     19.087000      2.947000
C         -12.437000     23.641000      4.199000
C         -10.953000     22.554000      5.845000
C          -7.140000     24.680000      4.398000
C         -10.720000     22.922000     -0.602000
C          -6.039000     21.961000      2.435000
C         -12.058000     22.496000      4.942000
C          -7.872000     22.916000     -0.462000
C          -9.410000     25.545000      4.745000
C          -8.797000     19.538000      4.080000
C         -10.026000     21.714000     -0.592000
C         -10.738000     19.218000      2.662000
C          -8.368000     19.389000      2.782000
C          -8.234000     20.586000      0.143000
C          -6.697000     22.943000      0.346000
C         -10.885000     20.481000      4.923000
C          -6.379000     24.400000      2.321000
C         -11.900000     19.947000      2.148000
C         -11.769000     20.753000      0.840000
C          -5.988000     23.236000      3.061000
C          -9.951000     25.875000      1.222000
C          -8.125000     25.967000      2.628000
C          -9.315000     26.083000      3.463000
C         -10.585000     24.899000      5.180000
C         -12.392000     21.980000      0.984000
C         -10.191000     19.509000      4.076000
C         -10.202000     23.763000      5.921000
C          -8.644000     21.736000     -0.573000
C         -10.229000     21.345000      5.789000
C          -7.206000     20.029000      2.301000
C         -11.916000     24.354000      0.740000
C          -8.289000     24.799000      5.215000
C          -9.483000     19.233000      1.890000
C         -11.602000     25.320000      3.018000
C          -7.100000     20.632000      1.002000
C          -8.111000     20.439000      4.935000
C          -7.824000     24.898000      0.501000
C          -8.588000     24.066000     -0.291000
C          -6.972000     21.073000      4.493000
C         -11.805000     23.078000      0.249000
C         -10.497000     20.653000      0.208000
C         -10.690000     25.026000      0.374000
C         -12.397000     21.070000      3.062000
C          -8.149000     22.466000      5.884000
C          -9.394000     19.918000      0.640000
C          -6.518000     20.877000      3.179000
C         -12.283000     24.487000      2.115000
C          -6.470000     23.428000      4.348000
C         -11.688000     24.829000      4.313000
C          -7.103000     25.240000      3.145000
C          -8.817000     21.276000      5.834000
C          -7.024000     22.362000      5.055000
C         -11.971000     21.183000      4.388000
C         -12.821000     22.195000      2.312000
C          -8.544000     25.798000      1.328000
C          -8.798000     23.725000      5.916000
C          -6.354000     21.822000      1.091000
C          -9.970000     24.070000     -0.390000
C          -6.667000     24.211000      0.953000
C         -12.769000     23.432000      2.885000
C         -10.440000     26.020000      2.588000
O          -5.408000     27.435000      1.912000
C          -5.410000     28.343000      3.022000
H          -5.635000     29.331000      2.603000
H          -4.515000     28.216000      3.644000
H          -6.215000     28.095000      3.725000
O          -3.684000     28.447000      0.710000
C          -4.502000     27.555000      0.852000
C          -4.774000     26.506000     -0.263000
H          -5.849000     26.557000     -0.475000
H          -4.473000     25.526000      0.127000
C          -3.967000     26.686000     -1.573000
H          -4.096000     27.731000     -1.880000
H          -2.930000     26.386000     -1.375000
C          -4.600000     25.824000     -2.623000
H          -5.241000     25.038000     -2.206000
H          -5.336000     26.472000     -3.116000
C          -3.585000     25.220000     -3.639000
C          -3.013000     26.237000     -4.615000
C          -1.912000     27.031000     -4.255000
H          -1.444000     26.793000     -3.304000
C          -1.589000     28.111000     -5.050000
H          -0.756000     28.765000     -4.810000
C          -2.380000     28.413000     -6.191000
H          -2.255000     29.383000     -6.663000
C          -3.432000     27.627000     -6.606000
H          -4.122000     27.950000     -7.380000
C          -3.684000     26.526000     -5.830000
H          -4.672000     26.075000     -5.827000
C          -3.041000     21.473000     -7.561000
C          -0.761000     21.907000     -6.856000
C          -0.119000     17.892000     -4.806000
C          -5.859000     20.137000     -3.619000
C          -0.706000     19.183000     -1.560000
C          -2.052000     22.393000     -7.101000
C          -4.297000     18.774000     -1.749000
C          -1.222000     18.403000     -6.910000
C          -0.665000     22.973000     -2.962000
C          -5.363000     20.833000     -2.505000
C          -2.736000     24.023000     -3.318000
C          -1.486000     22.570000     -1.900000
C          -3.667000     21.039000     -1.110000
C          -2.984000     18.293000     -1.529000
C          -1.299000     23.518000     -5.258000
C          -1.378000     17.373000     -3.005000
C          -3.927000     23.871000     -4.181000
C          -4.964000     22.839000     -3.840000
C          -0.422000     18.270000     -2.567000
C          -4.399000     17.671000     -5.696000
C          -2.292000     16.978000     -5.236000
C          -2.321000     17.566000     -6.550000
C          -1.472000     19.636000     -7.640000
C          -5.409000     22.174000     -4.986000
C          -1.370000     23.874000     -3.855000
C          -0.486000     20.514000     -7.118000
C          -4.624000     20.138000     -1.533000
C          -0.296000     22.593000     -5.728000
C          -1.234000     21.283000     -1.256000
C          -5.667000     19.809000     -5.894000
C          -0.126000     18.529000     -6.073000
C          -2.736000     23.143000     -2.060000
C          -3.868000     19.285000     -7.431000
C          -2.329000     20.577000     -0.873000
C           0.310000     22.029000     -3.472000
C          -3.823000     17.249000     -3.370000
C          -4.799000     18.144000     -2.882000
C           0.637000     20.790000     -2.806000
C          -5.871000     20.828000     -4.887000
C          -4.898000     22.133000     -2.641000
C          -5.433000     18.590000     -5.185000
C          -3.636000     23.474000     -5.624000
C           0.804000     20.554000     -5.031000
C          -3.809000     22.286000     -1.750000
C          -0.225000     20.480000     -1.751000
C          -4.832000     20.208000     -6.916000
C           0.409000     18.574000     -3.690000
C          -2.739000     20.127000     -7.754000
C          -1.187000     17.147000     -4.336000
C           0.518000     21.903000     -4.800000
C           0.937000     19.873000     -3.831000
C          -2.362000     23.398000     -6.169000
C          -4.576000     22.504000     -6.023000
C          -3.639000     17.061000     -4.756000
C           0.353000     19.860000     -6.195000
C          -2.000000     19.252000     -1.104000
C          -5.645000     18.775000     -3.769000
C          -2.692000     17.345000     -2.532000
C          -4.293000     21.496000     -7.014000
C          -3.621000     18.014000     -6.891000
$end

--------------------------------------------------------------
 ----------------------------------------------------------------
             Standard Nuclear Orientation (Angstroms)
    I     Atom           X                Y                Z
 ----------------------------------------------------------------
    1      O       1.5687694185    -6.0735947537     0.5721931854
    2      C       0.2374368933    -6.6233123934     0.1812440531
    3      H      -0.4542737524    -5.8732932393    -0.2212427806
    4      H      -0.2963778975    -7.0884321869     1.0192854283
    5      H       0.5116010135    -7.4386095101    -0.4996793249
    6      O       2.4970259332    -8.1850486974     0.7273192194
    7      C       2.5568559115    -6.9882022019     0.8848020433
    8      C       3.7135897194    -6.3210206018     1.5875179249
    9      H       4.2797708397    -7.1197409307     2.0829054249
   10      H       3.2811099542    -5.7263273475     2.4018208083
   11      C       4.5934617174    -5.4438880074     0.7198309543
   12      H       5.2820404507    -6.1416217278     0.2254374031
   13      H       4.0490201575    -4.8843715410    -0.0507381288
   14      C       5.3777554777    -4.4836289686     1.6949344750
   15      H       4.6809077259    -4.0313043635     2.4108364672
   16      H       6.1544043488    -4.9960173185     2.2749997385
   17      C       6.1962319018    -3.4105471865     0.9285169438
   18      C       7.5650206716    -3.8958245562     0.5457191148
   19      C       7.7263980363    -4.5249900215    -0.6284325634
   20      H       6.8839781932    -4.6512904857    -1.3017489829
   21      C       8.9647709140    -5.0108051312    -0.9962168685
   22      H       9.1277906135    -5.6189443443    -1.8805303169
   23      C      10.0714903072    -4.8987163303    -0.1051488098
   24      H      11.0446167744    -5.3396071348    -0.2981699937
   25      C       9.8566083489    -4.3136379990     1.1817307846
   26      H      10.6590838924    -4.2830542221     1.9122727989
   27      C       8.6683030238    -3.6582026409     1.4490600674
   28      H       8.5973750662    -3.1470218816     2.4049148975
   29      C       7.7906687783     1.8523558154     1.0443445730
   30      C       7.8358482971     1.3030685799    -1.3617691700
   31      C       4.0641936736     3.7270125997    -2.3873279398
   32      C       3.2534006518     0.6161514363     3.1418782869
   33      C       1.9195685517     0.9238215567    -2.3521987080
   34      C       8.0235250157     0.9219740436     0.0018078919
   35      C       1.2727349180     1.0800695399     1.1437583596
   36      C       5.9562363233     4.2714269017    -0.9226362727
   37      C       5.0577062118    -1.5906582682    -2.2381757439
   38      C       2.7549586889    -0.4491624061     2.3951105674
   39      C       5.5025996570    -2.4441540553    -0.0123680784
   40      C       3.8566528930    -1.8862190685    -1.6372092400
   41      C       1.9521069341    -1.1429288046     0.4207777069
   42      C       0.9690209004     1.4260227548    -0.2061646637
   43      C       7.1564703138    -0.8585955341    -1.2287623511
   44      C       2.0880048929     3.2252822806    -1.4848898035
   45      C       5.9976046534    -2.0029365648     1.2938394777
   46      C       5.0064174831    -1.4173751477     2.3196692981
   47      C       2.3100698739     2.2777849808    -2.5376542649
   48      C       3.9393329479     3.9167950571     2.0132532057
   49      C       3.5702078280     4.5283466589    -0.1797646429
   50      C       5.0092492279     4.5948665591     0.0472066162
   51      C       7.1110286117     3.5315404326    -0.5967700682
   52      C       5.5584800805    -0.2966070590     2.9142277730
   53      C       6.0713554700    -1.8379891530    -1.3132781200
   54      C       7.3395943278     2.6102095510    -1.6384864980
   55      C       1.7603288455    -0.2080084108     1.4659576063
   56      C       7.2703631930     0.2304096474    -2.0819236059
   57      C       2.6798599154    -1.1619267304    -1.9231531105
   58      C       5.0430340766     2.0476437457     3.3152160291
   59      C       5.4610208128     3.7998570974    -2.1742114873
   60      C       4.0592068105    -2.3624178849    -0.2972720781
   61      C       6.3725979938     3.4192230236     1.7114498135
   62      C       1.7131795356    -0.7763513905    -0.9336549041
   63      C       5.1421757619    -0.4627857908    -3.0950249546
   64      C       1.8956510871     3.1782191672     0.8834881386
   65      C       1.9111283625     2.1158510257     1.7634417657
   66      C       4.0088474305     0.2586057231    -3.3946950682
   67      C       4.6268131156     0.7407404491     3.2967258958
   68      C       3.6465141254    -1.4214164009     1.8977042212
   69      C       3.8982660585     2.8324033272     2.9123828331
   70      C       6.9848522678    -0.8344660540     1.2342339978
   71      C       5.8181866440     1.6633374346    -3.2777359771
   72      C       3.1384086562    -1.8914756837     0.6876087280
   73      C       2.7786437617    -0.0814667574    -2.8098210293
   74      C       6.2515915003     2.3502651296     2.6146360896
   75      C       3.5422118907     2.6050470656    -3.0856347194
   76      C       7.3218927214     3.1451194086     0.7371763773
   77      C       3.1793293051     4.0676416113    -1.3943702741
   78      C       6.2717083526     0.3920567773    -3.0704015850
   79      C       4.4306363015     1.5993184203    -3.4629051241
   80      C       7.5817069005    -0.4352711936     0.0355142595
   81      C       6.7800266284     0.0682241498     2.3071262820
   82      C       2.9860769537     4.0801061974     0.9829879578
   83      C       6.3125338731     2.7923868193    -2.5790412626
   84      C       1.2294795208     0.5136945054    -1.2206268229
   85      C       2.8509906044     1.8865812340     2.7553265013
   86      C       1.3618338443     2.7666949178    -0.3657552098
   87      C       7.1335478425     1.3764674196     2.1498866619
   88      C       5.2306742548     4.2104691339     1.4030932549
   89      O       1.0983368707     6.2627629599    -1.1448672621
   90      C       1.8589481751     7.3324224082    -1.7226796089
   91      H       1.7356492932     8.1884850726    -1.0486735997
   92      H       1.6321746902     7.4534087036    -2.7894382990
   93      H       2.9271580094     7.0828460886    -1.7421066652
   94      O      -0.9818861839     7.3162230524    -1.2082539822
   95      C      -0.2877690574     6.3436908861    -0.9688075369
   96      C      -0.8519450590     5.0930234917    -0.2372704512
   97      H      -0.2132827735     4.9386464176     0.6410507907
   98      H      -0.8039104326     4.2517908081    -0.9394963740
   99      C      -2.3370060124     5.1748941572     0.1959040620
  100      H      -2.4536791729     6.1202673735     0.7395692674
  101      H      -2.9573973519     5.0786179425    -0.7043283949
  102      C      -2.5935996996     4.0605702872     1.1647564720
  103      H      -1.8403852883     3.2650785961     1.1154916756
  104      H      -2.3947724557     4.4932266463     2.1536574792
  105      C      -4.0286376329     3.4612953538     1.0707741104
  106      C      -5.1142615976     4.3770235929     1.6156698797
  107      C      -5.6710865935     5.3827374388     0.8089961016
  108      H      -5.3612988723     5.3839745601    -0.2322046654
  109      C      -6.4513239383     6.3511318337     1.4058176677
  110      H      -6.8947952503     7.1584579004     0.8306978390
  111      C      -6.6556857212     6.3296967804     2.8117133965
  112      H      -7.0704334915     7.2141920844     3.2860142970
  113      C      -6.1722336886     5.3302201576     3.6266033355
  114      H      -6.1990711485     5.4066213717     4.7096303920
  115      C      -5.4567539650     4.3493244293     2.9911402482
  116      H      -4.7340811761     3.7560566485     3.5437082354
  117      C      -7.1072933451    -0.7583783625     2.6309861900
  118      C      -8.2873996587     0.1395743711     0.7114000427
  119      C      -7.3500914715    -3.3236761842    -2.0925682085
  120      C      -2.3539747986    -1.8389271279     1.4047067924
  121      C      -4.7012944032    -1.6145603742    -3.7082919593
  122      C      -7.5140926528     0.3691972951     1.8569006265
  123      C      -2.2121963440    -2.6070410862    -1.2756687069
  124      C      -7.9861768269    -3.3521425008     0.2524544118
  125      C      -5.6929539867     1.8454361110    -1.8707880565
  126      C      -1.9535943671    -0.8969002008     0.4436090978
  127      C      -4.4272475522     2.4831514308     0.0026001554
  128      C      -4.3672863146     1.5027208164    -2.1698623783
  129      C      -2.2355316699    -0.1966090701    -1.6288244210
  130      C      -3.0186566538    -2.8325444257    -2.4169399335
  131      C      -6.8024142332     1.8913407967     0.3058119806
  132      C      -5.1992340483    -3.7239459576    -2.6508149761
  133      C      -4.1494364480     2.0038021561     1.3735119918
  134      C      -3.1593669521     0.8940782622     1.5855244267
  135      C      -5.5970162822    -2.6276179138    -3.3925852334
  136      C      -4.8385189911    -4.3587465593     1.3396284634
  137      C      -6.0595054625    -4.6259071745    -0.5495817531
  138      C      -6.9380141349    -4.2786017228     0.5370563816
  139      C      -8.3042419615    -2.3137161252     1.2200257180
  140      C      -3.6188508195    -0.0151536380     2.5424663932
  141      C      -5.7906394024     2.4620861699    -0.5606448336
  142      C      -8.6663961975    -1.2170872772     0.3943057419
  143      C      -1.8267519230    -1.2944704664    -0.8979492790
  144      C      -7.8548294888     1.0693595351    -0.2412738768
  145      C      -4.1095062843     0.3976219471    -3.0901421971
  146      C      -4.0507875201    -2.5097536267     2.8156963022
  147      C      -8.2125023092    -2.9173469472    -1.0426867399
  148      C      -3.5657494826     1.8377050832    -1.0920157993
  149      C      -6.4140637088    -2.9957224214     2.5874289450
  150      C      -3.0485958898    -0.3968503777    -2.7944517169
  151      C      -6.7523193049     0.9938640687    -2.3751997726
  152      C      -3.6663111094    -4.2889914765    -0.7913804316
  153      C      -2.6212447027    -3.4889584060    -0.2819412385
  154      C      -6.5341934071    -0.0490736143    -3.3500372370
  155      C      -3.2134563336    -1.3809912885     2.4710253461
  156      C      -2.3864719979     0.4184286250     0.5287445005
  157      C      -3.7354374570    -3.5405841546     1.8768987946
  158      C      -5.3489659630     1.4209141663     2.1123689023
  159      C      -8.1786125649    -0.6258861171    -1.9367492373
  160      C      -2.5707518699     0.8874656955    -0.7938499783
  161      C      -5.1834781137    -0.3088715239    -3.5954801880
  162      C      -5.3592841371    -2.1620270473     3.0761436659
  163      C      -6.9716652866    -2.3899255570    -3.0796180496
  164      C      -7.4587795084    -2.0534884396     2.2577351147
  165      C      -6.2493007777    -4.1372803600    -1.8855486593
  166      C      -7.8127864834     0.6810261558    -1.6004315469
  167      C      -7.4538978446    -1.0665370125    -3.0331366518
  168      C      -6.6507985536     1.4551411531     1.6328509991
  169      C      -4.9361146386     0.2625857780     2.7990494165
  170      C      -4.7489386977    -4.6756648290     0.0262975145
  171      C      -8.6460239950    -1.5673035273    -0.9696955600
  172      C      -3.4457875442    -1.6736656756    -3.1539075345
  173      C      -2.6118611062    -3.1561851367     1.0559002691
  174      C      -3.9174531265    -3.8777425990    -2.1174358784
  175      C      -5.8201009964    -0.8404070574     3.0822612177
  176      C      -6.2238255594    -4.1034799311     1.7479453264
 ----------------------------------------------------------------
 Molecular Point Group                 C1    NOp =  1
 Largest Abelian Subgroup              C1    NOp =  1
 Nuclear Repulsion Energy = 34940.0354668370 hartrees
 There are      462 alpha and      462 beta electrons
 Requested basis set is 6-31G(d,p)
 There are 676 shells and 2360 basis functions

 Total QAlloc Memory Limit  20000 MB
 Mega-Array Size      4888 MB
 MEM_STATIC part      5000 MB
 A cutoff of  1.0D-08 yielded  37960 shell pairs
 There are    530806 function pairs
 
 -------------------------------------------------------
 OpenMP Integral Computing Module                       
 Release: version 1.0, May 2013, Q-Chem Inc. Pittsburgh 
 -------------------------------------------------------
 Integral Job Info:
 Integral job number is                      11
 Integral operator is                         1
 short-range coefficients                     0
 long-range coefficients              100000000
 Omega coefficients                           0
 if combine SR and LR in K                    0
 Integral screening is                        0
 Integral computing path is                   2
 max size of driver memory is            800000
 size of driver memory is                593474
 size of scratch memory is              2260544
 max col of scratch BK array               1296
 max len of scratch array in speh3          155
 max len of scratch index in speh4           18
 max int batch size is                      520
 min int batch size is                       52
 fixed nKL is                                52
 max L of basis functions is                  2
 order of int derivative is                   0
 number of shells is                        676
 number of basis is                        2360
 number of cartesian basis is              2360
 number of contracted shell pairs         37960
 number of primitive shell pairs         114586
 maxK2 (contraction) of shell pair           36
 max number of K2 of shell pair               1
 max number of CS2 of shell pair           7209
 max number of PS2 of shell pair          34494
 mem total for path MDJ                 1505704
 -------------------------------------------------------
 Smallest overlap matrix eigenvalue = 2.55E-04

 Scale SEOQF with 1.000000e-02/1.000000e-02/1.000000e-01

 Standard Electronic Orientation quadrupole field applied
 Nucleus-field energy     =    -0.0000001951 hartrees
 Guess from superposition of atomic densities
 Warning:  Energy on first SCF cycle will be non-variational
 A restricted hybrid HF-DFT SCF calculation will be
 performed using Pulay DIIS extrapolation
 Exchange:     0.2000 Hartree-Fock + 0.0800 Slater + 0.7200 B88
 Correlation:  0.1900 VWN1RPA + 0.8100 LYP
 Using SG-1 standard quadrature grid
 SCF converges when DIIS error is below 1.0E-05
 using 16 threads for integral computing 
 -------------------------------------------------------
 OpenMP BLAS3 based DFT computing Module                
 Release: version 1.0, May 2013, Q-Chem Inc. Pittsburgh 
 -------------------------------------------------------
 ---------------------------------------
  Cycle       Energy         DIIS Error
 ---------------------------------------
    1   -5858.0482600526      1.82E-02
    2   -5803.0996318412      1.29E-03
    3   -5802.3227390616      1.78E-03
    4   -5803.9501652244      6.45E-04
    5   -5804.1791527148      2.97E-04
    6   -5804.2383259140      1.21E-04
    7   -5804.2479316343      4.32E-05
    8   -5804.2487113816      2.74E-05
    9   -5804.2492397127      9.01E-06 Convergence criterion met
 ---------------------------------------
 SCF time:  CPU 7130.26 s  wall 823.94 s
 SCF   energy in the final basis set = -5804.2492397127
 Total energy in the final basis set = -5804.2492397127
 
 --------------------------------------------------------------
 
                    Orbital Energies (a.u.)
 --------------------------------------------------------------
 
 Alpha MOs
 -- Occupied --
-19.190 -19.187 -19.141 -19.136 -10.322 -10.314 -10.246 -10.244
-10.241 -10.239 -10.238 -10.238 -10.236 -10.236 -10.234 -10.231
-10.230 -10.229 -10.228 -10.228 -10.228 -10.228 -10.227 -10.227
-10.226 -10.224 -10.224 -10.224 -10.224 -10.223 -10.223 -10.223
-10.223 -10.223 -10.222 -10.222 -10.222 -10.221 -10.221 -10.221
-10.220 -10.220 -10.220 -10.220 -10.220 -10.220 -10.220 -10.219
-10.219 -10.219 -10.219 -10.219 -10.219 -10.218 -10.218 -10.218
-10.218 -10.218 -10.218 -10.218 -10.218 -10.218 -10.217 -10.217
-10.217 -10.217 -10.217 -10.217 -10.217 -10.217 -10.217 -10.217
-10.216 -10.216 -10.216 -10.216 -10.216 -10.216 -10.216 -10.216
-10.216 -10.216 -10.216 -10.216 -10.216 -10.216 -10.216 -10.216
-10.216 -10.215 -10.215 -10.215 -10.215 -10.215 -10.215 -10.215
-10.215 -10.215 -10.214 -10.214 -10.214 -10.214 -10.214 -10.214
-10.214 -10.213 -10.213 -10.213 -10.212 -10.212 -10.212 -10.212
-10.212 -10.212 -10.211 -10.211 -10.210 -10.210 -10.210 -10.210
-10.210 -10.209 -10.209 -10.209 -10.209 -10.208 -10.208 -10.207
-10.207 -10.206 -10.206 -10.205 -10.205 -10.204 -10.203 -10.203
-10.202 -10.201 -10.201 -10.200 -10.199 -10.198 -10.197 -10.197
-10.196 -10.194 -10.194 -10.191  -1.082  -1.081  -1.013  -1.007
 -0.984  -0.983  -0.967  -0.966  -0.965  -0.962  -0.962  -0.959
 -0.939  -0.938  -0.929  -0.928  -0.926  -0.924  -0.923  -0.921
 -0.919  -0.919  -0.900  -0.896  -0.893  -0.891  -0.885  -0.885
 -0.878  -0.874  -0.858  -0.857  -0.843  -0.842  -0.839  -0.839
 -0.837  -0.835  -0.824  -0.820  -0.810  -0.809  -0.798  -0.798
 -0.797  -0.795  -0.795  -0.793  -0.792  -0.789  -0.786  -0.784
 -0.772  -0.772  -0.769  -0.768  -0.767  -0.766  -0.764  -0.762
 -0.757  -0.755  -0.742  -0.739  -0.733  -0.733  -0.718  -0.717
 -0.715  -0.713  -0.713  -0.712  -0.711  -0.711  -0.711  -0.708
 -0.708  -0.706  -0.706  -0.703  -0.701  -0.700  -0.675  -0.672
 -0.661  -0.659  -0.657  -0.656  -0.649  -0.645  -0.633  -0.631
 -0.629  -0.629  -0.628  -0.624  -0.623  -0.620  -0.619  -0.616
 -0.616  -0.615  -0.614  -0.614  -0.612  -0.611  -0.610  -0.608
 -0.606  -0.605  -0.603  -0.601  -0.568  -0.565  -0.563  -0.562
 -0.560  -0.559  -0.558  -0.558  -0.557  -0.556  -0.555  -0.554
 -0.539  -0.536  -0.535  -0.533  -0.529  -0.529  -0.527  -0.525
 -0.524  -0.523  -0.522  -0.520  -0.518  -0.516  -0.515  -0.514
 -0.507  -0.507  -0.498  -0.498  -0.494  -0.492  -0.487  -0.486
 -0.484  -0.483  -0.483  -0.482  -0.480  -0.480  -0.477  -0.474
 -0.474  -0.473  -0.471  -0.469  -0.469  -0.467  -0.467  -0.466
 -0.465  -0.465  -0.464  -0.464  -0.463  -0.462  -0.461  -0.460
 -0.457  -0.455  -0.454  -0.452  -0.450  -0.449  -0.444  -0.444
 -0.443  -0.441  -0.440  -0.440  -0.438  -0.436  -0.435  -0.435
 -0.432  -0.432  -0.431  -0.429  -0.428  -0.427  -0.426  -0.425
 -0.425  -0.424  -0.423  -0.422  -0.422  -0.420  -0.420  -0.418
 -0.418  -0.417  -0.417  -0.415  -0.415  -0.414  -0.414  -0.412
 -0.412  -0.410  -0.410  -0.408  -0.401  -0.399  -0.397  -0.397
 -0.394  -0.394  -0.393  -0.392  -0.390  -0.388  -0.386  -0.383
 -0.383  -0.380  -0.377  -0.373  -0.372  -0.369  -0.369  -0.368
 -0.366  -0.364  -0.364  -0.364  -0.362  -0.361  -0.361  -0.359
 -0.358  -0.356  -0.356  -0.355  -0.355  -0.354  -0.354  -0.351
 -0.351  -0.349  -0.348  -0.347  -0.347  -0.346  -0.344  -0.344
 -0.343  -0.342  -0.341  -0.341  -0.338  -0.337  -0.335  -0.335
 -0.333  -0.332  -0.331  -0.329  -0.328  -0.327  -0.326  -0.323
 -0.312  -0.309  -0.300  -0.295  -0.292  -0.288  -0.273  -0.272
 -0.271  -0.270  -0.269  -0.268  -0.268  -0.267  -0.266  -0.266
 -0.264  -0.263  -0.262  -0.261  -0.259  -0.258  -0.258  -0.257
 -0.247  -0.246  -0.246  -0.243  -0.224  -0.223  -0.215  -0.214
 -0.211  -0.206  -0.206  -0.204  -0.202  -0.199
 -- Virtual --
 -0.126  -0.123  -0.121  -0.121  -0.110  -0.108  -0.083  -0.080
 -0.076  -0.075  -0.064  -0.061  -0.057  -0.053  -0.028  -0.027
 -0.022  -0.022  -0.020  -0.020  -0.019  -0.018  -0.016  -0.016
 -0.014  -0.012  -0.008  -0.008  -0.006  -0.005   0.005   0.006
  0.006   0.009   0.034   0.036   0.038   0.040   0.041   0.042
  0.045   0.048   0.053   0.055   0.058   0.061   0.062   0.063
  0.066   0.070   0.079   0.080   0.083   0.083   0.086   0.087
  0.090   0.091   0.096   0.097   0.098   0.100   0.102   0.102
  0.105   0.106   0.107   0.108   0.111   0.112   0.114   0.118
  0.119   0.120   0.122   0.123   0.124   0.128   0.134   0.136
  0.137   0.140   0.141   0.143   0.147   0.149   0.150   0.156
  0.156   0.158   0.159   0.161   0.163   0.163   0.165   0.167
  0.168   0.172   0.173   0.176   0.178   0.178   0.181   0.181
  0.182   0.183   0.185   0.185   0.186   0.187   0.189   0.190
  0.195   0.195   0.196   0.196   0.199   0.201   0.202   0.204
  0.210   0.211   0.212   0.213   0.215   0.216   0.217   0.219
  0.220   0.222   0.222   0.223   0.224   0.225   0.225   0.227
  0.229   0.231   0.232   0.232   0.233   0.235   0.238   0.239
  0.239   0.241   0.242   0.243   0.247   0.253   0.256   0.259
  0.260   0.262   0.268   0.269   0.270   0.272   0.274   0.276
  0.280   0.281   0.287   0.289   0.292   0.299   0.302   0.303
  0.304   0.309   0.310   0.311   0.313   0.315   0.316   0.317
  0.320   0.321   0.322   0.324   0.326   0.326   0.330   0.330
  0.331   0.333   0.336   0.340   0.342   0.342   0.345   0.346
  0.347   0.352   0.360   0.361   0.365   0.365   0.382   0.385
  0.389   0.392   0.393   0.396   0.399   0.399   0.403   0.405
  0.407   0.409   0.410   0.412   0.415   0.417   0.418   0.422
  0.423   0.424   0.429   0.432   0.434   0.435   0.442   0.443
  0.444   0.447   0.450   0.451   0.453   0.456   0.457   0.459
  0.461   0.462   0.464   0.466   0.467   0.470   0.471   0.473
  0.473   0.475   0.477   0.478   0.478   0.480   0.481   0.481
  0.482   0.484   0.485   0.485   0.487   0.489   0.490   0.492
  0.495   0.496   0.497   0.497   0.498   0.499   0.499   0.502
  0.502   0.503   0.504   0.506   0.506   0.507   0.508   0.508
  0.509   0.510   0.512   0.513   0.514   0.515   0.516   0.517
  0.518   0.519   0.519   0.519   0.521   0.522   0.522   0.523
  0.523   0.525   0.525   0.526   0.527   0.528   0.528   0.529
  0.530   0.533   0.533   0.534   0.534   0.535   0.536   0.537
  0.538   0.540   0.540   0.541   0.542   0.543   0.543   0.543
  0.545   0.545   0.546   0.547   0.548   0.548   0.549   0.550
  0.551   0.551   0.552   0.553   0.553   0.554   0.554   0.556
  0.556   0.557   0.558   0.559   0.559   0.560   0.561   0.562
  0.562   0.563   0.564   0.565   0.566   0.566   0.568   0.569
  0.570   0.571   0.571   0.572   0.573   0.575   0.576   0.577
  0.578   0.579   0.579   0.581   0.581   0.582   0.583   0.583
  0.584   0.585   0.585   0.586   0.586   0.587   0.589   0.589
  0.591   0.592   0.593   0.594   0.594   0.595   0.596   0.597
  0.599   0.600   0.601   0.602   0.603   0.604   0.605   0.605
  0.606   0.608   0.609   0.610   0.611   0.612   0.613   0.614
  0.615   0.617   0.618   0.619   0.620   0.620   0.622   0.623
  0.623   0.623   0.625   0.625   0.628   0.629   0.630   0.631
  0.633   0.634   0.635   0.636   0.638   0.638   0.638   0.639
  0.640   0.642   0.643   0.644   0.645   0.645   0.647   0.648
  0.649   0.650   0.651   0.652   0.653   0.654   0.654   0.655
  0.655   0.656   0.657   0.657   0.658   0.659   0.660   0.661
  0.663   0.663   0.664   0.664   0.666   0.666   0.667   0.667
  0.669   0.670   0.671   0.672   0.673   0.674   0.674   0.675
  0.677   0.677   0.678   0.680   0.681   0.682   0.683   0.685
  0.687   0.687   0.689   0.691   0.691   0.692   0.693   0.695
  0.695   0.697   0.697   0.699   0.701   0.702   0.702   0.703
  0.704   0.705   0.707   0.709   0.710   0.711   0.712   0.713
  0.713   0.715   0.716   0.717   0.718   0.719   0.721   0.722
  0.723   0.723   0.726   0.726   0.727   0.729   0.730   0.730
  0.732   0.735   0.737   0.738   0.739   0.740   0.743   0.744
  0.744   0.745   0.747   0.750   0.751   0.751   0.753   0.755
  0.757   0.757   0.760   0.761   0.762   0.763   0.766   0.766
  0.768   0.769   0.770   0.772   0.773   0.773   0.775   0.777
  0.778   0.778   0.780   0.781   0.781   0.783   0.783   0.785
  0.787   0.789   0.790   0.792   0.792   0.793   0.794   0.794
  0.795   0.795   0.799   0.800   0.800   0.801   0.802   0.803
  0.805   0.806   0.806   0.807   0.807   0.808   0.809   0.810
  0.812   0.814   0.814   0.815   0.815   0.816   0.817   0.817
  0.818   0.819   0.820   0.820   0.821   0.822   0.823   0.824
  0.825   0.826   0.827   0.828   0.830   0.831   0.834   0.835
  0.836   0.837   0.839   0.841   0.842   0.843   0.844   0.847
  0.849   0.851   0.852   0.854   0.856   0.858   0.859   0.861
  0.868   0.870   0.874   0.876   0.880   0.884   0.886   0.890
  0.894   0.895   0.897   0.898   0.901   0.902   0.907   0.908
  0.912   0.914   0.915   0.917   0.918   0.921   0.922   0.923
  0.925   0.926   0.930   0.931   0.932   0.933   0.934   0.936
  0.936   0.939   0.939   0.942   0.944   0.945   0.947   0.947
  0.952   0.955   0.955   0.960   0.963   0.965   0.966   0.974
  0.975   0.977   0.979   0.980   0.982   0.987   0.988   0.991
  0.993   0.993   0.994   0.996   0.999   1.001   1.002   1.004
  1.005   1.008   1.010   1.012   1.014   1.015   1.017   1.019
  1.022   1.022   1.023   1.024   1.027   1.028   1.030   1.032
  1.032   1.034   1.036   1.037   1.040   1.041   1.041   1.043
  1.047   1.048   1.050   1.051   1.054   1.055   1.057   1.058
  1.061   1.063   1.064   1.066   1.068   1.070   1.071   1.073
  1.074   1.074   1.075   1.077   1.079   1.080   1.081   1.082
  1.084   1.086   1.088   1.090   1.091   1.092   1.093   1.095
  1.096   1.098   1.101   1.102   1.103   1.105   1.106   1.109
  1.110   1.113   1.115   1.116   1.117   1.121   1.123   1.125
  1.129   1.132   1.135   1.136   1.137   1.140   1.141   1.143
  1.146   1.148   1.150   1.151   1.154   1.156   1.159   1.159
  1.161   1.161   1.162   1.163   1.165   1.167   1.170   1.171
  1.173   1.174   1.176   1.177   1.179   1.180   1.181   1.182
  1.183   1.185   1.186   1.187   1.189   1.191   1.194   1.197
  1.199   1.201   1.202   1.206   1.209   1.211   1.214   1.215
  1.218   1.220   1.223   1.229   1.232   1.234   1.237   1.238
  1.240   1.243   1.246   1.247   1.251   1.254   1.256   1.257
  1.258   1.259   1.262   1.265   1.266   1.271   1.274   1.274
  1.278   1.279   1.280   1.282   1.282   1.283   1.286   1.289
  1.291   1.291   1.293   1.294   1.297   1.299   1.302   1.304
  1.308   1.308   1.312   1.314   1.316   1.317   1.318   1.323
  1.326   1.328   1.330   1.334   1.336   1.339   1.341   1.344
  1.344   1.347   1.348   1.350   1.354   1.355   1.357   1.359
  1.361   1.363   1.365   1.365   1.367   1.372   1.374   1.377
  1.383   1.388   1.388   1.391   1.394   1.395   1.397   1.400
  1.402   1.403   1.408   1.414   1.417   1.420   1.422   1.425
  1.431   1.434   1.439   1.442   1.444   1.445   1.445   1.450
  1.451   1.454   1.455   1.456   1.458   1.459   1.460   1.462
  1.464   1.466   1.470   1.470   1.472   1.475   1.477   1.477
  1.479   1.479   1.483   1.484   1.486   1.491   1.495   1.496
  1.499   1.501   1.502   1.505   1.510   1.514   1.516   1.518
  1.520   1.523   1.524   1.526   1.527   1.535   1.540   1.541
  1.543   1.545   1.547   1.549   1.552   1.554   1.556   1.559
  1.560   1.561   1.563   1.565   1.569   1.570   1.572   1.575
  1.576   1.579   1.583   1.585   1.586   1.588   1.591   1.594
  1.597   1.601   1.605   1.609   1.610   1.616   1.618   1.619
  1.624   1.626   1.631   1.634   1.635   1.640   1.640   1.643
  1.650   1.652   1.656   1.658   1.661   1.666   1.669   1.671
  1.674   1.679   1.682   1.685   1.688   1.689   1.691   1.695
  1.698   1.699   1.702   1.704   1.707   1.708   1.711   1.714
  1.716   1.719   1.720   1.724   1.725   1.726   1.729   1.730
  1.733   1.735   1.738   1.739   1.739   1.740   1.742   1.744
  1.745   1.747   1.748   1.749   1.751   1.753   1.754   1.755
  1.756   1.758   1.759   1.759   1.761   1.763   1.765   1.766
  1.767   1.769   1.770   1.772   1.773   1.773   1.774   1.775
  1.777   1.778   1.780   1.780   1.781   1.783   1.784   1.786
  1.788   1.789   1.789   1.791   1.791   1.793   1.793   1.796
  1.798   1.798   1.799   1.801   1.802   1.803   1.804   1.805
  1.808   1.809   1.811   1.812   1.814   1.814   1.819   1.820
  1.821   1.823   1.825   1.828   1.831   1.833   1.835   1.838
  1.840   1.842   1.843   1.845   1.847   1.849   1.851   1.853
  1.854   1.856   1.857   1.858   1.858   1.861   1.862   1.863
  1.865   1.868   1.869   1.871   1.874   1.874   1.877   1.879
  1.880   1.882   1.883   1.886   1.888   1.893   1.895   1.899
  1.902   1.904   1.906   1.908   1.912   1.915   1.918   1.919
  1.922   1.923   1.927   1.928   1.928   1.929   1.932   1.935
  1.937   1.938   1.940   1.942   1.944   1.946   1.948   1.952
  1.952   1.954   1.958   1.960   1.962   1.962   1.965   1.966
  1.967   1.969   1.973   1.973   1.975   1.978   1.980   1.981
  1.983   1.985   1.986   1.988   1.989   1.990   1.991   1.993
  1.995   1.996   1.996   2.000   2.000   2.001   2.002   2.003
  2.004   2.005   2.008   2.009   2.011   2.012   2.015   2.016
  2.017   2.017   2.019   2.020   2.022   2.023   2.024   2.025
  2.027   2.028   2.029   2.029   2.032   2.032   2.033   2.033
  2.036   2.037   2.039   2.040   2.040   2.041   2.043   2.043
  2.045   2.047   2.048   2.049   2.049   2.052   2.053   2.054
  2.055   2.057   2.058   2.060   2.061   2.063   2.064   2.066
  2.067   2.067   2.069   2.070   2.073   2.074   2.075   2.076
  2.078   2.078   2.080   2.081   2.082   2.084   2.088   2.089
  2.090   2.092   2.093   2.096   2.096   2.098   2.102   2.104
  2.107   2.110   2.113   2.115   2.117   2.119   2.119   2.124
  2.125   2.127   2.133   2.136   2.137   2.138   2.140   2.144
  2.145   2.149   2.150   2.154   2.156   2.163   2.164   2.169
  2.171   2.172   2.182   2.186   2.194   2.196   2.198   2.200
  2.205   2.208   2.210   2.212   2.215   2.217   2.223   2.224
  2.229   2.230   2.232   2.236   2.237   2.239   2.241   2.245
  2.246   2.251   2.252   2.255   2.256   2.257   2.261   2.263
  2.265   2.268   2.269   2.272   2.274   2.276   2.276   2.279
  2.280   2.283   2.285   2.286   2.288   2.290   2.292   2.295
  2.299   2.300   2.302   2.306   2.309   2.312   2.313   2.315
  2.317   2.320   2.322   2.327   2.331   2.333   2.334   2.336
  2.338   2.340   2.341   2.343   2.344   2.347   2.351   2.351
  2.353   2.354   2.357   2.360   2.362   2.362   2.364   2.365
  2.367   2.369   2.369   2.373   2.374   2.376   2.377   2.380
  2.380   2.383   2.385   2.385   2.387   2.388   2.389   2.390
  2.392   2.394   2.395   2.397   2.397   2.398   2.400   2.404
  2.405   2.408   2.410   2.411   2.412   2.413   2.417   2.419
  2.421   2.423   2.429   2.429   2.432   2.434   2.437   2.441
  2.444   2.445   2.447   2.452   2.453   2.454   2.456   2.459
  2.461   2.463   2.464   2.466   2.468   2.470   2.473   2.474
  2.476   2.477   2.479   2.481   2.485   2.485   2.487   2.488
  2.489   2.489   2.491   2.494   2.499   2.502   2.504   2.506
  2.507   2.510   2.511   2.513   2.513   2.517   2.518   2.520
  2.521   2.525   2.530   2.532   2.533   2.535   2.536   2.539
  2.542   2.546   2.548   2.553   2.554   2.557   2.561   2.562
  2.566   2.569   2.570   2.575   2.577   2.579   2.582   2.585
  2.587   2.588   2.588   2.593   2.595   2.596   2.599   2.599
  2.601   2.604   2.606   2.607   2.611   2.612   2.615   2.616
  2.618   2.621   2.622   2.623   2.624   2.625   2.627   2.631
  2.633   2.636   2.636   2.638   2.640   2.641   2.644   2.644
  2.647   2.647   2.648   2.650   2.653   2.654   2.656   2.656
  2.660   2.660   2.662   2.663   2.665   2.667   2.669   2.670
  2.673   2.675   2.677   2.678   2.680   2.683   2.684   2.687
  2.687   2.687   2.690   2.694   2.697   2.699   2.702   2.704
  2.706   2.707   2.711   2.714   2.716   2.716   2.720   2.725
  2.725   2.727   2.730   2.730   2.732   2.737   2.738   2.740
  2.742   2.744   2.746   2.748   2.752   2.753   2.755   2.756
  2.757   2.758   2.761   2.765   2.767   2.767   2.768   2.772
  2.772   2.772   2.775   2.778   2.782   2.783   2.789   2.794
  2.795   2.798   2.801   2.805   2.811   2.812   2.813   2.815
  2.816   2.818   2.822   2.827   2.827   2.829   2.834   2.837
  2.839   2.842   2.843   2.846   2.850   2.852   2.855   2.856
  2.858   2.861   2.864   2.865   2.866   2.869   2.870   2.874
  2.876   2.876   2.877   2.879   2.880   2.881   2.883   2.884
  2.886   2.888   2.890   2.893   2.893   2.894   2.897   2.898
  2.901   2.903   2.904   2.907   2.909   2.911   2.912   2.915
  2.917   2.919   2.922   2.924   2.925   2.928   2.930   2.932
  2.933   2.934   2.936   2.937   2.941   2.942   2.944   2.948
  2.948   2.954   2.955   2.957   2.959   2.966   2.968   2.971
  2.974   2.978   2.979   2.982   2.988   2.989   2.996   3.000
  3.003   3.003   3.007   3.009   3.013   3.014   3.017   3.019
  3.020   3.023   3.025   3.028   3.029   3.032   3.034   3.042
  3.043   3.046   3.047   3.051   3.053   3.055   3.058   3.063
  3.063   3.066   3.069   3.077   3.081   3.086   3.092   3.104
  3.106   3.109   3.112   3.117   3.124   3.129   3.137   3.140
  3.149   3.153   3.157   3.158   3.170   3.176   3.177   3.189
  3.190   3.194   3.195   3.207   3.219   3.226   3.229   3.240
  3.241   3.247   3.250   3.251   3.254   3.254   3.257   3.271
  3.279   3.286   3.292   3.308   3.311   3.316   3.318   3.319
  3.325   3.330   3.339   3.342   3.343   3.356   3.368   3.383
  3.389   3.391   3.398   3.418   3.420   3.421   3.426   3.431
  3.436   3.438   3.448   3.449   3.458   3.473   3.476   3.486
  3.497   3.504   3.513   3.516   3.527   3.528   3.532   3.539
  3.540   3.541   3.544   3.550   3.558   3.564   3.580   3.589
  3.597   3.609   3.662   3.683   3.862   3.868   3.989   4.003
  4.065   4.071   4.073   4.085   4.086   4.091   4.091   4.097
  4.101   4.102   4.106   4.108   4.111   4.116   4.121   4.122
  4.124   4.124   4.130   4.134   4.138   4.140   4.149   4.150
  4.151   4.155   4.157   4.158   4.165   4.172   4.175   4.176
  4.178   4.188   4.190   4.195   4.198   4.208   4.237   4.242
  4.244   4.245   4.246   4.247   4.250   4.257   4.259   4.267
  4.272   4.276   4.278   4.280   4.289   4.291   4.300   4.302
  4.304   4.307   4.310   4.348   4.373   4.382   4.387   4.392
  4.394   4.399   4.401   4.405   4.408   4.408   4.412   4.413
  4.416   4.419   4.422   4.430   4.433   4.442   4.461   4.473
  4.485   4.486   4.490   4.510   4.527   4.531   4.544   4.549
  4.553   4.564   4.602   4.610   4.613   4.620   4.624   4.633
  4.637   4.641   4.678   4.679   4.685   4.687   4.693   4.695
  4.696   4.700   4.704   4.710   4.743   4.771   4.796   4.819
  4.840   4.846   4.857   4.859   4.865   4.870   4.878   4.884
  4.895   4.915   4.953   4.955   4.959   4.964   4.966   4.973
  4.979   4.986   4.987   4.999   5.141   5.155   5.168   5.170
  5.173   5.188   5.191   5.224   5.289   5.299   5.325   5.331
  5.340   5.375
 --------------------------------------------------------------
 
          Ground-State Mulliken Net Atomic Charges

     Atom                 Charge (a.u.)
  ----------------------------------------
      1 O                    -0.484112
      2 C                    -0.097156
      3 H                     0.130177
      4 H                     0.126718
      5 H                     0.140928
      6 O                    -0.461937
      7 C                     0.584267
      8 C                    -0.241188
      9 H                     0.131918
     10 H                     0.123560
     11 C                    -0.189212
     12 H                     0.118714
     13 H                     0.127429
     14 C                    -0.188649
     15 H                     0.113272
     16 H                     0.119007
     17 C                     0.000699
     18 C                     0.080048
     19 C                    -0.089357
     20 H                     0.095376
     21 C                    -0.099874
     22 H                     0.092805
     23 C                    -0.088575
     24 H                     0.092662
     25 C                    -0.092409
     26 H                     0.089551
     27 C                    -0.096978
     28 H                     0.093910
     29 C                    -0.007773
     30 C                    -0.010702
     31 C                    -0.017336
     32 C                    -0.031123
     33 C                     0.010912
     34 C                    -0.016647
     35 C                    -0.011693
     36 C                    -0.008280
     37 C                     0.014588
     38 C                    -0.021180
     39 C                    -0.052161
     40 C                    -0.002211
     41 C                    -0.028345
     42 C                    -0.007072
     43 C                     0.000899
     44 C                     0.000310
     45 C                    -0.099492
     46 C                    -0.005340
     47 C                    -0.017108
     48 C                    -0.005848
     49 C                     0.004823
     50 C                    -0.013027
     51 C                    -0.002082
     52 C                     0.000568
     53 C                     0.015731
     54 C                    -0.002908
     55 C                     0.011325
     56 C                     0.005419
     57 C                     0.006127
     58 C                    -0.040522
     59 C                    -0.007318
     60 C                     0.009313
     61 C                     0.012966
     62 C                    -0.020720
     63 C                     0.000625
     64 C                    -0.032844
     65 C                     0.033591
     66 C                     0.003482
     67 C                     0.026717
     68 C                     0.040612
     69 C                    -0.017973
     70 C                     0.026719
     71 C                     0.006655
     72 C                     0.008151
     73 C                    -0.005648
     74 C                     0.012549
     75 C                    -0.011206
     76 C                    -0.000212
     77 C                     0.070385
     78 C                    -0.014298
     79 C                     0.000368
     80 C                     0.004446
     81 C                     0.016687
     82 C                     0.005251
     83 C                     0.011165
     84 C                     0.019025
     85 C                     0.037395
     86 C                    -0.016229
     87 C                     0.007324
     88 C                    -0.025838
     89 O                    -0.484904
     90 C                    -0.076711
     91 H                     0.128819
     92 H                     0.125875
     93 H                     0.121926
     94 O                    -0.457889
     95 C                     0.591482
     96 C                    -0.276018
     97 H                     0.132349
     98 H                     0.138291
     99 C                    -0.163360
    100 H                     0.125456
    101 H                     0.112892
    102 C                    -0.190693
    103 H                     0.107977
    104 H                     0.112906
    105 C                     0.000392
    106 C                     0.069240
    107 C                    -0.081227
    108 H                     0.095312
    109 C                    -0.096818
    110 H                     0.095561
    111 C                    -0.087248
    112 H                     0.086191
    113 C                    -0.083680
    114 H                     0.099529
    115 C                    -0.107579
    116 H                     0.085000
    117 C                     0.008002
    118 C                     0.017952
    119 C                    -0.003492
    120 C                     0.001471
    121 C                    -0.037178
    122 C                    -0.015998
    123 C                    -0.002657
    124 C                    -0.010977
    125 C                    -0.002314
    126 C                    -0.007846
    127 C                    -0.064390
    128 C                     0.002331
    129 C                    -0.005417
    130 C                    -0.018927
    131 C                     0.031976
    132 C                     0.025516
    133 C                    -0.081777
    134 C                     0.012854
    135 C                     0.020005
    136 C                    -0.009715
    137 C                    -0.012976
    138 C                    -0.002176
    139 C                    -0.017023
    140 C                    -0.001036
    141 C                    -0.008066
    142 C                    -0.010637
    143 C                     0.004439
    144 C                    -0.028988
    145 C                     0.006290
    146 C                    -0.030000
    147 C                     0.018834
    148 C                     0.022458
    149 C                     0.008561
    150 C                     0.000388
    151 C                    -0.008441
    152 C                     0.003380
    153 C                     0.009463
    154 C                    -0.018079
    155 C                    -0.010378
    156 C                     0.014859
    157 C                    -0.013192
    158 C                     0.044961
    159 C                     0.021895
    160 C                    -0.004428
    161 C                     0.026595
    162 C                     0.022892
    163 C                    -0.011702
    164 C                     0.006769
    165 C                    -0.004931
    166 C                     0.003769
    167 C                    -0.010883
    168 C                     0.000260
    169 C                    -0.006622
    170 C                     0.014297
    171 C                    -0.010045
    172 C                     0.016603
    173 C                    -0.007081
    174 C                    -0.016038
    175 C                     0.018134
    176 C                    -0.017204
  ----------------------------------------
  Sum of atomic charges =     0.000000

 -----------------------------------------------------------------
                    Cartesian Multipole Moments
 -----------------------------------------------------------------
    Charge (ESU x 10^10)
                 0.0000
    Dipole Moment (Debye)
         X       2.6256      Y       1.2029      Z       1.7603
       Tot       3.3822
    Quadrupole Moments (Debye-Ang)
        XX    -792.3025     XY     -12.2702     YY    -824.6553
        XZ      -3.7670     YZ       6.5723     ZZ    -799.8112
    Octopole Moments (Debye-Ang^2)
       XXX     418.2847    XXY    -113.7743    XYY      36.3854
       YYY     278.7382    XXZ      79.2856    XYZ     -78.5348
       YYZ      30.6388    XZZ      29.5390    YZZ      15.6775
       ZZZ      50.2891
    Hexadecapole Moments (Debye-Ang^3)
      XXXX -136814.1806   XXXY   -3309.0086   XXYY  -30535.9100
      XYYY      26.7144   YYYY  -56365.1250   XXXZ     350.7442
      XXYZ      42.8275   XYYZ    -594.9774   YYYZ     481.9491
      XXZZ  -25909.5789   XYZZ    -628.4636   YYZZ  -11524.9856
      XZZZ    -185.8873   YZZZ     -37.5184   ZZZZ  -18615.3279
 -----------------------------------------------------------------
Archival summary:
1\1\mn366\SP\ProcedureUnspecified\6-31G**\428\afmv_a\SatOct604:37:372018SatOct604:37:372018\0\\#,ProcedureUnspecified,6-31G**,\\0,1\O\C,1,1.39958\O,2,1.21859,1,125.842\C,1,1.43407,2,122.197,3,3.95568,0\H,4,1.09651,1,105.963,2,-62.1264,0\H,4,1.09715,1,110.723,2,-178.203,0\H,4,1.09729,1,111.367,2,68.9632,0\C,2,1.55487,1,111.841,3,172.236,0\H,8,1.09686,2,107.446,1,71.5816,0\H,8,1.09689,2,106.181,1,-48.7544,0\C,8,1.54911,2,115.906,1,-171.199,0\H,11,1.09677,8,106.627,2,50.6477,0\H,11,1.09753,8,107.932,2,-73.3816,0\C,11,1.49874,8,107.794,2,165.931,0\H,14,1.09662,11,113.123,8,18.7157,0\H,14,1.09757,11,104.972,8,-91.2562,0\C,14,1.55798,11,113.872,8,146.034,0\C,17,1.4935,14,115.954,11,-147.486,0\C,18,1.47863,17,60.7179,14,113.949,0\C,19,1.47531,18,121.532,17,111.054,0\C,20,1.4492,19,114.996,18,2.43462,0\C,21,1.40509,20,127.705,19,-5.03277,0\C,22,1.38776,21,115.799,20,8.32137,0\C,22,1.40526,21,108.917,20,147.368,0\C,24,1.40104,22,109.596,21,3.44171,0\C,25,1.39972,24,106.083,22,-2.08971,0\C,23,1.40844,22,117.628,21,133.155,0\C,27,1.37046,23,110.925,22,-144.816,0\C,28,1.3977,27,108.2,23,4.97147,0\C,29,1.39298,28,118.665,27,135.52,0\C,30,1.38734,29,122.916,28,5.78039,0\C,31,1.40408,30,120.339,29,-3.79445,0\C,32,1.38685,31,121.206,30,-143.872,0\C,33,1.37864,32,118.333,31,7.57969,0\C,34,1.39018,33,122.584,32,-8.72402,0\C,31,1.40497,30,110.797,29,-149.79,0\C,36,1.38079,31,104.697,30,1.83527,0\C,37,1.40882,36,111.626,31,-1.9693,0\C,38,1.40779,37,124.197,36,147.836,0\C,39,1.38435,38,114.255,37,-10.7881,0\C,40,1.40153,39,108.805,38,-139.468,0\C,34,1.41129,33,119.483,32,134.113,0\C,42,1.41074,34,120.959,33,-4.42879,0\C,43,1.35399,42,123.286,34,2.51971,0\C,42,1.41089,34,107.809,33,-146.659,0\C,45,1.39682,42,123.664,34,137.625,0\C,46,1.36349,45,117.323,42,7.43638,0\C,46,1.38217,45,123.804,42,-133.771,0\C,47,1.38439,46,110.504,45,-146.099,0\C,48,1.38862,46,121,45,-2.9318,0\C,50,1.37373,48,117.8,46,6.09353,0\C,51,1.38464,50,109.103,48,140.623,0\C,52,1.35799,51,105.002,50,-2.64863,0\C,53,1.38127,52,112.821,51,-1.35379,0\C,54,1.3972,53,126.319,52,-143.379,0\C,55,1.40766,54,122.464,53,134.61,0\C,56,1.38616,55,106.851,54,-132.726,0\C,57,1.3982,56,110.524,55,-4.08535,0\C,58,1.35008,57,106.503,56,7.38317,0\C,56,1.40928,55,116.6,54,5.00929,0\C,45,1.41067,42,107.584,34,-0.359521,0\C,49,1.41814,47,122.768,46,140.463,0\C,62,1.3848,49,120.201,47,1.1108,0\C,62,1.41982,49,119.748,47,-136.023,0\C,64,1.40839,62,106.897,49,141.798,0\C,65,1.41971,64,111.562,62,2.08369,0\C,66,1.36359,65,116.96,64,-137.269,0\C,67,1.3929,66,122.536,65,-9.1768,0\C,68,1.36647,67,105.687,66,146.715,0\C,69,1.39967,68,111.43,67,3.15801,0\C,70,1.37873,69,123.465,68,-146.197,0\C,28,1.42652,27,118.462,23,145.424,0\C,63,1.42757,62,120.678,49,3.97151,0\C,73,1.41668,63,117.408,62,-142.795,0\C,74,1.40287,73,122.733,63,6.73181,0\C,71,1.42947,70,121.018,69,131.343,0\C,43,1.43237,42,117.362,34,-138.063,0\C,17,1.5212,14,113.84,11,72.0768,0\C,78,1.40436,17,120.551,14,-84.0937,0\H,79,1.08631,78,115.995,17,-6.57986,0\C,79,1.3794,78,118.587,17,167.422,0\H,81,1.08591,79,121.586,78,-179.176,0\C,78,1.41774,17,120.542,14,87.5343,0\H,83,1.08607,78,110.092,17,-10.2123,0\C,83,1.37036,78,124.197,17,-163.78,0\H,85,1.08605,83,121.714,78,164.081,0\C,85,1.37722,83,115.364,78,-5.29697,0\H,87,1.08596,85,117.822,83,169.206,0\C,9,2.68796,8,108.806,2,-99.9366,0\C,89,1.40612,9,109.022,8,-127.217,0\C,90,1.389,89,119.405,9,-103.915,0\C,91,1.3874,90,119.656,89,-2.57024,0\C,92,1.3993,91,111.084,90,-143.035,0\C,93,1.40119,92,107.683,91,2.07342,0\C,93,1.40397,92,120.011,91,145.678,0\C,95,1.37646,93,120.253,92,-138.339,0\C,95,1.40715,93,120.906,92,-3.57908,0\C,97,1.39396,95,118.899,93,7.54511,0\C,98,1.38764,97,120.175,95,-5.84126,0\C,97,1.40131,95,109.507,93,-143.739,0\C,100,1.36559,97,107.841,95,1.08915,0\C,91,1.40732,90,121.172,89,-137.209,0\C,89,1.41071,9,93.7736,8,105.971,0\C,103,1.38158,89,123.562,9,-109.473,0\C,104,1.35658,103,119.559,89,2.18746,0\C,104,1.37295,103,108.086,89,-145.555,0\C,105,1.37627,104,121.57,103,-6.20949,0\C,94,1.4111,93,117.725,92,142.957,0\C,108,1.37515,94,121.971,93,2.52957,0\C,109,1.39431,108,107.875,94,-145.986,0\C,107,1.41309,105,111.549,104,-140.973,0\C,111,1.40926,107,122.306,105,140.399,0\C,101,1.4144,100,116.551,97,139.687,0\C,113,1.38809,101,117.469,100,-138.045,0\C,114,1.39944,113,107.039,101,142.853,0\C,115,1.39733,114,123.973,113,-141.754,0\C,113,1.41032,101,123.576,100,2.51066,0\C,106,1.41487,104,120.969,103,144.233,0\C,118,1.37984,106,121.834,104,-135.507,0\C,119,1.40452,118,110.456,106,142.531,0\C,120,1.40935,119,106.953,118,-0.673595,0\C,121,1.40471,120,119.85,119,-140.076,0\C,122,1.38762,121,120.645,120,132.627,0\C,123,1.40466,122,111.104,121,-140.969,0\C,124,1.3936,123,105.237,122,1.64712,0\C,125,1.36426,124,117.881,123,145.552,0\C,125,1.37131,124,109.246,123,-1.97271,0\C,121,1.40967,120,107.765,119,0.577108,0\C,128,1.39355,121,121.173,120,-139.373,0\C,126,1.41204,125,121.432,124,-0.309037,0\C,130,1.38362,126,111.698,125,-143.565,0\C,127,1.41659,125,116.37,124,141.5,0\C,107,1.41857,105,118.298,104,3.96411,0\C,133,1.37956,107,115.864,105,-136.861,0\C,134,1.36543,133,106.824,107,150.176,0\C,134,1.38555,133,126.275,107,-2.85576,0\C,136,1.38757,134,123.206,133,146.423,0\C,137,1.38772,136,103.645,134,-138.309,0\C,138,1.37171,137,112.79,136,-13.2819,0\C,137,1.3932,136,116.553,134,-5.74469,0\C,140,1.38231,137,118.968,136,9.37076,0\C,140,1.40981,137,119.353,136,-129.64,0\C,142,1.39408,140,107.957,137,147.896,0\C,141,1.41536,140,106.477,137,-148.465,0\C,123,1.42308,122,120.441,121,6.18798,0\C,143,1.42816,142,118.346,140,-150.974,0\C,146,1.47351,143,121.099,142,-4.38715,0\C,147,1.46488,146,119.124,143,1.48212,0\C,148,1.46775,147,62.2855,146,-118.077,0\C,149,1.50187,148,119.779,147,-106.199,0\C,150,1.34184,149,118.956,148,125.712,0\H,151,1.08581,150,120.255,149,-1.89997,0\C,151,1.38016,150,120.407,149,178.485,0\H,153,1.08555,151,123.3,150,-173.135,0\C,153,1.42527,151,120.162,150,-2.70461,0\H,155,1.08564,153,123.568,151,-174.246,0\C,155,1.42988,153,118.565,151,-1.90309,0\H,157,1.08563,155,120.402,153,-175.256,0\C,157,1.38316,155,119.799,153,11.5821,0\H,159,1.08628,157,116.69,155,174.015,0\C,149,1.55203,148,117.956,147,110.347,0\H,161,1.09645,149,102.17,148,111.291,0\H,161,1.09668,149,111.856,148,-3.18981,0\C,161,1.57735,149,112.201,148,-127.097,0\H,164,1.09693,161,111.748,149,47.7847,0\H,164,1.09791,161,110.696,149,-73.4126,0\C,164,1.51539,161,106.685,149,173.206,0\H,167,1.09717,164,109.883,161,-39.9623,0\H,167,1.09723,164,112.349,161,76.8408,0\C,167,1.50896,164,115.745,161,-160.536,0\O,170,1.20864,167,122.443,164,-112.776,0\O,170,1.38223,167,111.146,164,72.3919,0\C,172,1.49247,170,116.949,167,165.57,0\H,173,1.09681,172,114.005,170,169.996,0\H,173,1.09706,172,102.321,170,43.9746,0\H,173,1.09709,172,112.961,170,-69.8866,0\\\@

 Total job time:  839.84s(wall), 7158.72s(cpu) 
 Sat Oct  6 04:37:37 2018

        *************************************************************
        *                                                           *
        *  Thank you very much for using Q-Chem.  Have a nice day.  *
        *                                                           *
        *************************************************************


