
Running Job 1 of 1 ./7/16.qcin
qchem ./7/16.qcin_135662.0 /tmpu/cab_g/afmv_a/scratch_qchem/qchem135662/ 1
/tmpu/appuserlic/qchem4.4/serial-multicore/exe/qcprog.exe_s ./7/16.qcin_135662.0 /tmpu/cab_g/afmv_a/scratch_qchem/qchem135662/
Check license passed

                  Welcome to Q-Chem
     A Quantum Leap Into The Future Of Chemistry


 Q-Chem 4.4, Q-Chem, Inc., Pleasanton, CA (2016)

 Y. Shao,  Z. Gan,  E. Epifanovsky,  A. T. B. Gilbert,  M. Wormit,  
 J. Kussmann,  A. W. Lange,  A. Behn,  J. Deng,  X. Feng,  D. Ghosh,  
 M. Goldey,  P. R. Horn,  L. D. Jacobson,  I. Kaliman,  F. Rob,  
 R. Z. Khaliullin,  T. Kus,  A. Landau,  J. Liu,  E. I. Proynov,  Y. M. Rhee,  
 R. M. Richard,  M. A. Rohrdanz,  R. P. Steele,  E. J. Sundstrom,  
 H. L. Woodcock III,  P. M. Zimmerman,  D. Zuev,  B. Albrecht,  E. Alguire,  
 B. Austin,  S. A. Baeppler,  G. J. O. Beran,  Y. A. Bernard,  E. Berquist,  
 K. Brandhorst,  K. B. Bravaya,  S. T. Brown,  D. Casanova,  C.-M. Chang,  
 Y. Chen,  S. H. Chien,  K. D. Closser,  M. P. Coons,  D. L. Crittenden,  
 S. Dasgupta,  M. Diedenhofen,  R. A. DiStasio Jr.,  H. Do,  A. D. Dutoi,  
 R. G. Edgar,  P.-T. Fang,  S. Fatehi,  Q. Feng,  L. Fusti-Molnar,  
 A. Ghysels,  A. Golubeva-Zadorozhnaya,  J. Gomes,  A. Gunina,  
 M. W. D. Hanson-Heine,  P. H. P. Harbach,  A. W. Hauser,  J. E. Herr,  
 E. G. Hohenstein,  Z. C. Holden,  K. Hui,  T.-C. Jagau,  H. Ji,  B. Kaduk,  
 K. Khistyaev,  Jaehoon Kim,  Jihan Kim,  R. A. King,  P. Klunzinger,  
 K. Koh,  D. Kosenkov,  T. Kowalczyk,  C. M. Krauter,  A. Kunitsa,  
 K. U. Lao,  A. Laurent,  K. V. Lawler,  J. Lee,  D. Lefrancois,  S. Lehtola,  
 S. V. Levchenko,  C. Y. Lin,  Y.-S. Lin,  F. Liu,  E. Livshits,  
 R. C. Lochan,  A. Luenser,  P. Manohar,  S. F. Manzer,  S.-P. Mao,  Y. Mao,  
 N. Mardirossian,  A. V. Marenich,  L. A. Martinez-Martinez,  S. A. Maurer,  
 N. J. Mayhall,  J.-M. Mewes,  A. F. Morrison,  K. Nanda,  T. S. Nguyen-Beck,  
 C. M. Oana,  R. Olivares-Amaya,  D. P. O'Neill,  J. A. Parkhill,  
 T. M. Perrine,  R. Peverati,  P. A. Pieniazek,  F. Plasser,  A. Prociuk,  
 D. R. Rehn,  E. Rosta,  N. J. Russ,  N. Sergueev,  S. M. Sharada,  
 S. Sharma,  D. W. Small,  A. Sodt,  T. Stauch,  T. Stein,  D. Stuck,  
 Y.-C. Su,  A. J. W. Thom,  T. Tsuchimochi,  L. Vogt,  O. Vydrov,  T. Wang,  
 M. A. Watson,  J. Wenzel,  A. White,  C. F. Williams,  V. Vanovschi,  
 K. Yao,  S. Yeganeh,  S. R. Yost,  Z.-Q. You,  I. Y. Zhang,  X. Zhang,  
 Y. Zhao,  B. R. Brooks,  G. K. L. Chan,  D. M. Chipman,  C. J. Cramer,  
 W. A. Goddard III,  M. S. Gordon,  W. J. Hehre,  A. Klamt,  
 H. F. Schaefer III,  M. W. Schmidt,  C. D. Sherrill,  D. G. Truhlar,  
 A. Warshel,  X. Xu,  A. Aspuru-Guzik,  R. Baer,  A. T. Bell,  N. A. Besley,  
 J.-D. Chai,  A. Dreuw,  B. D. Dunietz,  T. R. Furlani,  S. R. Gwaltney,  
 C.-P. Hsu,  Y. Jung,  J. Kong,  D. S. Lambrecht,  W. Liang,  C. Ochsenfeld,  
 V. A. Rassolov,  L. V. Slipchenko,  J. E. Subotnik,  T. Van Voorhis,  
 J. M. Herbert,  A. I. Krylov,  P. M. W. Gill,  M. Head-Gordon

 Contributors to earlier versions of Q-Chem not listed above: 
 R. D. Adamson,  J. Baker,  E. F. C. Byrd,  A. K. Chakraborty,  C.-L. Cheng,  
 H. Dachsel,  R. J. Doerksen,  G. Hawkins,  A. Heyden,  S. Hirata,  
 G. Kedziora,  F. J. Keil,  C. Kelley,  P. P. Korambath,  W. Kurlancheek,  
 A. M. Lee,  M. S. Lee,  D. Liotard,  I. Lotan,  P. E. Maslen,  N. Nair,  
 D. Neuhauser,  R. Olson,  B. Peters,  J. Ritchie,  N. E. Schultz,  
 N. Shenvi,  A. C. Simmonett,  K. S. Thanthiriwatte,  Q. Wu,  W. Zhang

 Please cite Q-Chem as follows:
 Y. Shao et al., Mol. Phys. 113, 184-215 (2015)
 DOI: 10.1080/00268976.2014.952696

 Q-Chem 4.4.2 for Intel X86 Linux

 Parts of Q-Chem use Armadillo 5.200.1 (Boston Tea Smuggler).
 http://arma.sourceforge.net/

 Q-Chem begins on Sat Oct  6 04:51:54 2018  

Host: 
0

     Scratch files written to /tmpu/cab_g/afmv_a/scratch_qchem/qchem135662//
 Dec716 11556_ 22328  22283 4050   
Processing $rem in /tmpu/appuserlic/qchem4.4/serial-multicore/config/preferences.
 MEM_TOTAL  2000 
FILE_GEOM_ORG=        593

Checking the input file for inconsistencies... 	...done.

--------------------------------------------------------------
User input:
--------------------------------------------------------------
$comment
SP
$end

$rem
MEM_STATIC 5000
MEM_TOTAL 20000
JOBTYPE SP
EXCHANGE B3LYP
BASIS 6-31g(d,p)
$end

$molecule
0 1
O         -23.829000      4.989000     -1.581000
C         -24.545000      5.906000     -2.415000
H         -24.308000      6.930000     -2.102000
H         -25.628000      5.811000     -2.266000
H         -24.228000      5.719000     -3.448000
O         -24.387000      3.037000     -2.683000
C         -23.870000      3.671000     -1.776000
C         -23.106000      3.013000     -0.726000
H         -23.542000      3.388000      0.209000
H         -22.070000      3.351000     -0.851000
C         -23.232000      1.516000     -0.607000
H         -24.261000      1.211000     -0.380000
H         -22.884000      0.999000     -1.510000
C         -22.409000      1.047000      0.683000
H         -21.369000      1.337000      0.492000
H         -22.745000      1.679000      1.514000
C         -22.557000     -0.494000      1.022000
C         -23.819000     -0.809000      1.847000
C         -25.036000     -1.251000      1.309000
H         -25.143000     -1.369000      0.235000
C         -26.115000     -1.597000      2.135000
H         -27.004000     -1.964000      1.630000
C         -26.020000     -1.491000      3.525000
H         -26.831000     -1.901000      4.119000
C         -24.869000     -0.989000      4.093000
H         -24.747000     -0.804000      5.156000
C         -23.755000     -0.621000      3.270000
H         -22.812000     -0.263000      3.673000
C         -20.270000     -4.979000      3.035000
C         -21.723000     -5.811000      1.263000
C         -18.482000     -6.999000     -1.544000
C         -17.096000     -1.412000      1.170000
C         -18.759000     -4.150000     -3.465000
C         -21.477000     -4.886000      2.348000
C         -16.549000     -2.083000     -1.477000
C         -18.596000     -7.260000      0.837000
C         -22.108000     -3.051000     -1.630000
C         -17.778000     -0.772000      0.143000
C         -21.970000     -1.401000      0.018000
C         -21.264000     -2.082000     -2.136000
C         -18.694000     -0.964000     -1.927000
C         -16.828000     -3.062000     -2.456000
C         -22.598000     -3.784000      0.677000
C         -17.052000     -5.439000     -2.373000
C         -21.337000     -1.271000      1.403000
C         -19.899000     -0.845000      1.431000
C         -18.262000     -5.400000     -3.041000
C         -16.161000     -4.780000      1.486000
C         -16.576000     -6.319000     -0.145000
C         -17.317000     -6.736000      0.941000
C         -19.667000     -6.946000      1.789000
C         -19.159000     -1.590000      2.410000
C         -22.541000     -2.731000     -0.327000
C         -20.853000     -6.826000      1.005000
C         -17.472000     -1.047000     -1.215000
C         -22.414000     -5.092000      0.243000
C         -20.230000     -2.508000     -2.971000
C         -17.282000     -3.121000      2.721000
C         -19.225000     -7.425000     -0.424000
C         -21.063000     -1.121000     -1.156000
C         -18.037000     -5.430000      2.794000
C         -18.949000     -1.941000     -2.912000
C         -22.023000     -4.401000     -2.021000
C         -15.812000     -4.091000     -0.807000
C         -15.904000     -2.719000     -0.400000
C         -21.039000     -4.789000     -2.964000
C         -17.771000     -1.850000      2.290000
C         -19.193000     -0.484000      0.237000
C         -16.309000     -3.417000      1.855000
C         -21.311000     -2.459000      2.308000
C         -21.231000     -6.476000     -1.369000
C         -19.745000     -0.632000     -1.044000
C         -20.122000     -3.827000     -3.405000
C         -18.184000     -4.098000      3.268000
C         -19.184000     -6.359000     -2.583000
C         -19.368000     -6.027000      2.774000
C         -17.182000     -6.476000     -1.388000
C         -22.112000     -5.399000     -1.052000
C         -20.550000     -6.108000     -2.596000
C         -21.964000     -3.652000      1.959000
C         -20.027000     -2.551000      2.946000
C         -15.889000     -5.132000      0.189000
C         -20.573000     -7.176000     -0.322000
C         -18.070000     -2.955000     -3.176000
C         -16.145000     -2.363000      0.929000
C         -16.357000     -4.256000     -2.069000
C         -19.546000     -3.851000      3.321000
C         -17.057000     -5.772000      1.922000
O         -13.711000     -2.627000      6.662000
C         -14.829000     -2.056000      7.358000
H         -14.362000     -1.488000      8.173000
H         -15.369000     -2.832000      7.915000
H         -15.465000     -1.432000      6.719000
O         -14.569000     -2.491000      4.556000
C         -13.650000     -2.760000      5.303000
C         -12.328000     -3.180000      4.830000
H         -11.597000     -2.795000      5.552000
H         -12.115000     -2.600000      3.924000
C         -12.010000     -4.662000      4.548000
H         -10.943000     -4.911000      4.594000
H         -12.422000     -5.333000      5.311000
C         -12.394000     -5.079000      3.176000
H         -13.481000     -5.040000      3.037000
H         -12.010000     -4.308000      2.495000
C         -11.877000     -6.460000      2.778000
C         -11.979000     -7.488000      3.908000
C         -13.297000     -8.006000      4.180000
H         -14.198000     -7.689000      3.664000
C         -13.436000     -9.009000      5.158000
H         -14.367000     -9.517000      5.391000
C         -12.268000     -9.398000      5.908000
H         -12.319000    -10.154000      6.686000
C         -11.021000     -8.848000      5.691000
H         -10.185000     -9.155000      6.312000
C         -10.873000     -7.870000      4.668000
H          -9.872000     -7.497000      4.474000
C          -8.036000     -9.075000     -0.113000
C          -9.980000    -10.505000     -0.390000
C         -10.482000     -9.555000     -4.771000
C          -8.995000     -4.354000     -1.486000
C         -13.067000     -7.177000     -4.190000
C          -9.206000     -9.648000      0.443000
C         -10.861000     -4.408000     -3.623000
C          -8.463000     -9.970000     -3.569000
C         -13.244000     -8.353000     -0.323000
C         -10.362000     -4.129000     -1.247000
C         -12.259000     -6.912000      1.345000
C         -13.540000     -7.042000     -0.687000
C         -12.500000     -4.739000     -1.773000
C         -11.608000     -5.259000     -4.415000
C         -11.399000     -9.281000      0.918000
C         -10.953000     -7.408000     -5.442000
C         -10.860000     -6.493000      1.693000
C         -10.210000     -5.412000      0.865000
C         -12.141000     -7.996000     -4.972000
C          -7.365000     -6.611000     -3.649000
C          -8.652000     -7.996000     -4.926000
C          -7.850000     -8.820000     -4.122000
C          -8.271000    -10.247000     -2.201000
C          -8.832000     -5.727000      0.488000
C         -12.435000     -8.358000      0.820000
C          -9.465000    -10.840000     -1.675000
C         -11.285000     -4.147000     -2.285000
C         -11.292000    -10.266000     -0.129000
C         -13.734000     -6.780000     -2.059000
C          -7.280000     -5.903000     -1.340000
C          -9.759000    -10.360000     -3.912000
C         -12.897000     -6.161000      0.186000
C          -6.990000     -8.212000     -1.934000
C         -13.208000     -5.586000     -2.646000
C         -13.234000     -9.364000     -1.292000
C          -9.378000     -5.704000     -4.803000
C          -9.506000     -4.681000     -3.786000
C         -13.350000     -9.019000     -2.633000
C          -8.222000     -5.089000     -0.624000
C         -10.985000     -4.694000     -0.104000
C          -7.540000     -5.591000     -2.658000
C          -9.761000     -7.531000      1.586000
C         -11.726000    -10.598000     -2.493000
C         -12.292000     -5.063000     -0.421000
C         -13.615000     -7.713000     -3.031000
C          -7.041000     -7.233000     -0.939000
C         -11.868000     -9.323000     -4.580000
C          -7.634000     -9.364000     -1.417000
C          -9.931000     -8.357000     -5.261000
C         -12.204000    -10.347000     -1.174000
C         -12.449000     -9.815000     -3.414000
C         -10.057000     -8.878000      1.213000
C          -8.578000     -7.043000      0.934000
C          -8.350000     -6.693000     -4.707000
C         -10.376000    -10.877000     -2.770000
C         -12.821000     -5.814000     -3.958000
C          -8.559000     -4.605000     -2.755000
C         -10.665000     -6.073000     -5.129000
C          -7.704000     -7.770000      0.154000
C          -7.161000     -7.928000     -3.329000
$end

--------------------------------------------------------------
 ----------------------------------------------------------------
             Standard Nuclear Orientation (Angstroms)
    I     Atom           X                Y                Z
 ----------------------------------------------------------------
    1      O      11.7523175694     3.0627603158    -4.5235300714
    2      C      12.7144755346     4.0424793208    -4.9278860053
    3      H      13.0379220261     3.8209083157    -5.9520943126
    4      H      13.6277666792     3.9705782791    -4.3238623920
    5      H      12.2250107784     5.0217744701    -4.8650189783
    6      O      11.1672632055     3.9944987845    -2.4923612411
    7      C      11.1315836602     3.1209729517    -3.3453404843
    8      C      10.2780692792     1.9505131844    -3.2014754971
    9      H      10.9494220403     1.0975253397    -3.3647029670
   10      H       9.5251906402     2.0278512122    -3.9954261154
   11      C       9.6829967959     1.6853960740    -1.8425613506
   12      H      10.4579070189     1.5098530662    -1.0861925260
   13      H       9.0237647887     2.4987268472    -1.5143720548
   14      C       8.8978406147     0.2921852768    -1.9048786497
   15      H       8.1104992913     0.4295951885    -2.6554738513
   16      H       9.5932102565    -0.4386503285    -2.3352521843
   17      C       8.3272128095    -0.1938975177    -0.5085930683
   18      C       9.3716872570    -0.9448435239     0.3385475483
   19      C      10.1521553680    -0.3615187568     1.3467631719
   20      H      10.0592963548     0.6992448756     1.5589110447
   21      C      11.0228598342    -1.1312040660     2.1314231348
   22      H      11.5583210781    -0.5986990658     2.9122910371
   23      C      11.1583866940    -2.5055330316     1.9187887900
   24      H      11.7375984327    -3.0731767862     2.6405583721
   25      C      10.4676843492    -3.1070721295     0.8889781352
   26      H      10.5783608571    -4.1510867811     0.6117379547
   27      C       9.5774945205    -2.3408236814     0.0678969062
   28      H       8.9785252078    -2.7774359600    -0.7260977290
   29      C       4.4284857186    -2.8413158803     2.1726130193
   30      C       5.0783222694    -1.0569495661     3.7013923735
   31      C       1.3542368028     1.3442847609     3.3014734518
   32      C       3.1592644279    -0.8694955887    -2.3855655701
   33      C       2.7319807835     3.5695843455     1.0578972256
   34      C       5.4392535808    -2.0549215703     2.7179563222
   35      C       2.0434329878     1.6407665299    -1.9277847345
   36      C       1.6143070322    -1.0344075678     3.4578840690
   37      C       6.3902690074     2.1311224410     1.6397748934
   38      C       3.9356535842     0.2697799111    -2.5550477620
   39      C       7.2608943515     0.6596911424     0.0478108725
   40      C       6.0614005902     2.6675910326     0.4103929290
   41      C       4.3903948464     2.3742032410    -1.8301803029
   42      C       1.6979917290     2.5306046009    -0.8868325050
   43      C       6.7414810587    -0.1939747781     2.3948980732
   44      C       0.7611617391     2.2165691575     1.2882365308
   45      C       6.9398903810    -0.7497732675    -0.4483549546
   46      C       5.8983826186    -0.8467095517    -1.5235149137
   47      C       1.7508903608     2.9786980372     1.8810618223
   48      C       0.7675509028    -1.6103226014     0.0737812438
   49      C       0.1929506413    -0.1221535801     1.7035341404
   50      C       0.7671502080    -1.1838043004     2.3710359050
   51      C       2.8101471389    -1.8603567337     3.6571713355
   52      C       5.0154048341    -1.9540167344    -1.2883829613
   53      C       7.0768616074     0.9073193115     1.5034132355
   54      C       3.8039683754    -0.9766339168     4.1738969231
   55      C       3.3744025170     1.5628875921    -2.3928911563
   56      C       5.9013090971     0.0843916340     3.4671383519
   57      C       4.8579972414     3.3687307219     0.3205012379
   58      C       2.6867412568    -2.5716788409    -0.8888451458
   59      C       1.9299413153     0.2481429955     3.9759825654
   60      C       6.4660906726     1.7810501309    -0.5768219244
   61      C       2.2427345721    -2.8266068873     1.4870135948
   62      C       4.0243394184     3.2682982721    -0.8023785229
   63      C       5.6211185190     2.3702948466     2.7946818535
   64      C       0.5194049512     0.7074454020    -0.5748681754
   65      C       1.3071262424     0.4552755334    -1.7463640246
   66      C       4.4664179207     3.1864455306     2.7018724279
   67      C       3.6701230687    -1.9722827083    -1.7338347836
   68      C       5.3147137135     0.3188975777    -2.1194038540
   69      C       1.5950372609    -1.8213317274    -1.0604918608
   70      C       6.4556597708    -1.7736708354     0.5254003979
   71      C       4.0149641014     1.4434287332     4.1800266462
   72      C       5.5692028083     1.6169602366    -1.6526730597
   73      C       4.0785775026     3.6519619571     1.4394587609
   74      C       3.0670936358    -3.1450373733     0.3736658685
   75      C       2.1465602628     2.4970401237     3.1424023722
   76      C       3.1101203916    -2.7640245579     2.6583783083
   77      C       0.4946072036     1.1415713146     2.2024697162
   78      C       5.3357437697     1.3120043251     3.6557674617
   79      C       3.4524097168     2.6444641419     3.5920126060
   80      C       6.4081813104    -1.5012028014     1.9019780260
   81      C       5.3725758019    -2.5174842648    -0.0558350953
   82      C       0.2062021891    -0.3830745345     0.3163648457
   83      C       3.2330211178     0.2799299670     4.4124245625
   84      C       2.7419242673     3.3539539614    -0.3348237315
   85      C       1.8473091455    -0.8057301175    -2.0092807025
   86      C       0.7619335318     1.9843342409    -0.0977635947
   87      C       4.3754842832    -3.0637769492     0.8212959135
   88      C       1.1221375800    -2.0756945992     1.3523246307
   89      O       0.2951758482    -6.7094412413    -3.2735663485
   90      C       1.6244770530    -7.2509151431    -3.2615114496
   91      H       1.5894835065    -8.0362072297    -4.0276901432
   92      H       1.7880201772    -7.8417606811    -2.3514673865
   93      H       2.3998776303    -6.5015934287    -3.4601667112
   94      O       0.8526990703    -4.5394963268    -2.8607674567
   95      C       0.0148673729    -5.3810327618    -3.1152973676
   96      C      -1.3923545769    -5.0609305180    -3.3703933052
   97      H      -1.7557925239    -5.7941479405    -4.1012661191
   98      H      -1.4078679115    -4.1187887562    -3.9314042116
   99      C      -2.4142305147    -4.9621210929    -2.2201853826
  100      H      -3.4553574137    -5.1183669897    -2.5271837540
  101      H      -2.2867074850    -5.7562947874    -1.4750813497
  102      C      -2.4458307220    -3.6153897648    -1.5964505376
  103      H      -1.4993533853    -3.3874095941    -1.0918549640
  104      H      -2.4911433465    -2.8897900718    -2.4193173868
  105      C      -3.6060630024    -3.4067476414    -0.6252741789
  106      C      -3.8751857579    -4.6267594780     0.2597298105
  107      C      -2.9460419415    -4.8463792901     1.3404198246
  108      H      -2.0730190486    -4.2302245267     1.5320714252
  109      C      -3.1892916012    -5.9101563380     2.2298139979
  110      H      -2.5962904427    -6.1207166633     3.1147591801
  111      C      -4.3007364163    -6.7869838264     1.9579519401
  112      H      -4.5258901743    -7.6335413892     2.5998764513
  113      C      -5.1462091193    -6.6129042286     0.8811649593
  114      H      -5.9453253293    -7.3269494703     0.7069849499
  115      C      -4.9281963049    -5.5078548168     0.0115367570
  116      H      -5.6421555731    -5.3556700946    -0.7921223584
  117      C      -8.5468233507    -1.1195469126    -0.0712100972
  118      C      -7.5777339002    -0.8410790809     2.1387868041
  119      C      -7.2122487445     3.6413561109     1.7897017818
  120      C      -5.6116639547     0.8130183949    -3.6408993907
  121      C      -3.7544147295     3.5197428293     0.9510933305
  122      C      -7.7385287325    -1.6381957887     0.9699566299
  123      C      -4.2732820558     3.0735876275    -2.5684248515
  124      C      -9.0212309653     2.2463225944     1.1006046821
  125      C      -3.7002761583    -0.4230982985     1.8561164554
  126      C      -4.2871240647     0.7079806588    -3.1815562144
  127      C      -3.6635441956    -2.0033780875     0.0312064435
  128      C      -2.8573212402     0.0987919610     0.8784198956
  129      C      -2.7856534959     1.3347216486    -1.5776229668
  130      C      -4.1281347473     3.8285516352    -1.4201933392
  131      C      -5.5997274747    -1.8968580124     1.6967207135
  132      C      -5.8527134660     4.5691904780     0.1858070803
  133      C      -4.6360424368    -2.4151816796    -1.0358132247
  134      C      -4.7812920084    -1.5323877380    -2.2508121624
  135      C      -5.0463249395     4.1356460776     1.2534047560
  136      C      -8.3718780500     2.5912346521    -2.3568888413
  137      C      -8.0722950214     3.8137066567    -0.4539607799
  138      C      -9.0681253529     2.8666772971    -0.1710237854
  139      C      -9.1565480543     0.8459190144     1.1752779596
  140      C      -6.1752042694    -1.3008661608    -2.6298166053
  141      C      -4.2681334083    -1.6207737064     1.4043789642
  142      C      -8.3406124449     0.3568112565     2.2471845239
  143      C      -3.6186319549     1.8081827432    -2.6596647769
  144      C      -6.2916134354    -0.9708124668     2.5578922787
  145      C      -2.7279504910     1.5017447670     0.8179994244
  146      C      -7.8280572810     0.3698651408    -3.1377514832
  147      C      -8.1236995928     2.6480556381     2.0917721740
  148      C      -2.8879580956    -0.7250827376    -0.2494235617
  149      C      -9.2602543976     0.6933786067    -1.2370759569
  150      C      -2.6822129505     2.1673132834    -0.4476259654
  151      C      -4.3109858854     0.4305781473     2.7831828797
  152      C      -6.3260770325     3.9898516324    -2.1017364572
  153      C      -5.6013049951     3.0991974628    -2.9841437579
  154      C      -4.2058023549     1.8053342454     2.6107181132
  155      C      -6.5325835901    -0.1798687478    -3.4243811536
  156      C      -3.8796664240    -0.4350556326    -2.4458597364
  157      C      -7.6108364214     1.7297623731    -3.2123344281
  158      C      -6.1022531450    -2.5051065277    -0.6632093054
  159      C      -6.3582557705     1.3721874592     3.1847783499
  160      C      -2.9593663025    -0.0560213748    -1.4689873201
  161      C      -3.3962725620     2.3579491816     1.6240351617
  162      C      -8.6261603926    -0.1861835892    -2.1176224555
  163      C      -5.8736115563     3.5861411935     2.2547854209
  164      C      -9.1917148561     0.1109566829     0.0533565419
  165      C      -7.1746465363     4.2092066479     0.5032194300
  166      C      -5.6637735156     0.1288449232     3.1296445501
  167      C      -5.4648258006     2.4246404025     2.9051630946
  168      C      -6.5367571644    -2.2532866449     0.6743059296
  169      C      -6.9742057384    -1.9012427192    -1.6316018786
  170      C      -7.6826539580     3.7094560112    -1.7479026814
  171      C      -7.6985257733     1.5105736810     2.7827888312
  172      C      -3.2857411494     3.4133382153    -0.3684263296
  173      C      -6.2636402349     2.0101215958    -3.5679003733
  174      C      -5.4242367822     4.3762236867    -1.1341586575
  175      C      -8.1765153855    -1.2735469396    -1.3841053720
  176      C      -9.1430694131     2.1196192310    -1.3266714972
 ----------------------------------------------------------------
 Molecular Point Group                 C1    NOp =  1
 Largest Abelian Subgroup              C1    NOp =  1
 Nuclear Repulsion Energy = 34546.7293705521 hartrees
 There are      462 alpha and      462 beta electrons
 Requested basis set is 6-31G(d,p)
 There are 676 shells and 2360 basis functions

 Total QAlloc Memory Limit  20000 MB
 Mega-Array Size      4888 MB
 MEM_STATIC part      5000 MB
 A cutoff of  1.0D-08 yielded  37395 shell pairs
 There are    528483 function pairs
 
 -------------------------------------------------------
 OpenMP Integral Computing Module                       
 Release: version 1.0, May 2013, Q-Chem Inc. Pittsburgh 
 -------------------------------------------------------
 Integral Job Info:
 Integral job number is                      11
 Integral operator is                         1
 short-range coefficients                     0
 long-range coefficients              100000000
 Omega coefficients                           0
 if combine SR and LR in K                    0
 Integral screening is                        0
 Integral computing path is                   2
 max size of driver memory is            800000
 size of driver memory is                593474
 size of scratch memory is              2260544
 max col of scratch BK array               1296
 max len of scratch array in speh3          155
 max len of scratch index in speh4           18
 max int batch size is                      520
 min int batch size is                       52
 fixed nKL is                                52
 max L of basis functions is                  2
 order of int derivative is                   0
 number of shells is                        676
 number of basis is                        2360
 number of cartesian basis is              2360
 number of contracted shell pairs         37395
 number of primitive shell pairs         113299
 maxK2 (contraction) of shell pair           36
 max number of K2 of shell pair               1
 max number of CS2 of shell pair           7213
 max number of PS2 of shell pair          34416
 mem total for path MDJ                 1506536
 -------------------------------------------------------
 Smallest overlap matrix eigenvalue = 2.42E-04

 Scale SEOQF with 1.000000e-02/1.000000e-02/1.000000e-02

 Standard Electronic Orientation quadrupole field applied
 Nucleus-field energy     =     0.0000001198 hartrees
 Guess from superposition of atomic densities
 Warning:  Energy on first SCF cycle will be non-variational
 A restricted hybrid HF-DFT SCF calculation will be
 performed using Pulay DIIS extrapolation
 Exchange:     0.2000 Hartree-Fock + 0.0800 Slater + 0.7200 B88
 Correlation:  0.1900 VWN1RPA + 0.8100 LYP
 Using SG-1 standard quadrature grid
 SCF converges when DIIS error is below 1.0E-05
 using 16 threads for integral computing 
 -------------------------------------------------------
 OpenMP BLAS3 based DFT computing Module                
 Release: version 1.0, May 2013, Q-Chem Inc. Pittsburgh 
 -------------------------------------------------------
 ---------------------------------------
  Cycle       Energy         DIIS Error
 ---------------------------------------
    1   -5858.4273668705      1.83E-02
    2   -5803.1502115799      1.30E-03
    3   -5802.2804732433      1.82E-03
    4   -5803.9750830894      6.75E-04
    5   -5804.2395517656      2.95E-04
    6   -5804.2946220026      1.34E-04
    7   -5804.3060318089      5.10E-05
    8   -5804.3072106505      3.34E-05
    9   -5804.3080572508      8.49E-06 Convergence criterion met
 ---------------------------------------
 SCF time:  CPU 7134.06 s  wall 832.16 s
 SCF   energy in the final basis set = -5804.3080572508
 Total energy in the final basis set = -5804.3080572508
 
 --------------------------------------------------------------
 
                    Orbital Energies (a.u.)
 --------------------------------------------------------------
 
 Alpha MOs
 -- Occupied --
-19.197 -19.191 -19.134 -19.131 -10.317 -10.311 -10.251 -10.248
-10.242 -10.241 -10.241 -10.240 -10.237 -10.236 -10.228 -10.227
-10.227 -10.227 -10.226 -10.225 -10.223 -10.222 -10.222 -10.221
-10.219 -10.219 -10.218 -10.218 -10.218 -10.217 -10.217 -10.217
-10.216 -10.216 -10.216 -10.216 -10.215 -10.215 -10.215 -10.215
-10.215 -10.215 -10.215 -10.215 -10.215 -10.214 -10.214 -10.214
-10.214 -10.214 -10.214 -10.213 -10.213 -10.212 -10.212 -10.212
-10.212 -10.212 -10.212 -10.212 -10.211 -10.211 -10.211 -10.211
-10.211 -10.211 -10.211 -10.211 -10.211 -10.210 -10.210 -10.210
-10.210 -10.210 -10.210 -10.210 -10.210 -10.210 -10.210 -10.209
-10.209 -10.209 -10.209 -10.209 -10.209 -10.209 -10.209 -10.209
-10.209 -10.208 -10.208 -10.208 -10.208 -10.208 -10.208 -10.208
-10.208 -10.207 -10.207 -10.207 -10.207 -10.207 -10.207 -10.207
-10.207 -10.207 -10.206 -10.206 -10.206 -10.206 -10.206 -10.206
-10.206 -10.206 -10.206 -10.206 -10.205 -10.205 -10.205 -10.205
-10.205 -10.205 -10.205 -10.204 -10.204 -10.204 -10.204 -10.204
-10.204 -10.203 -10.203 -10.203 -10.203 -10.202 -10.202 -10.202
-10.201 -10.201 -10.201 -10.200 -10.200 -10.198 -10.198 -10.197
-10.197 -10.193 -10.193 -10.191  -1.104  -1.093  -1.013  -1.012
 -0.979  -0.978  -0.962  -0.961  -0.959  -0.957  -0.957  -0.956
 -0.932  -0.932  -0.923  -0.922  -0.920  -0.920  -0.918  -0.917
 -0.916  -0.915  -0.893  -0.891  -0.887  -0.883  -0.880  -0.880
 -0.869  -0.867  -0.852  -0.851  -0.838  -0.838  -0.835  -0.834
 -0.833  -0.832  -0.823  -0.817  -0.811  -0.808  -0.794  -0.793
 -0.792  -0.789  -0.789  -0.788  -0.787  -0.787  -0.781  -0.779
 -0.767  -0.766  -0.766  -0.764  -0.764  -0.764  -0.762  -0.760
 -0.752  -0.750  -0.748  -0.746  -0.735  -0.733  -0.712  -0.712
 -0.711  -0.710  -0.709  -0.708  -0.707  -0.706  -0.705  -0.704
 -0.704  -0.703  -0.703  -0.700  -0.700  -0.698  -0.673  -0.669
 -0.655  -0.655  -0.654  -0.652  -0.646  -0.644  -0.628  -0.626
 -0.625  -0.623  -0.621  -0.619  -0.619  -0.618  -0.615  -0.613
 -0.613  -0.611  -0.611  -0.609  -0.608  -0.608  -0.607  -0.606
 -0.606  -0.603  -0.598  -0.597  -0.566  -0.564  -0.562  -0.561
 -0.557  -0.556  -0.556  -0.553  -0.553  -0.551  -0.550  -0.549
 -0.536  -0.533  -0.530  -0.529  -0.525  -0.524  -0.522  -0.520
 -0.518  -0.517  -0.515  -0.513  -0.512  -0.511  -0.510  -0.510
 -0.507  -0.505  -0.504  -0.504  -0.495  -0.491  -0.486  -0.485
 -0.482  -0.480  -0.479  -0.478  -0.476  -0.476  -0.475  -0.475
 -0.472  -0.472  -0.469  -0.469  -0.467  -0.465  -0.464  -0.463
 -0.461  -0.460  -0.460  -0.459  -0.458  -0.458  -0.458  -0.456
 -0.455  -0.453  -0.453  -0.450  -0.448  -0.446  -0.441  -0.441
 -0.439  -0.438  -0.437  -0.436  -0.434  -0.432  -0.432  -0.430
 -0.429  -0.427  -0.425  -0.424  -0.424  -0.422  -0.421  -0.421
 -0.420  -0.420  -0.419  -0.417  -0.417  -0.416  -0.415  -0.415
 -0.415  -0.414  -0.413  -0.412  -0.411  -0.411  -0.410  -0.409
 -0.409  -0.407  -0.406  -0.404  -0.402  -0.400  -0.396  -0.392
 -0.391  -0.389  -0.388  -0.385  -0.385  -0.383  -0.381  -0.378
 -0.374  -0.374  -0.373  -0.370  -0.369  -0.368  -0.364  -0.362
 -0.361  -0.360  -0.359  -0.357  -0.357  -0.356  -0.355  -0.355
 -0.354  -0.353  -0.352  -0.351  -0.351  -0.350  -0.349  -0.347
 -0.347  -0.346  -0.346  -0.345  -0.344  -0.343  -0.342  -0.340
 -0.339  -0.337  -0.337  -0.335  -0.333  -0.333  -0.332  -0.331
 -0.330  -0.329  -0.327  -0.326  -0.325  -0.325  -0.324  -0.320
 -0.310  -0.309  -0.303  -0.296  -0.284  -0.281  -0.269  -0.268
 -0.266  -0.265  -0.265  -0.263  -0.263  -0.262  -0.261  -0.260
 -0.259  -0.258  -0.257  -0.257  -0.255  -0.255  -0.254  -0.250
 -0.250  -0.246  -0.243  -0.239  -0.221  -0.216  -0.211  -0.207
 -0.205  -0.204  -0.202  -0.201  -0.198  -0.194
 -- Virtual --
 -0.119  -0.118  -0.116  -0.111  -0.102  -0.101  -0.076  -0.072
 -0.068  -0.066  -0.058  -0.053  -0.051  -0.045  -0.021  -0.019
 -0.018  -0.017  -0.016  -0.015  -0.014  -0.013  -0.012  -0.010
 -0.010  -0.009  -0.006  -0.006  -0.004  -0.002   0.002   0.009
  0.011   0.015   0.036   0.043   0.046   0.048   0.049   0.052
  0.054   0.055   0.058   0.063   0.066   0.068   0.068   0.069
  0.072   0.075   0.079   0.084   0.087   0.089   0.091   0.094
  0.098   0.102   0.102   0.103   0.104   0.105   0.105   0.108
  0.111   0.112   0.113   0.116   0.118   0.119   0.122   0.124
  0.124   0.126   0.127   0.128   0.130   0.130   0.133   0.137
  0.138   0.144   0.144   0.148   0.149   0.151   0.152   0.156
  0.156   0.158   0.160   0.164   0.164   0.165   0.166   0.169
  0.170   0.171   0.173   0.176   0.179   0.180   0.181   0.183
  0.184   0.186   0.187   0.189   0.191   0.191   0.193   0.196
  0.197   0.198   0.201   0.203   0.205   0.207   0.207   0.210
  0.211   0.212   0.214   0.216   0.216   0.218   0.220   0.222
  0.222   0.224   0.225   0.227   0.229   0.230   0.231   0.232
  0.233   0.235   0.237   0.238   0.241   0.241   0.243   0.245
  0.247   0.249   0.251   0.252   0.254   0.258   0.260   0.262
  0.268   0.269   0.275   0.278   0.278   0.280   0.283   0.284
  0.287   0.289   0.291   0.291   0.295   0.296   0.304   0.307
  0.308   0.312   0.312   0.316   0.318   0.319   0.320   0.322
  0.323   0.326   0.327   0.328   0.330   0.332   0.332   0.335
  0.336   0.338   0.340   0.346   0.348   0.350   0.351   0.353
  0.354   0.356   0.360   0.363   0.368   0.381   0.388   0.394
  0.395   0.399   0.400   0.402   0.406   0.406   0.408   0.413
  0.413   0.415   0.417   0.422   0.423   0.424   0.425   0.427
  0.432   0.434   0.436   0.440   0.444   0.445   0.449   0.450
  0.451   0.455   0.456   0.458   0.460   0.460   0.466   0.468
  0.469   0.472   0.473   0.475   0.477   0.478   0.479   0.481
  0.482   0.484   0.484   0.485   0.486   0.487   0.488   0.489
  0.490   0.492   0.494   0.494   0.496   0.496   0.496   0.498
  0.500   0.501   0.502   0.503   0.504   0.505   0.506   0.506
  0.508   0.508   0.509   0.510   0.512   0.513   0.514   0.516
  0.516   0.517   0.517   0.518   0.519   0.520   0.520   0.521
  0.521   0.523   0.524   0.524   0.525   0.525   0.526   0.527
  0.528   0.529   0.530   0.531   0.532   0.532   0.534   0.535
  0.537   0.538   0.538   0.539   0.540   0.541   0.541   0.542
  0.543   0.544   0.544   0.545   0.546   0.547   0.547   0.548
  0.549   0.550   0.551   0.551   0.552   0.553   0.554   0.554
  0.555   0.556   0.557   0.557   0.557   0.558   0.559   0.560
  0.560   0.561   0.561   0.563   0.564   0.565   0.565   0.566
  0.567   0.568   0.568   0.569   0.570   0.571   0.571   0.573
  0.573   0.574   0.575   0.576   0.578   0.578   0.579   0.580
  0.581   0.582   0.583   0.584   0.585   0.585   0.586   0.587
  0.587   0.588   0.588   0.590   0.591   0.591   0.593   0.593
  0.594   0.595   0.595   0.596   0.597   0.598   0.599   0.599
  0.600   0.602   0.603   0.604   0.606   0.607   0.607   0.609
  0.610   0.611   0.611   0.613   0.613   0.614   0.615   0.618
  0.619   0.619   0.620   0.621   0.624   0.625   0.626   0.628
  0.630   0.631   0.632   0.633   0.635   0.636   0.636   0.636
  0.637   0.638   0.639   0.640   0.640   0.642   0.642   0.644
  0.645   0.646   0.648   0.650   0.651   0.652   0.653   0.654
  0.655   0.656   0.657   0.658   0.659   0.659   0.660   0.661
  0.662   0.663   0.664   0.665   0.665   0.667   0.667   0.668
  0.669   0.669   0.669   0.671   0.671   0.672   0.673   0.674
  0.674   0.675   0.675   0.676   0.678   0.680   0.680   0.681
  0.682   0.683   0.685   0.687   0.687   0.689   0.690   0.692
  0.693   0.694   0.696   0.696   0.697   0.698   0.700   0.701
  0.702   0.703   0.704   0.705   0.706   0.707   0.708   0.709
  0.710   0.712   0.713   0.715   0.716   0.718   0.718   0.719
  0.720   0.721   0.723   0.724   0.725   0.726   0.727   0.728
  0.730   0.731   0.733   0.734   0.735   0.736   0.736   0.737
  0.739   0.741   0.743   0.744   0.745   0.747   0.748   0.749
  0.749   0.752   0.754   0.755   0.755   0.758   0.758   0.759
  0.761   0.763   0.764   0.766   0.767   0.769   0.769   0.773
  0.773   0.774   0.774   0.775   0.776   0.778   0.779   0.780
  0.782   0.783   0.785   0.785   0.787   0.789   0.790   0.791
  0.792   0.792   0.793   0.794   0.797   0.798   0.800   0.801
  0.801   0.803   0.805   0.805   0.807   0.807   0.808   0.809
  0.809   0.810   0.810   0.811   0.811   0.812   0.813   0.814
  0.815   0.815   0.816   0.818   0.818   0.819   0.820   0.820
  0.822   0.823   0.823   0.823   0.825   0.825   0.826   0.828
  0.829   0.829   0.830   0.831   0.833   0.834   0.835   0.838
  0.840   0.842   0.844   0.845   0.847   0.851   0.851   0.853
  0.854   0.856   0.858   0.860   0.862   0.866   0.867   0.869
  0.870   0.874   0.878   0.879   0.883   0.884   0.888   0.889
  0.893   0.894   0.900   0.901   0.906   0.910   0.912   0.913
  0.916   0.917   0.918   0.919   0.924   0.924   0.925   0.930
  0.930   0.932   0.935   0.935   0.937   0.939   0.941   0.943
  0.945   0.946   0.946   0.948   0.950   0.950   0.953   0.953
  0.957   0.959   0.962   0.964   0.965   0.968   0.970   0.971
  0.976   0.979   0.980   0.982   0.984   0.986   0.990   0.992
  0.992   0.993   0.998   1.001   1.001   1.003   1.007   1.007
  1.010   1.011   1.012   1.016   1.017   1.018   1.019   1.022
  1.024   1.027   1.027   1.028   1.030   1.030   1.031   1.034
  1.037   1.038   1.039   1.040   1.041   1.043   1.044   1.046
  1.048   1.049   1.051   1.053   1.053   1.055   1.058   1.060
  1.063   1.064   1.066   1.068   1.070   1.071   1.072   1.075
  1.076   1.080   1.080   1.081   1.082   1.086   1.086   1.086
  1.089   1.089   1.093   1.093   1.095   1.097   1.098   1.100
  1.103   1.104   1.107   1.108   1.111   1.114   1.115   1.117
  1.118   1.121   1.123   1.125   1.129   1.131   1.133   1.134
  1.137   1.140   1.142   1.144   1.146   1.148   1.149   1.149
  1.151   1.154   1.156   1.158   1.160   1.161   1.162   1.162
  1.167   1.168   1.169   1.171   1.172   1.173   1.175   1.177
  1.178   1.180   1.181   1.182   1.184   1.184   1.186   1.188
  1.191   1.193   1.194   1.196   1.200   1.201   1.203   1.207
  1.208   1.208   1.211   1.213   1.214   1.218   1.222   1.224
  1.225   1.229   1.232   1.235   1.237   1.240   1.242   1.249
  1.250   1.253   1.257   1.258   1.261   1.264   1.266   1.267
  1.270   1.270   1.272   1.273   1.274   1.277   1.278   1.280
  1.281   1.283   1.284   1.286   1.288   1.289   1.294   1.295
  1.298   1.300   1.304   1.305   1.308   1.310   1.310   1.314
  1.319   1.322   1.326   1.328   1.329   1.331   1.333   1.337
  1.339   1.344   1.345   1.346   1.352   1.352   1.354   1.356
  1.359   1.360   1.362   1.363   1.364   1.368   1.372   1.376
  1.378   1.380   1.380   1.385   1.388   1.390   1.391   1.391
  1.395   1.397   1.399   1.400   1.402   1.405   1.405   1.408
  1.411   1.414   1.417   1.421   1.423   1.425   1.425   1.432
  1.434   1.435   1.439   1.442   1.443   1.447   1.448   1.450
  1.453   1.456   1.460   1.462   1.463   1.466   1.467   1.468
  1.470   1.471   1.474   1.476   1.476   1.478   1.479   1.480
  1.483   1.485   1.486   1.486   1.488   1.489   1.491   1.494
  1.500   1.502   1.507   1.508   1.510   1.512   1.514   1.516
  1.519   1.523   1.525   1.527   1.532   1.535   1.539   1.543
  1.545   1.547   1.547   1.548   1.549   1.553   1.555   1.558
  1.559   1.561   1.563   1.564   1.565   1.569   1.571   1.574
  1.577   1.580   1.581   1.585   1.589   1.590   1.592   1.594
  1.596   1.598   1.600   1.602   1.608   1.614   1.617   1.619
  1.620   1.625   1.630   1.632   1.636   1.642   1.646   1.650
  1.651   1.654   1.657   1.661   1.662   1.664   1.666   1.669
  1.674   1.682   1.687   1.689   1.690   1.694   1.701   1.703
  1.703   1.705   1.708   1.712   1.714   1.715   1.716   1.720
  1.722   1.723   1.728   1.729   1.731   1.731   1.732   1.735
  1.737   1.737   1.740   1.742   1.744   1.746   1.747   1.749
  1.749   1.750   1.752   1.754   1.755   1.757   1.759   1.760
  1.761   1.763   1.764   1.765   1.769   1.770   1.771   1.774
  1.775   1.776   1.777   1.778   1.779   1.780   1.781   1.782
  1.783   1.785   1.785   1.787   1.788   1.789   1.790   1.791
  1.794   1.794   1.795   1.797   1.798   1.799   1.800   1.800
  1.801   1.803   1.805   1.806   1.807   1.808   1.811   1.812
  1.814   1.818   1.818   1.820   1.822   1.822   1.825   1.828
  1.831   1.833   1.835   1.836   1.838   1.843   1.844   1.845
  1.848   1.852   1.853   1.854   1.856   1.859   1.860   1.861
  1.861   1.862   1.862   1.864   1.867   1.869   1.871   1.874
  1.874   1.876   1.878   1.878   1.880   1.882   1.883   1.883
  1.885   1.891   1.893   1.893   1.898   1.899   1.901   1.903
  1.905   1.908   1.914   1.917   1.921   1.923   1.924   1.926
  1.929   1.929   1.931   1.932   1.932   1.934   1.937   1.938
  1.939   1.942   1.944   1.946   1.948   1.949   1.950   1.954
  1.956   1.958   1.959   1.960   1.961   1.963   1.965   1.967
  1.968   1.970   1.971   1.977   1.979   1.980   1.981   1.982
  1.984   1.985   1.986   1.990   1.992   1.992   1.993   1.997
  1.997   1.998   2.000   2.000   2.001   2.004   2.005   2.005
  2.007   2.007   2.009   2.011   2.013   2.014   2.016   2.017
  2.018   2.020   2.021   2.023   2.024   2.025   2.026   2.027
  2.029   2.030   2.031   2.032   2.033   2.035   2.036   2.038
  2.040   2.041   2.041   2.042   2.043   2.045   2.046   2.047
  2.048   2.048   2.051   2.052   2.053   2.054   2.055   2.056
  2.058   2.059   2.059   2.060   2.063   2.064   2.065   2.066
  2.066   2.069   2.071   2.071   2.073   2.075   2.076   2.076
  2.078   2.078   2.081   2.084   2.084   2.086   2.088   2.092
  2.093   2.095   2.097   2.099   2.101   2.102   2.103   2.104
  2.108   2.109   2.110   2.113   2.116   2.119   2.122   2.122
  2.124   2.128   2.129   2.133   2.137   2.139   2.139   2.141
  2.144   2.146   2.149   2.153   2.156   2.157   2.159   2.162
  2.169   2.176   2.184   2.187   2.191   2.193   2.198   2.203
  2.209   2.213   2.216   2.218   2.218   2.221   2.225   2.227
  2.230   2.233   2.236   2.241   2.242   2.245   2.248   2.251
  2.254   2.257   2.258   2.259   2.262   2.263   2.266   2.267
  2.269   2.271   2.271   2.275   2.275   2.277   2.279   2.281
  2.283   2.286   2.288   2.290   2.292   2.293   2.295   2.297
  2.300   2.303   2.304   2.306   2.312   2.315   2.318   2.320
  2.322   2.324   2.325   2.330   2.332   2.334   2.336   2.340
  2.341   2.346   2.349   2.350   2.353   2.354   2.355   2.357
  2.359   2.361   2.362   2.364   2.365   2.368   2.368   2.369
  2.372   2.375   2.377   2.378   2.380   2.383   2.384   2.385
  2.387   2.390   2.392   2.394   2.396   2.397   2.398   2.400
  2.402   2.403   2.404   2.406   2.406   2.409   2.410   2.412
  2.413   2.414   2.417   2.419   2.419   2.420   2.421   2.422
  2.425   2.429   2.432   2.436   2.437   2.442   2.445   2.446
  2.449   2.451   2.453   2.457   2.461   2.462   2.464   2.467
  2.469   2.470   2.473   2.474   2.475   2.476   2.479   2.482
  2.483   2.485   2.486   2.487   2.488   2.492   2.494   2.495
  2.496   2.498   2.499   2.500   2.503   2.504   2.507   2.507
  2.509   2.513   2.514   2.517   2.518   2.518   2.520   2.522
  2.524   2.527   2.529   2.529   2.533   2.534   2.535   2.538
  2.541   2.546   2.548   2.548   2.550   2.553   2.559   2.560
  2.564   2.566   2.573   2.578   2.578   2.580   2.583   2.583
  2.586   2.587   2.588   2.593   2.598   2.598   2.604   2.605
  2.609   2.610   2.611   2.613   2.614   2.616   2.619   2.622
  2.623   2.624   2.628   2.628   2.629   2.630   2.631   2.634
  2.636   2.638   2.638   2.641   2.644   2.645   2.647   2.650
  2.651   2.652   2.655   2.657   2.658   2.659   2.661   2.662
  2.662   2.666   2.666   2.669   2.671   2.673   2.674   2.675
  2.680   2.682   2.684   2.685   2.688   2.690   2.691   2.694
  2.695   2.698   2.699   2.700   2.703   2.704   2.707   2.710
  2.715   2.716   2.717   2.720   2.722   2.723   2.730   2.733
  2.736   2.737   2.738   2.740   2.741   2.742   2.748   2.750
  2.751   2.753   2.755   2.757   2.758   2.763   2.763   2.765
  2.768   2.768   2.769   2.771   2.775   2.778   2.779   2.781
  2.784   2.787   2.791   2.791   2.795   2.797   2.801   2.803
  2.806   2.809   2.810   2.811   2.814   2.815   2.818   2.823
  2.831   2.832   2.835   2.836   2.838   2.840   2.843   2.845
  2.849   2.850   2.852   2.854   2.856   2.858   2.860   2.863
  2.868   2.869   2.872   2.874   2.879   2.881   2.882   2.883
  2.883   2.885   2.886   2.889   2.890   2.891   2.894   2.895
  2.898   2.901   2.902   2.905   2.906   2.907   2.909   2.910
  2.911   2.913   2.915   2.917   2.919   2.921   2.924   2.925
  2.928   2.928   2.929   2.931   2.933   2.937   2.938   2.941
  2.942   2.943   2.945   2.947   2.951   2.952   2.954   2.958
  2.959   2.962   2.968   2.971   2.975   2.975   2.978   2.983
  2.987   2.990   2.996   2.997   3.003   3.003   3.006   3.010
  3.012   3.014   3.016   3.021   3.023   3.024   3.027   3.027
  3.032   3.035   3.037   3.041   3.042   3.043   3.044   3.049
  3.055   3.055   3.059   3.061   3.064   3.069   3.070   3.073
  3.074   3.079   3.084   3.088   3.092   3.093   3.096   3.113
  3.119   3.128   3.131   3.133   3.134   3.144   3.156   3.160
  3.164   3.169   3.171   3.177   3.180   3.185   3.188   3.195
  3.203   3.209   3.210   3.220   3.232   3.236   3.242   3.243
  3.246   3.251   3.253   3.261   3.262   3.279   3.288   3.290
  3.298   3.305   3.321   3.323   3.324   3.329   3.338   3.339
  3.341   3.343   3.348   3.348   3.351   3.358   3.372   3.382
  3.391   3.409   3.412   3.415   3.416   3.419   3.419   3.432
  3.442   3.459   3.467   3.470   3.485   3.485   3.489   3.490
  3.494   3.496   3.503   3.525   3.525   3.531   3.545   3.553
  3.556   3.559   3.574   3.576   3.590   3.596   3.602   3.613
  3.621   3.637   3.692   3.693   3.835   3.863   4.005   4.009
  4.067   4.071   4.077   4.085   4.088   4.091   4.093   4.098
  4.099   4.101   4.104   4.112   4.113   4.115   4.117   4.119
  4.125   4.131   4.135   4.136   4.148   4.152   4.153   4.156
  4.158   4.161   4.163   4.166   4.171   4.172   4.173   4.175
  4.186   4.199   4.205   4.208   4.212   4.219   4.240   4.241
  4.243   4.247   4.253   4.254   4.257   4.259   4.262   4.264
  4.268   4.272   4.275   4.285   4.287   4.289   4.291   4.295
  4.301   4.304   4.321   4.333   4.373   4.375   4.388   4.391
  4.394   4.398   4.402   4.406   4.410   4.415   4.417   4.420
  4.423   4.424   4.426   4.431   4.436   4.455   4.461   4.473
  4.479   4.480   4.493   4.500   4.533   4.536   4.551   4.554
  4.557   4.567   4.606   4.623   4.629   4.633   4.634   4.645
  4.648   4.652   4.679   4.691   4.699   4.702   4.703   4.704
  4.707   4.709   4.714   4.727   4.735   4.744   4.785   4.806
  4.837   4.839   4.854   4.864   4.875   4.877   4.884   4.895
  4.897   4.901   4.949   4.966   4.972   4.976   4.982   4.988
  4.997   5.000   5.002   5.007   5.170   5.179   5.181   5.186
  5.197   5.203   5.210   5.219   5.309   5.326   5.342   5.355
  5.367   5.385
 --------------------------------------------------------------
 
          Ground-State Mulliken Net Atomic Charges

     Atom                 Charge (a.u.)
  ----------------------------------------
      1 O                    -0.458690
      2 C                    -0.085068
      3 H                     0.126578
      4 H                     0.128027
      5 H                     0.135107
      6 O                    -0.484158
      7 C                     0.598584
      8 C                    -0.250887
      9 H                     0.126511
     10 H                     0.135062
     11 C                    -0.175303
     12 H                     0.111982
     13 H                     0.118805
     14 C                    -0.194467
     15 H                     0.105910
     16 H                     0.102729
     17 C                     0.016984
     18 C                     0.083438
     19 C                    -0.112702
     20 H                     0.095755
     21 C                    -0.091400
     22 H                     0.093065
     23 C                    -0.078275
     24 H                     0.092931
     25 C                    -0.090434
     26 H                     0.092814
     27 C                    -0.111458
     28 H                     0.093606
     29 C                     0.020314
     30 C                    -0.011171
     31 C                    -0.000962
     32 C                     0.021692
     33 C                    -0.009616
     34 C                    -0.014833
     35 C                    -0.001857
     36 C                     0.001778
     37 C                     0.007363
     38 C                     0.001778
     39 C                    -0.076007
     40 C                     0.014892
     41 C                    -0.021417
     42 C                    -0.011825
     43 C                    -0.004158
     44 C                    -0.015140
     45 C                    -0.087773
     46 C                     0.026472
     47 C                     0.000335
     48 C                    -0.018442
     49 C                    -0.002413
     50 C                     0.004623
     51 C                    -0.025441
     52 C                     0.007553
     53 C                     0.007012
     54 C                     0.012415
     55 C                    -0.009207
     56 C                     0.000197
     57 C                     0.004833
     58 C                     0.029930
     59 C                    -0.009338
     60 C                     0.038938
     61 C                    -0.017276
     62 C                     0.001110
     63 C                    -0.000537
     64 C                    -0.006106
     65 C                    -0.007910
     66 C                    -0.027330
     67 C                    -0.026499
     68 C                    -0.024193
     69 C                     0.049313
     70 C                     0.028345
     71 C                    -0.004296
     72 C                     0.005422
     73 C                     0.007310
     74 C                    -0.021386
     75 C                     0.032651
     76 C                    -0.019113
     77 C                     0.002282
     78 C                     0.020542
     79 C                    -0.029341
     80 C                     0.022101
     81 C                    -0.016809
     82 C                    -0.007736
     83 C                     0.000455
     84 C                    -0.003228
     85 C                    -0.017562
     86 C                     0.039784
     87 C                     0.013564
     88 C                    -0.000711
     89 O                    -0.468529
     90 C                    -0.087134
     91 H                     0.123804
     92 H                     0.124073
     93 H                     0.142162
     94 O                    -0.467734
     95 C                     0.592922
     96 C                    -0.257506
     97 H                     0.122564
     98 H                     0.134220
     99 C                    -0.189111
    100 H                     0.105152
    101 H                     0.123340
    102 C                    -0.171188
    103 H                     0.122900
    104 H                     0.107046
    105 C                     0.002706
    106 C                     0.066311
    107 C                    -0.104386
    108 H                     0.106388
    109 C                    -0.090257
    110 H                     0.099503
    111 C                    -0.082701
    112 H                     0.086986
    113 C                    -0.084045
    114 H                     0.095431
    115 C                    -0.108535
    116 H                     0.096998
    117 C                    -0.003531
    118 C                     0.019368
    119 C                    -0.003435
    120 C                     0.018688
    121 C                    -0.005983
    122 C                    -0.015565
    123 C                     0.005179
    124 C                    -0.003694
    125 C                     0.021815
    126 C                     0.012816
    127 C                    -0.084593
    128 C                     0.016600
    129 C                    -0.011330
    130 C                     0.006071
    131 C                    -0.028233
    132 C                    -0.014131
    133 C                    -0.067885
    134 C                    -0.000824
    135 C                    -0.011364
    136 C                    -0.019324
    137 C                     0.031250
    138 C                    -0.012603
    139 C                    -0.011912
    140 C                     0.001925
    141 C                     0.031259
    142 C                    -0.023082
    143 C                    -0.024815
    144 C                     0.016289
    145 C                     0.009025
    146 C                    -0.024619
    147 C                     0.017716
    148 C                     0.029812
    149 C                    -0.020722
    150 C                    -0.009836
    151 C                    -0.018465
    152 C                    -0.002459
    153 C                    -0.010775
    154 C                    -0.006525
    155 C                    -0.022628
    156 C                    -0.022182
    157 C                     0.013538
    158 C                     0.008189
    159 C                     0.010698
    160 C                     0.025948
    161 C                     0.023193
    162 C                     0.006019
    163 C                    -0.011278
    164 C                     0.022964
    165 C                     0.014285
    166 C                    -0.024654
    167 C                     0.005338
    168 C                     0.015586
    169 C                     0.007345
    170 C                    -0.026472
    171 C                    -0.015800
    172 C                    -0.008805
    173 C                     0.007218
    174 C                     0.006270
    175 C                     0.008124
    176 C                     0.015204
  ----------------------------------------
  Sum of atomic charges =     0.000000

 -----------------------------------------------------------------
                    Cartesian Multipole Moments
 -----------------------------------------------------------------
    Charge (ESU x 10^10)
                 0.0000
    Dipole Moment (Debye)
         X       4.1667      Y      -5.8692      Z      -2.7567
       Tot       7.7077
    Quadrupole Moments (Debye-Ang)
        XX    -764.1436     XY       2.7329     YY    -776.8050
        XZ     -25.8529     YZ      -1.8917     ZZ    -792.5860
    Octopole Moments (Debye-Ang^2)
       XXX    1197.4517    XXY    -180.9734    XYY      53.7694
       YYY    -439.8046    XXZ    -348.1252    XYZ    -100.3340
       YYZ    -106.2503    XZZ     301.9999    YZZ     -34.6680
       ZZZ    -204.9140
    Hexadecapole Moments (Debye-Ang^3)
      XXXX -159152.7589   XXXY    1395.6791   XXYY  -33475.6047
      XYYY     578.8624   YYYY  -34838.1311   XXXZ   -4939.2499
      XXYZ   -1461.9332   XYYZ    -951.6253   YYYZ     207.3224
      XXZZ  -29703.5430   XYZZ    1041.1699   YYZZ   -9491.9247
      XZZZ   -1709.7745   YZZZ    -200.2656   ZZZZ  -23658.0834
 -----------------------------------------------------------------
Archival summary:
1\1\mn366\SP\ProcedureUnspecified\6-31G**\428\afmv_a\SatOct605:06:022018SatOct605:06:022018\0\\#,ProcedureUnspecified,6-31G**,\\0,1\O\C,1,1.21447\O,2,1.36685,1,123.795\C,3,1.4354,2,123.749,1,5.07766,0\H,4,1.09645,3,113.303,2,19.9196,0\H,4,1.09728,3,110.372,2,-109.832,0\H,4,1.0977,3,103.561,2,142.271,0\C,2,1.46554,1,123.199,3,175.899,0\H,8,1.09663,2,106.875,1,-37.2637,0\H,8,1.09721,2,106.741,1,-147.187,0\C,8,1.54174,2,121.37,1,87.7095,0\H,11,1.09643,8,112.549,2,41.804,0\H,11,1.09663,8,114.285,2,156.76,0\C,11,1.4845,8,112.688,2,-85.9718,0\H,14,1.09655,11,111.321,8,65.5521,0\H,14,1.09802,11,106.589,8,-47.3118,0\C,14,1.52737,11,114.033,8,-169.879,0\C,17,1.48748,14,116.203,11,113.267,0\C,18,1.50129,17,62.4934,14,104.649,0\C,18,1.50886,17,132.759,14,0.368852,0\C,20,1.43357,18,119.793,17,69.32,0\C,21,1.3946,20,121.855,18,7.5113,0\C,22,1.39287,21,121.104,20,0.667965,0\C,23,1.39705,22,115.132,21,132.214,0\C,24,1.39242,23,109.423,22,-136.816,0\C,25,1.40034,24,109.849,23,-1.81115,0\C,26,1.39098,25,119.351,24,140.771,0\C,25,1.40042,24,120.023,23,151.554,0\C,28,1.38952,25,119.205,24,-8.25123,0\C,29,1.39078,28,121.684,25,6.80663,0\C,30,1.35257,29,117.314,28,-1.10238,0\C,30,1.38956,29,121.72,28,-144.822,0\C,32,1.40432,30,107.799,29,145.823,0\C,33,1.38676,32,105.485,30,-1.23463,0\C,22,1.40575,21,107.236,20,148.156,0\C,33,1.41005,32,118.631,30,-137.377,0\C,36,1.38184,33,121.445,32,135.833,0\C,37,1.39181,36,109.777,33,-140.755,0\C,38,1.40198,37,124.115,36,143.995,0\C,39,1.36509,38,118.545,37,-5.52993,0\C,40,1.37142,39,107.802,38,-142.982,0\C,40,1.40586,39,119.87,38,2.37382,0\C,42,1.38914,40,121.129,39,0.486675,0\C,41,1.41975,40,119.404,39,139.7,0\C,44,1.41255,41,126.065,40,-136.413,0\C,45,1.3787,44,115.254,41,3.55584,0\C,46,1.37278,45,117.258,44,136.724,0\C,46,1.38657,45,123.016,44,-4.3667,0\C,47,1.39483,46,108.005,45,-143.467,0\C,49,1.34168,47,123.08,46,149.329,0\C,48,1.39681,46,107.911,45,141.933,0\C,50,1.40891,49,120.178,47,-139.813,0\C,52,1.3962,50,108.066,49,138.151,0\C,53,1.38153,52,118.409,50,-140.158,0\C,53,1.39719,52,108.208,50,-0.0168332,0\C,55,1.40608,53,120.769,52,-140.25,0\C,54,1.40674,53,120.519,52,1.40735,0\C,57,1.37054,54,120.311,53,-2.14626,0\C,58,1.35535,57,120.044,54,143.027,0\C,58,1.40307,57,121.252,54,-1.72913,0\C,60,1.37813,58,103.614,57,142.094,0\C,61,1.37059,60,114.405,58,5.84902,0\C,57,1.40636,54,109.564,53,147.351,0\C,63,1.40112,57,117.699,54,-142.117,0\C,64,1.37797,63,119.999,57,-7.12345,0\C,63,1.40641,57,106.781,54,-3.95843,0\C,56,1.40857,55,118.314,53,-1.69532,0\C,67,1.39254,56,121.987,55,-0.326903,0\C,48,1.40955,46,120.571,45,2.61559,0\C,69,1.37915,48,121.151,46,131.442,0\C,47,1.41646,46,120.529,45,2.41832,0\C,71,1.38203,47,120.128,46,-2.89586,0\C,71,1.42387,47,117.571,46,-139.695,0\C,73,1.35889,71,107.855,47,141.446,0\C,74,1.38936,73,118.623,71,-145.077,0\C,73,1.42432,71,118.217,47,-6.22517,0\C,72,1.42869,71,122.9,47,5.62492,0\C,17,1.53104,14,113.093,11,-40.7951,0\C,78,1.39526,17,122.211,14,102.229,0\H,79,1.08571,78,122.646,17,2.87991,0\C,79,1.423,78,119.822,17,178.886,0\H,81,1.08572,79,121.698,78,178.91,0\C,81,1.38007,79,118.745,78,0.0658488,0\H,83,1.08601,81,115.626,79,-178.75,0\C,83,1.44154,81,122.872,79,1.08343,0\H,85,1.08587,83,117.181,81,-178.732,0\C,85,1.40777,83,118.275,81,1.21676,0\H,87,1.08561,85,117.149,83,176.754,0\C,15,3.10735,14,157.104,11,-154.078,0\C,89,1.37117,15,106.235,14,-23.1707,0\C,89,1.40605,15,109.621,14,-134.741,0\C,91,1.35564,89,118.825,15,-101.295,0\C,91,1.39973,89,112.764,15,111.794,0\C,93,1.37926,91,104.112,89,0.924739,0\C,93,1.38609,91,118.969,89,142.973,0\C,94,1.39174,93,115.798,91,140.983,0\C,96,1.40992,94,122.83,93,-1.35168,0\C,97,1.40781,96,111.888,94,-143.022,0\C,98,1.38893,97,125.414,96,145.709,0\C,98,1.40696,97,102.905,96,1.08946,0\C,100,1.38269,98,113.389,97,-1.3327,0\C,101,1.40532,100,120.9,98,142.354,0\C,102,1.34061,101,120.9,100,2.13756,0\C,102,1.38452,101,119.483,100,-135.06,0\C,97,1.40994,96,120.669,94,1.63073,0\C,105,1.37459,97,121.399,96,-140.078,0\C,106,1.40065,105,108.156,97,139.866,0\C,107,1.3615,106,119.575,105,-138.815,0\C,100,1.41042,98,118.101,97,143.961,0\C,109,1.40203,100,122.268,98,-1.97284,0\C,110,1.39276,109,107.872,100,-139.192,0\C,111,1.39566,110,122.205,109,144.132,0\C,112,1.38106,111,117.245,110,-6.84745,0\C,112,1.3872,111,121.787,110,-144.322,0\C,110,1.40029,109,119.462,100,2.76774,0\C,111,1.40212,110,108.98,109,-7.13153,0\C,116,1.36767,111,106.215,110,6.05629,0\C,113,1.40805,112,122.281,111,5.63127,0\C,118,1.39387,113,119.312,112,-136.487,0\C,119,1.36473,118,120.846,113,-6.66867,0\C,120,1.39035,119,122.488,118,2.45791,0\C,113,1.40986,112,111.534,111,-145.521,0\C,114,1.41024,112,115.578,111,1.38693,0\C,123,1.4027,114,118.483,112,135.904,0\C,116,1.4106,111,118.335,110,147.907,0\C,103,1.41235,102,110.357,101,-144.204,0\C,126,1.40728,103,107.924,102,1.9687,0\C,127,1.3968,126,122.269,103,142.446,0\C,128,1.36634,127,117.73,126,-3.55974,0\C,129,1.37908,128,105.24,127,-139.967,0\C,129,1.38905,128,122.142,127,2.32419,0\C,126,1.41204,103,120.535,102,143.94,0\C,128,1.41255,127,116.974,126,-136.161,0\C,133,1.33578,128,110.135,127,140.2,0\C,130,1.41723,129,119.331,128,145.779,0\C,135,1.40151,130,120.874,129,-140.833,0\C,106,1.42098,105,119.253,97,-0.090868,0\C,92,1.42145,91,121.713,89,-0.414155,0\C,138,1.38523,92,106.352,91,-140.779,0\C,139,1.37053,138,111.387,92,-5.82278,0\C,140,1.39193,139,120.403,138,145.403,0\C,141,1.38248,140,120.264,139,0.651244,0\C,142,1.40409,141,121.644,140,3.89764,0\C,140,1.40714,139,108.244,138,0.218477,0\C,144,1.37992,140,119.308,139,142.645,0\C,124,1.43332,123,122.707,114,-1.83776,0\C,122,1.48794,113,107.416,112,-2.67272,0\C,147,1.47487,122,123.697,113,-155.945,0\C,143,1.49367,142,121.137,141,-147.604,0\C,148,1.54029,147,124.398,122,-0.628463,0\C,150,1.4021,148,124.758,147,50.4464,0\H,151,1.08575,150,119.957,148,1.57645,0\C,151,1.40222,150,121.31,148,-175.951,0\H,153,1.08629,151,116.056,150,177.772,0\C,153,1.39727,151,120.995,150,-1.08533,0\H,155,1.08566,153,117.7,151,171.65,0\C,155,1.3782,153,119.63,151,-2.61117,0\H,157,1.08585,155,124.011,153,-175.08,0\C,157,1.43309,155,120.401,153,2.22123,0\H,159,1.0862,157,123.122,155,177.199,0\C,148,1.58477,147,114.532,122,145.672,0\H,161,1.09644,148,112.522,147,54.1236,0\H,161,1.09676,148,111.693,147,172.791,0\C,161,1.60043,148,114.164,147,-66.2886,0\H,164,1.09699,161,103.538,148,-55.8422,0\H,164,1.09718,161,111.235,148,61.8834,0\C,164,1.507,161,108.165,148,-174.565,0\H,167,1.09689,164,113.208,161,-60.7736,0\H,167,1.0977,164,103.821,161,60.3331,0\C,167,1.45573,164,117.522,161,175.183,0\O,170,1.22143,167,121.542,164,13.7653,0\O,170,1.33298,167,108.982,164,-168.899,0\C,172,1.43147,170,122.194,167,176.82,0\H,173,1.09661,172,107.157,170,55.7831,0\H,173,1.09668,172,108.891,170,176.451,0\H,173,1.09732,172,111.044,170,-68.6601,0\\\@

 Total job time:  848.45s(wall), 7161.57s(cpu) 
 Sat Oct  6 05:06:02 2018

        *************************************************************
        *                                                           *
        *  Thank you very much for using Q-Chem.  Have a nice day.  *
        *                                                           *
        *************************************************************


