
Running Job 1 of 1 ./7/22.qcin
qchem ./7/22.qcin_136855.0 /tmpu/cab_g/afmv_a/scratch_qchem/qchem136855/ 1
/tmpu/appuserlic/qchem4.4/serial-multicore/exe/qcprog.exe_s ./7/22.qcin_136855.0 /tmpu/cab_g/afmv_a/scratch_qchem/qchem136855/
Check license passed

                  Welcome to Q-Chem
     A Quantum Leap Into The Future Of Chemistry


 Q-Chem 4.4, Q-Chem, Inc., Pleasanton, CA (2016)

 Y. Shao,  Z. Gan,  E. Epifanovsky,  A. T. B. Gilbert,  M. Wormit,  
 J. Kussmann,  A. W. Lange,  A. Behn,  J. Deng,  X. Feng,  D. Ghosh,  
 M. Goldey,  P. R. Horn,  L. D. Jacobson,  I. Kaliman,  F. Rob,  
 R. Z. Khaliullin,  T. Kus,  A. Landau,  J. Liu,  E. I. Proynov,  Y. M. Rhee,  
 R. M. Richard,  M. A. Rohrdanz,  R. P. Steele,  E. J. Sundstrom,  
 H. L. Woodcock III,  P. M. Zimmerman,  D. Zuev,  B. Albrecht,  E. Alguire,  
 B. Austin,  S. A. Baeppler,  G. J. O. Beran,  Y. A. Bernard,  E. Berquist,  
 K. Brandhorst,  K. B. Bravaya,  S. T. Brown,  D. Casanova,  C.-M. Chang,  
 Y. Chen,  S. H. Chien,  K. D. Closser,  M. P. Coons,  D. L. Crittenden,  
 S. Dasgupta,  M. Diedenhofen,  R. A. DiStasio Jr.,  H. Do,  A. D. Dutoi,  
 R. G. Edgar,  P.-T. Fang,  S. Fatehi,  Q. Feng,  L. Fusti-Molnar,  
 A. Ghysels,  A. Golubeva-Zadorozhnaya,  J. Gomes,  A. Gunina,  
 M. W. D. Hanson-Heine,  P. H. P. Harbach,  A. W. Hauser,  J. E. Herr,  
 E. G. Hohenstein,  Z. C. Holden,  K. Hui,  T.-C. Jagau,  H. Ji,  B. Kaduk,  
 K. Khistyaev,  Jaehoon Kim,  Jihan Kim,  R. A. King,  P. Klunzinger,  
 K. Koh,  D. Kosenkov,  T. Kowalczyk,  C. M. Krauter,  A. Kunitsa,  
 K. U. Lao,  A. Laurent,  K. V. Lawler,  J. Lee,  D. Lefrancois,  S. Lehtola,  
 S. V. Levchenko,  C. Y. Lin,  Y.-S. Lin,  F. Liu,  E. Livshits,  
 R. C. Lochan,  A. Luenser,  P. Manohar,  S. F. Manzer,  S.-P. Mao,  Y. Mao,  
 N. Mardirossian,  A. V. Marenich,  L. A. Martinez-Martinez,  S. A. Maurer,  
 N. J. Mayhall,  J.-M. Mewes,  A. F. Morrison,  K. Nanda,  T. S. Nguyen-Beck,  
 C. M. Oana,  R. Olivares-Amaya,  D. P. O'Neill,  J. A. Parkhill,  
 T. M. Perrine,  R. Peverati,  P. A. Pieniazek,  F. Plasser,  A. Prociuk,  
 D. R. Rehn,  E. Rosta,  N. J. Russ,  N. Sergueev,  S. M. Sharada,  
 S. Sharma,  D. W. Small,  A. Sodt,  T. Stauch,  T. Stein,  D. Stuck,  
 Y.-C. Su,  A. J. W. Thom,  T. Tsuchimochi,  L. Vogt,  O. Vydrov,  T. Wang,  
 M. A. Watson,  J. Wenzel,  A. White,  C. F. Williams,  V. Vanovschi,  
 K. Yao,  S. Yeganeh,  S. R. Yost,  Z.-Q. You,  I. Y. Zhang,  X. Zhang,  
 Y. Zhao,  B. R. Brooks,  G. K. L. Chan,  D. M. Chipman,  C. J. Cramer,  
 W. A. Goddard III,  M. S. Gordon,  W. J. Hehre,  A. Klamt,  
 H. F. Schaefer III,  M. W. Schmidt,  C. D. Sherrill,  D. G. Truhlar,  
 A. Warshel,  X. Xu,  A. Aspuru-Guzik,  R. Baer,  A. T. Bell,  N. A. Besley,  
 J.-D. Chai,  A. Dreuw,  B. D. Dunietz,  T. R. Furlani,  S. R. Gwaltney,  
 C.-P. Hsu,  Y. Jung,  J. Kong,  D. S. Lambrecht,  W. Liang,  C. Ochsenfeld,  
 V. A. Rassolov,  L. V. Slipchenko,  J. E. Subotnik,  T. Van Voorhis,  
 J. M. Herbert,  A. I. Krylov,  P. M. W. Gill,  M. Head-Gordon

 Contributors to earlier versions of Q-Chem not listed above: 
 R. D. Adamson,  J. Baker,  E. F. C. Byrd,  A. K. Chakraborty,  C.-L. Cheng,  
 H. Dachsel,  R. J. Doerksen,  G. Hawkins,  A. Heyden,  S. Hirata,  
 G. Kedziora,  F. J. Keil,  C. Kelley,  P. P. Korambath,  W. Kurlancheek,  
 A. M. Lee,  M. S. Lee,  D. Liotard,  I. Lotan,  P. E. Maslen,  N. Nair,  
 D. Neuhauser,  R. Olson,  B. Peters,  J. Ritchie,  N. E. Schultz,  
 N. Shenvi,  A. C. Simmonett,  K. S. Thanthiriwatte,  Q. Wu,  W. Zhang

 Please cite Q-Chem as follows:
 Y. Shao et al., Mol. Phys. 113, 184-215 (2015)
 DOI: 10.1080/00268976.2014.952696

 Q-Chem 4.4.2 for Intel X86 Linux

 Parts of Q-Chem use Armadillo 5.200.1 (Boston Tea Smuggler).
 http://arma.sourceforge.net/

 Q-Chem begins on Sat Oct  6 06:31:30 2018  

Host: 
0

     Scratch files written to /tmpu/cab_g/afmv_a/scratch_qchem/qchem136855//
 Dec716 11556_ 22328  22283 4050   
Processing $rem in /tmpu/appuserlic/qchem4.4/serial-multicore/config/preferences.
 MEM_TOTAL  2000 
FILE_GEOM_ORG=        593

Checking the input file for inconsistencies... 	...done.

--------------------------------------------------------------
User input:
--------------------------------------------------------------
$comment
SP
$end

$rem
MEM_STATIC 5000
MEM_TOTAL 20000
JOBTYPE SP
EXCHANGE B3LYP
BASIS 6-31g(d,p)
$end

$molecule
0 1
O          -8.316000     32.225000    -13.060000
C          -8.637000     33.632000    -12.636000
H          -7.814000     34.253000    -13.012000
H          -8.740000     33.663000    -11.544000
H          -9.586000     34.031000    -13.015000
O          -6.364000     32.137000    -11.856000
C          -7.172000     31.600000    -12.613000
C          -6.954000     30.199000    -13.205000
H          -6.068000     29.829000    -12.674000
H          -6.621000     30.329000    -14.242000
C          -8.176000     29.251000    -13.034000
H          -8.948000     29.560000    -13.750000
H          -7.876000     28.246000    -13.356000
C          -8.699000     29.359000    -11.562000
H          -7.882000     29.259000    -10.837000
H          -9.082000     30.373000    -11.393000
C          -9.797000     28.285000    -11.181000
C         -10.812000     28.247000    -12.282000
C         -10.770000     27.253000    -13.238000
H         -10.109000     26.394000    -13.180000
C         -11.723000     27.246000    -14.292000
H         -11.752000     26.437000    -15.015000
C         -12.654000     28.284000    -14.371000
H         -13.470000     28.314000    -15.087000
C         -12.678000     29.289000    -13.415000
H         -13.367000     30.125000    -13.487000
C         -11.700000     29.338000    -12.377000
H         -11.789000     30.085000    -11.594000
C         -13.635000     26.710000     -7.454000
C         -13.033000     24.651000     -8.661000
C         -10.683000     22.724000     -5.295000
C          -9.325000     28.827000     -5.746000
C          -7.575000     23.581000     -6.536000
C         -13.246000     26.028000     -8.713000
C          -7.449000     26.889000     -4.986000
C         -12.775000     23.948000     -5.226000
C          -9.196000     24.751000    -10.036000
C          -8.261000     28.571000     -6.606000
C          -9.445000     27.109000    -10.281000
C          -8.030000     25.355000     -9.530000
C          -7.067000     26.887000     -7.446000
C          -7.252000     25.471000     -4.989000
C         -11.481000     25.573000    -10.096000
C          -8.818000     23.643000     -4.496000
C         -10.289000     28.216000     -9.732000
C          -9.760000     28.872000     -8.484000
C          -8.517000     23.007000     -5.673000
C         -11.331000     26.720000     -3.714000
C         -10.957000     24.459000     -3.716000
C         -12.260000     24.718000     -4.153000
C         -13.521000     24.525000     -6.244000
C         -10.807000     28.983000     -7.567000
C         -10.101000     25.785000    -10.339000
C         -13.231000     23.901000     -7.491000
C          -7.383000     27.531000     -6.273000
C         -11.935000     24.403000     -9.520000
C          -7.291000     24.773000     -8.463000
C         -11.554000     28.524000     -5.318000
C         -11.999000     23.004000     -5.843000
C          -8.140000     26.744000     -9.630000
C         -13.238000     26.780000     -5.215000
C          -6.767000     25.521000     -7.407000
C          -9.658000     23.580000     -9.484000
C          -8.981000     25.952000     -3.650000
C          -8.514000     27.177000     -4.165000
C          -8.939000     22.957000     -8.421000
C         -10.587000     29.069000     -6.224000
C          -8.492000     28.562000     -7.971000
C         -10.866000     27.939000     -4.271000
C         -11.684000     27.881000     -9.317000
C         -11.178000     22.593000     -8.034000
C          -7.731000     27.489000     -8.526000
C          -7.727000     23.528000     -7.966000
C         -12.790000     27.968000     -5.782000
C          -9.691000     22.439000     -6.183000
C         -13.754000     25.946000     -6.233000
C         -10.188000     23.448000     -4.265000
C         -11.044000     23.364000     -9.196000
C          -9.883000     22.331000     -7.540000
C         -12.303000     26.597000     -9.594000
C         -11.980000     28.412000     -8.078000
C         -10.370000     25.735000     -3.436000
C         -12.263000     22.874000     -7.217000
C          -6.926000     24.802000     -6.209000
C          -9.506000     28.178000     -4.536000
C          -8.215000     24.948000     -4.136000
C         -12.968000     27.900000     -7.182000
C         -12.477000     26.120000     -4.176000
O         -22.126000     28.565000      0.304000
C         -21.224000     27.577000      0.739000
H         -20.810000     26.899000     -0.017000
H         -21.771000     26.917000      1.424000
H         -20.428000     28.091000      1.292000
O         -23.574000     26.891000     -0.361000
C         -23.220000     28.056000     -0.342000
C         -24.204000     29.119000     -0.739000
H         -24.223000     29.957000     -0.031000
H         -25.197000     28.656000     -0.690000
C         -24.061000     29.679000     -2.204000
H         -24.581000     30.642000     -2.284000
H         -22.989000     29.905000     -2.269000
C         -24.535000     28.628000     -3.306000
H         -24.579000     27.607000     -2.908000
H         -25.567000     28.971000     -3.453000
C         -23.688000     28.773000     -4.533000
C         -24.118000     29.986000     -5.400000
C         -23.554000     31.262000     -5.271000
H         -22.795000     31.345000     -4.498000
C         -23.979000     32.355000     -6.103000
H         -23.468000     33.310000     -6.172000
C         -25.114000     32.185000     -6.866000
H         -25.582000     32.970000     -7.452000
C         -25.817000     30.950000     -6.871000
H         -26.667000     30.857000     -7.541000
C         -25.364000     29.903000     -6.100000
H         -25.891000     28.953000     -6.097000
C         -21.628000     25.685000     -8.694000
C         -20.003000     27.462000     -8.400000
C         -16.821000     24.758000     -6.513000
C         -22.574000     23.418000     -4.171000
C         -17.582000     25.779000     -3.181000
C         -21.334000     27.054000     -8.436000
C         -20.286000     23.319000     -2.636000
C         -18.328000     24.323000     -8.356000
C         -19.923000     28.752000     -4.549000
C         -22.404000     24.377000     -3.138000
C         -22.219000     28.383000     -4.484000
C         -20.189000     28.135000     -3.369000
C         -20.896000     25.688000     -2.149000
C         -18.914000     23.754000     -2.679000
C         -21.035000     28.581000     -6.718000
C         -17.294000     23.731000     -4.455000
C         -23.237000     27.489000     -5.165000
C         -23.367000     26.104000     -4.623000
C         -16.941000     25.064000     -4.224000
C         -20.322000     22.186000     -6.404000
C         -18.149000     22.765000     -6.497000
C         -18.661000     23.102000     -7.731000
C         -19.273000     25.138000     -8.919000
C         -23.448000     25.167000     -5.662000
C         -21.103000     28.831000     -5.355000
C         -18.960000     26.469000     -8.630000
C         -21.224000     24.360000     -2.448000
C         -19.836000     28.377000     -7.411000
C         -19.185000     27.241000     -2.813000
C         -22.565000     23.112000     -6.479000
C         -17.364000     25.161000     -7.704000
C         -21.527000     27.838000     -3.280000
C         -20.991000     23.601000     -8.333000
C         -19.528000     26.038000     -2.132000
C         -18.716000     28.529000     -5.224000
C         -19.229000     22.240000     -4.321000
C         -20.468000     22.418000     -3.697000
C         -17.690000     27.744000     -4.670000
C         -23.139000     23.785000     -5.386000
C         -22.755000     25.715000     -3.390000
C         -21.609000     22.288000     -5.819000
C         -23.016000     27.147000     -6.644000
C         -17.664000     27.459000     -6.874000
C         -21.828000     26.582000     -2.748000
C         -17.968000     27.065000     -3.443000
C         -22.213000     23.720000     -7.699000
C         -16.629000     25.689000     -5.486000
C         -20.633000     24.772000     -8.992000
C         -17.207000     23.563000     -5.867000
C         -18.608000     28.410000     -6.626000
C         -17.026000     27.051000     -5.698000
C         -21.969000     27.747000     -7.366000
C         -23.239000     25.806000     -6.871000
C         -19.132000     22.111000     -5.733000
C         -17.800000     26.526000     -7.886000
C         -18.539000     25.101000     -2.420000
C         -21.652000     22.432000     -4.477000
C         -18.321000     23.091000     -3.722000
C         -22.570000     25.033000     -7.872000
C         -20.043000     22.741000     -7.656000
$end

--------------------------------------------------------------
 ----------------------------------------------------------------
             Standard Nuclear Orientation (Angstroms)
    I     Atom           X                Y                Z
 ----------------------------------------------------------------
    1      O      -9.0119192518     6.5674412349    -1.4026337914
    2      C      -8.5993324150     7.3294881637    -2.6320737373
    3      H      -9.5119859676     7.8104266621    -3.0063833067
    4      H      -8.1493477316     6.6336426855    -3.3513420149
    5      H      -7.8321094327     8.0971708415    -2.4724642086
    6      O     -10.4674511840     5.2054257226    -2.5401769944
    7      C      -9.9370965704     5.5493369546    -1.4843687503
    8      C     -10.3066938439     4.9311470731    -0.1271553824
    9      H     -10.9657392385     4.0956703400    -0.3945404908
   10      H     -10.9597107834     5.6438641097     0.3912665523
   11      C      -9.0763082691     4.4625510978     0.7021805864
   12      H      -8.5837195388     5.3535761788     1.1115113180
   13      H      -9.4441031361     3.9137753589     1.5781264319
   14      C      -8.1076327005     3.6651994675    -0.2347692631
   15      H      -8.6440746913     2.9011806540    -0.8106331732
   16      H      -7.7109782184     4.3447582190    -0.9991717258
   17      C      -6.9241136331     2.9361692479     0.5215630422
   18      C      -6.3191887699     3.9096024243     1.4861167012
   19      C      -6.6481662080     3.8633788220     2.8252855568
   20      H      -7.2375163196     3.0677065539     3.2699630665
   21      C      -6.0873177116     4.8109194262     3.7235003237
   22      H      -6.2774818401     4.7514574928     4.7904365367
   23      C      -5.2529168504     5.8111439650     3.2197423709
   24      H      -4.7131062429     6.5204816247     3.8401104813
   25      C      -4.9411888714     5.8605111486     1.8688443184
   26      H      -4.3294158953     6.6567507290     1.4558826297
   27      C      -5.5317054703     4.9466618812     0.9455357769
   28      H      -5.2092597540     4.9516869391    -0.0912971454
   29      C      -2.0562493819     0.2628116553     0.0131785282
   30      C      -2.9748282302    -0.4861429109     2.1704949068
   31      C      -4.0707899125    -4.6861968882     0.8574071035
   32      C      -5.6237851970    -0.5028768018    -3.5451163435
   33      C      -7.4296424191    -4.0187724285     0.4026011788
   34      C      -2.8177558351     0.5522471814     1.2532837649
   35      C      -7.1139066109    -2.8209754321    -3.0364151420
   36      C      -2.0938951040    -3.3713318342     0.3650476758
   37      C      -7.0515025021    -0.4302132219     2.1986507393
   38      C      -6.9033765589    -0.3576092449    -3.0171245979
   39      C      -6.9424662437     1.4254085513     0.7063475096
   40      C      -8.0030614163    -0.6456454389     1.1844847802
   41      C      -8.2708446909    -1.2436549106    -1.4965832514
   42      C      -7.2728074841    -3.8463020453    -2.0500086087
   43      C      -4.9256778094     0.7426310784     2.1223970615
   44      C      -5.5951940023    -5.0562455642    -0.7238718562
   45      C      -5.9886538836     2.0246366675    -0.2787177910
   46      C      -6.0986540293     1.4978670253    -1.6851653414
   47      C      -6.2478513703    -4.7690838363     0.4474532490
   48      C      -3.0265875608    -2.8433538750    -2.9374647096
   49      C      -3.3357073792    -4.4949289555    -1.3790213544
   50      C      -2.2495338132    -3.6969387496    -1.0057953965
   51      C      -1.7289485974    -2.0963652518     0.7737569380
   52      C      -4.8138028577     1.2095543386    -2.1493336960
   53      C      -6.3140624486     0.7131729827     1.8397076311
   54      C      -2.3940788331    -1.7505940895     1.9847602711
   55      C      -7.6054507213    -1.5188676284    -2.6679200198
   56      C      -4.2864222127    -0.3444366234     2.6849164781
   57      C      -8.3454382268    -1.9556591023     0.7486220478
   58      C      -3.3705511852    -0.4522302159    -3.1403875313
   59      C      -3.0086374403    -3.7950062052     1.2911942547
   60      C      -7.9591961559     0.4082178588     0.2685868663
   61      C      -1.7091188814    -1.3097875956    -1.5937010602
   62      C      -8.5146480737    -2.2871121731    -0.5970089899
   63      C      -6.4124203166    -1.4996710281     2.7793597549
   64      C      -5.2136946928    -3.9977125554    -2.9165259890
   65      C      -5.8466240072    -2.9173850945    -3.5616864808
   66      C      -6.7363475123    -2.8303190290     2.3799776451
   67      C      -4.5893183751     0.3011328160    -3.1412117400
   68      C      -7.1261139213     0.6216377006    -2.0641657913
   69      C      -3.6710876598    -1.7381080100    -3.5502339976
   70      C      -4.5279850552     1.8559276918    -0.0170713594
   71      C      -4.4856893822    -2.7914172092     2.8579008922
   72      C      -8.0040268225     0.0704688706    -1.0823527446
   73      C      -7.7472565937    -3.0452092139     1.4135951962
   74      C      -2.3401485320    -0.2149348852    -2.1739045784
   75      C      -5.2907397684    -4.5241074016     1.4398865859
   76      C      -1.5334629456    -1.0655121935    -0.2125383181
   77      C      -4.2204917111    -5.0093641986    -0.4476803498
   78      C      -5.0037257242    -1.5020964661     3.0365944001
   79      C      -5.5458000398    -3.6282679894     2.4510210999
   80      C      -4.0062140257     1.3111027769     1.2236811562
   81      C      -3.8579005418     1.4528932094    -1.1542819604
   82      C      -3.8260742410    -3.9497575418    -2.6092544504
   83      C      -3.2006390936    -2.8849949456     2.3445160823
   84      C      -7.9623607660    -3.5588494301    -0.8317622193
   85      C      -5.0482079233    -1.7290256714    -3.8337887384
   86      C      -6.0754064560    -4.5494229580    -2.0310676507
   87      C      -2.6231623510     0.7342973566    -1.1663484612
   88      C      -2.0797997631    -2.6600291249    -1.9593313331
   89      O       8.4484394326    -1.6348737005    -4.6531876384
   90      C       7.7556050207    -2.8355464846    -4.4137333771
   91      H       7.1330423870    -2.8916313452    -3.5126860668
   92      H       8.5078656647    -3.6217701931    -4.2723466606
   93      H       7.1710886390    -3.0536208833    -5.3161773677
   94      O       9.6368219773    -1.9801064670    -2.7013253830
   95      C       9.2847002225    -1.2764503035    -3.6307231844
   96      C      10.0658957574    -0.0295933030    -3.9322445875
   97      H      10.2960373161     0.0719483637    -5.0002301458
   98      H      11.0304531695    -0.1370688227    -3.4214638015
   99      C       9.4455837599     1.3179521329    -3.4034645539
  100      H       9.8923404113     2.1655201508    -3.9384467493
  101      H       8.4058675785     1.2532122562    -3.7488397274
  102      C       9.5586916300     1.4592083290    -1.8188717681
  103      H       9.7495127868     0.4947145813    -1.3329498642
  104      H      10.4805907484     2.0509640328    -1.7539933997
  105      C       8.3576581153     2.1844740032    -1.2940182663
  106      C       8.4597327708     3.7176039960    -1.5109311292
  107      C       7.9422900727     4.3711583647    -2.6370007280
  108      H       7.4725720611     3.7151311565    -3.3646629378
  109      C       8.0533606562     5.7964262068    -2.7911853697
  110      H       7.5284614664     6.3761943315    -3.5436857100
  111      C       8.8837711400     6.4785292152    -1.9283714185
  112      H       9.1212580487     7.5345364798    -2.0125950808
  113      C       9.5719947898     5.8032888172    -0.8844089610
  114      H      10.1613148136     6.4048506996    -0.1982062130
  115      C       9.4137842898     4.4443372531    -0.7292345947
  116      H       9.9323748809     3.9168624536     0.0664237080
  117      C       5.1250290759     2.3740842071     3.2455216294
  118      C       3.6471453854     2.9989891718     1.4261416299
  119      C       1.3013339122    -0.9370505206     1.4737764133
  120      C       7.5282408345    -2.0329769741     2.1079281219
  121      C       3.0783992011    -2.3104775819    -1.2974188282
  122      C       4.9028735018     3.0708162972     2.0238947242
  123      C       5.8621066413    -3.7107434321     0.6901599593
  124      C       2.1397059393     0.3886228839     3.3167754282
  125      C       4.7910401747     1.2503957046    -2.0573374639
  126      C       7.6822609957    -2.1156722195     0.6989890578
  127      C       6.9915852270     1.5189335017    -1.3520070987
  128      C       5.4366872747     0.0877430175    -2.3316065861
  129      C       6.5491810985    -2.2561648810    -1.2160299392
  130      C       4.5414997050    -3.7203383009     0.1162581748
  131      C       5.1449972567     2.8823797428    -0.2736086496
  132      C       2.4349898210    -2.9286711136     0.9618255426
  133      C       7.7523489988     1.6166580142    -0.0439515177
  134      C       8.0784018383     0.3242529336     0.6285569607
  135      C       2.1490074861    -2.2530033027    -0.2283618852
  136      C       4.7002799259    -1.9211153694     3.9962451187
  137      C       2.6028311777    -1.9952732801     3.1832086171
  138      C       2.6813599080    -0.7968737601     3.8585906045
  139      C       2.8352936912     1.5675766010     3.2956848573
  140      C       7.8378018419     0.4042178906     2.0068777679
  141      C       5.6451219829     2.1447210595    -1.3369185410
  142      C       2.6059511017     2.2123022439     2.0771686194
  143      C       6.7894201138    -2.8883116866     0.0100388321
  144      C       3.7906561454     2.9165927153     0.0786066635
  145      C       4.6846034017    -1.1555553946    -2.2611303033
  146      C       6.7794336184    -0.6766697446     3.8458289971
  147      C       1.4217729615     0.2853170066     2.0796238065
  148      C       6.7372376589     0.1528949540    -1.8949168526
  149      C       4.6809468281     0.5327897402     4.3819949654
  150      C       5.2534677697    -2.3642443478    -1.7670823853
  151      C       3.4353331501     1.2572758454    -1.7048972177
  152      C       4.3388311104    -3.5706646560     2.3577104364
  153      C       5.7092202656    -3.5660083799     2.0780805337
  154      C       2.6596032499     0.0851307745    -1.7165614695
  155      C       7.6624531085    -0.8136960975     2.7602165623
  156      C       7.9059880129    -0.9340696250    -0.0295097620
  157      C       6.1049906326    -1.9305257106     3.8073078915
  158      C       7.0718088463     2.3319024320     1.1301594326
  159      C       1.9279266885     1.3809975939    -0.0658356910
  160      C       7.2192430051    -1.0014148867    -1.2733055289
  161      C       3.3330466934    -1.1493135656    -1.9743891243
  162      C       6.0396706436     0.4857225908     4.1349013058
  163      C       1.4331621830    -1.0404271643     0.0844281573
  164      C       4.1056486000     1.7007230172     3.8934769930
  165      C       1.8993984716    -2.1057867942     1.9940756593
  166      C       2.8821261450     2.1019880920    -0.7190715587
  167      C       1.7128623689     0.1419031117    -0.6781070382
  168      C       5.8357622562     2.9783117830     0.9517307969
  169      C       7.2362592474     1.6158649898     2.2962578190
  170      C       3.7929970835    -2.7233345103     3.3596539674
  171      C       1.7480110839     1.4589523918     1.3033547358
  172      C       4.2434790338    -3.0594883911    -1.1070880870
  173      C       6.5767986076    -2.7332396985     2.8292503838
  174      C       3.6564752638    -3.6151119220     1.1577600461
  175      C       6.2951247443     1.5978235430     3.3737694679
  176      C       4.0202922259    -0.7554978911     4.3600068842
 ----------------------------------------------------------------
 Molecular Point Group                 C1    NOp =  1
 Largest Abelian Subgroup              C1    NOp =  1
 Nuclear Repulsion Energy = 33971.1478682361 hartrees
 There are      462 alpha and      462 beta electrons
 Requested basis set is 6-31G(d,p)
 There are 676 shells and 2360 basis functions

 Total QAlloc Memory Limit  20000 MB
 Mega-Array Size      4888 MB
 MEM_STATIC part      5000 MB
 A cutoff of  1.0D-08 yielded  37182 shell pairs
 There are    525310 function pairs
 
 -------------------------------------------------------
 OpenMP Integral Computing Module                       
 Release: version 1.0, May 2013, Q-Chem Inc. Pittsburgh 
 -------------------------------------------------------
 Integral Job Info:
 Integral job number is                      11
 Integral operator is                         1
 short-range coefficients                     0
 long-range coefficients              100000000
 Omega coefficients                           0
 if combine SR and LR in K                    0
 Integral screening is                        0
 Integral computing path is                   2
 max size of driver memory is            800000
 size of driver memory is                593474
 size of scratch memory is              2260544
 max col of scratch BK array               1296
 max len of scratch array in speh3          155
 max len of scratch index in speh4           18
 max int batch size is                      520
 min int batch size is                       52
 fixed nKL is                                52
 max L of basis functions is                  2
 order of int derivative is                   0
 number of shells is                        676
 number of basis is                        2360
 number of cartesian basis is              2360
 number of contracted shell pairs         37182
 number of primitive shell pairs         113130
 maxK2 (contraction) of shell pair           36
 max number of K2 of shell pair               1
 max number of CS2 of shell pair           7188
 max number of PS2 of shell pair          34518
 mem total for path MDJ                 1501336
 -------------------------------------------------------
 Smallest overlap matrix eigenvalue = 2.56E-04

 Scale SEOQF with 1.000000e-02/1.000000e-02/1.000000e-02

 Standard Electronic Orientation quadrupole field applied
 Nucleus-field energy     =     0.0000001322 hartrees
 Guess from superposition of atomic densities
 Warning:  Energy on first SCF cycle will be non-variational
 A restricted hybrid HF-DFT SCF calculation will be
 performed using Pulay DIIS extrapolation
 Exchange:     0.2000 Hartree-Fock + 0.0800 Slater + 0.7200 B88
 Correlation:  0.1900 VWN1RPA + 0.8100 LYP
 Using SG-1 standard quadrature grid
 SCF converges when DIIS error is below 1.0E-05
 using 16 threads for integral computing 
 -------------------------------------------------------
 OpenMP BLAS3 based DFT computing Module                
 Release: version 1.0, May 2013, Q-Chem Inc. Pittsburgh 
 -------------------------------------------------------
 ---------------------------------------
  Cycle       Energy         DIIS Error
 ---------------------------------------
    1   -5858.3341438792      1.83E-02
    2   -5803.1127330537      1.29E-03
    3   -5802.3815941656      1.77E-03
    4   -5803.9782163879      6.31E-04
    5   -5804.1937251199      2.78E-04
    6   -5804.2425122112      1.20E-04
    7   -5804.2522075689      4.35E-05
    8   -5804.2531440482      2.49E-05
    9   -5804.2535595666      8.60E-06 Convergence criterion met
 ---------------------------------------
 SCF time:  CPU 7029.94 s  wall 820.32 s
 SCF   energy in the final basis set = -5804.2535595666
 Total energy in the final basis set = -5804.2535595666
 
 --------------------------------------------------------------
 
                    Orbital Energies (a.u.)
 --------------------------------------------------------------
 
 Alpha MOs
 -- Occupied --
-19.199 -19.192 -19.139 -19.134 -10.320 -10.317 -10.255 -10.242
-10.241 -10.240 -10.238 -10.238 -10.237 -10.233 -10.228 -10.226
-10.226 -10.225 -10.224 -10.223 -10.221 -10.221 -10.221 -10.221
-10.221 -10.220 -10.219 -10.218 -10.218 -10.217 -10.217 -10.217
-10.217 -10.217 -10.217 -10.216 -10.216 -10.216 -10.216 -10.216
-10.216 -10.216 -10.216 -10.216 -10.215 -10.215 -10.215 -10.215
-10.215 -10.215 -10.215 -10.215 -10.215 -10.214 -10.214 -10.214
-10.214 -10.214 -10.214 -10.214 -10.214 -10.214 -10.214 -10.214
-10.213 -10.213 -10.213 -10.213 -10.213 -10.213 -10.213 -10.213
-10.213 -10.213 -10.213 -10.213 -10.213 -10.212 -10.212 -10.212
-10.212 -10.212 -10.212 -10.212 -10.212 -10.211 -10.211 -10.211
-10.211 -10.211 -10.211 -10.211 -10.211 -10.211 -10.211 -10.211
-10.211 -10.210 -10.210 -10.210 -10.210 -10.210 -10.210 -10.210
-10.210 -10.210 -10.209 -10.209 -10.209 -10.209 -10.209 -10.209
-10.209 -10.208 -10.208 -10.208 -10.208 -10.208 -10.207 -10.207
-10.207 -10.207 -10.207 -10.207 -10.206 -10.206 -10.206 -10.206
-10.205 -10.205 -10.205 -10.205 -10.205 -10.204 -10.203 -10.203
-10.203 -10.203 -10.203 -10.203 -10.202 -10.201 -10.200 -10.200
-10.199 -10.198 -10.198 -10.197  -1.103  -1.078  -1.019  -0.998
 -0.982  -0.981  -0.966  -0.965  -0.962  -0.960  -0.960  -0.957
 -0.935  -0.932  -0.927  -0.925  -0.924  -0.923  -0.922  -0.921
 -0.919  -0.917  -0.898  -0.897  -0.892  -0.888  -0.886  -0.885
 -0.876  -0.875  -0.855  -0.854  -0.839  -0.839  -0.836  -0.835
 -0.834  -0.830  -0.820  -0.817  -0.804  -0.800  -0.797  -0.796
 -0.795  -0.793  -0.793  -0.791  -0.790  -0.788  -0.784  -0.780
 -0.770  -0.769  -0.766  -0.764  -0.764  -0.763  -0.762  -0.762
 -0.750  -0.749  -0.742  -0.738  -0.731  -0.730  -0.715  -0.715
 -0.714  -0.712  -0.712  -0.711  -0.711  -0.708  -0.707  -0.707
 -0.706  -0.705  -0.705  -0.702  -0.699  -0.699  -0.671  -0.669
 -0.658  -0.656  -0.654  -0.654  -0.646  -0.643  -0.631  -0.629
 -0.628  -0.627  -0.626  -0.625  -0.622  -0.621  -0.619  -0.615
 -0.614  -0.613  -0.612  -0.611  -0.610  -0.607  -0.606  -0.606
 -0.604  -0.604  -0.602  -0.598  -0.568  -0.567  -0.563  -0.561
 -0.560  -0.560  -0.558  -0.557  -0.556  -0.556  -0.553  -0.550
 -0.537  -0.533  -0.531  -0.531  -0.526  -0.525  -0.524  -0.523
 -0.523  -0.522  -0.519  -0.519  -0.517  -0.514  -0.513  -0.511
 -0.506  -0.504  -0.502  -0.491  -0.490  -0.489  -0.487  -0.484
 -0.482  -0.480  -0.480  -0.478  -0.477  -0.476  -0.475  -0.474
 -0.473  -0.471  -0.469  -0.467  -0.466  -0.466  -0.465  -0.465
 -0.463  -0.462  -0.462  -0.461  -0.461  -0.460  -0.458  -0.457
 -0.455  -0.454  -0.453  -0.453  -0.449  -0.448  -0.444  -0.443
 -0.442  -0.441  -0.439  -0.437  -0.435  -0.435  -0.435  -0.431
 -0.429  -0.428  -0.427  -0.426  -0.426  -0.425  -0.424  -0.424
 -0.422  -0.422  -0.420  -0.419  -0.418  -0.417  -0.416  -0.415
 -0.415  -0.414  -0.414  -0.413  -0.412  -0.412  -0.411  -0.411
 -0.409  -0.409  -0.407  -0.404  -0.402  -0.399  -0.396  -0.395
 -0.393  -0.392  -0.391  -0.389  -0.387  -0.385  -0.385  -0.384
 -0.383  -0.380  -0.374  -0.371  -0.369  -0.368  -0.367  -0.365
 -0.364  -0.363  -0.362  -0.361  -0.360  -0.359  -0.359  -0.358
 -0.357  -0.357  -0.355  -0.355  -0.353  -0.352  -0.351  -0.349
 -0.349  -0.349  -0.347  -0.347  -0.346  -0.345  -0.343  -0.342
 -0.342  -0.342  -0.340  -0.339  -0.336  -0.336  -0.335  -0.333
 -0.331  -0.329  -0.328  -0.327  -0.326  -0.326  -0.324  -0.322
 -0.311  -0.306  -0.300  -0.300  -0.288  -0.283  -0.271  -0.269
 -0.269  -0.267  -0.267  -0.266  -0.265  -0.264  -0.263  -0.262
 -0.260  -0.258  -0.258  -0.257  -0.256  -0.255  -0.254  -0.252
 -0.250  -0.249  -0.242  -0.239  -0.221  -0.219  -0.210  -0.209
 -0.207  -0.207  -0.204  -0.202  -0.196  -0.195
 -- Virtual --
 -0.123  -0.120  -0.119  -0.119  -0.108  -0.106  -0.079  -0.076
 -0.076  -0.074  -0.058  -0.056  -0.051  -0.047  -0.022  -0.021
 -0.020  -0.019  -0.017  -0.016  -0.015  -0.014  -0.012  -0.010
 -0.010  -0.008  -0.008  -0.006  -0.004  -0.003   0.001   0.005
  0.007   0.010   0.038   0.038   0.042   0.043   0.048   0.049
  0.052   0.055   0.058   0.061   0.062   0.064   0.067   0.068
  0.071   0.071   0.074   0.079   0.082   0.084   0.085   0.091
  0.093   0.096   0.099   0.099   0.103   0.104   0.105   0.108
  0.109   0.111   0.112   0.116   0.120   0.121   0.122   0.125
  0.126   0.127   0.127   0.130   0.130   0.131   0.133   0.133
  0.135   0.139   0.143   0.147   0.150   0.153   0.153   0.158
  0.159   0.161   0.162   0.163   0.164   0.165   0.166   0.170
  0.171   0.174   0.177   0.179   0.179   0.180   0.182   0.184
  0.185   0.186   0.188   0.190   0.190   0.191   0.192   0.194
  0.197   0.197   0.199   0.200   0.202   0.203   0.204   0.205
  0.207   0.209   0.209   0.213   0.216   0.217   0.219   0.220
  0.220   0.221   0.223   0.225   0.225   0.226   0.228   0.229
  0.230   0.233   0.234   0.235   0.236   0.237   0.238   0.238
  0.240   0.242   0.245   0.246   0.248   0.249   0.257   0.258
  0.261   0.264   0.269   0.273   0.276   0.277   0.279   0.280
  0.282   0.284   0.288   0.289   0.291   0.297   0.297   0.302
  0.303   0.308   0.309   0.309   0.312   0.314   0.315   0.317
  0.321   0.322   0.324   0.324   0.328   0.330   0.332   0.334
  0.337   0.339   0.340   0.342   0.343   0.345   0.348   0.349
  0.352   0.355   0.356   0.364   0.366   0.372   0.384   0.385
  0.396   0.400   0.402   0.406   0.407   0.408   0.409   0.411
  0.412   0.413   0.415   0.416   0.417   0.420   0.424   0.426
  0.427   0.432   0.433   0.436   0.438   0.439   0.441   0.443
  0.449   0.451   0.452   0.453   0.457   0.458   0.459   0.463
  0.466   0.469   0.470   0.472   0.473   0.475   0.476   0.477
  0.479   0.481   0.481   0.483   0.485   0.485   0.487   0.488
  0.488   0.489   0.492   0.492   0.493   0.495   0.496   0.497
  0.498   0.499   0.499   0.501   0.501   0.502   0.504   0.504
  0.506   0.508   0.509   0.509   0.510   0.512   0.512   0.513
  0.515   0.516   0.516   0.516   0.518   0.519   0.521   0.521
  0.522   0.522   0.523   0.523   0.523   0.525   0.526   0.527
  0.528   0.529   0.530   0.531   0.531   0.533   0.533   0.534
  0.534   0.536   0.536   0.537   0.537   0.539   0.539   0.541
  0.542   0.542   0.542   0.543   0.544   0.545   0.547   0.547
  0.548   0.549   0.549   0.550   0.551   0.551   0.552   0.552
  0.553   0.554   0.555   0.556   0.557   0.558   0.558   0.559
  0.560   0.561   0.562   0.563   0.564   0.564   0.565   0.566
  0.566   0.568   0.569   0.570   0.571   0.571   0.572   0.573
  0.574   0.575   0.575   0.576   0.579   0.579   0.579   0.580
  0.581   0.581   0.582   0.583   0.584   0.584   0.585   0.585
  0.586   0.587   0.588   0.589   0.590   0.591   0.592   0.592
  0.594   0.595   0.595   0.596   0.598   0.598   0.599   0.600
  0.602   0.602   0.603   0.604   0.605   0.606   0.608   0.610
  0.611   0.611   0.613   0.614   0.614   0.615   0.616   0.617
  0.618   0.620   0.620   0.622   0.623   0.625   0.626   0.627
  0.628   0.629   0.630   0.631   0.632   0.633   0.634   0.635
  0.636   0.636   0.638   0.639   0.639   0.640   0.640   0.642
  0.643   0.644   0.646   0.646   0.647   0.647   0.649   0.650
  0.651   0.652   0.652   0.654   0.656   0.656   0.656   0.657
  0.658   0.659   0.660   0.661   0.662   0.663   0.663   0.665
  0.665   0.666   0.667   0.667   0.669   0.670   0.671   0.672
  0.672   0.673   0.674   0.675   0.676   0.677   0.678   0.679
  0.679   0.682   0.683   0.684   0.685   0.687   0.688   0.688
  0.690   0.692   0.692   0.694   0.696   0.697   0.697   0.698
  0.699   0.699   0.701   0.702   0.703   0.704   0.704   0.705
  0.706   0.708   0.709   0.710   0.712   0.714   0.716   0.716
  0.717   0.718   0.719   0.722   0.723   0.725   0.725   0.726
  0.727   0.729   0.729   0.731   0.732   0.734   0.735   0.737
  0.739   0.739   0.740   0.742   0.742   0.743   0.746   0.747
  0.748   0.749   0.749   0.751   0.753   0.755   0.756   0.758
  0.759   0.762   0.762   0.765   0.766   0.767   0.769   0.770
  0.771   0.772   0.773   0.774   0.775   0.776   0.779   0.780
  0.780   0.782   0.782   0.784   0.787   0.788   0.788   0.790
  0.791   0.793   0.793   0.794   0.797   0.797   0.799   0.800
  0.800   0.802   0.804   0.804   0.805   0.806   0.806   0.808
  0.808   0.808   0.809   0.810   0.811   0.812   0.812   0.813
  0.814   0.815   0.815   0.815   0.817   0.818   0.819   0.820
  0.820   0.822   0.822   0.822   0.823   0.825   0.826   0.827
  0.827   0.828   0.829   0.832   0.832   0.832   0.835   0.837
  0.839   0.839   0.841   0.842   0.843   0.845   0.845   0.847
  0.847   0.851   0.855   0.856   0.858   0.860   0.862   0.863
  0.867   0.868   0.875   0.878   0.881   0.882   0.884   0.888
  0.889   0.894   0.894   0.895   0.897   0.899   0.906   0.909
  0.911   0.914   0.915   0.917   0.920   0.921   0.922   0.923
  0.928   0.928   0.931   0.932   0.934   0.935   0.936   0.937
  0.940   0.940   0.944   0.945   0.946   0.948   0.950   0.952
  0.954   0.956   0.957   0.959   0.961   0.963   0.967   0.971
  0.974   0.976   0.978   0.980   0.982   0.984   0.986   0.988
  0.989   0.993   0.996   0.997   1.001   1.004   1.005   1.006
  1.009   1.009   1.011   1.012   1.013   1.016   1.018   1.021
  1.022   1.024   1.026   1.027   1.029   1.031   1.034   1.036
  1.038   1.039   1.040   1.041   1.045   1.045   1.047   1.049
  1.050   1.051   1.053   1.053   1.057   1.058   1.060   1.061
  1.064   1.065   1.066   1.068   1.070   1.072   1.074   1.076
  1.077   1.078   1.078   1.083   1.084   1.084   1.086   1.088
  1.089   1.091   1.092   1.094   1.096   1.098   1.099   1.101
  1.102   1.103   1.105   1.107   1.110   1.112   1.115   1.117
  1.118   1.120   1.122   1.123   1.125   1.127   1.128   1.131
  1.134   1.137   1.138   1.140   1.143   1.145   1.147   1.149
  1.151   1.153   1.155   1.156   1.159   1.162   1.162   1.164
  1.166   1.168   1.170   1.171   1.171   1.173   1.174   1.174
  1.176   1.178   1.179   1.180   1.182   1.184   1.186   1.186
  1.188   1.188   1.191   1.191   1.194   1.195   1.197   1.201
  1.201   1.202   1.207   1.210   1.212   1.215   1.216   1.220
  1.224   1.225   1.227   1.232   1.233   1.238   1.241   1.245
  1.245   1.248   1.251   1.253   1.254   1.257   1.259   1.260
  1.262   1.263   1.265   1.267   1.269   1.270   1.273   1.275
  1.275   1.277   1.280   1.282   1.284   1.287   1.289   1.292
  1.294   1.296   1.298   1.300   1.303   1.306   1.308   1.311
  1.313   1.317   1.321   1.325   1.328   1.329   1.330   1.332
  1.336   1.337   1.340   1.343   1.345   1.348   1.349   1.349
  1.352   1.352   1.355   1.357   1.359   1.361   1.362   1.366
  1.368   1.369   1.372   1.373   1.376   1.377   1.380   1.386
  1.390   1.391   1.392   1.394   1.397   1.398   1.399   1.402
  1.405   1.411   1.416   1.418   1.421   1.423   1.425   1.426
  1.428   1.430   1.433   1.439   1.442   1.443   1.445   1.448
  1.449   1.450   1.454   1.455   1.457   1.460   1.460   1.464
  1.466   1.468   1.468   1.470   1.471   1.474   1.474   1.476
  1.477   1.479   1.480   1.481   1.485   1.489   1.492   1.494
  1.495   1.497   1.498   1.504   1.505   1.508   1.509   1.511
  1.515   1.517   1.518   1.525   1.529   1.533   1.534   1.536
  1.537   1.540   1.543   1.544   1.547   1.549   1.552   1.553
  1.557   1.558   1.559   1.562   1.563   1.564   1.571   1.571
  1.573   1.574   1.576   1.578   1.582   1.585   1.588   1.588
  1.589   1.590   1.595   1.597   1.601   1.607   1.610   1.618
  1.620   1.622   1.626   1.627   1.631   1.635   1.637   1.640
  1.642   1.643   1.646   1.649   1.654   1.658   1.660   1.665
  1.673   1.676   1.683   1.688   1.688   1.693   1.694   1.696
  1.698   1.703   1.706   1.707   1.710   1.710   1.714   1.716
  1.718   1.721   1.725   1.726   1.728   1.730   1.731   1.732
  1.735   1.738   1.739   1.741   1.744   1.745   1.746   1.748
  1.750   1.752   1.755   1.755   1.757   1.757   1.758   1.760
  1.761   1.764   1.764   1.767   1.767   1.768   1.769   1.770
  1.772   1.773   1.775   1.776   1.778   1.779   1.780   1.781
  1.782   1.783   1.785   1.786   1.787   1.788   1.789   1.790
  1.792   1.793   1.795   1.796   1.798   1.800   1.801   1.802
  1.802   1.805   1.805   1.806   1.807   1.809   1.809   1.812
  1.815   1.817   1.818   1.819   1.820   1.822   1.825   1.827
  1.829   1.830   1.830   1.832   1.836   1.838   1.840   1.840
  1.843   1.843   1.845   1.847   1.849   1.851   1.854   1.856
  1.856   1.860   1.861   1.862   1.866   1.868   1.870   1.872
  1.872   1.874   1.877   1.879   1.881   1.883   1.885   1.887
  1.889   1.890   1.891   1.894   1.895   1.896   1.898   1.899
  1.901   1.904   1.904   1.908   1.911   1.913   1.917   1.919
  1.921   1.923   1.925   1.929   1.930   1.932   1.935   1.937
  1.939   1.941   1.942   1.943   1.945   1.946   1.950   1.952
  1.955   1.956   1.958   1.959   1.961   1.963   1.964   1.967
  1.973   1.976   1.977   1.980   1.981   1.983   1.985   1.986
  1.986   1.988   1.991   1.992   1.993   1.994   1.996   1.997
  1.999   2.000   2.002   2.004   2.005   2.005   2.007   2.010
  2.011   2.012   2.014   2.014   2.015   2.016   2.016   2.017
  2.018   2.019   2.021   2.022   2.024   2.024   2.025   2.026
  2.027   2.028   2.029   2.030   2.031   2.033   2.036   2.038
  2.038   2.039   2.041   2.043   2.043   2.045   2.046   2.047
  2.047   2.050   2.051   2.051   2.053   2.054   2.054   2.055
  2.058   2.059   2.059   2.062   2.064   2.064   2.066   2.067
  2.068   2.069   2.070   2.070   2.072   2.073   2.075   2.076
  2.077   2.079   2.082   2.083   2.085   2.086   2.089   2.091
  2.092   2.093   2.097   2.097   2.100   2.101   2.103   2.104
  2.106   2.108   2.112   2.112   2.114   2.117   2.119   2.121
  2.122   2.126   2.130   2.134   2.135   2.139   2.142   2.143
  2.145   2.149   2.151   2.155   2.156   2.158   2.164   2.166
  2.175   2.185   2.186   2.189   2.190   2.192   2.198   2.201
  2.203   2.208   2.208   2.214   2.218   2.225   2.226   2.227
  2.228   2.230   2.235   2.236   2.237   2.240   2.241   2.244
  2.246   2.248   2.250   2.250   2.252   2.255   2.260   2.264
  2.265   2.267   2.270   2.270   2.273   2.277   2.278   2.283
  2.285   2.287   2.288   2.290   2.292   2.295   2.297   2.300
  2.304   2.305   2.306   2.309   2.313   2.313   2.315   2.316
  2.322   2.326   2.327   2.328   2.329   2.336   2.338   2.339
  2.343   2.345   2.348   2.350   2.351   2.353   2.355   2.359
  2.360   2.361   2.366   2.367   2.368   2.369   2.370   2.371
  2.373   2.375   2.377   2.380   2.383   2.383   2.385   2.386
  2.387   2.388   2.389   2.390   2.391   2.393   2.394   2.396
  2.396   2.398   2.399   2.401   2.405   2.407   2.407   2.408
  2.410   2.412   2.412   2.414   2.418   2.419   2.422   2.423
  2.424   2.425   2.428   2.430   2.431   2.436   2.439   2.440
  2.443   2.447   2.448   2.451   2.452   2.454   2.456   2.458
  2.460   2.461   2.465   2.466   2.471   2.473   2.474   2.477
  2.479   2.480   2.481   2.486   2.487   2.488   2.489   2.491
  2.494   2.495   2.495   2.498   2.499   2.503   2.503   2.504
  2.507   2.510   2.511   2.515   2.517   2.520   2.522   2.524
  2.526   2.527   2.527   2.530   2.532   2.533   2.534   2.540
  2.543   2.544   2.545   2.546   2.548   2.554   2.563   2.567
  2.571   2.572   2.574   2.577   2.578   2.580   2.582   2.583
  2.586   2.590   2.592   2.597   2.599   2.601   2.603   2.604
  2.604   2.609   2.612   2.614   2.615   2.616   2.619   2.619
  2.620   2.622   2.622   2.626   2.627   2.629   2.631   2.633
  2.633   2.636   2.638   2.638   2.641   2.643   2.644   2.646
  2.649   2.649   2.651   2.653   2.656   2.657   2.660   2.661
  2.662   2.664   2.665   2.666   2.666   2.668   2.672   2.673
  2.674   2.675   2.677   2.678   2.680   2.682   2.683   2.688
  2.688   2.691   2.694   2.696   2.699   2.700   2.703   2.704
  2.706   2.709   2.715   2.717   2.721   2.722   2.723   2.726
  2.726   2.729   2.731   2.735   2.736   2.738   2.741   2.744
  2.746   2.747   2.751   2.754   2.755   2.758   2.760   2.761
  2.763   2.765   2.766   2.770   2.771   2.773   2.775   2.777
  2.778   2.781   2.783   2.784   2.789   2.790   2.793   2.794
  2.796   2.801   2.804   2.805   2.811   2.813   2.813   2.815
  2.824   2.828   2.830   2.835   2.837   2.840   2.843   2.844
  2.845   2.847   2.849   2.851   2.852   2.854   2.860   2.862
  2.864   2.865   2.868   2.868   2.870   2.872   2.876   2.878
  2.881   2.882   2.884   2.885   2.887   2.890   2.893   2.895
  2.896   2.898   2.900   2.900   2.904   2.904   2.906   2.909
  2.909   2.912   2.915   2.916   2.918   2.919   2.922   2.925
  2.926   2.926   2.928   2.930   2.932   2.934   2.937   2.938
  2.939   2.942   2.946   2.947   2.950   2.951   2.955   2.956
  2.957   2.960   2.966   2.969   2.971   2.975   2.977   2.980
  2.982   2.984   2.989   2.990   2.994   2.998   3.000   3.003
  3.004   3.008   3.012   3.015   3.019   3.021   3.021   3.023
  3.025   3.029   3.030   3.035   3.038   3.039   3.040   3.044
  3.047   3.048   3.050   3.053   3.057   3.059   3.062   3.065
  3.068   3.075   3.076   3.083   3.086   3.088   3.093   3.096
  3.104   3.108   3.120   3.129   3.132   3.139   3.140   3.148
  3.150   3.163   3.166   3.169   3.173   3.174   3.178   3.186
  3.195   3.197   3.202   3.213   3.220   3.223   3.227   3.232
  3.244   3.245   3.251   3.252   3.258   3.263   3.265   3.275
  3.286   3.301   3.303   3.305   3.309   3.319   3.320   3.323
  3.324   3.336   3.339   3.343   3.344   3.352   3.366   3.368
  3.374   3.398   3.413   3.419   3.429   3.431   3.440   3.457
  3.461   3.463   3.470   3.474   3.480   3.480   3.482   3.489
  3.490   3.503   3.505   3.510   3.524   3.524   3.526   3.534
  3.553   3.555   3.561   3.577   3.580   3.584   3.602   3.605
  3.610   3.612   3.677   3.682   3.845   3.861   3.976   4.051
  4.070   4.079   4.081   4.087   4.090   4.094   4.097   4.098
  4.101   4.104   4.105   4.110   4.113   4.114   4.123   4.126
  4.129   4.131   4.133   4.136   4.140   4.144   4.149   4.151
  4.152   4.159   4.162   4.166   4.168   4.170   4.175   4.181
  4.187   4.194   4.195   4.200   4.205   4.213   4.235   4.236
  4.243   4.246   4.250   4.252   4.255   4.258   4.258   4.262
  4.263   4.267   4.272   4.281   4.283   4.286   4.293   4.294
  4.298   4.306   4.317   4.333   4.371   4.387   4.388   4.391
  4.394   4.399   4.405   4.407   4.410   4.412   4.415   4.419
  4.421   4.425   4.426   4.436   4.440   4.454   4.456   4.461
  4.471   4.486   4.509   4.526   4.528   4.533   4.546   4.557
  4.557   4.569   4.597   4.623   4.629   4.631   4.636   4.639
  4.648   4.661   4.664   4.687   4.691   4.698   4.699   4.702
  4.702   4.708   4.711   4.727   4.729   4.756   4.771   4.791
  4.823   4.839   4.846   4.859   4.861   4.869   4.891   4.897
  4.909   4.912   4.960   4.964   4.965   4.973   4.974   4.983
  4.993   4.993   5.004   5.016   5.155   5.164   5.168   5.180
  5.200   5.210   5.218   5.220   5.315   5.323   5.340   5.347
  5.360   5.371
 --------------------------------------------------------------
 
          Ground-State Mulliken Net Atomic Charges

     Atom                 Charge (a.u.)
  ----------------------------------------
      1 O                    -0.484822
      2 C                    -0.085821
      3 H                     0.139063
      4 H                     0.135145
      5 H                     0.129515
      6 O                    -0.472115
      7 C                     0.585434
      8 C                    -0.258454
      9 H                     0.138073
     10 H                     0.129702
     11 C                    -0.184229
     12 H                     0.134918
     13 H                     0.106722
     14 C                    -0.183569
     15 H                     0.113282
     16 H                     0.124441
     17 C                    -0.003868
     18 C                     0.085187
     19 C                    -0.107123
     20 H                     0.094799
     21 C                    -0.096086
     22 H                     0.093803
     23 C                    -0.075063
     24 H                     0.089994
     25 C                    -0.092391
     26 H                     0.088860
     27 C                    -0.097105
     28 H                     0.095463
     29 C                    -0.029250
     30 C                     0.019832
     31 C                     0.014039
     32 C                     0.017704
     33 C                    -0.010325
     34 C                    -0.017585
     35 C                    -0.009871
     36 C                     0.005342
     37 C                     0.005325
     38 C                    -0.006761
     39 C                    -0.083197
     40 C                     0.018221
     41 C                     0.007222
     42 C                    -0.023950
     43 C                     0.014176
     44 C                    -0.014755
     45 C                    -0.090001
     46 C                     0.028978
     47 C                     0.009907
     48 C                     0.000605
     49 C                     0.002109
     50 C                    -0.011720
     51 C                     0.006597
     52 C                     0.009253
     53 C                     0.036469
     54 C                    -0.011238
     55 C                     0.010000
     56 C                    -0.004412
     57 C                     0.002621
     58 C                    -0.016332
     59 C                    -0.005793
     60 C                    -0.003529
     61 C                     0.004815
     62 C                    -0.018769
     63 C                    -0.011863
     64 C                     0.021899
     65 C                    -0.016499
     66 C                     0.002822
     67 C                    -0.011183
     68 C                    -0.011340
     69 C                     0.011161
     70 C                     0.027000
     71 C                     0.004391
     72 C                     0.016135
     73 C                    -0.028209
     74 C                    -0.008444
     75 C                     0.009643
     76 C                    -0.010442
     77 C                     0.002045
     78 C                    -0.010222
     79 C                    -0.003115
     80 C                    -0.021915
     81 C                     0.036470
     82 C                    -0.012787
     83 C                    -0.007872
     84 C                     0.018338
     85 C                    -0.013174
     86 C                     0.006414
     87 C                     0.007092
     88 C                     0.007198
     89 O                    -0.453470
     90 C                    -0.100153
     91 H                     0.131073
     92 H                     0.123028
     93 H                     0.114446
     94 O                    -0.479630
     95 C                     0.631561
     96 C                    -0.259897
     97 H                     0.119166
     98 H                     0.129812
     99 C                    -0.206804
    100 H                     0.113564
    101 H                     0.112960
    102 C                    -0.207170
    103 H                     0.136955
    104 H                     0.121105
    105 C                     0.028399
    106 C                     0.093901
    107 C                    -0.125191
    108 H                     0.093213
    109 C                    -0.088394
    110 H                     0.097176
    111 C                    -0.080412
    112 H                     0.089395
    113 C                    -0.086582
    114 H                     0.092498
    115 C                    -0.103804
    116 H                     0.090263
    117 C                    -0.005751
    118 C                     0.013807
    119 C                     0.028982
    120 C                     0.008711
    121 C                    -0.009256
    122 C                    -0.016284
    123 C                    -0.022745
    124 C                     0.007299
    125 C                     0.000487
    126 C                    -0.005936
    127 C                    -0.090699
    128 C                     0.010130
    129 C                    -0.019730
    130 C                    -0.011493
    131 C                     0.028966
    132 C                     0.011690
    133 C                    -0.106533
    134 C                     0.021511
    135 C                    -0.017278
    136 C                     0.048457
    137 C                     0.021663
    138 C                    -0.019253
    139 C                     0.017073
    140 C                    -0.007085
    141 C                     0.039247
    142 C                    -0.003898
    143 C                     0.022339
    144 C                    -0.023734
    145 C                     0.001252
    146 C                    -0.024917
    147 C                    -0.020553
    148 C                     0.026559
    149 C                    -0.006638
    150 C                    -0.041102
    151 C                     0.004365
    152 C                    -0.021432
    153 C                     0.005420
    154 C                    -0.017297
    155 C                    -0.003759
    156 C                    -0.009334
    157 C                    -0.008970
    158 C                     0.023748
    159 C                     0.032092
    160 C                     0.040874
    161 C                     0.019505
    162 C                     0.028384
    163 C                    -0.002611
    164 C                    -0.006759
    165 C                    -0.021445
    166 C                    -0.021364
    167 C                    -0.011422
    168 C                    -0.015828
    169 C                     0.026448
    170 C                    -0.016576
    171 C                    -0.004392
    172 C                     0.008676
    173 C                     0.008435
    174 C                     0.027763
    175 C                    -0.013075
    176 C                    -0.036763
  ----------------------------------------
  Sum of atomic charges =     0.000000

 -----------------------------------------------------------------
                    Cartesian Multipole Moments
 -----------------------------------------------------------------
    Charge (ESU x 10^10)
                 0.0000
    Dipole Moment (Debye)
         X       1.2572      Y       6.3786      Z      -0.3841
       Tot       6.5127
    Quadrupole Moments (Debye-Ang)
        XX    -806.1547     XY       4.8904     YY    -771.5572
        XZ     -36.8833     YZ      -1.1284     ZZ    -801.7321
    Octopole Moments (Debye-Ang^2)
       XXX     412.8275    XXY     433.3126    XYY     -37.3758
       YYY     505.0419    XXZ      96.2989    XYZ     -74.3220
       YYZ     -99.6139    XZZ      75.5549    YZZ      94.4487
       ZZZ    -102.9263
    Hexadecapole Moments (Debye-Ang^3)
      XXXX -180789.3571   XXXY    1826.5103   XXYY  -35174.0243
      XYYY   -1897.6219   YYYY  -38953.2280   XXXZ   -4259.4122
      XXYZ     449.5621   XYYZ    -308.5634   YYYZ    -714.5183
      XXZZ  -34002.8443   XYZZ    -496.3016   YYZZ  -10642.4426
      XZZZ   -1257.6791   YZZZ      93.2160   ZZZZ  -24787.2577
 -----------------------------------------------------------------
Archival summary:
1\1\mn366\SP\ProcedureUnspecified\6-31G**\428\afmv_a\SatOct606:45:272018SatOct606:45:272018\0\\#,ProcedureUnspecified,6-31G**,\\0,1\C\C,1,1.39941\C,2,1.36958,1,119.79\C,2,1.41221,1,105.352,3,143.181,0\C,4,1.38603,2,117.713,1,-143.554,0\C,5,1.37785,4,121.253,2,-2.03749,0\C,5,1.40631,4,119.728,2,141.6,0\C,7,1.3682,5,108.423,4,-139.423,0\C,8,1.39763,7,106.706,5,-7.11024,0\C,6,1.41151,5,121.364,4,5.04669,0\C,10,1.36902,6,122.291,5,133.01,0\C,11,1.39752,10,109.107,6,-139.818,0\C,12,1.37927,11,109.832,10,-0.547234,0\C,13,1.38316,12,120.347,11,142.536,0\C,14,1.36273,13,122.397,12,4.62848,0\C,14,1.39874,13,117.596,12,-140.605,0\C,16,1.40639,14,104.801,13,145.064,0\C,17,1.40564,16,109.373,14,-0.995057,0\C,18,1.40079,17,121.865,16,-145.762,0\C,19,1.35788,18,121.011,17,4.88195,0\C,20,1.37345,19,110.207,18,144.926,0\C,21,1.39684,20,115.407,19,-138.365,0\C,11,1.41028,10,122.171,6,4.31393,0\C,23,1.38289,11,120.754,10,-136.631,0\C,23,1.39057,11,116.25,10,-6.69446,0\C,25,1.38181,23,111.875,11,-140.468,0\C,26,1.37162,25,104.758,23,5.12753,0\C,26,1.40782,25,125.558,23,145.485,0\C,28,1.40608,26,124.68,25,-129.775,0\C,29,1.38929,28,112.79,26,136.492,0\C,30,1.38417,29,105.41,28,2.88353,0\C,31,1.35039,30,108.474,29,-3.95203,0\C,31,1.4179,30,116.209,29,-144.704,0\C,33,1.39864,31,119.706,30,135.994,0\C,34,1.38111,33,108.089,31,-139.478,0\C,35,1.37079,34,110.097,33,-3.61224,0\C,33,1.4038,31,121.178,30,-2.97581,0\C,37,1.41381,33,119.148,31,7.8109,0\C,38,1.36704,37,120.979,33,-10.5526,0\C,38,1.4002,37,124.842,33,136.766,0\C,39,1.40604,38,108.529,37,146.63,0\C,40,1.41217,38,117.682,37,-4.9984,0\C,42,1.39249,40,121.249,38,-0.850433,0\C,43,1.39809,42,105.808,40,-140.576,0\C,44,1.368,43,111.53,42,3.55463,0\C,45,1.38165,44,106.317,43,-1.48694,0\C,35,1.41479,34,122.091,33,144.018,0\C,47,1.39816,35,121.935,34,-139.178,0\C,24,1.42378,23,121.687,11,-6.43249,0\C,49,1.3926,24,118.93,23,4.14761,0\C,50,1.35766,49,109.503,24,141.308,0\C,51,1.39981,50,110.701,49,-2.0907,0\C,52,1.38741,51,123.683,50,-144.666,0\C,52,1.4099,51,104.696,50,1.21256,0\C,54,1.40623,52,120.64,51,-147.314,0\C,55,1.37824,54,116.811,52,133.498,0\C,56,1.38336,55,109.265,54,-136.335,0\C,57,1.40145,56,109.291,55,-0.261329,0\C,53,1.48486,52,123.969,51,147.237,0\C,58,1.49295,57,110.863,56,-6.31742,0\C,60,1.50049,58,127.935,57,-151.564,0\C,61,1.49799,60,115.602,58,9.2372,0\H,62,1.09671,61,114.208,60,-10.4301,0\H,62,1.0974,61,113.064,60,113.016,0\C,61,1.55176,60,121.122,58,150.239,0\C,65,1.40104,61,123.294,60,125.292,0\H,66,1.08651,65,114.601,61,0.973604,0\C,65,1.43157,61,117.973,60,-71.779,0\H,68,1.08639,65,118.136,61,7.65217,0\C,68,1.3769,65,121.069,61,-179.001,0\H,70,1.0863,68,122.527,65,-169.502,0\C,70,1.42108,68,119.743,65,6.65148,0\H,72,1.08565,70,114.408,68,176.155,0\C,72,1.37815,70,121.102,68,-0.18437,0\H,74,1.08531,72,117.459,70,-177.774,0\C,62,1.59489,61,109.52,60,-136.958,0\H,76,1.09735,62,112.774,61,-89.6003,0\H,76,1.09749,62,112.648,61,30.5105,0\C,76,1.57489,62,112.423,61,145.759,0\H,79,1.09673,76,105.896,62,45.7035,0\H,79,1.09721,76,109.284,62,159.644,0\C,79,1.50194,76,115.98,62,-72.0472,0\O,82,1.21774,79,118.85,76,100.293,0\O,82,1.36866,79,112.658,76,-94.5281,0\C,84,1.40676,82,113.408,79,-177.168,0\H,85,1.09664,84,117.588,82,-57.4572,0\H,85,1.0971,84,106.98,82,176.523,0\H,85,1.09728,84,107.208,82,59.4914,0\C,1,2.98156,2,90.3309,3,99.0293,0\C,89,1.41355,1,102.851,2,174.136,0\C,90,1.39052,89,109.149,1,116.678,0\C,91,1.41291,90,108.804,89,1.99812,0\C,92,1.39103,91,107.177,90,-5.09191,0\C,92,1.42867,91,121.135,90,139.71,0\C,94,1.38011,92,124.992,91,-146.47,0\C,94,1.4011,92,119.754,91,-0.522363,0\C,96,1.36361,94,121.33,92,0.357041,0\C,97,1.37102,96,118.734,94,-140.251,0\C,98,1.38494,97,105.487,96,143.75,0\C,98,1.39184,97,121.38,96,-3.58207,0\C,100,1.38444,98,118.872,97,0.0338183,0\C,96,1.39622,94,110.847,92,-153.389,0\C,100,1.4012,98,117.949,97,136.45,0\C,103,1.37496,100,106.792,98,-140.607,0\C,104,1.3991,103,118.868,100,150.013,0\C,105,1.39614,104,114.931,103,-139.787,0\C,104,1.40346,103,110.295,100,0.314909,0\C,107,1.39324,104,121.285,103,147.882,0\C,108,1.39693,107,116.862,104,-8.75985,0\C,99,1.40604,98,111.761,97,-3.19836,0\C,110,1.38267,99,105.466,98,3.24499,0\C,105,1.40622,104,119.915,103,-6.5708,0\C,109,1.40727,108,109.62,107,-136.144,0\C,113,1.37455,109,119.982,108,146.653,0\C,113,1.40712,109,107.153,108,5.59824,0\C,106,1.40966,105,108.82,104,141.295,0\C,116,1.41492,106,120.529,105,-139.186,0\C,115,1.41718,113,118.649,109,142.806,0\C,118,1.38087,115,121.227,113,-2.80107,0\C,118,1.4058,115,121.443,113,-141.302,0\C,119,1.40655,118,120.911,115,2.12248,0\C,121,1.40094,119,122.48,118,-141.685,0\C,122,1.38697,121,116.866,119,-1.69341,0\C,123,1.40516,122,116.6,121,132.591,0\C,124,1.36894,123,113.454,122,-144.818,0\C,125,1.38772,124,105.119,123,3.82796,0\C,120,1.41038,118,108.672,115,143.716,0\C,127,1.39435,120,108.637,118,0.411283,0\C,128,1.40378,127,122.491,120,-145.517,0\C,122,1.41057,121,107.752,119,142.304,0\C,130,1.37476,122,117.343,121,-137.337,0\C,131,1.36156,130,123.949,122,-2.96627,0\C,132,1.35281,131,109.999,130,146.992,0\C,133,1.38379,132,119.323,131,-142.395,0\C,134,1.39852,133,121.945,132,-3.00127,0\C,131,1.40036,130,120.56,122,140.281,0\C,136,1.37129,131,108.463,130,-147.91,0\C,136,1.40057,131,120.377,130,-5.71209,0\C,110,1.4186,99,122.488,98,-138.799,0\C,139,1.37359,110,121.115,99,138.431,0\C,139,1.40393,110,117.146,99,0.33505,0\C,141,1.42204,139,122.123,110,-2.33228,0\C,142,1.35313,141,119.588,139,141.254,0\C,143,1.38871,142,109.496,141,-143.914,0\C,142,1.40852,141,120.77,139,0.469972,0\C,145,1.37521,142,107.032,141,143.979,0\C,115,1.47874,113,111.357,109,-11.0664,0\C,95,1.49348,94,111.315,92,155.084,0\C,147,1.52213,115,124.47,113,-146.151,0\C,149,1.49796,147,124.868,115,2.65003,0\C,150,1.37976,149,120.458,147,51.139,0\H,151,1.08543,150,123.48,149,-8.28683,0\C,150,1.40991,149,117.172,147,-135.685,0\H,153,1.08583,150,122.37,149,11.4617,0\C,151,1.42098,150,119.806,149,178.706,0\H,155,1.08538,151,121.043,150,175.724,0\C,155,1.39658,151,119.037,150,-2.68586,0\H,157,1.08601,155,123.967,151,174.379,0\C,157,1.38728,155,120.73,151,1.87431,0\H,159,1.08573,157,121.54,155,-177.292,0\C,149,1.58248,147,120.414,115,150.615,0\H,161,1.09687,149,107.206,147,18.0492,0\H,161,1.09702,149,110.364,147,130.738,0\C,161,1.56588,149,114.284,147,-106.032,0\H,164,1.09714,161,115.493,149,49.1362,0\H,164,1.09732,161,111.037,149,-70.2442,0\C,164,1.55603,161,108.88,149,170.96,0\H,167,1.09689,164,114.489,161,169.93,0\H,167,1.0972,164,112.057,161,-71.139,0\C,167,1.53649,164,113.688,161,45.9478,0\O,170,1.23056,167,122.804,164,-130.146,0\O,170,1.3781,167,113.975,164,53.0292,0\C,172,1.50415,170,120.661,167,176.601,0\H,173,1.09702,172,115.306,170,177.941,0\H,173,1.09728,172,109.086,170,60.6204,0\H,173,1.09743,172,105.825,170,-61.5833,0\\\@

 Total job time:  836.47s(wall), 7057.92s(cpu) 
 Sat Oct  6 06:45:27 2018

        *************************************************************
        *                                                           *
        *  Thank you very much for using Q-Chem.  Have a nice day.  *
        *                                                           *
        *************************************************************


