
Running Job 1 of 1 ./7/25.qcin
qchem ./7/25.qcin_137356.0 /tmpu/cab_g/afmv_a/scratch_qchem/qchem137356/ 1
/tmpu/appuserlic/qchem4.4/serial-multicore/exe/qcprog.exe_s ./7/25.qcin_137356.0 /tmpu/cab_g/afmv_a/scratch_qchem/qchem137356/
Check license passed

                  Welcome to Q-Chem
     A Quantum Leap Into The Future Of Chemistry


 Q-Chem 4.4, Q-Chem, Inc., Pleasanton, CA (2016)

 Y. Shao,  Z. Gan,  E. Epifanovsky,  A. T. B. Gilbert,  M. Wormit,  
 J. Kussmann,  A. W. Lange,  A. Behn,  J. Deng,  X. Feng,  D. Ghosh,  
 M. Goldey,  P. R. Horn,  L. D. Jacobson,  I. Kaliman,  F. Rob,  
 R. Z. Khaliullin,  T. Kus,  A. Landau,  J. Liu,  E. I. Proynov,  Y. M. Rhee,  
 R. M. Richard,  M. A. Rohrdanz,  R. P. Steele,  E. J. Sundstrom,  
 H. L. Woodcock III,  P. M. Zimmerman,  D. Zuev,  B. Albrecht,  E. Alguire,  
 B. Austin,  S. A. Baeppler,  G. J. O. Beran,  Y. A. Bernard,  E. Berquist,  
 K. Brandhorst,  K. B. Bravaya,  S. T. Brown,  D. Casanova,  C.-M. Chang,  
 Y. Chen,  S. H. Chien,  K. D. Closser,  M. P. Coons,  D. L. Crittenden,  
 S. Dasgupta,  M. Diedenhofen,  R. A. DiStasio Jr.,  H. Do,  A. D. Dutoi,  
 R. G. Edgar,  P.-T. Fang,  S. Fatehi,  Q. Feng,  L. Fusti-Molnar,  
 A. Ghysels,  A. Golubeva-Zadorozhnaya,  J. Gomes,  A. Gunina,  
 M. W. D. Hanson-Heine,  P. H. P. Harbach,  A. W. Hauser,  J. E. Herr,  
 E. G. Hohenstein,  Z. C. Holden,  K. Hui,  T.-C. Jagau,  H. Ji,  B. Kaduk,  
 K. Khistyaev,  Jaehoon Kim,  Jihan Kim,  R. A. King,  P. Klunzinger,  
 K. Koh,  D. Kosenkov,  T. Kowalczyk,  C. M. Krauter,  A. Kunitsa,  
 K. U. Lao,  A. Laurent,  K. V. Lawler,  J. Lee,  D. Lefrancois,  S. Lehtola,  
 S. V. Levchenko,  C. Y. Lin,  Y.-S. Lin,  F. Liu,  E. Livshits,  
 R. C. Lochan,  A. Luenser,  P. Manohar,  S. F. Manzer,  S.-P. Mao,  Y. Mao,  
 N. Mardirossian,  A. V. Marenich,  L. A. Martinez-Martinez,  S. A. Maurer,  
 N. J. Mayhall,  J.-M. Mewes,  A. F. Morrison,  K. Nanda,  T. S. Nguyen-Beck,  
 C. M. Oana,  R. Olivares-Amaya,  D. P. O'Neill,  J. A. Parkhill,  
 T. M. Perrine,  R. Peverati,  P. A. Pieniazek,  F. Plasser,  A. Prociuk,  
 D. R. Rehn,  E. Rosta,  N. J. Russ,  N. Sergueev,  S. M. Sharada,  
 S. Sharma,  D. W. Small,  A. Sodt,  T. Stauch,  T. Stein,  D. Stuck,  
 Y.-C. Su,  A. J. W. Thom,  T. Tsuchimochi,  L. Vogt,  O. Vydrov,  T. Wang,  
 M. A. Watson,  J. Wenzel,  A. White,  C. F. Williams,  V. Vanovschi,  
 K. Yao,  S. Yeganeh,  S. R. Yost,  Z.-Q. You,  I. Y. Zhang,  X. Zhang,  
 Y. Zhao,  B. R. Brooks,  G. K. L. Chan,  D. M. Chipman,  C. J. Cramer,  
 W. A. Goddard III,  M. S. Gordon,  W. J. Hehre,  A. Klamt,  
 H. F. Schaefer III,  M. W. Schmidt,  C. D. Sherrill,  D. G. Truhlar,  
 A. Warshel,  X. Xu,  A. Aspuru-Guzik,  R. Baer,  A. T. Bell,  N. A. Besley,  
 J.-D. Chai,  A. Dreuw,  B. D. Dunietz,  T. R. Furlani,  S. R. Gwaltney,  
 C.-P. Hsu,  Y. Jung,  J. Kong,  D. S. Lambrecht,  W. Liang,  C. Ochsenfeld,  
 V. A. Rassolov,  L. V. Slipchenko,  J. E. Subotnik,  T. Van Voorhis,  
 J. M. Herbert,  A. I. Krylov,  P. M. W. Gill,  M. Head-Gordon

 Contributors to earlier versions of Q-Chem not listed above: 
 R. D. Adamson,  J. Baker,  E. F. C. Byrd,  A. K. Chakraborty,  C.-L. Cheng,  
 H. Dachsel,  R. J. Doerksen,  G. Hawkins,  A. Heyden,  S. Hirata,  
 G. Kedziora,  F. J. Keil,  C. Kelley,  P. P. Korambath,  W. Kurlancheek,  
 A. M. Lee,  M. S. Lee,  D. Liotard,  I. Lotan,  P. E. Maslen,  N. Nair,  
 D. Neuhauser,  R. Olson,  B. Peters,  J. Ritchie,  N. E. Schultz,  
 N. Shenvi,  A. C. Simmonett,  K. S. Thanthiriwatte,  Q. Wu,  W. Zhang

 Please cite Q-Chem as follows:
 Y. Shao et al., Mol. Phys. 113, 184-215 (2015)
 DOI: 10.1080/00268976.2014.952696

 Q-Chem 4.4.2 for Intel X86 Linux

 Parts of Q-Chem use Armadillo 5.200.1 (Boston Tea Smuggler).
 http://arma.sourceforge.net/

 Q-Chem begins on Sat Oct  6 07:13:12 2018  

Host: 
0

     Scratch files written to /tmpu/cab_g/afmv_a/scratch_qchem/qchem137356//
 Dec716 11556_ 22328  22283 4050   
Processing $rem in /tmpu/appuserlic/qchem4.4/serial-multicore/config/preferences.
 MEM_TOTAL  2000 
FILE_GEOM_ORG=        593

Checking the input file for inconsistencies... 	...done.

--------------------------------------------------------------
User input:
--------------------------------------------------------------
$comment
SP
$end

$rem
MEM_STATIC 5000
MEM_TOTAL 20000
JOBTYPE SP
EXCHANGE B3LYP
BASIS 6-31g(d,p)
$end

$molecule
0 1
O          16.115000    -15.758000      0.905000
C          17.098000    -15.022000      1.676000
H          18.065000    -15.521000      1.813000
H          16.688000    -14.613000      2.608000
H          17.445000    -14.149000      1.110000
O          17.451000    -17.156000     -0.180000
C          16.375000    -16.608000     -0.113000
C          15.125000    -16.876000     -1.005000
H          14.497000    -17.667000     -0.577000
H          15.484000    -17.191000     -1.993000
C          14.224000    -15.618000     -1.206000
H          13.332000    -15.889000     -1.784000
H          13.768000    -15.292000     -0.263000
C          14.917000    -14.450000     -1.853000
H          15.847000    -14.250000     -1.306000
H          15.216000    -14.731000     -2.871000
C          13.876000    -13.259000     -1.970000
C          13.016000    -13.362000     -3.143000
C          11.632000    -13.684000     -3.027000
H          11.248000    -13.870000     -2.028000
C          10.743000    -13.799000     -4.148000
H           9.715000    -14.135000     -4.047000
C          11.326000    -13.486000     -5.451000
H          10.786000    -13.800000     -6.339000
C          12.640000    -13.061000     -5.522000
H          13.040000    -12.958000     -6.526000
C          13.463000    -12.883000     -4.377000
H          14.516000    -12.630000     -4.464000
C          13.701000     -7.723000     -1.995000
C          11.460000     -8.384000     -1.275000
C          11.897000     -7.035000      3.109000
C          17.193000     -9.987000      0.944000
C          12.553000    -10.273000      4.157000
C          12.587000     -8.609000     -2.025000
C          16.125000    -10.227000      3.462000
C          12.647000     -6.037000      1.020000
C          11.408000    -11.912000      0.649000
C          16.691000    -11.270000      1.325000
C          13.284000    -12.563000     -0.752000
C          12.462000    -12.478000      1.476000
C          15.053000    -12.194000      2.534000
C          15.027000    -10.044000      4.274000
C          11.743000    -10.618000     -1.340000
C          13.518000     -8.060000      4.315000
C          14.368000    -11.840000     -1.537000
C          15.716000    -11.585000     -0.895000
C          12.363000     -8.877000      4.295000
C          16.048000     -6.687000      1.588000
C          14.175000     -6.308000      2.910000
C          13.923000     -5.812000      1.576000
C          12.509000     -6.363000     -0.312000
C          16.169000    -10.308000     -1.188000
C          11.932000    -11.812000     -0.644000
C          11.391000     -7.235000     -0.395000
C          16.169000    -11.358000      2.624000
C          10.927000     -9.616000     -0.870000
C          12.548000    -12.061000      2.807000
C          16.746000     -8.106000     -0.270000
C          11.634000     -6.649000      1.754000
C          13.617000    -12.792000      0.660000
C          14.976000     -6.536000     -0.489000
C          13.892000    -11.901000      3.308000
C          10.604000    -10.895000      1.193000
C          15.825000     -8.027000      3.609000
C          16.643000     -9.005000      3.046000
C          10.765000    -10.476000      2.546000
C          16.859000     -9.519000     -0.307000
C          15.880000    -12.018000      0.438000
C          16.854000     -7.685000      1.063000
C          14.075000    -10.518000     -2.218000
C          10.312000     -8.662000      1.303000
C          14.879000    -12.628000      1.188000
C          11.753000    -11.060000      3.316000
C          15.780000     -7.499000     -1.087000
C          11.357000     -8.267000      3.519000
C          13.703000     -6.642000     -1.086000
C          13.206000     -6.928000      3.669000
C          10.351000     -9.753000      0.413000
C          10.596000     -9.104000      2.600000
C          12.763000    -10.040000     -2.155000
C          15.160000     -9.666000     -2.045000
C          15.464000     -6.864000      2.825000
C          10.897000     -7.410000      0.906000
C          13.889000    -10.849000      4.200000
C          17.134000     -8.856000      1.764000
C          14.785000     -8.661000      4.343000
C          14.998000     -8.246000     -1.970000
C          15.058000     -6.129000      0.848000
O          31.476000    -11.755000      8.488000
C          32.387000    -11.316000      9.548000
H          32.792000    -12.175000     10.099000
H          32.008000    -10.685000     10.361000
H          33.314000    -10.856000      9.183000
O          30.123000    -12.611000     10.025000
C          30.397000    -12.462000      8.875000
C          29.506000    -13.043000      7.806000
H          29.091000    -13.960000      8.242000
H          30.222000    -13.343000      7.031000
C          28.429000    -12.121000      7.145000
H          27.848000    -11.754000      8.000000
H          28.832000    -11.202000      6.704000
C          27.547000    -12.947000      6.191000
H          28.165000    -13.545000      5.510000
H          27.004000    -13.663000      6.820000
C          26.462000    -12.157000      5.444000
C          27.044000    -11.388000      4.269000
C          27.051000    -12.009000      3.038000
H          26.912000    -13.086000      3.017000
C          27.389000    -11.372000      1.844000
H          27.331000    -11.887000      0.889000
C          27.712000     -9.984000      1.940000
H          28.015000     -9.408000      1.071000
C          27.700000     -9.331000      3.195000
H          27.826000     -8.253000      3.232000
C          27.358000    -10.000000      4.317000
H          27.352000     -9.421000      5.235000
C          22.165000     -8.788000      5.884000
C          21.699000     -9.953000      3.793000
C          18.284000    -12.496000      5.408000
C          23.006000    -12.008000      9.739000
C          20.303000    -15.297000      5.950000
C          22.612000     -9.351000      4.654000
C          21.412000    -14.317000      9.194000
C          18.865000    -10.167000      5.772000
C          23.325000    -13.635000      3.842000
C          23.570000    -13.192000      9.174000
C          25.098000    -12.738000      5.265000
C          23.600000    -14.533000      4.909000
C          23.174000    -14.897000      7.692000
C          20.472000    -14.986000      8.343000
C          23.578000    -11.228000      3.826000
C          18.687000    -13.937000      7.122000
C          25.264000    -11.602000      6.182000
C          24.961000    -11.789000      7.614000
C          19.189000    -14.488000      5.927000
C          19.773000    -10.599000      9.155000
C          18.351000    -11.556000      7.691000
C          18.715000    -10.328000      7.164000
C          19.898000     -9.348000      5.330000
C          24.305000    -10.623000      8.112000
C          24.114000    -12.466000      4.074000
C          20.343000     -9.968000      4.121000
C          22.752000    -14.321000      8.871000
C          22.303000    -11.148000      3.306000
C          22.497000    -15.277000      5.434000
C          22.118000    -10.022000      9.106000
C          18.617000    -11.223000      4.876000
C          24.532000    -14.032000      5.802000
C          20.660000     -8.925000      7.546000
C          22.295000    -15.561000      6.844000
C          22.032000    -13.510000      3.218000
C          19.544000    -13.035000      9.135000
C          20.832000    -13.122000      9.656000
C          20.958000    -14.299000      3.775000
C          23.302000    -10.772000      9.126000
C          24.499000    -13.063000      8.090000
C          21.084000    -10.723000      9.725000
C          24.575000    -10.339000      5.882000
C          20.118000    -12.270000      3.256000
C          24.257000    -14.091000      7.167000
C          21.209000    -15.146000      4.890000
C          21.939000     -9.053000      8.105000
C          18.926000    -13.611000      4.872000
C          20.787000     -8.693000      6.148000
C          18.178000    -12.659000      6.814000
C          21.512000    -12.273000      2.928000
C          19.842000    -13.510000      3.800000
C          23.813000    -10.125000      4.670000
C          24.025000     -9.799000      7.065000
C          18.986000    -11.730000      8.912000
C          19.549000    -11.098000      3.859000
C          20.932000    -15.625000      7.154000
C          21.637000    -11.994000      9.942000
C          19.344000    -14.149000      8.306000
C          22.885000     -8.962000      7.112000
C          19.593000     -9.736000      8.058000
$end

--------------------------------------------------------------
 ----------------------------------------------------------------
             Standard Nuclear Orientation (Angstroms)
    I     Atom           X                Y                Z
 ----------------------------------------------------------------
    1      O       2.7870065580    -4.3842261816    -2.2895718225
    2      C       1.6449520311    -3.5934663616    -1.8738358912
    3      H       0.6887120720    -4.1284243156    -1.8260433387
    4      H       1.5765503713    -2.6344946736    -2.4027021453
    5      H       1.7353682049    -3.3283258661    -0.8134494366
    6      O       2.0218864072    -6.4184739626    -1.8503086661
    7      C       2.9748501815    -5.7005393950    -2.0477903147
    8      C       4.4618185909    -6.1358513901    -2.2193024605
    9      H       4.6911236987    -6.3518612502    -3.2700202665
   10      H       4.6131646479    -7.0425806651    -1.6199808500
   11      C       5.4835690987    -5.0645960399    -1.7261454121
   12      H       6.5058280177    -5.4029314148    -1.9352025254
   13      H       5.4392152117    -4.1528009513    -2.3345231313
   14      C       5.3532240712    -4.6992462650    -0.2726627958
   15      H       4.3055726439    -4.4431033160    -0.0703603576
   16      H       5.5750595005    -5.5829941394     0.3392724431
   17      C       6.4447769565    -3.5979345127     0.0612170075
   18      C       7.7583358192    -4.1612573698     0.3499529995
   19      C       8.8474707251    -4.0175929354    -0.5587503002
   20      H       8.6526709762    -3.4875012765    -1.4867098312
   21      C      10.1583349260    -4.5530016178    -0.3238895127
   22      H      10.9483955655    -4.5127877973    -1.0682469769
   23      C      10.3503849141    -5.2090869445     0.9677512447
   24      H      11.2217109290    -5.8449247770     1.0912066066
   25      C       9.3108132723    -5.2299964691     1.8794066585
   26      H       9.4845869577    -5.8312159150     2.7665159438
   27      C       8.0518941423    -4.6161070257     1.6379519519
   28      H       7.2235561854    -4.7184586331     2.3334858315
   29      C       7.2629865494     0.7265584995     3.4239300861
   30      C       8.7427399976     1.1619415754     1.5270449263
   31      C       6.3265374033     4.6695820976    -0.2304103334
   32      C       2.5275936497    -0.1348583393     1.7531529868
   33      C       4.8547522020     2.6140397827    -2.6014603355
   34      C       8.1273547667     0.2834302982     2.3830665110
   35      C       2.1494633999     1.4024628555    -0.4901055935
   36      C       6.8514071004     4.0464302546     2.0627574716
   37      C       7.4031449451    -0.4398873555    -1.9067420752
   38      C       2.6142926010    -0.7899790274     0.4856538050
   39      C       6.4226416446    -2.2060838920    -0.5557642544
   40      C       6.0179241421    -0.6439172946    -2.3001071866
   41      C       3.3007868404    -0.4148331466    -1.6087416274
   42      C       2.7038956739     2.2777896790    -1.3983152640
   43      C       8.2683443386    -0.6770685045     0.3154093850
   44      C       4.2109207555     4.1973101001    -0.8890660554
   45      C       5.9739596832    -2.3589493993     0.8896860678
   46      C       4.5270556763    -2.1029705596     1.2574313989
   47      C       5.1135606488     3.8232497075    -1.9124105945
   48      C       3.5758708737     3.0732117239     2.8600234991
   49      C       4.5612595463     4.5813436286     1.3923718641
   50      C       5.5058141269     4.2457869609     2.4336664271
   51      C       7.5999375939     3.0470392582     2.6462501765
   52      C       4.4374254095    -1.3895207367     2.4426498452
   53      C       7.6154819386    -1.2415997896    -0.7804227713
   54      C       8.4960073243     2.5847339632     1.6459852854
   55      C       2.3986506121     0.0240868869    -0.6361412831
   56      C       8.8499816564     0.5677454745     0.2615931412
   57      C       5.3252180881     0.4377796099    -2.8505035252
   58      C       3.7429763631     0.7209079675     3.4858603735
   59      C       7.2780311310     4.2389376986     0.7511165830
   60      C       5.4011573789    -1.6367047963    -1.4442749973
   61      C       5.5551074552     2.2284472316     3.7846366653
   62      C       3.9412982562     0.5385070576    -2.4535691727
   63      C       7.9391167925     0.8570128364    -1.9929109269
   64      C       2.5932131662     3.2670224150     0.6404309136
   65      C       2.0594104365     1.9859953449     0.7692769129
   66      C       7.1713542898     1.9354683946    -2.5216503224
   67      C       3.4973897348    -0.4243200522     2.6865813291
   68      C       3.6658464202    -1.6983706507     0.2153702054
   69      C       3.0308945469     1.8017002873     2.9467672011
   70      C       6.7235370966    -1.6617900778     2.0074501671
   71      C       8.3985042204     2.7236757764    -0.8146980175
   72      C       4.0743929168    -1.4977807957    -1.0997170427
   73      C       5.8691624476     1.6996756313    -2.9201452146
   74      C       5.0526510080     0.9418978346     3.9386404563
   75      C       6.4372642319     4.0799573519    -1.5022618297
   76      C       6.9328167610     2.0967990044     3.5148963959
   77      C       4.9366905454     4.7718983772     0.0800523707
   78      C       8.6828270901     1.3471280878    -0.9051356589
   79      C       7.4515164324     3.0719891012    -1.7842963659
   80      C       7.8723752499    -0.9449787498     1.6608244070
   81      C       5.8081677439    -1.1546220993     2.9228394775
   82      C       3.4339323847     3.7965284133     1.6941674050
   83      C       8.2450708592     3.3258342843     0.4819134644
   84      C       3.6205138158     1.8774708678    -2.3720200608
   85      C       2.3002950775     1.2365248575     1.9037700060
   86      C       3.0403594087     3.4488065021    -0.6972262859
   87      C       6.0774731138     0.0297939284     3.6797425697
   88      C       4.8616300533     3.3068303233     3.2223902774
   89      O     -13.7052471147    -0.4592496746     2.4100395674
   90      C     -14.9659436356     0.2868540100     2.4247220024
   91      H     -15.6913303484    -0.1532276264     1.7278365957
   92      H     -14.9748412841     1.3413023265     2.1233408820
   93      H     -15.5222180478     0.2123321239     3.3676744226
   94      O     -13.4195514551     0.0933656668     0.2796151321
   95      C     -13.0590758642    -0.5278403438     1.2303713788
   96      C     -11.8278116483    -1.3941572612     1.1426990945
   97      H     -11.7999045486    -1.7534562971     0.1066800809
   98      H     -12.0874637811    -2.2487522725     1.7795107909
   99      C     -10.4640860076    -0.8112734728     1.6401253362
  100      H     -10.3523146583     0.1103290075     1.0558043339
  101      H     -10.4789660057    -0.4505199935     2.6750584320
  102      C      -9.3273053145    -1.8026789443     1.3316438185
  103      H      -9.5855166270    -2.8105970602     1.6790873245
  104      H      -9.2628701007    -1.8629534982     0.2383181207
  105      C      -7.9291730268    -1.3706729024     1.7984745007
  106      C      -7.7465344336    -1.5976657364     3.2903952082
  107      C      -7.2078765762    -2.8011664465     3.6934891842
  108      H      -7.2058358483    -3.6168565912     2.9763166643
  109      C      -6.8223217817    -3.0843033571     5.0037677768
  110      H      -6.3540373374    -4.0288372291     5.2667876313
  111      C      -6.9828033243    -2.0266339480     5.9501662634
  112      H      -6.7377093401    -2.1588692596     6.9995416783
  113      C      -7.5254406164    -0.7830804910     5.5492952507
  114      H      -7.5242623727     0.0458013466     6.2509237215
  115      C      -7.8752008166    -0.5659419101     4.2632440702
  116      H      -8.2625005125     0.4217130373     4.0340331402
  117      C      -4.0702752408     2.5137533140     1.6308116040
  118      C      -2.7589890968     0.4964501377     2.0278991807
  119      C      -0.9459880100     0.2704039389    -2.1433391457
  120      C      -7.1080846187     2.0698151614    -2.4326031054
  121      C      -3.2794381621    -2.0626012122    -3.2956513224
  122      C      -3.9021526273     1.2522787279     2.2711979370
  123      C      -5.7424714165     0.3338279420    -4.2466568411
  124      C      -1.3505992382     2.1545781393    -0.6666958792
  125      C      -4.6125658584    -2.7162478924     0.4638577629
  126      C      -7.4477080677     0.6874873574    -2.5466327291
  127      C      -6.7396990580    -1.6052725546     0.9265727397
  128      C      -5.4903514969    -2.8543096818    -0.6456237895
  129      C      -6.5661898571    -1.4094609626    -2.8397169966
  130      C      -4.5891380467    -0.4618133017    -4.5502011532
  131      C      -4.5361362110    -0.9164748970     2.0803012893
  132      C      -2.3226633774     0.0589309148    -3.9424306089
  133      C      -7.2078537411    -0.2262648201     1.1217902100
  134      C      -7.6896105815     0.5371454030    -0.0454789012
  135      C      -2.2178093748    -1.1857121618    -3.2916624090
  136      C      -3.8785166446     3.5833820962    -2.6726694183
  137      C      -2.0385662132     2.3192193093    -2.9852455824
  138      C      -1.9402477228     2.8787665173    -1.7221345832
  139      C      -1.9164791522     2.2887931888     0.5962293932
  140      C      -7.2396645794     1.8879846941     0.0578545624
  141      C      -5.2664628728    -1.8587930551     1.4019920265
  142      C      -1.7639413778     0.9958153052     1.1870308995
  143      C      -6.7285751674    -0.1735978170    -3.4280827811
  144      C      -3.1733513330    -0.8582299405     1.8757288052
  145      C      -4.8973087108    -2.8652901477    -1.9471420119
  146      C      -5.7942849211     3.4506179080    -1.2075548901
  147      C      -0.8132736180     0.8692620116    -0.8634180939
  148      C      -6.6778245550    -2.1626565902    -0.4765151345
  149      C      -3.6319851686     3.7334381780    -0.2039386910
  150      C      -5.4660233348    -2.2138273551    -3.1140695616
  151      C      -3.1768026959    -2.6796354544     0.3451409959
  152      C      -3.9608604255     1.7343962354    -4.2731092917
  153      C      -5.3361124484     1.6682409255    -4.0675385050
  154      C      -2.6300021132    -2.7136697018    -0.9913083270
  155      C      -6.9073803153     2.6013000865    -1.1409674923
  156      C      -7.6838188409    -0.0648609467    -1.3495689329
  157      C      -5.3024611277     3.5117358908    -2.5106634613
  158      C      -6.3173916524     0.7410792481     1.7784581036
  159      C      -1.4094769170    -1.2441310649     0.2097647099
  160      C      -7.1347566585    -1.3456378735    -1.5089997443
  161      C      -3.5052941198    -2.7784226762    -2.1108198078
  162      C      -5.0234680738     3.6597887353    -0.0520930981
  163      C      -1.3588168499    -1.0597628655    -2.1973171177
  164      C      -3.0112116154     3.0662778581     0.8887160134
  165      C      -1.5805945745     0.9908663336    -3.1887335431
  166      C      -2.4392075059    -1.7664168226     1.0569373615
  167      C      -1.5931349426    -1.8237725206    -1.0312016524
  168      C      -5.0306442239     0.3779874116     2.3332818356
  169      C      -6.3764054640     1.9814667242     1.1064869144
  170      C      -3.2163074139     2.7485265327    -3.5793524516
  171      C      -1.0860756379     0.1522752471     0.2898585587
  172      C      -4.4617439059    -1.7613798395    -3.9770174594
  173      C      -6.0356905608     2.5216707958    -3.1818450359
  174      C      -3.5051693787     0.4319242388    -4.5263865467
  175      C      -5.3243427224     2.9271420934     1.0712720892
  176      C      -3.0711875521     3.6543657186    -1.5221221303
 ----------------------------------------------------------------
 Molecular Point Group                 C1    NOp =  1
 Largest Abelian Subgroup              C1    NOp =  1
 Nuclear Repulsion Energy = 34171.9034925365 hartrees
 There are      462 alpha and      462 beta electrons
 Requested basis set is 6-31G(d,p)
 There are 676 shells and 2360 basis functions

 Total QAlloc Memory Limit  20000 MB
 Mega-Array Size      4888 MB
 MEM_STATIC part      5000 MB
 A cutoff of  1.0D-08 yielded  37530 shell pairs
 There are    527170 function pairs
 
 -------------------------------------------------------
 OpenMP Integral Computing Module                       
 Release: version 1.0, May 2013, Q-Chem Inc. Pittsburgh 
 -------------------------------------------------------
 Integral Job Info:
 Integral job number is                      11
 Integral operator is                         1
 short-range coefficients                     0
 long-range coefficients              100000000
 Omega coefficients                           0
 if combine SR and LR in K                    0
 Integral screening is                        0
 Integral computing path is                   2
 max size of driver memory is            800000
 size of driver memory is                593474
 size of scratch memory is              2260544
 max col of scratch BK array               1296
 max len of scratch array in speh3          155
 max len of scratch index in speh4           18
 max int batch size is                      520
 min int batch size is                       52
 fixed nKL is                                52
 max L of basis functions is                  2
 order of int derivative is                   0
 number of shells is                        676
 number of basis is                        2360
 number of cartesian basis is              2360
 number of contracted shell pairs         37530
 number of primitive shell pairs         113792
 maxK2 (contraction) of shell pair           36
 max number of K2 of shell pair               1
 max number of CS2 of shell pair           7178
 max number of PS2 of shell pair          34494
 mem total for path MDJ                 1499256
 -------------------------------------------------------
 Smallest overlap matrix eigenvalue = 2.41E-04

 Scale SEOQF with 1.000000e-02/1.000000e-02/1.000000e-02

 Standard Electronic Orientation quadrupole field applied
 Nucleus-field energy     =     0.0000001226 hartrees
 Guess from superposition of atomic densities
 Warning:  Energy on first SCF cycle will be non-variational
 A restricted hybrid HF-DFT SCF calculation will be
 performed using Pulay DIIS extrapolation
 Exchange:     0.2000 Hartree-Fock + 0.0800 Slater + 0.7200 B88
 Correlation:  0.1900 VWN1RPA + 0.8100 LYP
 Using SG-1 standard quadrature grid
 SCF converges when DIIS error is below 1.0E-05
 using 16 threads for integral computing 
 -------------------------------------------------------
 OpenMP BLAS3 based DFT computing Module                
 Release: version 1.0, May 2013, Q-Chem Inc. Pittsburgh 
 -------------------------------------------------------
 ---------------------------------------
  Cycle       Energy         DIIS Error
 ---------------------------------------
    1   -5858.1376364593      1.83E-02
    2   -5803.1496222397      1.28E-03
    3   -5802.4527664099      1.74E-03
    4   -5803.9696014225      6.52E-04
    5   -5804.1901136517      3.37E-04
    6   -5804.2692038231      1.41E-04
    7   -5804.2817759109      5.32E-05
    8   -5804.2829697499      3.56E-05
    9   -5804.2839465374      8.92E-06 Convergence criterion met
 ---------------------------------------
 SCF time:  CPU 7202.63 s  wall 838.75 s
 SCF   energy in the final basis set = -5804.2839465374
 Total energy in the final basis set = -5804.2839465374
 
 --------------------------------------------------------------
 
                    Orbital Energies (a.u.)
 --------------------------------------------------------------
 
 Alpha MOs
 -- Occupied --
-19.197 -19.184 -19.130 -19.127 -10.317 -10.310 -10.247 -10.245
-10.241 -10.241 -10.241 -10.239 -10.239 -10.237 -10.234 -10.231
-10.229 -10.229 -10.228 -10.228 -10.227 -10.227 -10.226 -10.225
-10.225 -10.224 -10.224 -10.223 -10.223 -10.223 -10.221 -10.221
-10.221 -10.221 -10.220 -10.220 -10.220 -10.220 -10.220 -10.219
-10.219 -10.219 -10.219 -10.218 -10.218 -10.218 -10.218 -10.218
-10.218 -10.217 -10.217 -10.217 -10.217 -10.217 -10.217 -10.217
-10.217 -10.216 -10.216 -10.216 -10.216 -10.216 -10.216 -10.216
-10.215 -10.215 -10.215 -10.215 -10.215 -10.215 -10.215 -10.215
-10.215 -10.215 -10.215 -10.215 -10.215 -10.215 -10.214 -10.214
-10.214 -10.214 -10.214 -10.214 -10.214 -10.214 -10.214 -10.214
-10.214 -10.214 -10.214 -10.214 -10.214 -10.214 -10.213 -10.213
-10.213 -10.213 -10.213 -10.213 -10.213 -10.213 -10.213 -10.213
-10.213 -10.213 -10.213 -10.213 -10.212 -10.212 -10.212 -10.212
-10.212 -10.212 -10.211 -10.211 -10.211 -10.211 -10.211 -10.211
-10.211 -10.211 -10.210 -10.210 -10.210 -10.210 -10.210 -10.210
-10.210 -10.210 -10.209 -10.209 -10.209 -10.208 -10.208 -10.206
-10.206 -10.205 -10.205 -10.203 -10.203 -10.202 -10.202 -10.201
-10.197 -10.196 -10.194 -10.193  -1.103  -1.091  -1.014  -1.003
 -0.983  -0.983  -0.967  -0.965  -0.963  -0.962  -0.962  -0.961
 -0.937  -0.933  -0.928  -0.926  -0.925  -0.924  -0.923  -0.923
 -0.922  -0.921  -0.899  -0.896  -0.891  -0.890  -0.887  -0.885
 -0.876  -0.871  -0.857  -0.849  -0.842  -0.841  -0.838  -0.838
 -0.837  -0.837  -0.823  -0.820  -0.807  -0.806  -0.798  -0.798
 -0.797  -0.795  -0.795  -0.793  -0.791  -0.790  -0.785  -0.785
 -0.771  -0.770  -0.769  -0.768  -0.767  -0.766  -0.763  -0.762
 -0.757  -0.745  -0.742  -0.741  -0.734  -0.733  -0.717  -0.716
 -0.714  -0.713  -0.713  -0.713  -0.711  -0.711  -0.711  -0.710
 -0.709  -0.708  -0.707  -0.705  -0.705  -0.703  -0.674  -0.670
 -0.660  -0.658  -0.658  -0.655  -0.650  -0.649  -0.633  -0.631
 -0.629  -0.628  -0.627  -0.625  -0.624  -0.623  -0.619  -0.617
 -0.615  -0.615  -0.614  -0.612  -0.612  -0.611  -0.609  -0.607
 -0.606  -0.606  -0.603  -0.603  -0.571  -0.568  -0.566  -0.566
 -0.565  -0.562  -0.560  -0.559  -0.557  -0.556  -0.554  -0.552
 -0.537  -0.536  -0.534  -0.533  -0.530  -0.527  -0.527  -0.526
 -0.525  -0.523  -0.521  -0.519  -0.518  -0.517  -0.514  -0.513
 -0.508  -0.505  -0.499  -0.497  -0.491  -0.490  -0.488  -0.486
 -0.484  -0.482  -0.481  -0.481  -0.479  -0.476  -0.476  -0.475
 -0.473  -0.472  -0.470  -0.468  -0.468  -0.468  -0.467  -0.466
 -0.465  -0.465  -0.463  -0.463  -0.462  -0.460  -0.458  -0.458
 -0.458  -0.455  -0.452  -0.452  -0.450  -0.450  -0.446  -0.443
 -0.442  -0.442  -0.441  -0.439  -0.437  -0.437  -0.434  -0.432
 -0.431  -0.431  -0.430  -0.428  -0.428  -0.426  -0.426  -0.425
 -0.423  -0.423  -0.422  -0.422  -0.421  -0.420  -0.419  -0.418
 -0.417  -0.416  -0.416  -0.415  -0.415  -0.414  -0.414  -0.412
 -0.412  -0.411  -0.410  -0.407  -0.403  -0.401  -0.399  -0.397
 -0.394  -0.393  -0.392  -0.392  -0.390  -0.389  -0.387  -0.387
 -0.386  -0.377  -0.374  -0.373  -0.371  -0.370  -0.368  -0.367
 -0.366  -0.366  -0.363  -0.363  -0.362  -0.361  -0.360  -0.359
 -0.357  -0.355  -0.354  -0.354  -0.354  -0.353  -0.352  -0.351
 -0.350  -0.349  -0.349  -0.348  -0.347  -0.347  -0.346  -0.345
 -0.343  -0.342  -0.342  -0.340  -0.339  -0.337  -0.336  -0.335
 -0.334  -0.333  -0.332  -0.331  -0.329  -0.327  -0.326  -0.325
 -0.313  -0.308  -0.302  -0.290  -0.290  -0.288  -0.272  -0.271
 -0.271  -0.269  -0.268  -0.267  -0.266  -0.264  -0.263  -0.263
 -0.262  -0.262  -0.261  -0.260  -0.258  -0.257  -0.256  -0.251
 -0.250  -0.246  -0.245  -0.243  -0.224  -0.221  -0.213  -0.212
 -0.211  -0.210  -0.208  -0.206  -0.203  -0.198
 -- Virtual --
 -0.124  -0.122  -0.121  -0.120  -0.112  -0.110  -0.079  -0.078
 -0.077  -0.073  -0.064  -0.059  -0.056  -0.053  -0.026  -0.025
 -0.022  -0.021  -0.020  -0.019  -0.018  -0.016  -0.015  -0.014
 -0.013  -0.011  -0.009  -0.009  -0.007  -0.002   0.002   0.005
  0.008   0.013   0.032   0.034   0.036   0.041   0.043   0.046
  0.047   0.051   0.054   0.055   0.059   0.063   0.064   0.067
  0.070   0.071   0.078   0.080   0.081   0.081   0.088   0.088
  0.095   0.096   0.096   0.097   0.097   0.099   0.103   0.108
  0.108   0.111   0.112   0.112   0.114   0.116   0.118   0.120
  0.122   0.122   0.123   0.125   0.125   0.130   0.134   0.135
  0.140   0.141   0.143   0.146   0.148   0.152   0.156   0.157
  0.159   0.160   0.161   0.162   0.163   0.165   0.166   0.168
  0.169   0.170   0.172   0.174   0.175   0.177   0.179   0.180
  0.181   0.185   0.186   0.188   0.188   0.189   0.190   0.191
  0.192   0.193   0.193   0.197   0.200   0.201   0.204   0.204
  0.205   0.206   0.211   0.211   0.213   0.214   0.215   0.216
  0.216   0.218   0.220   0.222   0.223   0.224   0.224   0.226
  0.227   0.228   0.228   0.231   0.233   0.234   0.237   0.237
  0.238   0.239   0.241   0.243   0.247   0.251   0.255   0.257
  0.258   0.262   0.264   0.271   0.271   0.276   0.276   0.277
  0.280   0.282   0.284   0.286   0.291   0.297   0.301   0.302
  0.308   0.308   0.310   0.311   0.312   0.313   0.316   0.317
  0.319   0.320   0.323   0.324   0.328   0.328   0.331   0.333
  0.336   0.337   0.338   0.343   0.344   0.345   0.347   0.348
  0.350   0.352   0.354   0.361   0.370   0.373   0.384   0.386
  0.392   0.393   0.395   0.399   0.401   0.403   0.404   0.408
  0.409   0.410   0.411   0.413   0.414   0.415   0.418   0.422
  0.425   0.428   0.431   0.434   0.435   0.436   0.441   0.442
  0.443   0.445   0.449   0.450   0.454   0.455   0.460   0.461
  0.463   0.464   0.468   0.470   0.470   0.472   0.472   0.474
  0.477   0.478   0.479   0.479   0.480   0.481   0.481   0.482
  0.483   0.485   0.486   0.488   0.489   0.491   0.493   0.495
  0.496   0.497   0.498   0.499   0.499   0.500   0.501   0.501
  0.503   0.505   0.505   0.506   0.506   0.508   0.509   0.510
  0.511   0.512   0.512   0.513   0.515   0.516   0.517   0.517
  0.518   0.519   0.520   0.521   0.521   0.522   0.524   0.524
  0.525   0.525   0.526   0.528   0.529   0.530   0.530   0.531
  0.531   0.532   0.533   0.534   0.534   0.535   0.537   0.537
  0.538   0.540   0.540   0.541   0.541   0.542   0.542   0.544
  0.544   0.545   0.546   0.547   0.548   0.548   0.549   0.550
  0.551   0.552   0.552   0.553   0.555   0.555   0.556   0.557
  0.558   0.558   0.559   0.559   0.560   0.562   0.563   0.563
  0.564   0.564   0.565   0.565   0.567   0.568   0.569   0.570
  0.570   0.571   0.571   0.572   0.574   0.575   0.576   0.576
  0.577   0.578   0.580   0.580   0.581   0.581   0.582   0.583
  0.584   0.585   0.586   0.586   0.587   0.588   0.589   0.589
  0.591   0.592   0.593   0.594   0.595   0.596   0.596   0.598
  0.599   0.600   0.601   0.602   0.602   0.603   0.604   0.606
  0.607   0.608   0.608   0.610   0.612   0.612   0.613   0.614
  0.615   0.618   0.618   0.620   0.621   0.622   0.623   0.624
  0.625   0.626   0.627   0.629   0.630   0.631   0.631   0.632
  0.633   0.633   0.634   0.636   0.637   0.638   0.640   0.641
  0.642   0.643   0.644   0.646   0.646   0.647   0.649   0.650
  0.651   0.651   0.652   0.652   0.654   0.654   0.656   0.656
  0.657   0.658   0.659   0.660   0.661   0.662   0.662   0.663
  0.664   0.665   0.666   0.666   0.667   0.668   0.668   0.669
  0.671   0.671   0.672   0.672   0.673   0.675   0.676   0.677
  0.679   0.681   0.682   0.683   0.684   0.685   0.686   0.687
  0.689   0.690   0.691   0.692   0.693   0.694   0.695   0.696
  0.697   0.698   0.699   0.700   0.700   0.701   0.702   0.704
  0.705   0.707   0.708   0.709   0.710   0.712   0.714   0.715
  0.717   0.719   0.719   0.720   0.721   0.721   0.723   0.723
  0.724   0.726   0.728   0.729   0.730   0.732   0.732   0.733
  0.734   0.735   0.736   0.738   0.740   0.742   0.744   0.745
  0.746   0.749   0.750   0.751   0.752   0.752   0.754   0.755
  0.757   0.757   0.759   0.761   0.762   0.763   0.763   0.764
  0.766   0.767   0.768   0.770   0.771   0.772   0.774   0.775
  0.776   0.777   0.779   0.779   0.780   0.782   0.783   0.784
  0.784   0.787   0.788   0.789   0.791   0.793   0.793   0.795
  0.798   0.798   0.799   0.801   0.802   0.803   0.804   0.804
  0.806   0.806   0.808   0.809   0.809   0.810   0.810   0.811
  0.812   0.812   0.814   0.815   0.816   0.817   0.818   0.819
  0.820   0.821   0.822   0.822   0.822   0.823   0.824   0.825
  0.827   0.827   0.828   0.830   0.831   0.833   0.833   0.836
  0.838   0.839   0.842   0.844   0.844   0.845   0.845   0.852
  0.853   0.854   0.857   0.859   0.860   0.860   0.862   0.868
  0.872   0.876   0.883   0.884   0.885   0.889   0.890   0.892
  0.894   0.901   0.902   0.904   0.905   0.906   0.909   0.912
  0.914   0.914   0.916   0.918   0.919   0.923   0.924   0.927
  0.928   0.931   0.932   0.933   0.934   0.936   0.938   0.940
  0.941   0.944   0.945   0.946   0.946   0.950   0.950   0.953
  0.955   0.957   0.958   0.962   0.963   0.966   0.969   0.970
  0.974   0.976   0.979   0.983   0.984   0.985   0.986   0.988
  0.989   0.992   0.994   0.995   0.997   0.999   1.002   1.003
  1.005   1.007   1.008   1.011   1.012   1.013   1.014   1.016
  1.017   1.019   1.021   1.023   1.024   1.027   1.028   1.032
  1.032   1.034   1.037   1.039   1.040   1.042   1.043   1.044
  1.046   1.047   1.048   1.049   1.054   1.055   1.056   1.058
  1.059   1.061   1.064   1.064   1.066   1.067   1.068   1.070
  1.072   1.074   1.074   1.075   1.078   1.079   1.081   1.082
  1.084   1.084   1.088   1.091   1.092   1.094   1.096   1.097
  1.098   1.099   1.103   1.104   1.105   1.108   1.108   1.110
  1.111   1.114   1.114   1.116   1.120   1.123   1.123   1.126
  1.128   1.130   1.133   1.136   1.137   1.140   1.143   1.145
  1.147   1.148   1.149   1.152   1.153   1.157   1.159   1.160
  1.161   1.163   1.163   1.165   1.166   1.167   1.168   1.172
  1.173   1.173   1.177   1.179   1.180   1.182   1.183   1.184
  1.186   1.186   1.189   1.192   1.192   1.194   1.195   1.198
  1.200   1.202   1.204   1.207   1.208   1.212   1.214   1.218
  1.222   1.224   1.226   1.229   1.230   1.234   1.240   1.242
  1.242   1.244   1.249   1.251   1.253   1.254   1.256   1.258
  1.259   1.261   1.264   1.265   1.267   1.270   1.273   1.277
  1.277   1.279   1.280   1.281   1.282   1.287   1.288   1.290
  1.292   1.296   1.298   1.302   1.303   1.305   1.308   1.309
  1.310   1.312   1.314   1.315   1.323   1.323   1.328   1.330
  1.330   1.332   1.333   1.337   1.340   1.342   1.343   1.347
  1.348   1.350   1.351   1.353   1.354   1.357   1.359   1.362
  1.363   1.363   1.365   1.372   1.375   1.376   1.379   1.380
  1.382   1.387   1.389   1.391   1.391   1.393   1.395   1.399
  1.400   1.406   1.408   1.411   1.413   1.419   1.421   1.426
  1.429   1.432   1.434   1.434   1.439   1.442   1.450   1.452
  1.454   1.455   1.457   1.458   1.459   1.459   1.462   1.465
  1.468   1.469   1.469   1.471   1.472   1.473   1.475   1.476
  1.481   1.482   1.486   1.488   1.489   1.491   1.496   1.500
  1.502   1.505   1.507   1.510   1.511   1.514   1.515   1.518
  1.523   1.524   1.526   1.529   1.532   1.535   1.538   1.539
  1.541   1.542   1.544   1.547   1.549   1.551   1.555   1.556
  1.559   1.560   1.562   1.562   1.565   1.567   1.569   1.572
  1.573   1.575   1.580   1.581   1.583   1.586   1.586   1.588
  1.589   1.591   1.594   1.596   1.608   1.609   1.614   1.618
  1.622   1.623   1.626   1.631   1.632   1.634   1.636   1.638
  1.644   1.647   1.651   1.655   1.658   1.658   1.662   1.662
  1.666   1.681   1.683   1.683   1.685   1.687   1.689   1.694
  1.696   1.697   1.699   1.702   1.704   1.706   1.711   1.711
  1.715   1.716   1.718   1.720   1.721   1.726   1.728   1.731
  1.732   1.732   1.733   1.734   1.735   1.738   1.740   1.743
  1.745   1.747   1.749   1.750   1.752   1.753   1.754   1.755
  1.756   1.758   1.760   1.762   1.763   1.764   1.766   1.766
  1.768   1.769   1.769   1.771   1.774   1.775   1.776   1.777
  1.779   1.780   1.780   1.781   1.783   1.785   1.785   1.787
  1.788   1.790   1.791   1.792   1.793   1.794   1.795   1.796
  1.797   1.798   1.800   1.801   1.802   1.804   1.806   1.808
  1.809   1.810   1.812   1.813   1.814   1.816   1.820   1.821
  1.824   1.825   1.827   1.828   1.831   1.832   1.836   1.838
  1.841   1.841   1.843   1.845   1.846   1.848   1.850   1.850
  1.854   1.854   1.856   1.859   1.860   1.863   1.863   1.866
  1.868   1.869   1.871   1.874   1.875   1.876   1.878   1.878
  1.881   1.882   1.884   1.886   1.889   1.891   1.893   1.895
  1.898   1.900   1.904   1.907   1.909   1.910   1.912   1.913
  1.914   1.918   1.920   1.922   1.924   1.927   1.928   1.929
  1.930   1.932   1.934   1.937   1.940   1.942   1.944   1.946
  1.950   1.951   1.955   1.957   1.958   1.959   1.965   1.966
  1.969   1.971   1.972   1.973   1.974   1.976   1.980   1.980
  1.983   1.984   1.987   1.989   1.990   1.991   1.993   1.994
  1.995   1.995   1.996   2.000   2.001   2.002   2.004   2.005
  2.006   2.007   2.010   2.011   2.013   2.013   2.014   2.015
  2.016   2.019   2.019   2.021   2.023   2.023   2.025   2.025
  2.026   2.028   2.029   2.031   2.032   2.033   2.033   2.034
  2.035   2.037   2.038   2.038   2.041   2.042   2.043   2.044
  2.045   2.045   2.048   2.049   2.050   2.050   2.051   2.052
  2.054   2.056   2.057   2.059   2.060   2.061   2.062   2.063
  2.065   2.067   2.069   2.069   2.070   2.074   2.075   2.077
  2.078   2.080   2.082   2.083   2.085   2.087   2.089   2.092
  2.093   2.095   2.097   2.100   2.101   2.102   2.103   2.105
  2.110   2.111   2.114   2.116   2.118   2.118   2.121   2.122
  2.129   2.132   2.133   2.136   2.139   2.141   2.145   2.147
  2.149   2.152   2.154   2.157   2.160   2.162   2.168   2.171
  2.177   2.181   2.182   2.186   2.188   2.192   2.195   2.201
  2.202   2.204   2.206   2.210   2.210   2.216   2.217   2.219
  2.221   2.227   2.228   2.231   2.233   2.237   2.237   2.240
  2.241   2.244   2.248   2.250   2.251   2.254   2.258   2.259
  2.261   2.267   2.268   2.271   2.272   2.276   2.278   2.279
  2.280   2.284   2.287   2.288   2.290   2.294   2.294   2.298
  2.299   2.300   2.304   2.306   2.307   2.310   2.313   2.316
  2.318   2.321   2.324   2.326   2.330   2.333   2.335   2.336
  2.339   2.342   2.343   2.345   2.346   2.348   2.350   2.353
  2.357   2.358   2.359   2.360   2.361   2.361   2.365   2.365
  2.368   2.369   2.370   2.370   2.374   2.375   2.377   2.379
  2.380   2.382   2.383   2.385   2.386   2.389   2.390   2.391
  2.394   2.395   2.397   2.398   2.400   2.401   2.402   2.405
  2.407   2.407   2.409   2.410   2.413   2.415   2.416   2.418
  2.421   2.422   2.425   2.426   2.429   2.434   2.436   2.440
  2.441   2.442   2.444   2.448   2.451   2.452   2.453   2.455
  2.458   2.460   2.460   2.462   2.465   2.465   2.468   2.470
  2.472   2.473   2.476   2.477   2.478   2.482   2.483   2.485
  2.487   2.490   2.493   2.495   2.497   2.502   2.503   2.505
  2.507   2.508   2.510   2.510   2.513   2.514   2.517   2.518
  2.519   2.521   2.526   2.527   2.531   2.533   2.536   2.537
  2.541   2.543   2.545   2.547   2.548   2.552   2.560   2.562
  2.567   2.568   2.569   2.570   2.574   2.580   2.582   2.586
  2.587   2.593   2.595   2.595   2.601   2.602   2.604   2.605
  2.606   2.608   2.608   2.609   2.615   2.616   2.617   2.618
  2.621   2.622   2.624   2.625   2.628   2.629   2.631   2.632
  2.636   2.637   2.637   2.640   2.640   2.641   2.645   2.648
  2.649   2.650   2.651   2.653   2.654   2.656   2.658   2.659
  2.660   2.661   2.662   2.664   2.670   2.670   2.670   2.673
  2.675   2.675   2.676   2.677   2.679   2.680   2.681   2.684
  2.685   2.688   2.690   2.693   2.696   2.698   2.703   2.704
  2.706   2.708   2.713   2.716   2.720   2.722   2.724   2.727
  2.727   2.730   2.731   2.734   2.737   2.740   2.744   2.745
  2.746   2.747   2.748   2.751   2.755   2.756   2.758   2.758
  2.763   2.764   2.767   2.767   2.769   2.770   2.773   2.774
  2.776   2.779   2.780   2.783   2.787   2.787   2.788   2.792
  2.796   2.797   2.803   2.804   2.806   2.809   2.815   2.817
  2.820   2.822   2.829   2.830   2.833   2.833   2.837   2.841
  2.844   2.847   2.850   2.851   2.852   2.853   2.855   2.860
  2.862   2.865   2.866   2.868   2.870   2.871   2.872   2.874
  2.876   2.878   2.879   2.882   2.885   2.886   2.887   2.891
  2.892   2.893   2.894   2.896   2.897   2.898   2.902   2.902
  2.903   2.906   2.907   2.908   2.910   2.911   2.913   2.915
  2.917   2.919   2.920   2.922   2.924   2.928   2.929   2.931
  2.934   2.936   2.939   2.940   2.945   2.948   2.949   2.953
  2.957   2.958   2.962   2.965   2.969   2.971   2.973   2.978
  2.982   2.982   2.985   2.986   2.990   2.993   2.996   2.997
  2.998   3.000   3.007   3.008   3.010   3.015   3.019   3.020
  3.026   3.027   3.031   3.034   3.035   3.037   3.038   3.040
  3.043   3.046   3.048   3.051   3.056   3.059   3.062   3.067
  3.068   3.071   3.074   3.075   3.078   3.086   3.093   3.096
  3.111   3.116   3.120   3.124   3.130   3.131   3.140   3.145
  3.147   3.149   3.154   3.158   3.168   3.173   3.175   3.182
  3.189   3.189   3.195   3.205   3.216   3.230   3.232   3.238
  3.240   3.241   3.248   3.252   3.256   3.258   3.264   3.273
  3.280   3.296   3.297   3.298   3.307   3.315   3.320   3.322
  3.327   3.332   3.333   3.340   3.348   3.349   3.377   3.380
  3.406   3.407   3.412   3.425   3.431   3.444   3.448   3.453
  3.456   3.462   3.464   3.467   3.470   3.480   3.482   3.489
  3.495   3.500   3.502   3.505   3.518   3.519   3.529   3.536
  3.539   3.542   3.563   3.567   3.578   3.579   3.594   3.602
  3.609   3.624   3.676   3.682   3.811   3.863   3.995   4.044
  4.071   4.071   4.074   4.081   4.083   4.084   4.085   4.091
  4.094   4.096   4.099   4.104   4.112   4.114   4.117   4.119
  4.121   4.127   4.128   4.133   4.134   4.140   4.147   4.149
  4.150   4.157   4.160   4.162   4.169   4.172   4.176   4.178
  4.181   4.184   4.188   4.190   4.210   4.214   4.233   4.235
  4.239   4.242   4.244   4.250   4.251   4.255   4.257   4.261
  4.265   4.268   4.269   4.278   4.279   4.289   4.290   4.296
  4.302   4.308   4.318   4.324   4.370   4.384   4.386   4.389
  4.394   4.399   4.401   4.402   4.405   4.407   4.410   4.412
  4.416   4.417   4.420   4.426   4.447   4.459   4.477   4.482
  4.483   4.500   4.502   4.504   4.528   4.530   4.545   4.548
  4.556   4.560   4.611   4.620   4.621   4.625   4.632   4.637
  4.640   4.646   4.666   4.679   4.682   4.689   4.691   4.696
  4.697   4.700   4.702   4.708   4.736   4.754   4.789   4.822
  4.835   4.843   4.853   4.860   4.878   4.878   4.881   4.884
  4.895   4.901   4.940   4.956   4.959   4.967   4.968   4.974
  4.980   4.988   4.993   5.008   5.154   5.168   5.178   5.181
  5.192   5.197   5.210   5.217   5.308   5.320   5.333   5.344
  5.349   5.361
 --------------------------------------------------------------
 
          Ground-State Mulliken Net Atomic Charges

     Atom                 Charge (a.u.)
  ----------------------------------------
      1 O                    -0.460007
      2 C                    -0.099728
      3 H                     0.135645
      4 H                     0.133427
      5 H                     0.118181
      6 O                    -0.458296
      7 C                     0.577091
      8 C                    -0.263794
      9 H                     0.139171
     10 H                     0.131985
     11 C                    -0.184747
     12 H                     0.100188
     13 H                     0.119584
     14 C                    -0.183016
     15 H                     0.116244
     16 H                     0.110803
     17 C                     0.006639
     18 C                     0.099099
     19 C                    -0.112480
     20 H                     0.090183
     21 C                    -0.100519
     22 H                     0.099948
     23 C                    -0.087456
     24 H                     0.094577
     25 C                    -0.089320
     26 H                     0.091008
     27 C                    -0.105262
     28 H                     0.093321
     29 C                    -0.006599
     30 C                     0.003981
     31 C                    -0.027681
     32 C                    -0.011805
     33 C                    -0.002178
     34 C                     0.003374
     35 C                     0.030440
     36 C                     0.006555
     37 C                    -0.015039
     38 C                    -0.026517
     39 C                    -0.084413
     40 C                    -0.014971
     41 C                    -0.022526
     42 C                    -0.008516
     43 C                     0.035377
     44 C                     0.050834
     45 C                    -0.103128
     46 C                     0.014948
     47 C                    -0.037106
     48 C                     0.008006
     49 C                    -0.018877
     50 C                    -0.014214
     51 C                    -0.015890
     52 C                     0.005021
     53 C                     0.015208
     54 C                    -0.025352
     55 C                     0.003923
     56 C                     0.001827
     57 C                    -0.014033
     58 C                    -0.027643
     59 C                     0.029094
     60 C                     0.056661
     61 C                     0.018850
     62 C                    -0.007222
     63 C                    -0.003913
     64 C                    -0.038106
     65 C                     0.000031
     66 C                    -0.002310
     67 C                     0.019395
     68 C                     0.010799
     69 C                     0.019051
     70 C                     0.043554
     71 C                    -0.018551
     72 C                     0.022356
     73 C                     0.028298
     74 C                    -0.005364
     75 C                    -0.004546
     76 C                    -0.022876
     77 C                     0.011766
     78 C                    -0.007385
     79 C                     0.014902
     80 C                    -0.012445
     81 C                    -0.007705
     82 C                     0.002045
     83 C                     0.017075
     84 C                    -0.011210
     85 C                     0.009397
     86 C                    -0.003233
     87 C                    -0.002388
     88 C                     0.024304
     89 O                    -0.462057
     90 C                    -0.097044
     91 H                     0.125665
     92 H                     0.135754
     93 H                     0.122014
     94 O                    -0.455299
     95 C                     0.575305
     96 C                    -0.247003
     97 H                     0.137009
     98 H                     0.116312
     99 C                    -0.190935
    100 H                     0.120129
    101 H                     0.117647
    102 C                    -0.174399
    103 H                     0.113504
    104 H                     0.108446
    105 C                     0.009166
    106 C                     0.086805
    107 C                    -0.111861
    108 H                     0.087554
    109 C                    -0.083784
    110 H                     0.097921
    111 C                    -0.098474
    112 H                     0.088693
    113 C                    -0.079925
    114 H                     0.091502
    115 C                    -0.105033
    116 H                     0.089276
    117 C                    -0.003718
    118 C                    -0.009968
    119 C                    -0.025054
    120 C                    -0.024386
    121 C                     0.014155
    122 C                    -0.008752
    123 C                    -0.019153
    124 C                     0.009996
    125 C                     0.017565
    126 C                    -0.025475
    127 C                    -0.101894
    128 C                    -0.000531
    129 C                     0.005114
    130 C                    -0.006377
    131 C                     0.031717
    132 C                    -0.008319
    133 C                    -0.063401
    134 C                     0.014806
    135 C                    -0.002550
    136 C                    -0.005385
    137 C                    -0.000237
    138 C                     0.000686
    139 C                     0.021078
    140 C                    -0.017627
    141 C                     0.026036
    142 C                    -0.006401
    143 C                     0.016011
    144 C                     0.011281
    145 C                    -0.011721
    146 C                     0.029915
    147 C                    -0.011938
    148 C                     0.016477
    149 C                    -0.019879
    150 C                    -0.022199
    151 C                    -0.019633
    152 C                     0.008713
    153 C                     0.021277
    154 C                    -0.014959
    155 C                     0.011357
    156 C                    -0.000281
    157 C                    -0.033748
    158 C                     0.044392
    159 C                    -0.028432
    160 C                     0.027035
    161 C                     0.012749
    162 C                    -0.004529
    163 C                     0.009549
    164 C                    -0.013563
    165 C                     0.011738
    166 C                    -0.008308
    167 C                     0.019612
    168 C                    -0.031966
    169 C                     0.017685
    170 C                    -0.019967
    171 C                     0.015327
    172 C                    -0.006570
    173 C                     0.016754
    174 C                     0.005209
    175 C                     0.006263
    176 C                     0.021736
  ----------------------------------------
  Sum of atomic charges =     0.000000

 -----------------------------------------------------------------
                    Cartesian Multipole Moments
 -----------------------------------------------------------------
    Charge (ESU x 10^10)
                 0.0000
    Dipole Moment (Debye)
         X       0.0183      Y      -1.7931      Z       2.9148
       Tot       3.4223
    Quadrupole Moments (Debye-Ang)
        XX    -757.5343     XY     -16.1717     YY    -813.1504
        XZ     -34.9340     YZ      -6.4973     ZZ    -797.8774
    Octopole Moments (Debye-Ang^2)
       XXX    -420.0166    XXY    -400.5007    XYY      27.8081
       YYY     -84.9284    XXZ     343.9960    XYZ     -17.5876
       YYZ      85.1890    XZZ    -124.7639    YZZ     -75.0749
       ZZZ      93.4620
    Hexadecapole Moments (Debye-Ang^3)
      XXXX -173201.6707   XXXY   -2441.8976   XXYY  -34552.4176
      XYYY    -987.5255   YYYY  -34233.1111   XXXZ   -6526.9326
      XXYZ     417.4659   XYYZ    -268.0809   YYYZ    -380.5411
      XXZZ  -34351.6620   XYZZ    -411.2440   YYZZ   -9731.9073
      XZZZ   -1154.5875   YZZZ      30.1127   ZZZZ  -25381.8274
 -----------------------------------------------------------------
Archival summary:
1\1\mn366\SP\ProcedureUnspecified\6-31G**\428\afmv_a\SatOct607:27:272018SatOct607:27:272018\0\\#,ProcedureUnspecified,6-31G**,\\0,1\O\C,1,1.35145\O,2,1.20937,1,119.861\C,1,1.44997,2,126.112,3,-24.5733,0\H,4,1.09675,1,115.672,2,32.0698,0\H,4,1.09677,1,110.128,2,-78.4576,0\H,4,1.09727,1,112.801,2,164.523,0\C,2,1.55884,1,112.637,3,-173.629,0\H,8,1.09693,2,111.087,1,84.0686,0\H,8,1.09738,2,107.59,1,-156.257,0\C,8,1.56037,2,113.461,1,-37.2026,0\H,11,1.0969,8,109.771,2,176.26,0\H,11,1.09702,8,111.646,2,65.2837,0\C,11,1.50435,8,114.542,2,-59.6096,0\H,14,1.09732,11,108.514,8,51.3661,0\H,14,1.09758,11,109.003,8,-63.8187,0\C,14,1.58614,11,108.203,8,179.427,0\C,17,1.45813,14,113.165,11,83.1977,0\C,18,1.39714,17,119.842,14,84.0153,0\H,19,1.08646,18,117.429,17,-12.0646,0\C,19,1.42128,18,118.904,17,-176.502,0\H,21,1.08564,19,121.318,18,163.206,0\C,21,1.38285,19,123.186,18,-10.9598,0\H,23,1.0857,21,121.299,19,167.738,0\C,18,1.42569,17,121.537,14,-109.051,0\H,25,1.0863,18,117.171,17,1.22654,0\C,25,1.43534,18,123.766,17,179.935,0\H,27,1.08622,25,122.57,18,-174.165,0\C,17,1.52263,14,122.643,11,-65.1042,0\C,29,1.4687,17,127.562,14,-4.27466,0\C,30,1.3778,29,123.886,17,-59.3917,0\C,31,1.39162,30,120.298,29,-10.5394,0\C,32,1.41113,31,124.056,30,2.83303,0\C,33,1.38629,32,116.381,31,-132.76,0\C,34,1.36923,33,124.021,32,-6.21589,0\C,35,1.3768,34,120.731,33,-2.43802,0\C,36,1.39823,35,104.34,34,146.646,0\C,37,1.38087,36,118.176,35,-142.444,0\C,38,1.39092,37,120.324,36,5.05686,0\C,39,1.37784,38,110.876,37,142.08,0\C,37,1.39321,36,113.158,35,3.57503,0\C,41,1.3861,37,122.104,36,-142.763,0\C,42,1.35612,41,120.936,37,132.825,0\C,42,1.37933,41,119.57,37,2.09594,0\C,43,1.38517,42,113.926,41,-143.693,0\C,38,1.39376,37,120.53,36,140.917,0\C,40,1.3959,39,122.808,38,-139.971,0\C,47,1.37927,40,118.188,39,-2.48807,0\C,43,1.39998,42,116.376,41,5.12947,0\C,49,1.38974,43,125.345,42,-3.1496,0\C,50,1.39615,49,108.594,43,-141.842,0\C,51,1.3987,50,109.307,49,-2.98018,0\C,41,1.40207,37,103.973,36,0.626266,0\C,40,1.40571,39,107.265,38,-2.60932,0\C,54,1.4026,40,125.177,39,-139.556,0\C,55,1.34018,54,125.581,40,140.402,0\C,56,1.3782,55,118.8,54,-3.06526,0\C,39,1.40831,38,121.061,37,-4.24755,0\C,58,1.3973,39,119.594,38,137.481,0\C,58,1.40272,39,120.816,38,2.4757,0\C,45,1.40994,43,119.853,42,140.114,0\C,61,1.37824,45,120.629,43,10.5751,0\C,61,1.39265,45,121.371,43,-133.883,0\C,63,1.35698,61,108.188,45,145.061,0\C,64,1.40259,63,108.566,61,3.09322,0\C,49,1.41003,43,118.626,42,-145.277,0\C,55,1.41489,54,119.358,40,-3.96576,0\C,67,1.40937,55,109.91,54,145.368,0\C,68,1.40624,67,105.404,55,2.35934,0\C,67,1.41561,55,117.467,54,6.74185,0\C,70,1.40237,67,122.365,55,137.359,0\C,71,1.3759,70,107.489,67,-146.294,0\C,71,1.38206,70,120.317,67,-2.29813,0\C,73,1.38342,71,118.99,70,-1.19493,0\C,72,1.39744,71,122.268,70,139.507,0\C,74,1.39937,73,107.57,71,-141.062,0\C,76,1.40851,74,109.595,73,2.21763,0\C,77,1.40591,76,106.475,74,-2.6816,0\C,78,1.40593,77,118.413,76,144.387,0\C,79,1.39872,78,121.346,77,1.01598,0\C,80,1.39491,79,118.143,78,-5.98015,0\C,81,1.37505,80,122.249,79,8.32679,0\C,82,1.40212,81,108.419,80,-147.418,0\C,83,1.37232,82,109.025,81,-1.51158,0\C,81,1.42783,80,122.311,79,-140.145,0\C,85,1.39778,81,123.905,80,7.42444,0\C,86,1.39034,85,121.153,81,128.892,0\C,33,1.51469,32,116.882,31,1.454,0\C,39,3.03339,38,97.0039,37,-97.6818,0\C,89,1.38511,39,100.421,38,54.1631,0\C,90,1.4057,89,108.407,39,-104.259,0\C,91,1.39519,90,120.918,89,-144.818,0\C,92,1.39187,91,119.785,90,140.953,0\C,89,1.40693,39,101.258,38,-54.996,0\C,94,1.3904,89,111.754,39,102.451,0\C,95,1.37422,94,124.901,89,146.995,0\C,96,1.40627,95,119.338,94,-130.842,0\C,94,1.40929,89,121.636,39,-111.652,0\C,98,1.38499,94,120.338,89,-1.81276,0\C,98,1.38585,94,121.396,89,-141.642,0\C,99,1.38721,98,109.016,94,-145.249,0\C,101,1.39914,99,107.996,98,0.51736,0\C,89,1.41931,39,106.05,38,-179.199,0\C,103,1.3938,89,117.729,39,-113.058,0\C,104,1.3969,103,107.369,89,-141.715,0\C,105,1.37696,104,122.262,103,147.003,0\C,106,1.39744,105,121.094,104,-146.976,0\C,107,1.39927,106,103.699,105,139.771,0\C,108,1.39019,107,120.172,106,-133.579,0\C,109,1.37837,108,121.855,107,-1.98595,0\C,110,1.37838,109,119.953,108,4.30874,0\C,106,1.40258,105,116.533,104,-3.41221,0\C,112,1.40429,106,106.837,105,-141.905,0\C,111,1.40637,110,118.71,109,133.437,0\C,114,1.3921,111,108.163,110,-142.617,0\C,115,1.40294,114,107.663,111,2.35198,0\C,116,1.37057,115,117.128,114,138.807,0\C,116,1.40511,115,110.06,114,-2.8981,0\C,117,1.40969,116,120.137,115,3.54205,0\C,104,1.41366,103,122.203,89,2.44356,0\C,120,1.36697,104,120.108,103,-142.084,0\C,120,1.38192,104,119.474,103,0.0416094,0\C,114,1.41499,111,120.607,110,7.75871,0\C,123,1.38404,114,121.669,111,-2.13071,0\C,123,1.40298,114,117.819,111,-147.77,0\C,125,1.39417,123,103.406,114,136.574,0\C,126,1.4017,125,110.555,123,8.29861,0\C,126,1.40464,125,124.664,123,-144.77,0\C,128,1.3745,126,118.217,125,145.261,0\C,128,1.40168,126,117.612,125,10.1702,0\C,129,1.41505,128,122.636,126,0.222325,0\C,131,1.36146,129,119.877,128,8.18856,0\C,131,1.41195,129,124.601,128,-141.414,0\C,92,1.42478,91,118.905,90,6.06101,0\C,134,1.37928,92,108.159,91,142.342,0\C,135,1.37166,134,118.799,92,-148.599,0\C,135,1.40861,134,109.554,92,-1.35617,0\C,134,1.42625,92,121.135,91,-11.1747,0\C,138,1.37283,134,116.403,92,143.236,0\C,110,1.42674,109,109.682,108,149.949,0\C,132,1.42755,131,108.698,129,-149.164,0\C,136,1.4293,135,119.546,134,2.56358,0\C,142,1.42145,136,106.742,135,140.137,0\C,143,1.38458,142,112.691,136,1.08538,0\C,144,1.39368,143,118.917,142,-131.701,0\C,145,1.4026,144,125.412,143,137.453,0\C,133,1.46966,131,109.893,129,152.413,0\C,147,1.46933,133,118.951,131,-137.833,0\C,148,1.49335,147,61.3934,133,-117.111,0\C,149,1.5201,148,116.992,147,109.827,0\C,150,1.37879,149,117.66,148,51.7783,0\H,151,1.08614,150,117.595,149,16.9864,0\C,151,1.39487,150,124.041,149,-171.355,0\H,153,1.08656,151,121.531,150,176.768,0\C,150,1.42388,149,123.471,148,-116.736,0\H,155,1.08536,150,123.183,149,-9.83372,0\C,155,1.35034,150,120.716,149,170.926,0\H,157,1.08597,155,119.53,150,-173.108,0\C,157,1.41477,155,120.7,150,-2.0594,0\H,159,1.0857,157,117.873,155,178.696,0\C,149,1.53601,148,120.224,147,-109.67,0\H,161,1.09688,149,105.362,148,22.3237,0\H,161,1.09695,149,112.112,148,-92.7631,0\C,161,1.53958,149,115.473,148,139.117,0\H,164,1.09611,161,114.277,149,48.6216,0\H,164,1.09694,161,111.042,149,-67.5645,0\C,164,1.56427,161,109.88,149,178.607,0\H,167,1.09691,164,113.592,161,49.9056,0\H,167,1.09694,164,108.183,161,-69.2395,0\C,167,1.50805,164,118.636,161,174.412,0\O,170,1.19154,167,120.007,164,-96.3101,0\O,170,1.3468,167,118.158,164,82.1719,0\C,172,1.46501,170,116.589,167,174.315,0\H,173,1.09671,172,119.596,170,58.2727,0\H,173,1.09734,172,114.221,170,-172.643,0\H,173,1.09796,172,110.98,170,-59.8287,0\\\@

 Total job time:  854.86s(wall), 7230.09s(cpu) 
 Sat Oct  6 07:27:27 2018

        *************************************************************
        *                                                           *
        *  Thank you very much for using Q-Chem.  Have a nice day.  *
        *                                                           *
        *************************************************************


