
Running Job 1 of 1 ./7/26.qcin
qchem ./7/26.qcin_137515.0 /tmpu/cab_g/afmv_a/scratch_qchem/qchem137515/ 1
/tmpu/appuserlic/qchem4.4/serial-multicore/exe/qcprog.exe_s ./7/26.qcin_137515.0 /tmpu/cab_g/afmv_a/scratch_qchem/qchem137515/
Check license passed

                  Welcome to Q-Chem
     A Quantum Leap Into The Future Of Chemistry


 Q-Chem 4.4, Q-Chem, Inc., Pleasanton, CA (2016)

 Y. Shao,  Z. Gan,  E. Epifanovsky,  A. T. B. Gilbert,  M. Wormit,  
 J. Kussmann,  A. W. Lange,  A. Behn,  J. Deng,  X. Feng,  D. Ghosh,  
 M. Goldey,  P. R. Horn,  L. D. Jacobson,  I. Kaliman,  F. Rob,  
 R. Z. Khaliullin,  T. Kus,  A. Landau,  J. Liu,  E. I. Proynov,  Y. M. Rhee,  
 R. M. Richard,  M. A. Rohrdanz,  R. P. Steele,  E. J. Sundstrom,  
 H. L. Woodcock III,  P. M. Zimmerman,  D. Zuev,  B. Albrecht,  E. Alguire,  
 B. Austin,  S. A. Baeppler,  G. J. O. Beran,  Y. A. Bernard,  E. Berquist,  
 K. Brandhorst,  K. B. Bravaya,  S. T. Brown,  D. Casanova,  C.-M. Chang,  
 Y. Chen,  S. H. Chien,  K. D. Closser,  M. P. Coons,  D. L. Crittenden,  
 S. Dasgupta,  M. Diedenhofen,  R. A. DiStasio Jr.,  H. Do,  A. D. Dutoi,  
 R. G. Edgar,  P.-T. Fang,  S. Fatehi,  Q. Feng,  L. Fusti-Molnar,  
 A. Ghysels,  A. Golubeva-Zadorozhnaya,  J. Gomes,  A. Gunina,  
 M. W. D. Hanson-Heine,  P. H. P. Harbach,  A. W. Hauser,  J. E. Herr,  
 E. G. Hohenstein,  Z. C. Holden,  K. Hui,  T.-C. Jagau,  H. Ji,  B. Kaduk,  
 K. Khistyaev,  Jaehoon Kim,  Jihan Kim,  R. A. King,  P. Klunzinger,  
 K. Koh,  D. Kosenkov,  T. Kowalczyk,  C. M. Krauter,  A. Kunitsa,  
 K. U. Lao,  A. Laurent,  K. V. Lawler,  J. Lee,  D. Lefrancois,  S. Lehtola,  
 S. V. Levchenko,  C. Y. Lin,  Y.-S. Lin,  F. Liu,  E. Livshits,  
 R. C. Lochan,  A. Luenser,  P. Manohar,  S. F. Manzer,  S.-P. Mao,  Y. Mao,  
 N. Mardirossian,  A. V. Marenich,  L. A. Martinez-Martinez,  S. A. Maurer,  
 N. J. Mayhall,  J.-M. Mewes,  A. F. Morrison,  K. Nanda,  T. S. Nguyen-Beck,  
 C. M. Oana,  R. Olivares-Amaya,  D. P. O'Neill,  J. A. Parkhill,  
 T. M. Perrine,  R. Peverati,  P. A. Pieniazek,  F. Plasser,  A. Prociuk,  
 D. R. Rehn,  E. Rosta,  N. J. Russ,  N. Sergueev,  S. M. Sharada,  
 S. Sharma,  D. W. Small,  A. Sodt,  T. Stauch,  T. Stein,  D. Stuck,  
 Y.-C. Su,  A. J. W. Thom,  T. Tsuchimochi,  L. Vogt,  O. Vydrov,  T. Wang,  
 M. A. Watson,  J. Wenzel,  A. White,  C. F. Williams,  V. Vanovschi,  
 K. Yao,  S. Yeganeh,  S. R. Yost,  Z.-Q. You,  I. Y. Zhang,  X. Zhang,  
 Y. Zhao,  B. R. Brooks,  G. K. L. Chan,  D. M. Chipman,  C. J. Cramer,  
 W. A. Goddard III,  M. S. Gordon,  W. J. Hehre,  A. Klamt,  
 H. F. Schaefer III,  M. W. Schmidt,  C. D. Sherrill,  D. G. Truhlar,  
 A. Warshel,  X. Xu,  A. Aspuru-Guzik,  R. Baer,  A. T. Bell,  N. A. Besley,  
 J.-D. Chai,  A. Dreuw,  B. D. Dunietz,  T. R. Furlani,  S. R. Gwaltney,  
 C.-P. Hsu,  Y. Jung,  J. Kong,  D. S. Lambrecht,  W. Liang,  C. Ochsenfeld,  
 V. A. Rassolov,  L. V. Slipchenko,  J. E. Subotnik,  T. Van Voorhis,  
 J. M. Herbert,  A. I. Krylov,  P. M. W. Gill,  M. Head-Gordon

 Contributors to earlier versions of Q-Chem not listed above: 
 R. D. Adamson,  J. Baker,  E. F. C. Byrd,  A. K. Chakraborty,  C.-L. Cheng,  
 H. Dachsel,  R. J. Doerksen,  G. Hawkins,  A. Heyden,  S. Hirata,  
 G. Kedziora,  F. J. Keil,  C. Kelley,  P. P. Korambath,  W. Kurlancheek,  
 A. M. Lee,  M. S. Lee,  D. Liotard,  I. Lotan,  P. E. Maslen,  N. Nair,  
 D. Neuhauser,  R. Olson,  B. Peters,  J. Ritchie,  N. E. Schultz,  
 N. Shenvi,  A. C. Simmonett,  K. S. Thanthiriwatte,  Q. Wu,  W. Zhang

 Please cite Q-Chem as follows:
 Y. Shao et al., Mol. Phys. 113, 184-215 (2015)
 DOI: 10.1080/00268976.2014.952696

 Q-Chem 4.4.2 for Intel X86 Linux

 Parts of Q-Chem use Armadillo 5.200.1 (Boston Tea Smuggler).
 http://arma.sourceforge.net/

 Q-Chem begins on Sat Oct  6 07:27:27 2018  

Host: 
0

     Scratch files written to /tmpu/cab_g/afmv_a/scratch_qchem/qchem137515//
 Dec716 11556_ 22328  22283 4050   
Processing $rem in /tmpu/appuserlic/qchem4.4/serial-multicore/config/preferences.
 MEM_TOTAL  2000 
FILE_GEOM_ORG=        593

Checking the input file for inconsistencies... 	...done.

--------------------------------------------------------------
User input:
--------------------------------------------------------------
$comment
SP
$end

$rem
MEM_STATIC 5000
MEM_TOTAL 20000
JOBTYPE SP
EXCHANGE B3LYP
BASIS 6-31g(d,p)
$end

$molecule
0 1
O          18.732000    -10.818000     -8.901000
C          20.125000    -10.604000     -9.377000
H          20.829000    -11.239000     -8.825000
H          20.406000     -9.574000     -9.126000
H          20.143000    -10.734000    -10.466000
O          18.787000    -13.087000     -9.279000
C          18.220000    -12.071000     -8.877000
C          16.760000    -12.004000     -8.342000
H          16.201000    -11.438000     -9.097000
H          16.696000    -11.550000     -7.345000
C          16.021000    -13.367000     -8.163000
H          16.831000    -14.016000     -7.806000
H          15.322000    -13.381000     -7.318000
C          15.437000    -13.941000     -9.421000
H          14.444000    -13.510000     -9.599000
H          15.996000    -13.768000    -10.349000
C          15.187000    -15.428000     -9.179000
C          13.892000    -15.664000     -8.384000
C          12.657000    -15.584000     -9.047000
H          12.636000    -15.409000    -10.118000
C          11.497000    -15.775000     -8.317000
H          10.600000    -15.742000     -8.930000
C          11.605000    -16.179000     -7.015000
H          10.706000    -16.461000     -6.475000
C          12.834000    -16.327000     -6.340000
H          12.924000    -16.507000     -5.273000
C          13.996000    -16.042000     -7.021000
H          14.962000    -16.145000     -6.535000
C          17.292000    -20.287000     -7.712000
C          15.407000    -20.888000     -9.119000
C          17.930000    -22.340000    -12.722000
C          20.288000    -17.078000    -10.146000
C          17.548000    -19.343000    -14.340000
C          15.960000    -20.049000     -8.196000
C          20.259000    -17.626000    -12.870000
C          18.194000    -22.636000    -10.309000
C          14.623000    -18.061000    -11.925000
C          19.525000    -16.256000    -11.002000
C          15.381000    -16.445000    -10.298000
C          15.491000    -17.196000    -12.627000
C          18.175000    -16.341000    -12.790000
C          19.768000    -18.422000    -13.926000
C          14.731000    -18.773000     -9.635000
C          19.256000    -20.812000    -13.770000
C          16.292000    -16.419000     -9.120000
C          17.702000    -16.174000     -9.359000
C          17.975000    -20.614000    -14.186000
C          20.962000    -20.534000    -10.119000
C          19.989000    -21.841000    -11.675000
C          19.551000    -22.241000    -10.391000
C          17.454000    -22.171000     -9.268000
C          18.514000    -16.961000     -8.490000
C          14.637000    -17.720000    -10.565000
C          16.120000    -22.022000     -9.659000
C          19.430000    -16.595000    -12.357000
C          14.635000    -20.113000    -10.026000
C          16.316000    -17.580000    -13.653000
C          20.256000    -18.726000     -8.569000
C          17.393000    -22.683000    -11.452000
C          16.063000    -16.262000    -11.655000
C          19.354000    -20.995000     -8.372000
C          17.624000    -17.159000    -13.748000
C          14.588000    -19.381000    -12.351000
C          20.946000    -19.719000    -12.451000
C          21.048000    -18.420000    -12.010000
C          15.392000    -19.779000    -13.459000
C          19.790000    -17.424000     -8.858000
C          18.226000    -15.850000    -10.610000
C          21.005000    -19.146000     -9.670000
C          16.383000    -17.616000     -8.239000
C          15.256000    -21.581000    -11.897000
C          17.416000    -15.875000    -11.729000
C          16.226000    -18.926000    -14.093000
C          19.442000    -19.638000     -7.880000
C          17.165000    -21.488000    -13.491000
C          18.035000    -21.370000     -8.262000
C          19.240000    -21.845000    -12.830000
C          14.579000    -20.451000    -11.392000
C          15.839000    -21.063000    -13.048000
C          15.565000    -18.740000     -8.524000
C          17.728000    -17.863000     -7.830000
C          20.868000    -20.737000    -11.498000
C          16.058000    -22.325000    -11.021000
C          18.370000    -18.219000    -14.231000
C          21.088000    -18.137000    -10.618000
C          20.169000    -19.733000    -13.580000
C          18.177000    -19.218000     -7.512000
C          20.119000    -21.423000     -9.440000
O          13.432000     -9.584000     -5.572000
C          12.036000     -9.482000     -5.281000
H          11.831000     -8.625000     -4.628000
H          11.702000    -10.414000     -4.808000
H          11.474000     -9.250000     -6.194000
O          13.720000     -7.337000     -5.831000
C          14.174000     -8.454000     -5.899000
C          15.608000     -8.680000     -6.445000
H          15.909000     -7.922000     -7.179000
H          15.500000     -9.631000     -6.980000
C          16.567000     -8.873000     -5.276000
H          16.471000     -7.959000     -4.677000
H          16.343000     -9.694000     -4.584000
C          17.954000     -9.036000     -5.752000
H          18.060000     -9.757000     -6.572000
H          18.143000     -8.086000     -6.267000
C          19.074000     -9.233000     -4.712000
C          19.447000     -7.893000     -4.099000
C          18.586000     -7.424000     -3.093000
H          17.703000     -8.015000     -2.868000
C          18.833000     -6.264000     -2.431000
H          18.174000     -5.916000     -1.641000
C          20.003000     -5.547000     -2.848000
H          20.279000     -4.630000     -2.335000
C          20.767000     -5.927000     -3.875000
H          21.628000     -5.310000     -4.114000
C          20.497000     -7.109000     -4.515000
H          21.136000     -7.571000     -5.262000
C          23.933000    -11.168000     -3.303000
C          22.660000    -11.365000     -1.205000
C          22.326000    -15.829000     -1.202000
C          21.520000    -13.567000     -7.059000
C          19.056000    -15.773000     -2.510000
C          22.934000    -10.726000     -2.390000
C          20.057000    -15.678000     -5.932000
C          24.241000    -14.442000     -1.715000
C          18.730000    -11.816000     -1.908000
C          20.162000    -13.404000     -6.729000
C          19.078000    -10.498000     -3.961000
C          18.028000    -12.466000     -3.019000
C          18.537000    -13.949000     -5.376000
C          19.800000    -16.357000     -4.728000
C          20.742000    -10.515000     -2.010000
C          21.210000    -16.913000     -2.775000
C          20.221000    -10.164000     -4.847000
C          20.532000    -11.148000     -5.969000
C          20.224000    -16.373000     -1.975000
C          24.104000    -15.188000     -5.230000
C          23.560000    -16.216000     -3.233000
C          24.414000    -15.151000     -2.970000
C          24.270000    -13.067000     -1.788000
C          21.925000    -11.283000     -6.218000
C          19.433000    -10.703000     -2.506000
C          23.340000    -12.536000     -0.876000
C          19.448000    -14.448000     -6.271000
C          21.261000    -11.207000     -0.943000
C          18.064000    -13.843000     -3.002000
C          23.572000    -13.063000     -6.267000
C          23.168000    -14.770000     -0.856000
C          18.283000    -11.722000     -4.229000
C          24.768000    -13.069000     -4.162000
C          18.141000    -14.642000     -4.205000
C          19.307000    -12.625000     -0.875000
C          22.043000    -16.422000     -5.082000
C          21.431000    -15.811000     -6.177000
C          19.232000    -14.038000     -0.921000
C          22.417000    -12.509000     -6.779000
C          19.724000    -12.215000     -6.221000
C          23.496000    -14.454000     -6.278000
C          21.535000    -10.019000     -4.309000
C          21.245000    -13.485000     -0.075000
C          18.670000    -12.550000     -5.332000
C          18.563000    -14.604000     -1.988000
C          24.197000    -12.376000     -5.208000
C          20.932000    -15.728000     -0.960000
C          24.575000    -12.367000     -2.982000
C          22.491000    -16.610000     -2.355000
C          20.553000    -12.289000     -0.373000
C          20.392000    -14.592000     -0.324000
C          21.768000    -10.194000     -2.901000
C          22.522000    -10.575000     -5.172000
C          23.364000    -16.219000     -4.638000
C          22.650000    -13.584000     -0.302000
C          18.807000    -15.772000     -3.872000
C          22.169000    -14.789000     -6.764000
C          20.981000    -16.828000     -4.190000
C          23.695000    -11.130000     -4.665000
C          24.778000    -14.533000     -4.198000
$end

--------------------------------------------------------------
 ----------------------------------------------------------------
             Standard Nuclear Orientation (Angstroms)
    I     Atom           X                Y                Z
 ----------------------------------------------------------------
    1      O       1.8365192388     2.8621029840    -3.2439463185
    2      C       2.0414224723     1.9617976669    -4.4102593130
    3      H       2.1512768332     0.9196657991    -4.0855468411
    4      H       3.0029341538     2.2256227700    -4.8671549260
    5      H       1.2327793856     2.1376888198    -5.1301924076
    6      O       0.0140270370     1.6930819298    -2.4653694442
    7      C       0.8400208283     2.6003641603    -2.3657591483
    8      C       0.8528719102     3.6912964057    -1.2557971284
    9      H       0.5987166438     4.6274952313    -1.7674599661
   10      H       1.8147384981     3.7481006788    -0.7306238792
   11      C      -0.1781649892     3.5175570250    -0.0970441177
   12      H      -0.1792411092     2.4286225977     0.0406898827
   13      H       0.1864811670     3.8745621832     0.8737300567
   14      C      -1.5697370690     3.9838224201    -0.4120357493
   15      H      -1.6510600895     5.0615587460    -0.2239799645
   16      H      -1.9155886982     3.8451835067    -1.4439077871
   17      C      -2.5153904879     3.3324858469     0.5948074757
   18      C      -2.4979099855     4.0654353877     1.9465564920
   19      C      -3.2108992726     5.2671438654     2.0834396943
   20      H      -3.8047526534     5.6336176821     1.2520901266
   21      C      -3.1691192737     5.9303364834     3.2972811102
   22      H      -3.7917453966     6.8211089696     3.3153943343
   23      C      -2.5589220278     5.3156146518     4.3555156735
   24      H      -2.6372945349     5.7640134103     5.3414777942
   25      C      -1.8871105551     4.0794967489     4.2625002162
   26      H      -1.2810243492     3.6554005319     5.0573529760
   27      C      -1.8301273714     3.4533057862     3.0378093184
   28      H      -1.3223227474     2.4994868168     2.9267920345
   29      C      -4.3783448139    -1.3245598804     2.8385367983
   30      C      -6.2342585056     0.2168491268     3.1100467276
   31      C      -8.9678330878    -1.7440674631    -0.0739473257
   32      C      -2.9515970570    -1.4525377965    -1.9724990040
   33      C      -8.0478306612     0.5562954940    -2.4420230847
   34      C      -4.8879461394    -0.0024271601     3.0781105011
   35      C      -5.1498221820    -1.0718856315    -3.6290711362
   36      C      -7.5034208993    -2.6926797393     1.6393864690
   37      C      -6.3284446052     3.0355976922     0.1901141079
   38      C      -3.1481349211    -0.1898939071    -2.5705728095
   39      C      -3.9171844933     2.8980882504     0.1820626459
   40      C      -5.9582208243     2.9631177378    -1.1708171939
   41      C      -4.7535560187     1.2853163928    -3.0931114879
   42      C      -6.5377994362    -0.8480559928    -3.7441903554
   43      C      -5.2780443349     2.0200340394     2.0948444666
   44      C      -8.2416348901    -1.7500244557    -2.2335687490
   45      C      -2.8747024125     1.8926286655     0.5292846707
   46      C      -2.4863475791     0.9385474098    -0.4925545930
   47      C      -8.7204966811    -0.5068637257    -1.9534548713
   48      C      -5.1703381171    -3.8552408243    -0.6674521589
   49      C      -7.3757352297    -3.3950768406    -0.6432305996
   50      C      -6.9201460063    -3.5610126089     0.6854543820
   51      C      -6.6847651304    -2.0928280265     2.5435361550
   52      C      -2.2436601794    -0.3481611545     0.0725630024
   53      C      -5.1839500584     2.8820235333     0.9854908803
   54      C      -7.1954170579    -0.8389320711     2.8922732223
   55      C      -4.3094931631     0.0291796399    -3.3210558637
   56      C      -6.4998919967     1.4738020796     2.5027855624
   57      C      -6.6876488764     2.3341846754    -2.1471034839
   58      C      -3.0659619782    -2.6855016356    -0.0566237899
   59      C      -8.5080569388    -1.7959386250     1.2694935087
   60      C      -4.5079171146     2.7676057924    -1.2229538302
   61      C      -4.7618994985    -3.2165214664     1.6293737981
   62      C      -6.1078761524     1.5225735247    -3.0969881762
   63      C      -7.5432807952     2.4590119314     0.5319077471
   64      C      -6.1520842187    -2.8490391425    -2.6988156831
   65      C      -4.9241277384    -2.3415587591    -3.0550074053
   66      C      -8.3424983830     1.8591800521    -0.4849191625
   67      C      -2.4715852197    -1.5419098735    -0.6352386450
   68      C      -2.9502642191     0.9862412413    -1.8067310079
   69      C      -3.8905688123    -3.2542245240    -1.0293415524
   70      C      -3.1027831426     0.9676796047     1.6737056664
   71      C      -8.6021898835     0.6316091721     1.5476098186
   72      C      -3.9259929774     1.8963201307    -2.1653335808
   73      C      -7.9446043458     1.7915816025    -1.7741948447
   74      C      -3.4632843852    -2.6788275519     1.2891664469
   75      C      -9.0862052280    -0.4845194370    -0.6235078831
   76      C      -5.3024899691    -2.3749542060     2.5738379262
   77      C      -8.3444168784    -2.5145775746    -1.0691635826
   78      C      -7.6574594802     1.6644418301     1.7236642583
   79      C      -8.8484056131     0.7114821947     0.1815892789
   80      C      -4.2956365577     1.0967047946     2.4314511583
   81      C      -2.6457731249    -0.3518921903     1.3784310120
   82      C      -6.2522712751    -3.5584366958    -1.4999267537
   83      C      -8.3274592229    -0.6256489935     2.1025341100
   84      C      -6.9706874632     0.4660613457    -3.3266480500
   85      C      -3.7920244282    -2.5548900915    -2.2230309408
   86      C      -7.1179658267    -1.9574183081    -3.0869535542
   87      C      -3.2624916979    -1.5170111032     2.0116024900
   88      C      -5.5659413437    -3.8103707020     0.6754907883
   89      O       3.4960537832     7.0215534803     1.2991708563
   90      C       3.3885312884     8.1376444826     2.1861211299
   91      H       4.3663421494     8.6065843916     2.3500243999
   92      H       2.9617886144     7.7963201247     3.1375922922
   93      H       2.7952320897     8.9351960577     1.7222843635
   94      O       4.9718956527     8.0530385975    -0.0997441623
   95      C       4.2667930745     7.1034680023     0.1443358222
   96      C       4.1285539509     5.9511043689    -0.8844965263
   97      H       4.2516818191     6.2883420981    -1.9213336601
   98      H       3.0799297914     5.6572394224    -0.7567437759
   99      C       5.0247413329     4.7916624355    -0.4649329682
  100      H       6.0356130860     5.2157068705    -0.4232482476
  101      H       4.8502146683     4.3683451072     0.5317735498
  102      C       4.9644713799     3.6943868234    -1.4494469416
  103      H       3.9445638931     3.4183439656    -1.7445165249
  104      H       5.3373016459     4.1728507899    -2.3635124893
  105      C       5.8151633273     2.4331754122    -1.2035242163
  106      C       7.2581042695     2.7019765590    -1.5987018737
  107      C       8.0240981208     3.4103573300    -0.6580807475
  108      H       7.5249525765     3.7555940435     0.2426191676
  109      C       9.3401377808     3.6731712582    -0.8674164888
  110      H       9.9320356543     4.2047058373    -0.1280837501
  111      C       9.8764433253     3.2087276450    -2.1138299407
  112      H      10.9314572485     3.3535378253    -2.3287942019
  113      C       9.1328971200     2.6315944440    -3.0608681178
  114      H       9.6350701513     2.3214440168    -3.9723284621
  115      C       7.8099459237     2.3703822262    -2.8134973244
  116      H       7.1615486195     1.7837504959    -3.4578715549
  117      C       6.6917049246    -2.8757956993    -1.8247227078
  118      C       7.6068524003    -2.4509681825     0.4209328043
  119      C       4.3989126417    -4.5709452580     2.7130237066
  120      C       1.8795167199    -1.3082238384    -2.0909352989
  121      C       2.6990362634    -1.5793786833     3.4665817517
  122      C       7.3403516257    -2.0478580513    -0.8651859924
  123      C       0.7616393995    -1.5222574577     0.4725308909
  124      C       5.5384219545    -5.2573376232     0.6919974705
  125      C       5.7780978516     0.6593901690     2.1883709857
  126      C       1.8506417627    -0.1995756084    -1.2250840767
  127      C       5.4301084221     1.5733515896    -0.0736225772
  128      C       4.3994889864     1.1454606711     2.0752424582
  129      C       1.9344051285     0.5020396964     0.8410666106
  130      C       1.0173101975    -1.9650922293     1.7822010051
  131      C       7.1560216409    -0.2497820440     0.4488650450
  132      C       2.3000465458    -3.8714833059     2.6941799105
  133      C       5.3802701283     1.0377436686    -1.4569668219
  134      C       4.0307274908     0.5269410341    -1.9485726988
  135      C       2.9456966429    -2.9746260454     3.5203633080
  136      C       2.6481671376    -4.7062863116    -1.3751937508
  137      C       3.1095334045    -5.2928283746     0.8120050459
  138      C       4.2561316174    -5.4773515922     0.0478233133
  139      C       6.4590260788    -4.5272767023    -0.0265386095
  140      C       4.1422461889    -0.6144167066    -2.7885376312
  141      C       6.3467533988     0.8285189057     0.8698080031
  142      C       7.1876149954    -3.7073539340     0.8540804026
  143      C       1.2344062382    -0.2894183952    -0.0327426609
  144      C       7.5184408682    -1.2955407980     1.2623482546
  145      C       3.4576474846     0.3750425120     2.7210786956
  146      C       3.3040530605    -2.8899871476    -2.8397377081
  147      C       5.5931895123    -4.7687805094     2.0168017810
  148      C       4.1847482816     1.6261471449     0.7315579924
  149      C       5.0151543158    -4.3648558689    -1.9688922861
  150      C       2.1213611017     0.1722026783     2.2065559022
  151      C       6.0516110201    -0.4878752389     3.0029086647
  152      C       1.3345522588    -3.7325327255     0.3907623370
  153      C       0.8721485189    -2.6481067509    -0.3556243503
  154      C       5.0132282668    -1.1725935118     3.6790980940
  155      C       3.0439562259    -1.5353912298    -2.8621995941
  156      C       2.9022845008     0.6704993105    -1.1996638663
  157      C       2.3040073856    -3.5704758838    -2.1486358864
  158      C       6.1886745075    -0.0776588924    -1.8303627067
  159      C       6.4974611749    -2.7094240570     2.9657268372
  160      C       2.9771249263     1.1327514152     0.1398076349
  161      C       3.7313325243    -0.6787957650     3.5401265483
  162      C       4.6535142258    -3.2814487129    -2.7408063873
  163      C       4.2587123724    -3.4453079326     3.5646606574
  164      C       6.2374599852    -4.1144750587    -1.3641350618
  165      C       3.1318300486    -4.8473832512     2.1794707682
  166      C       6.9515485278    -1.4373356884     2.5489776819
  167      C       5.3310546042    -2.5515396030     3.7592173608
  168      C       7.0626067282    -0.6963671691    -0.8707687603
  169      C       5.4903041756    -0.9688466647    -2.6941550627
  170      C       2.1230025547    -4.8001066948    -0.0804254716
  171      C       6.6519427522    -3.8464846355     2.1180336832
  172      C       1.7297125330    -1.0518463188     2.6304196203
  173      C       1.3938055374    -2.5586783869    -1.6415378477
  174      C       1.3596131388    -3.3025264685     1.7701863368
  175      C       5.7511798137    -2.3373666948    -2.6841636440
  176      C       3.9703956786    -5.1481291117    -1.3058278721
 ----------------------------------------------------------------
 Molecular Point Group                 C1    NOp =  1
 Largest Abelian Subgroup              C1    NOp =  1
 Nuclear Repulsion Energy = 35390.5051899692 hartrees
 There are      462 alpha and      462 beta electrons
 Requested basis set is 6-31G(d,p)
 There are 676 shells and 2360 basis functions

 Total QAlloc Memory Limit  20000 MB
 Mega-Array Size      4888 MB
 MEM_STATIC part      5000 MB
 A cutoff of  1.0D-08 yielded  39147 shell pairs
 There are    541755 function pairs
 
 -------------------------------------------------------
 OpenMP Integral Computing Module                       
 Release: version 1.0, May 2013, Q-Chem Inc. Pittsburgh 
 -------------------------------------------------------
 Integral Job Info:
 Integral job number is                      11
 Integral operator is                         1
 short-range coefficients                     0
 long-range coefficients              100000000
 Omega coefficients                           0
 if combine SR and LR in K                    0
 Integral screening is                        0
 Integral computing path is                   2
 max size of driver memory is            800000
 size of driver memory is                593474
 size of scratch memory is              2260544
 max col of scratch BK array               1296
 max len of scratch array in speh3          155
 max len of scratch index in speh4           18
 max int batch size is                      520
 min int batch size is                       52
 fixed nKL is                                52
 max L of basis functions is                  2
 order of int derivative is                   0
 number of shells is                        676
 number of basis is                        2360
 number of cartesian basis is              2360
 number of contracted shell pairs         39147
 number of primitive shell pairs         117237
 maxK2 (contraction) of shell pair           36
 max number of K2 of shell pair               1
 max number of CS2 of shell pair           7339
 max number of PS2 of shell pair          35208
 mem total for path MDJ                 1532744
 -------------------------------------------------------
 Smallest overlap matrix eigenvalue = 2.35E-04

 Scale SEOQF with 1.000000e-02/1.000000e-02/1.000000e-02

 Standard Electronic Orientation quadrupole field applied
 Nucleus-field energy     =     0.0000001107 hartrees
 Guess from superposition of atomic densities
 Warning:  Energy on first SCF cycle will be non-variational
 A restricted hybrid HF-DFT SCF calculation will be
 performed using Pulay DIIS extrapolation
 Exchange:     0.2000 Hartree-Fock + 0.0800 Slater + 0.7200 B88
 Correlation:  0.1900 VWN1RPA + 0.8100 LYP
 Using SG-1 standard quadrature grid
 SCF converges when DIIS error is below 1.0E-05
 using 16 threads for integral computing 
 -------------------------------------------------------
 OpenMP BLAS3 based DFT computing Module                
 Release: version 1.0, May 2013, Q-Chem Inc. Pittsburgh 
 -------------------------------------------------------
 ---------------------------------------
  Cycle       Energy         DIIS Error
 ---------------------------------------
    1   -5859.2581033486      1.84E-02
    2   -5803.0294567025      1.32E-03
    3   -5802.0234674680      1.90E-03
    4   -5803.8411416468      7.30E-04
    5   -5804.1440826452      3.20E-04
    6   -5804.2083129592      1.47E-04
    7   -5804.2225447249      5.58E-05
    8   -5804.2240164331      3.60E-05
    9   -5804.2249956975      1.02E-05
   10   -5804.2249825100      3.04E-06 Convergence criterion met
 ---------------------------------------
 SCF time:  CPU 7994.20 s  wall 925.47 s
 SCF   energy in the final basis set = -5804.2249825100
 Total energy in the final basis set = -5804.2249825100
 
 --------------------------------------------------------------
 
                    Orbital Energies (a.u.)
 --------------------------------------------------------------
 
 Alpha MOs
 -- Occupied --
-19.207 -19.192 -19.148 -19.140 -10.330 -10.323 -10.258 -10.248
-10.244 -10.240 -10.239 -10.234 -10.234 -10.233 -10.233 -10.231
-10.229 -10.228 -10.228 -10.227 -10.226 -10.226 -10.224 -10.223
-10.223 -10.221 -10.221 -10.221 -10.221 -10.220 -10.220 -10.219
-10.219 -10.219 -10.219 -10.218 -10.218 -10.218 -10.218 -10.217
-10.217 -10.217 -10.217 -10.217 -10.216 -10.216 -10.216 -10.216
-10.216 -10.216 -10.215 -10.215 -10.215 -10.215 -10.215 -10.215
-10.215 -10.214 -10.214 -10.214 -10.214 -10.214 -10.214 -10.214
-10.214 -10.214 -10.214 -10.214 -10.213 -10.213 -10.213 -10.212
-10.212 -10.212 -10.212 -10.212 -10.212 -10.212 -10.212 -10.212
-10.211 -10.211 -10.211 -10.211 -10.211 -10.211 -10.211 -10.211
-10.210 -10.210 -10.209 -10.209 -10.209 -10.209 -10.209 -10.209
-10.209 -10.209 -10.209 -10.208 -10.208 -10.208 -10.207 -10.207
-10.207 -10.207 -10.207 -10.207 -10.207 -10.207 -10.206 -10.206
-10.206 -10.206 -10.206 -10.206 -10.206 -10.206 -10.206 -10.205
-10.205 -10.205 -10.204 -10.204 -10.203 -10.203 -10.203 -10.202
-10.202 -10.202 -10.201 -10.201 -10.201 -10.200 -10.200 -10.200
-10.200 -10.198 -10.198 -10.198 -10.197 -10.197 -10.197 -10.197
-10.195 -10.194 -10.194 -10.193  -1.098  -1.092  -1.016  -1.015
 -0.987  -0.980  -0.971  -0.968  -0.963  -0.963  -0.960  -0.956
 -0.943  -0.934  -0.933  -0.927  -0.925  -0.924  -0.923  -0.922
 -0.919  -0.916  -0.904  -0.896  -0.893  -0.888  -0.884  -0.881
 -0.879  -0.874  -0.865  -0.858  -0.843  -0.841  -0.838  -0.837
 -0.835  -0.830  -0.829  -0.819  -0.816  -0.805  -0.800  -0.797
 -0.795  -0.794  -0.793  -0.792  -0.789  -0.789  -0.786  -0.781
 -0.772  -0.771  -0.768  -0.766  -0.766  -0.765  -0.762  -0.761
 -0.760  -0.760  -0.747  -0.746  -0.737  -0.732  -0.719  -0.716
 -0.714  -0.713  -0.713  -0.711  -0.711  -0.710  -0.710  -0.708
 -0.708  -0.706  -0.706  -0.704  -0.701  -0.697  -0.676  -0.671
 -0.660  -0.658  -0.656  -0.650  -0.650  -0.644  -0.637  -0.629
 -0.628  -0.628  -0.625  -0.624  -0.623  -0.622  -0.619  -0.617
 -0.614  -0.614  -0.612  -0.611  -0.609  -0.608  -0.607  -0.607
 -0.606  -0.604  -0.603  -0.597  -0.573  -0.568  -0.565  -0.565
 -0.564  -0.561  -0.559  -0.558  -0.556  -0.555  -0.552  -0.549
 -0.545  -0.539  -0.535  -0.529  -0.527  -0.525  -0.523  -0.523
 -0.521  -0.520  -0.520  -0.517  -0.516  -0.515  -0.513  -0.511
 -0.508  -0.506  -0.505  -0.500  -0.498  -0.493  -0.489  -0.487
 -0.485  -0.484  -0.482  -0.481  -0.480  -0.478  -0.477  -0.476
 -0.475  -0.472  -0.471  -0.470  -0.469  -0.468  -0.467  -0.466
 -0.465  -0.465  -0.463  -0.462  -0.461  -0.461  -0.460  -0.457
 -0.457  -0.456  -0.455  -0.453  -0.451  -0.449  -0.448  -0.446
 -0.444  -0.442  -0.441  -0.440  -0.438  -0.437  -0.436  -0.435
 -0.433  -0.433  -0.431  -0.430  -0.429  -0.426  -0.426  -0.425
 -0.424  -0.424  -0.423  -0.420  -0.419  -0.418  -0.418  -0.417
 -0.416  -0.415  -0.414  -0.414  -0.413  -0.412  -0.411  -0.411
 -0.409  -0.409  -0.408  -0.405  -0.404  -0.401  -0.399  -0.398
 -0.396  -0.395  -0.393  -0.390  -0.389  -0.387  -0.386  -0.385
 -0.380  -0.378  -0.375  -0.374  -0.374  -0.372  -0.369  -0.368
 -0.367  -0.366  -0.365  -0.363  -0.362  -0.361  -0.360  -0.359
 -0.358  -0.357  -0.356  -0.355  -0.354  -0.354  -0.352  -0.352
 -0.351  -0.349  -0.348  -0.348  -0.347  -0.345  -0.344  -0.343
 -0.343  -0.341  -0.339  -0.336  -0.336  -0.334  -0.334  -0.331
 -0.331  -0.329  -0.328  -0.327  -0.326  -0.325  -0.320  -0.318
 -0.317  -0.312  -0.311  -0.299  -0.288  -0.283  -0.280  -0.272
 -0.271  -0.269  -0.268  -0.267  -0.267  -0.266  -0.265  -0.263
 -0.262  -0.261  -0.259  -0.258  -0.257  -0.254  -0.254  -0.252
 -0.251  -0.246  -0.246  -0.236  -0.221  -0.218  -0.213  -0.211
 -0.207  -0.205  -0.204  -0.202  -0.197  -0.196
 -- Virtual --
 -0.125  -0.121  -0.118  -0.113  -0.111  -0.103  -0.079  -0.076
 -0.072  -0.067  -0.066  -0.058  -0.055  -0.049  -0.027  -0.022
 -0.018  -0.017  -0.017  -0.016  -0.015  -0.013  -0.012  -0.011
 -0.010  -0.008  -0.007  -0.004  -0.004  -0.002   0.001   0.003
  0.011   0.014   0.031   0.036   0.040   0.043   0.047   0.048
  0.053   0.053   0.057   0.060   0.063   0.064   0.070   0.070
  0.074   0.076   0.077   0.079   0.080   0.083   0.085   0.090
  0.091   0.095   0.099   0.099   0.100   0.101   0.104   0.106
  0.109   0.110   0.111   0.112   0.114   0.116   0.119   0.120
  0.123   0.123   0.124   0.126   0.130   0.131   0.132   0.136
  0.141   0.142   0.144   0.147   0.149   0.151   0.153   0.155
  0.157   0.160   0.161   0.162   0.164   0.165   0.167   0.168
  0.171   0.172   0.174   0.175   0.178   0.179   0.180   0.182
  0.183   0.184   0.187   0.188   0.189   0.191   0.193   0.194
  0.196   0.198   0.200   0.201   0.202   0.205   0.206   0.207
  0.211   0.211   0.213   0.215   0.218   0.218   0.220   0.222
  0.225   0.227   0.228   0.229   0.230   0.231   0.232   0.232
  0.233   0.235   0.236   0.236   0.238   0.240   0.241   0.243
  0.244   0.245   0.247   0.249   0.253   0.256   0.260   0.263
  0.266   0.269   0.271   0.274   0.277   0.280   0.282   0.284
  0.287   0.290   0.290   0.294   0.297   0.298   0.299   0.304
  0.309   0.312   0.312   0.317   0.318   0.319   0.320   0.322
  0.323   0.326   0.327   0.328   0.329   0.330   0.332   0.336
  0.338   0.341   0.342   0.343   0.343   0.345   0.349   0.351
  0.352   0.353   0.356   0.360   0.365   0.371   0.388   0.392
  0.395   0.396   0.397   0.401   0.403   0.407   0.410   0.411
  0.415   0.416   0.418   0.420   0.420   0.422   0.424   0.426
  0.429   0.430   0.431   0.435   0.437   0.442   0.444   0.446
  0.450   0.451   0.452   0.454   0.458   0.458   0.461   0.465
  0.466   0.468   0.469   0.471   0.473   0.474   0.476   0.477
  0.480   0.480   0.481   0.482   0.483   0.485   0.485   0.487
  0.490   0.490   0.491   0.492   0.493   0.495   0.496   0.498
  0.499   0.500   0.502   0.502   0.504   0.505   0.505   0.506
  0.507   0.508   0.510   0.510   0.512   0.512   0.513   0.514
  0.514   0.515   0.517   0.518   0.519   0.519   0.521   0.521
  0.522   0.523   0.523   0.524   0.525   0.526   0.527   0.528
  0.529   0.529   0.530   0.530   0.531   0.532   0.533   0.534
  0.534   0.535   0.536   0.537   0.538   0.539   0.539   0.540
  0.541   0.542   0.544   0.544   0.544   0.545   0.546   0.547
  0.547   0.548   0.549   0.551   0.551   0.551   0.552   0.553
  0.554   0.555   0.555   0.557   0.558   0.558   0.559   0.559
  0.561   0.561   0.561   0.562   0.563   0.564   0.564   0.565
  0.566   0.567   0.567   0.569   0.571   0.572   0.572   0.573
  0.574   0.574   0.576   0.577   0.578   0.580   0.581   0.581
  0.583   0.583   0.585   0.586   0.586   0.587   0.588   0.588
  0.589   0.590   0.590   0.591   0.592   0.593   0.594   0.596
  0.596   0.598   0.599   0.599   0.601   0.601   0.602   0.602
  0.605   0.606   0.606   0.607   0.608   0.609   0.610   0.612
  0.613   0.613   0.614   0.615   0.617   0.617   0.619   0.620
  0.621   0.622   0.623   0.624   0.625   0.627   0.627   0.629
  0.630   0.630   0.631   0.632   0.633   0.633   0.635   0.635
  0.636   0.636   0.637   0.638   0.639   0.640   0.641   0.642
  0.642   0.643   0.645   0.647   0.648   0.648   0.649   0.650
  0.651   0.651   0.652   0.653   0.655   0.656   0.657   0.659
  0.659   0.660   0.661   0.662   0.662   0.663   0.665   0.666
  0.666   0.667   0.668   0.669   0.670   0.671   0.672   0.672
  0.673   0.675   0.676   0.676   0.677   0.678   0.679   0.679
  0.680   0.681   0.683   0.685   0.685   0.686   0.688   0.689
  0.690   0.691   0.692   0.694   0.694   0.696   0.698   0.698
  0.700   0.702   0.702   0.703   0.703   0.706   0.706   0.707
  0.708   0.709   0.710   0.711   0.714   0.715   0.716   0.718
  0.718   0.721   0.722   0.723   0.724   0.725   0.726   0.727
  0.729   0.730   0.731   0.731   0.734   0.736   0.737   0.737
  0.738   0.739   0.742   0.743   0.745   0.745   0.747   0.749
  0.751   0.751   0.753   0.754   0.755   0.756   0.758   0.760
  0.760   0.763   0.764   0.766   0.766   0.767   0.768   0.771
  0.773   0.773   0.775   0.776   0.776   0.778   0.779   0.780
  0.781   0.781   0.783   0.785   0.786   0.787   0.789   0.790
  0.791   0.792   0.794   0.796   0.796   0.797   0.799   0.799
  0.801   0.802   0.804   0.804   0.805   0.807   0.807   0.808
  0.809   0.809   0.810   0.811   0.811   0.812   0.813   0.813
  0.814   0.815   0.815   0.817   0.818   0.819   0.819   0.820
  0.820   0.821   0.823   0.823   0.824   0.825   0.825   0.827
  0.827   0.828   0.829   0.830   0.831   0.832   0.835   0.836
  0.838   0.841   0.842   0.844   0.847   0.848   0.850   0.851
  0.853   0.857   0.861   0.861   0.861   0.865   0.866   0.869
  0.870   0.872   0.876   0.877   0.883   0.887   0.890   0.891
  0.898   0.901   0.903   0.904   0.907   0.910   0.915   0.916
  0.918   0.923   0.925   0.926   0.928   0.930   0.931   0.932
  0.933   0.934   0.937   0.939   0.940   0.941   0.943   0.944
  0.945   0.948   0.952   0.954   0.955   0.956   0.958   0.962
  0.964   0.964   0.967   0.968   0.972   0.973   0.975   0.979
  0.983   0.985   0.987   0.990   0.990   0.993   0.995   0.997
  0.999   1.000   1.003   1.004   1.008   1.009   1.010   1.011
  1.012   1.015   1.016   1.019   1.020   1.021   1.023   1.024
  1.025   1.025   1.028   1.030   1.031   1.033   1.035   1.036
  1.038   1.039   1.041   1.043   1.045   1.047   1.047   1.051
  1.054   1.055   1.055   1.056   1.059   1.062   1.063   1.063
  1.066   1.068   1.070   1.070   1.072   1.072   1.075   1.076
  1.079   1.080   1.081   1.082   1.084   1.085   1.087   1.089
  1.092   1.092   1.095   1.096   1.100   1.100   1.101   1.103
  1.104   1.107   1.108   1.111   1.114   1.115   1.118   1.120
  1.123   1.126   1.127   1.129   1.134   1.134   1.136   1.138
  1.140   1.142   1.143   1.145   1.147   1.149   1.149   1.152
  1.155   1.157   1.160   1.162   1.162   1.164   1.164   1.166
  1.169   1.171   1.173   1.173   1.175   1.176   1.179   1.180
  1.181   1.183   1.184   1.185   1.187   1.189   1.192   1.193
  1.194   1.196   1.198   1.200   1.202   1.204   1.206   1.211
  1.212   1.213   1.216   1.218   1.221   1.224   1.228   1.231
  1.233   1.234   1.240   1.242   1.246   1.247   1.250   1.251
  1.255   1.257   1.259   1.262   1.262   1.266   1.267   1.270
  1.271   1.272   1.274   1.275   1.277   1.279   1.280   1.282
  1.286   1.287   1.288   1.290   1.292   1.295   1.297   1.298
  1.299   1.300   1.303   1.304   1.308   1.311   1.314   1.318
  1.319   1.320   1.322   1.324   1.325   1.329   1.331   1.333
  1.338   1.340   1.341   1.343   1.345   1.350   1.351   1.353
  1.355   1.358   1.360   1.362   1.362   1.366   1.367   1.369
  1.370   1.372   1.374   1.376   1.380   1.382   1.385   1.388
  1.389   1.391   1.397   1.400   1.402   1.403   1.405   1.409
  1.411   1.414   1.416   1.418   1.421   1.422   1.425   1.431
  1.433   1.437   1.439   1.442   1.444   1.445   1.446   1.450
  1.452   1.455   1.455   1.459   1.462   1.464   1.465   1.469
  1.472   1.474   1.476   1.478   1.479   1.480   1.484   1.484
  1.487   1.488   1.489   1.491   1.492   1.495   1.499   1.501
  1.503   1.507   1.510   1.511   1.513   1.514   1.517   1.519
  1.522   1.525   1.525   1.528   1.532   1.535   1.536   1.540
  1.543   1.544   1.549   1.552   1.554   1.556   1.558   1.560
  1.560   1.564   1.567   1.568   1.571   1.572   1.572   1.578
  1.579   1.583   1.584   1.586   1.588   1.591   1.593   1.595
  1.597   1.599   1.604   1.606   1.611   1.615   1.616   1.621
  1.625   1.630   1.632   1.636   1.641   1.641   1.645   1.647
  1.648   1.650   1.659   1.662   1.664   1.665   1.669   1.674
  1.680   1.683   1.687   1.689   1.691   1.692   1.695   1.700
  1.704   1.707   1.710   1.713   1.715   1.715   1.722   1.723
  1.726   1.727   1.730   1.730   1.734   1.735   1.738   1.739
  1.741   1.742   1.744   1.745   1.746   1.748   1.749   1.753
  1.753   1.756   1.757   1.758   1.759   1.760   1.762   1.763
  1.764   1.767   1.768   1.769   1.770   1.772   1.773   1.774
  1.777   1.777   1.779   1.780   1.781   1.782   1.783   1.785
  1.786   1.787   1.788   1.790   1.791   1.791   1.793   1.794
  1.795   1.796   1.798   1.799   1.800   1.801   1.802   1.803
  1.804   1.808   1.809   1.811   1.812   1.813   1.814   1.817
  1.818   1.819   1.819   1.823   1.826   1.830   1.831   1.832
  1.835   1.837   1.842   1.844   1.845   1.847   1.849   1.852
  1.853   1.855   1.857   1.859   1.860   1.861   1.863   1.864
  1.865   1.865   1.869   1.870   1.872   1.873   1.876   1.877
  1.878   1.883   1.883   1.885   1.886   1.887   1.890   1.890
  1.892   1.893   1.897   1.899   1.902   1.905   1.908   1.911
  1.913   1.914   1.916   1.920   1.922   1.925   1.925   1.927
  1.929   1.929   1.932   1.933   1.936   1.938   1.940   1.941
  1.944   1.945   1.947   1.949   1.953   1.956   1.956   1.957
  1.960   1.962   1.964   1.966   1.968   1.969   1.971   1.973
  1.975   1.976   1.979   1.982   1.983   1.985   1.989   1.990
  1.991   1.992   1.994   1.996   1.997   1.998   1.998   2.000
  2.000   2.001   2.002   2.003   2.005   2.006   2.009   2.011
  2.012   2.014   2.015   2.016   2.017   2.019   2.020   2.021
  2.022   2.024   2.025   2.027   2.028   2.028   2.029   2.031
  2.033   2.034   2.035   2.036   2.038   2.039   2.040   2.042
  2.043   2.044   2.045   2.045   2.047   2.048   2.049   2.051
  2.052   2.054   2.056   2.056   2.058   2.058   2.060   2.062
  2.062   2.062   2.064   2.065   2.067   2.068   2.070   2.072
  2.074   2.076   2.077   2.080   2.081   2.082   2.083   2.084
  2.087   2.087   2.089   2.090   2.091   2.093   2.095   2.095
  2.097   2.097   2.099   2.100   2.102   2.105   2.107   2.110
  2.111   2.112   2.114   2.116   2.119   2.120   2.121   2.125
  2.128   2.131   2.131   2.138   2.142   2.143   2.144   2.149
  2.151   2.155   2.156   2.162   2.168   2.170   2.170   2.177
  2.187   2.189   2.193   2.196   2.197   2.200   2.205   2.208
  2.212   2.216   2.222   2.223   2.226   2.226   2.229   2.232
  2.234   2.236   2.241   2.243   2.244   2.246   2.248   2.250
  2.253   2.255   2.257   2.260   2.263   2.266   2.269   2.269
  2.272   2.274   2.276   2.278   2.279   2.283   2.285   2.287
  2.290   2.291   2.293   2.296   2.298   2.301   2.301   2.306
  2.308   2.308   2.310   2.314   2.316   2.317   2.319   2.321
  2.325   2.327   2.329   2.333   2.335   2.338   2.339   2.343
  2.345   2.347   2.350   2.351   2.353   2.355   2.358   2.360
  2.362   2.365   2.365   2.367   2.367   2.370   2.372   2.372
  2.374   2.374   2.375   2.379   2.380   2.381   2.383   2.388
  2.388   2.390   2.391   2.392   2.393   2.396   2.399   2.402
  2.403   2.405   2.406   2.408   2.409   2.411   2.412   2.413
  2.415   2.417   2.418   2.420   2.422   2.425   2.427   2.431
  2.432   2.433   2.437   2.440   2.441   2.444   2.448   2.449
  2.450   2.455   2.456   2.459   2.461   2.463   2.464   2.465
  2.468   2.470   2.473   2.473   2.476   2.478   2.481   2.482
  2.483   2.486   2.486   2.487   2.492   2.494   2.495   2.497
  2.498   2.500   2.502   2.502   2.504   2.507   2.510   2.510
  2.511   2.515   2.516   2.516   2.522   2.526   2.527   2.531
  2.533   2.534   2.536   2.537   2.539   2.541   2.545   2.549
  2.550   2.551   2.553   2.555   2.559   2.560   2.567   2.568
  2.569   2.572   2.578   2.581   2.586   2.588   2.591   2.595
  2.596   2.597   2.598   2.600   2.602   2.604   2.607   2.609
  2.612   2.613   2.615   2.617   2.620   2.620   2.622   2.622
  2.626   2.627   2.629   2.632   2.633   2.635   2.637   2.637
  2.640   2.641   2.642   2.644   2.646   2.646   2.649   2.652
  2.652   2.654   2.655   2.658   2.659   2.662   2.664   2.665
  2.666   2.667   2.669   2.671   2.674   2.675   2.677   2.677
  2.678   2.681   2.683   2.686   2.689   2.690   2.693   2.695
  2.696   2.697   2.699   2.701   2.705   2.706   2.711   2.713
  2.715   2.715   2.719   2.722   2.725   2.726   2.728   2.729
  2.734   2.738   2.741   2.742   2.745   2.746   2.749   2.750
  2.751   2.753   2.755   2.756   2.759   2.760   2.762   2.764
  2.766   2.768   2.769   2.772   2.774   2.775   2.778   2.779
  2.780   2.783   2.788   2.790   2.793   2.794   2.800   2.803
  2.806   2.809   2.814   2.816   2.820   2.821   2.825   2.826
  2.827   2.830   2.833   2.835   2.837   2.839   2.840   2.842
  2.847   2.851   2.851   2.855   2.858   2.859   2.865   2.866
  2.868   2.870   2.871   2.873   2.877   2.878   2.879   2.883
  2.884   2.885   2.888   2.889   2.892   2.893   2.896   2.899
  2.900   2.901   2.903   2.906   2.907   2.907   2.911   2.911
  2.913   2.916   2.916   2.917   2.920   2.921   2.924   2.925
  2.928   2.930   2.932   2.934   2.937   2.938   2.941   2.941
  2.942   2.946   2.947   2.950   2.951   2.954   2.957   2.959
  2.962   2.966   2.967   2.971   2.973   2.979   2.980   2.983
  2.985   2.988   2.992   2.997   3.001   3.004   3.006   3.009
  3.011   3.013   3.014   3.018   3.020   3.023   3.025   3.027
  3.030   3.033   3.035   3.035   3.038   3.041   3.046   3.046
  3.050   3.051   3.056   3.059   3.063   3.065   3.067   3.068
  3.072   3.073   3.080   3.083   3.084   3.093   3.095   3.099
  3.114   3.122   3.135   3.135   3.148   3.155   3.161   3.169
  3.171   3.175   3.177   3.181   3.186   3.189   3.192   3.193
  3.195   3.201   3.205   3.211   3.228   3.230   3.234   3.235
  3.252   3.253   3.255   3.266   3.273   3.282   3.285   3.291
  3.300   3.302   3.314   3.316   3.322   3.325   3.332   3.338
  3.346   3.349   3.353   3.360   3.364   3.374   3.383   3.384
  3.395   3.395   3.411   3.412   3.416   3.426   3.430   3.442
  3.455   3.456   3.461   3.474   3.482   3.489   3.490   3.500
  3.505   3.509   3.522   3.527   3.534   3.541   3.544   3.554
  3.556   3.560   3.567   3.575   3.581   3.597   3.602   3.622
  3.628   3.633   3.673   3.700   3.884   3.926   4.003   4.068
  4.081   4.083   4.087   4.088   4.090   4.094   4.098   4.101
  4.103   4.106   4.114   4.116   4.119   4.121   4.123   4.130
  4.132   4.139   4.139   4.142   4.144   4.151   4.156   4.159
  4.161   4.166   4.172   4.176   4.181   4.184   4.188   4.191
  4.195   4.199   4.203   4.207   4.210   4.222   4.235   4.238
  4.245   4.252   4.255   4.256   4.261   4.262   4.263   4.266
  4.275   4.285   4.287   4.293   4.295   4.300   4.304   4.308
  4.315   4.321   4.330   4.367   4.382   4.393   4.395   4.397
  4.403   4.406   4.407   4.411   4.412   4.417   4.419   4.423
  4.427   4.430   4.435   4.450   4.451   4.467   4.473   4.486
  4.488   4.492   4.505   4.519   4.539   4.547   4.551   4.561
  4.566   4.567   4.611   4.622   4.631   4.640   4.643   4.649
  4.654   4.669   4.682   4.688   4.697   4.700   4.702   4.703
  4.708   4.714   4.720   4.729   4.760   4.766   4.816   4.851
  4.855   4.860   4.864   4.871   4.879   4.891   4.897   4.902
  4.905   4.915   4.955   4.962   4.966   4.970   4.979   4.983
  4.996   5.001   5.014   5.022   5.161   5.171   5.173   5.194
  5.205   5.206   5.230   5.239   5.292   5.326   5.339   5.341
  5.376   5.379
 --------------------------------------------------------------
 
          Ground-State Mulliken Net Atomic Charges

     Atom                 Charge (a.u.)
  ----------------------------------------
      1 O                    -0.472438
      2 C                    -0.094468
      3 H                     0.145403
      4 H                     0.127924
      5 H                     0.137407
      6 O                    -0.482522
      7 C                     0.622488
      8 C                    -0.275169
      9 H                     0.130675
     10 H                     0.138803
     11 C                    -0.192208
     12 H                     0.122852
     13 H                     0.113286
     14 C                    -0.178570
     15 H                     0.107491
     16 H                     0.114219
     17 C                     0.013484
     18 C                     0.073235
     19 C                    -0.100295
     20 H                     0.094547
     21 C                    -0.077782
     22 H                     0.093447
     23 C                    -0.095689
     24 H                     0.085760
     25 C                    -0.089830
     26 H                     0.094033
     27 C                    -0.100091
     28 H                     0.099824
     29 C                    -0.028525
     30 C                    -0.009466
     31 C                    -0.034348
     32 C                    -0.013348
     33 C                     0.025441
     34 C                     0.005293
     35 C                     0.009617
     36 C                    -0.003199
     37 C                     0.004470
     38 C                    -0.018925
     39 C                    -0.100837
     40 C                     0.009180
     41 C                     0.000388
     42 C                    -0.069571
     43 C                     0.021845
     44 C                     0.013359
     45 C                    -0.061478
     46 C                     0.066187
     47 C                    -0.001285
     48 C                    -0.025227
     49 C                     0.001982
     50 C                    -0.012487
     51 C                     0.010151
     52 C                    -0.001104
     53 C                     0.035113
     54 C                    -0.004386
     55 C                     0.021864
     56 C                    -0.014393
     57 C                    -0.006401
     58 C                     0.012365
     59 C                     0.009029
     60 C                    -0.000979
     61 C                     0.005745
     62 C                     0.008849
     63 C                    -0.009366
     64 C                     0.037756
     65 C                    -0.012443
     66 C                     0.009030
     67 C                    -0.006058
     68 C                     0.026014
     69 C                    -0.007411
     70 C                    -0.012454
     71 C                    -0.028928
     72 C                    -0.016265
     73 C                    -0.024568
     74 C                    -0.027496
     75 C                    -0.005249
     76 C                     0.011358
     77 C                     0.001480
     78 C                    -0.003166
     79 C                     0.023719
     80 C                     0.011877
     81 C                     0.002724
     82 C                    -0.003326
     83 C                    -0.005150
     84 C                     0.006347
     85 C                    -0.002661
     86 C                    -0.003376
     87 C                     0.015008
     88 C                     0.019265
     89 O                    -0.478424
     90 C                    -0.083058
     91 H                     0.131777
     92 H                     0.126617
     93 H                     0.122711
     94 O                    -0.451452
     95 C                     0.568831
     96 C                    -0.238436
     97 H                     0.138067
     98 H                     0.123688
     99 C                    -0.192983
    100 H                     0.124613
    101 H                     0.114989
    102 C                    -0.194341
    103 H                     0.124212
    104 H                     0.109163
    105 C                     0.010612
    106 C                     0.093831
    107 C                    -0.100875
    108 H                     0.087827
    109 C                    -0.088545
    110 H                     0.097004
    111 C                    -0.091108
    112 H                     0.083039
    113 C                    -0.072401
    114 H                     0.093093
    115 C                    -0.112924
    116 H                     0.084744
    117 C                    -0.018810
    118 C                    -0.001721
    119 C                     0.011261
    120 C                    -0.012488
    121 C                    -0.000163
    122 C                     0.004668
    123 C                    -0.014411
    124 C                    -0.025951
    125 C                    -0.027137
    126 C                     0.063178
    127 C                    -0.046999
    128 C                    -0.029710
    129 C                    -0.023988
    130 C                    -0.000609
    131 C                     0.011323
    132 C                    -0.019696
    133 C                    -0.091998
    134 C                     0.011982
    135 C                     0.022501
    136 C                    -0.003824
    137 C                     0.004941
    138 C                     0.011100
    139 C                     0.021507
    140 C                     0.009104
    141 C                     0.036070
    142 C                    -0.004997
    143 C                     0.035535
    144 C                    -0.013084
    145 C                     0.030309
    146 C                     0.004840
    147 C                    -0.003160
    148 C                    -0.001720
    149 C                    -0.013873
    150 C                    -0.044729
    151 C                     0.013127
    152 C                     0.019853
    153 C                     0.007811
    154 C                    -0.008316
    155 C                    -0.016376
    156 C                    -0.023380
    157 C                     0.011182
    158 C                     0.029125
    159 C                     0.001896
    160 C                     0.004411
    161 C                     0.021850
    162 C                     0.011768
    163 C                    -0.007552
    164 C                     0.009439
    165 C                     0.005241
    166 C                    -0.005157
    167 C                    -0.024719
    168 C                     0.005001
    169 C                    -0.019451
    170 C                    -0.017966
    171 C                     0.003243
    172 C                     0.010224
    173 C                    -0.022936
    174 C                     0.000227
    175 C                    -0.010405
    176 C                    -0.015059
  ----------------------------------------
  Sum of atomic charges =     0.000000

 -----------------------------------------------------------------
                    Cartesian Multipole Moments
 -----------------------------------------------------------------
    Charge (ESU x 10^10)
                 0.0000
    Dipole Moment (Debye)
         X       3.4688      Y       4.4838      Z      -0.3513
       Tot       5.6798
    Quadrupole Moments (Debye-Ang)
        XX    -821.7068     XY      -7.4680     YY    -806.4053
        XZ     -11.0768     YZ       7.7340     ZZ    -791.2738
    Octopole Moments (Debye-Ang^2)
       XXX     450.1627    XXY     126.5776    XYY    -131.1207
       YYY     235.5321    XXZ     -74.7991    XYZ      10.8724
       YYZ     104.5371    XZZ     131.0894    YZZ     178.0287
       ZZZ     -69.2708
    Hexadecapole Moments (Debye-Ang^3)
      XXXX -135927.7934   XXXY    1181.9105   XXYY  -31118.6748
      XYYY   -1009.9924   YYYY  -46019.3886   XXXZ    -857.0064
      XXYZ      85.6297   XYYZ     223.4455   YYYZ    1074.5759
      XXZZ  -26313.9946   XYZZ     412.1537   YYZZ  -10803.7419
      XZZZ    -564.8287   YZZZ     134.9300   ZZZZ  -21663.3814
 -----------------------------------------------------------------
Archival summary:
1\1\mn366\SP\ProcedureUnspecified\6-31G**\428\afmv_a\SatOct607:43:092018SatOct607:43:092018\0\\#,ProcedureUnspecified,6-31G**,\\0,1\O\C,1,1.231\O,2,1.35378,1,125.726\C,3,1.48756,2,119.537,1,3.55954,0\H,4,1.09675,3,107.566,2,168.662,0\H,4,1.09688,3,108.422,2,-72.9758,0\H,4,1.09706,3,110.895,2,53.9993,0\C,2,1.55638,1,125.441,3,-175.805,0\H,8,1.09675,2,105.29,1,111.105,0\H,8,1.09737,2,112.633,1,-125.988,0\C,8,1.56075,2,116.487,1,-6.93956,0\H,11,1.09673,8,113.659,2,-146.446,0\H,11,1.09761,8,101.786,2,-37.2949,0\C,11,1.50103,8,114.964,2,80.9369,0\H,14,1.09704,11,109.75,8,84.9074,0\H,14,1.09708,11,116.768,8,-34.6245,0\C,14,1.52717,11,107.652,8,-161.249,0\C,17,1.48546,14,122.283,11,73.4449,0\C,18,1.45095,17,127.135,14,4.35212,0\C,19,1.39447,18,123.516,17,68.421,0\C,20,1.38162,19,120.138,18,6.35136,0\C,21,1.38526,20,107.77,19,143.452,0\C,22,1.35168,21,109.061,20,0.380464,0\C,22,1.37495,21,120.945,20,-143.094,0\C,24,1.37736,22,120.954,21,2.50491,0\C,25,1.37141,24,122.5,22,-1.17025,0\C,24,1.38326,22,118.886,21,139.651,0\C,27,1.39676,24,109.058,22,-137.609,0\C,28,1.34962,27,124.246,24,148.854,0\C,29,1.36133,28,118.006,27,-6.72182,0\C,29,1.37949,28,117.929,27,-139.156,0\C,31,1.37931,29,110.278,28,142.611,0\C,30,1.39676,29,107.604,28,-138.228,0\C,33,1.37661,30,123.798,29,139.212,0\C,23,1.39999,22,109.12,21,1.86925,0\C,28,1.40804,27,107.489,24,-8.01846,0\C,36,1.35097,28,118.356,27,145.539,0\C,21,1.4092,20,121.69,19,1.94375,0\C,35,1.41088,23,118.871,22,-141.53,0\C,39,1.40864,35,122.809,23,-7.67197,0\C,40,1.38697,39,106.493,35,144.043,0\C,41,1.39628,40,110.624,39,4.19128,0\C,42,1.40323,41,120.189,40,-145.415,0\C,43,1.38277,42,117.642,41,136.852,0\C,44,1.40214,43,107.932,42,-140.332,0\C,26,1.41225,25,124.759,24,136.049,0\C,46,1.38748,26,116.461,25,2.18693,0\C,46,1.40217,26,109.089,25,-140.756,0\C,48,1.40803,46,117.35,26,135.152,0\C,49,1.38959,48,123.393,46,-136.103,0\C,49,1.39918,48,121.808,46,8.36902,0\C,50,1.40609,49,109.451,48,150.584,0\C,52,1.36443,50,107.505,49,-1.69189,0\C,51,1.40831,49,120.241,48,-6.62648,0\C,54,1.41076,51,121.357,49,-140.854,0\C,55,1.39033,54,101.487,51,135.149,0\C,55,1.40147,54,118.43,51,3.73182,0\C,57,1.39667,55,121.317,54,-4.45716,0\C,58,1.39808,57,106.975,55,139.971,0\C,59,1.35923,58,109.983,57,3.97448,0\C,60,1.39652,59,109.032,58,-5.70183,0\C,59,1.4111,58,122.124,57,-147.27,0\C,62,1.37568,59,119.505,58,144.7,0\C,63,1.38168,62,120.546,59,1.58487,0\C,64,1.37701,63,119.306,62,0.570215,0\C,64,1.40072,63,120.752,62,-135.616,0\C,66,1.39703,64,110.229,63,137.44,0\C,67,1.39664,66,124.324,64,-144.645,0\C,68,1.37061,67,121.531,66,142.416,0\C,68,1.3756,67,118.274,66,3.7708,0\C,70,1.41158,68,107.122,67,141.103,0\C,71,1.41061,70,109.465,68,5.58608,0\C,42,1.41276,41,107.029,40,-2.9547,0\C,73,1.4064,42,123.308,41,-142.178,0\C,74,1.36638,73,115.529,42,0.419455,0\C,50,1.41906,49,121.692,48,-0.683101,0\C,18,1.48939,17,61.6557,14,109.255,0\C,17,1.53777,14,111.667,11,-79.6633,0\C,78,1.40399,17,119.202,14,-78.1599,0\H,79,1.08541,78,119.483,17,-3.1899,0\C,79,1.38383,78,118.71,17,178.883,0\H,81,1.08695,79,112.959,78,177.138,0\C,81,1.36751,79,118.478,78,7.13334,0\H,83,1.08597,81,118.997,79,171.794,0\C,83,1.40995,81,123.756,79,-4.46746,0\H,85,1.08581,83,124.062,81,-170.797,0\C,85,1.37667,83,118.502,81,-0.444963,0\H,87,1.08626,85,120.642,83,179.94,0\H,10,2.29046,8,121.457,2,-118.846,0\C,89,1.09649,10,138.849,8,135.946,0\H,90,1.09723,89,107.445,10,-99.4629,0\C,90,1.5243,89,109.047,10,26.1994,0\H,92,1.09685,90,116.752,89,52.9662,0\H,92,1.097,90,104.964,89,168.917,0\C,92,1.47544,90,110.977,89,-71.6769,0\H,95,1.09702,92,102.576,90,-61.1852,0\H,95,1.09703,92,113.865,90,47.7541,0\C,95,1.54104,92,118.66,90,-179.54,0\C,98,1.47114,95,117.156,92,-68.5081,0\C,98,1.48344,95,125.504,92,-139.975,0\C,100,1.42726,98,127.864,95,-149.551,0\C,101,1.4241,100,111.714,98,146.127,0\C,102,1.3932,101,121.234,100,148.871,0\C,103,1.38316,102,120.941,101,-0.529404,0\C,102,1.39706,101,110.818,100,8.60139,0\C,104,1.39743,103,109.197,102,-142.56,0\C,106,1.38653,104,107.63,103,-1.43872,0\C,107,1.37855,106,109.486,104,3.32642,0\C,108,1.40857,107,120.602,106,143.849,0\C,109,1.37952,108,117.043,107,-141.364,0\C,109,1.39312,108,121.14,107,-0.950692,0\C,110,1.41505,109,107.693,108,140.688,0\C,112,1.40699,110,118.607,109,-138.05,0\C,113,1.34518,112,120.149,110,143.327,0\C,113,1.36515,112,119.858,110,-3.6805,0\C,115,1.36193,113,124.115,112,1.74427,0\C,114,1.37111,113,107.005,112,-146.514,0\C,117,1.406,114,108.645,113,-2.39268,0\C,114,1.41375,113,121.886,112,-8.7877,0\C,119,1.402,114,117.568,113,4.35729,0\C,120,1.39057,119,121.612,114,1.6608,0\C,120,1.39531,119,109.527,114,-136.239,0\C,119,1.40595,114,123.146,113,-131.879,0\C,123,1.3806,119,110.005,114,136.606,0\C,122,1.40833,120,126.563,119,149.369,0\C,125,1.40037,122,117.938,120,-8.67667,0\C,126,1.39582,125,106.744,122,-136.996,0\C,117,1.41715,114,123.166,113,144.193,0\C,128,1.35327,117,118.303,114,-8.10721,0\C,129,1.38457,128,109.34,117,-136.832,0\C,130,1.37189,129,108.002,128,1.44925,0\C,131,1.36247,130,108.928,129,2.70305,0\C,132,1.37758,131,125.245,130,150.033,0\C,131,1.38073,130,117.984,129,146.707,0\C,134,1.41574,131,117.382,130,-143.212,0\C,135,1.38471,134,107.556,131,143.086,0\C,136,1.41311,135,119.367,134,-139.277,0\C,137,1.37358,136,120.649,135,1.8755,0\C,138,1.39628,137,109.504,136,141.13,0\C,139,1.37975,138,107.217,137,-1.46508,0\C,140,1.37391,139,109.283,138,0.156669,0\C,141,1.39351,140,119.811,139,-143.654,0\C,142,1.37981,141,119.501,140,138.658,0\C,142,1.40663,141,119.129,140,1.95582,0\C,144,1.37724,142,109.184,141,145.662,0\C,143,1.40778,142,106.987,141,-141.422,0\C,146,1.39648,143,120.965,142,139.555,0\C,147,1.40235,146,123.718,143,-140.509,0\C,148,1.38173,147,105.246,146,144.659,0\C,149,1.37978,148,113.606,147,-0.379944,0\C,150,1.39553,149,103.889,148,2.13814,0\C,151,1.40947,150,120.42,149,-150.598,0\C,138,1.41239,137,123.774,136,-8.0852,0\C,136,1.41354,135,108.158,134,1.38118,0\C,125,1.41861,122,116.241,120,-142.759,0\C,155,1.39022,125,105.894,122,136.445,0\C,118,1.43247,117,125.008,114,156.016,0\C,135,1.43335,134,121.237,131,1.02068,0\C,98,1.52003,95,109.744,92,78.9118,0\C,159,1.37485,98,124.617,95,96.3784,0\H,160,1.08617,159,114.509,98,6.74973,0\C,160,1.37099,159,120.052,98,178.613,0\H,162,1.08588,160,122.907,159,-175.163,0\C,162,1.33522,160,119.455,159,-0.00483686,0\H,164,1.08639,162,117.262,160,-176.978,0\C,159,1.40475,98,115.641,95,-79.7481,0\H,166,1.08609,159,117.71,98,3.2153,0\C,166,1.35825,159,121.515,98,-177.582,0\H,168,1.08604,166,121.188,159,178.814,0\C,90,1.55098,89,101.951,10,141.673,0\O,170,1.20765,90,120.144,89,144.489,0\O,170,1.39082,90,117.235,89,-32.053,0\C,172,1.42965,170,120.719,90,169.301,0\H,173,1.09676,172,111.067,170,43.8247,0\H,173,1.09692,172,110.24,170,-70.374,0\H,173,1.09723,172,108.928,170,165.748,0\\\@

 Total job time:  941.68s(wall), 8022.86s(cpu) 
 Sat Oct  6 07:43:09 2018

        *************************************************************
        *                                                           *
        *  Thank you very much for using Q-Chem.  Have a nice day.  *
        *                                                           *
        *************************************************************


