
Running Job 1 of 1 ./7/27.qcin
qchem ./7/27.qcin_137693.0 /tmpu/cab_g/afmv_a/scratch_qchem/qchem137693/ 1
/tmpu/appuserlic/qchem4.4/serial-multicore/exe/qcprog.exe_s ./7/27.qcin_137693.0 /tmpu/cab_g/afmv_a/scratch_qchem/qchem137693/
Check license passed

                  Welcome to Q-Chem
     A Quantum Leap Into The Future Of Chemistry


 Q-Chem 4.4, Q-Chem, Inc., Pleasanton, CA (2016)

 Y. Shao,  Z. Gan,  E. Epifanovsky,  A. T. B. Gilbert,  M. Wormit,  
 J. Kussmann,  A. W. Lange,  A. Behn,  J. Deng,  X. Feng,  D. Ghosh,  
 M. Goldey,  P. R. Horn,  L. D. Jacobson,  I. Kaliman,  F. Rob,  
 R. Z. Khaliullin,  T. Kus,  A. Landau,  J. Liu,  E. I. Proynov,  Y. M. Rhee,  
 R. M. Richard,  M. A. Rohrdanz,  R. P. Steele,  E. J. Sundstrom,  
 H. L. Woodcock III,  P. M. Zimmerman,  D. Zuev,  B. Albrecht,  E. Alguire,  
 B. Austin,  S. A. Baeppler,  G. J. O. Beran,  Y. A. Bernard,  E. Berquist,  
 K. Brandhorst,  K. B. Bravaya,  S. T. Brown,  D. Casanova,  C.-M. Chang,  
 Y. Chen,  S. H. Chien,  K. D. Closser,  M. P. Coons,  D. L. Crittenden,  
 S. Dasgupta,  M. Diedenhofen,  R. A. DiStasio Jr.,  H. Do,  A. D. Dutoi,  
 R. G. Edgar,  P.-T. Fang,  S. Fatehi,  Q. Feng,  L. Fusti-Molnar,  
 A. Ghysels,  A. Golubeva-Zadorozhnaya,  J. Gomes,  A. Gunina,  
 M. W. D. Hanson-Heine,  P. H. P. Harbach,  A. W. Hauser,  J. E. Herr,  
 E. G. Hohenstein,  Z. C. Holden,  K. Hui,  T.-C. Jagau,  H. Ji,  B. Kaduk,  
 K. Khistyaev,  Jaehoon Kim,  Jihan Kim,  R. A. King,  P. Klunzinger,  
 K. Koh,  D. Kosenkov,  T. Kowalczyk,  C. M. Krauter,  A. Kunitsa,  
 K. U. Lao,  A. Laurent,  K. V. Lawler,  J. Lee,  D. Lefrancois,  S. Lehtola,  
 S. V. Levchenko,  C. Y. Lin,  Y.-S. Lin,  F. Liu,  E. Livshits,  
 R. C. Lochan,  A. Luenser,  P. Manohar,  S. F. Manzer,  S.-P. Mao,  Y. Mao,  
 N. Mardirossian,  A. V. Marenich,  L. A. Martinez-Martinez,  S. A. Maurer,  
 N. J. Mayhall,  J.-M. Mewes,  A. F. Morrison,  K. Nanda,  T. S. Nguyen-Beck,  
 C. M. Oana,  R. Olivares-Amaya,  D. P. O'Neill,  J. A. Parkhill,  
 T. M. Perrine,  R. Peverati,  P. A. Pieniazek,  F. Plasser,  A. Prociuk,  
 D. R. Rehn,  E. Rosta,  N. J. Russ,  N. Sergueev,  S. M. Sharada,  
 S. Sharma,  D. W. Small,  A. Sodt,  T. Stauch,  T. Stein,  D. Stuck,  
 Y.-C. Su,  A. J. W. Thom,  T. Tsuchimochi,  L. Vogt,  O. Vydrov,  T. Wang,  
 M. A. Watson,  J. Wenzel,  A. White,  C. F. Williams,  V. Vanovschi,  
 K. Yao,  S. Yeganeh,  S. R. Yost,  Z.-Q. You,  I. Y. Zhang,  X. Zhang,  
 Y. Zhao,  B. R. Brooks,  G. K. L. Chan,  D. M. Chipman,  C. J. Cramer,  
 W. A. Goddard III,  M. S. Gordon,  W. J. Hehre,  A. Klamt,  
 H. F. Schaefer III,  M. W. Schmidt,  C. D. Sherrill,  D. G. Truhlar,  
 A. Warshel,  X. Xu,  A. Aspuru-Guzik,  R. Baer,  A. T. Bell,  N. A. Besley,  
 J.-D. Chai,  A. Dreuw,  B. D. Dunietz,  T. R. Furlani,  S. R. Gwaltney,  
 C.-P. Hsu,  Y. Jung,  J. Kong,  D. S. Lambrecht,  W. Liang,  C. Ochsenfeld,  
 V. A. Rassolov,  L. V. Slipchenko,  J. E. Subotnik,  T. Van Voorhis,  
 J. M. Herbert,  A. I. Krylov,  P. M. W. Gill,  M. Head-Gordon

 Contributors to earlier versions of Q-Chem not listed above: 
 R. D. Adamson,  J. Baker,  E. F. C. Byrd,  A. K. Chakraborty,  C.-L. Cheng,  
 H. Dachsel,  R. J. Doerksen,  G. Hawkins,  A. Heyden,  S. Hirata,  
 G. Kedziora,  F. J. Keil,  C. Kelley,  P. P. Korambath,  W. Kurlancheek,  
 A. M. Lee,  M. S. Lee,  D. Liotard,  I. Lotan,  P. E. Maslen,  N. Nair,  
 D. Neuhauser,  R. Olson,  B. Peters,  J. Ritchie,  N. E. Schultz,  
 N. Shenvi,  A. C. Simmonett,  K. S. Thanthiriwatte,  Q. Wu,  W. Zhang

 Please cite Q-Chem as follows:
 Y. Shao et al., Mol. Phys. 113, 184-215 (2015)
 DOI: 10.1080/00268976.2014.952696

 Q-Chem 4.4.2 for Intel X86 Linux

 Parts of Q-Chem use Armadillo 5.200.1 (Boston Tea Smuggler).
 http://arma.sourceforge.net/

 Q-Chem begins on Sat Oct  6 07:43:10 2018  

Host: 
0

     Scratch files written to /tmpu/cab_g/afmv_a/scratch_qchem/qchem137693//
 Dec716 11556_ 22328  22283 4050   
Processing $rem in /tmpu/appuserlic/qchem4.4/serial-multicore/config/preferences.
 MEM_TOTAL  2000 
FILE_GEOM_ORG=        593

Checking the input file for inconsistencies... 	...done.

--------------------------------------------------------------
User input:
--------------------------------------------------------------
$comment
SP
$end

$rem
MEM_STATIC 5000
MEM_TOTAL 20000
JOBTYPE SP
EXCHANGE B3LYP
BASIS 6-31g(d,p)
$end

$molecule
0 1
O          29.435000     -6.540000     -0.391000
C          30.048000     -7.343000      0.630000
H          30.142000     -8.353000      0.211000
H          29.473000     -7.337000      1.564000
H          31.066000     -7.013000      0.875000
O          29.218000     -4.593000      0.834000
C          29.141000     -5.232000     -0.181000
C          28.658000     -4.659000     -1.551000
H          28.797000     -3.575000     -1.447000
H          27.628000     -5.021000     -1.658000
C          29.562000     -5.060000     -2.782000
H          30.323000     -4.294000     -2.587000
H          29.970000     -6.075000     -2.707000
C          28.688000     -4.917000     -4.034000
H          27.979000     -5.736000     -3.860000
H          28.041000     -4.037000     -3.925000
C          29.409000     -5.164000     -5.388000
C          30.667000     -4.414000     -5.542000
C          31.868000     -5.113000     -5.385000
H          32.023000     -6.166000     -5.169000
C          33.047000     -4.341000     -5.566000
H          34.024000     -4.791000     -5.418000
C          33.026000     -2.979000     -5.790000
H          34.029000     -2.581000     -5.908000
C          31.812000     -2.250000     -5.857000
H          31.735000     -1.204000     -6.139000
C          30.631000     -3.000000     -5.669000
H          29.728000     -2.425000     -5.482000
C          28.351000     -4.896000    -10.782000
C          30.083000     -6.633000    -10.748000
C          27.271000    -10.055000    -11.616000
C          24.338000     -5.884000     -7.574000
C          26.908000    -10.950000     -8.306000
C          29.485000     -5.465000    -10.198000
C          24.246000     -8.776000     -7.520000
C          27.377000     -7.847000    -12.542000
C          29.864000     -8.532000     -7.196000
C          24.976000     -6.664000     -6.587000
C          29.191000     -6.442000     -6.181000
C          28.810000     -8.761000     -6.328000
C          26.094000     -8.575000     -5.940000
C          24.819000     -9.923000     -8.021000
C          30.331000     -6.571000     -8.460000
C          25.457000    -10.543000    -10.255000
C          28.457000     -5.277000     -6.636000
C          26.930000     -5.249000     -6.537000
C          26.643000    -11.037000     -9.700000
C          24.329000     -6.808000    -11.113000
C          25.289000     -8.752000    -11.814000
C          25.995000     -7.684000    -12.322000
C          28.237000     -6.838000    -12.302000
C          26.407000     -4.587000     -7.661000
C          30.094000     -7.144000     -7.142000
C          29.449000     -7.328000    -11.825000
C          24.894000     -8.056000     -6.553000
C          30.596000     -7.318000     -9.622000
C          27.942000     -9.863000     -6.640000
C          25.015000     -4.996000     -9.559000
C          28.001000     -8.997000    -12.130000
C          28.341000     -7.567000     -5.753000
C          26.314000     -5.459000    -11.607000
C          26.614000     -9.780000     -6.374000
C          30.097000     -9.288000     -8.379000
C          23.899000     -8.821000     -9.788000
C          23.694000     -8.084000     -8.603000
C          29.287000    -10.362000     -8.619000
C          25.191000     -4.914000     -8.192000
C          26.203000     -6.306000     -5.965000
C          24.229000     -6.098000     -9.901000
C          28.730000     -4.743000     -7.953000
C          29.845000     -9.434000    -10.625000
C          26.888000     -7.485000     -5.641000
C          28.128000    -10.599000     -7.814000
C          26.078000     -4.617000    -10.487000
C          27.760000    -10.734000    -10.497000
C          27.738000     -5.607000    -11.793000
C          25.903000     -9.923000    -11.402000
C          30.438000     -8.727000     -9.576000
C          29.065000    -10.437000    -10.029000
C          29.673000     -5.381000     -8.787000
C          27.525000     -4.307000     -8.523000
C          24.201000     -8.216000    -11.070000
C          29.294000     -8.755000    -11.710000
C          25.944000    -10.434000     -7.411000
C          23.833000     -6.652000     -8.654000
C          24.501000    -10.025000     -9.405000
C          27.359000     -4.339000     -9.948000
C          25.420000     -6.484000    -11.983000
O          13.432000     -9.584000     -5.572000
C          12.036000     -9.482000     -5.281000
H          11.831000     -8.625000     -4.628000
H          11.702000    -10.414000     -4.808000
H          11.474000     -9.250000     -6.194000
O          13.720000     -7.337000     -5.831000
C          14.174000     -8.454000     -5.899000
C          15.608000     -8.680000     -6.445000
H          15.909000     -7.922000     -7.179000
H          15.500000     -9.631000     -6.980000
C          16.567000     -8.873000     -5.276000
H          16.471000     -7.959000     -4.677000
H          16.343000     -9.694000     -4.584000
C          17.954000     -9.036000     -5.752000
H          18.060000     -9.757000     -6.572000
H          18.143000     -8.086000     -6.267000
C          19.074000     -9.233000     -4.712000
C          19.447000     -7.893000     -4.099000
C          18.586000     -7.424000     -3.093000
H          17.703000     -8.015000     -2.868000
C          18.833000     -6.264000     -2.431000
H          18.174000     -5.916000     -1.641000
C          20.003000     -5.547000     -2.848000
H          20.279000     -4.630000     -2.335000
C          20.767000     -5.927000     -3.875000
H          21.628000     -5.310000     -4.114000
C          20.497000     -7.109000     -4.515000
H          21.136000     -7.571000     -5.262000
C          23.933000    -11.168000     -3.303000
C          22.660000    -11.365000     -1.205000
C          22.326000    -15.829000     -1.202000
C          21.520000    -13.567000     -7.059000
C          19.056000    -15.773000     -2.510000
C          22.934000    -10.726000     -2.390000
C          20.057000    -15.678000     -5.932000
C          24.241000    -14.442000     -1.715000
C          18.730000    -11.816000     -1.908000
C          20.162000    -13.404000     -6.729000
C          19.078000    -10.498000     -3.961000
C          18.028000    -12.466000     -3.019000
C          18.537000    -13.949000     -5.376000
C          19.800000    -16.357000     -4.728000
C          20.742000    -10.515000     -2.010000
C          21.210000    -16.913000     -2.775000
C          20.221000    -10.164000     -4.847000
C          20.532000    -11.148000     -5.969000
C          20.224000    -16.373000     -1.975000
C          24.104000    -15.188000     -5.230000
C          23.560000    -16.216000     -3.233000
C          24.414000    -15.151000     -2.970000
C          24.270000    -13.067000     -1.788000
C          21.925000    -11.283000     -6.218000
C          19.433000    -10.703000     -2.506000
C          23.340000    -12.536000     -0.876000
C          19.448000    -14.448000     -6.271000
C          21.261000    -11.207000     -0.943000
C          18.064000    -13.843000     -3.002000
C          23.572000    -13.063000     -6.267000
C          23.168000    -14.770000     -0.856000
C          18.283000    -11.722000     -4.229000
C          24.768000    -13.069000     -4.162000
C          18.141000    -14.642000     -4.205000
C          19.307000    -12.625000     -0.875000
C          22.043000    -16.422000     -5.082000
C          21.431000    -15.811000     -6.177000
C          19.232000    -14.038000     -0.921000
C          22.417000    -12.509000     -6.779000
C          19.724000    -12.215000     -6.221000
C          23.496000    -14.454000     -6.278000
C          21.535000    -10.019000     -4.309000
C          21.245000    -13.485000     -0.075000
C          18.670000    -12.550000     -5.332000
C          18.563000    -14.604000     -1.988000
C          24.197000    -12.376000     -5.208000
C          20.932000    -15.728000     -0.960000
C          24.575000    -12.367000     -2.982000
C          22.491000    -16.610000     -2.355000
C          20.553000    -12.289000     -0.373000
C          20.392000    -14.592000     -0.324000
C          21.768000    -10.194000     -2.901000
C          22.522000    -10.575000     -5.172000
C          23.364000    -16.219000     -4.638000
C          22.650000    -13.584000     -0.302000
C          18.807000    -15.772000     -3.872000
C          22.169000    -14.789000     -6.764000
C          20.981000    -16.828000     -4.190000
C          23.695000    -11.130000     -4.665000
C          24.778000    -14.533000     -4.198000
$end

--------------------------------------------------------------
 ----------------------------------------------------------------
             Standard Nuclear Orientation (Angstroms)
    I     Atom           X                Y                Z
 ----------------------------------------------------------------
    1      O       3.8128631769     6.6261011117    -2.9559992867
    2      C       3.4914285192     7.9558980444    -2.5185762893
    3      H       3.1710994827     7.8659670471    -1.4727279619
    4      H       2.7230213272     8.4247383674    -3.1452788813
    5      H       4.3619421395     8.6248177672    -2.5197768391
    6      O       4.2551652408     7.1254783118    -5.1681281926
    7      C       4.2133965467     6.3773427475    -4.2284348630
    8      C       4.6349448121     4.8745089696    -4.2764525243
    9      H       5.2850930507     4.8112425257    -5.1587776486
   10      H       3.6892316748     4.3198776714    -4.3139196434
   11      C       5.5492975747     4.4138164311    -3.0743296476
   12      H       6.4738959722     4.8172420598    -3.5059169105
   13      H       5.2921373809     4.8978365427    -2.1246417167
   14      C       5.3990238176     2.8914559046    -2.9663239753
   15      H       4.3552603525     2.8310714207    -2.6337137785
   16      H       5.3354899173     2.4617419951    -3.9743911355
   17      C       6.2990640740     2.2015612345    -1.9041851515
   18      C       7.7197624119     2.5806479104    -1.9859746665
   19      C       8.2108123869     3.4837242887    -1.0378322842
   20      H       7.6893846688     3.9592985026    -0.2123431553
   21      C       9.5922750389     3.7945451937    -1.1550385392
   22      H      10.0480726453     4.5216378309    -0.4898183961
   23      C      10.3847274308     3.3193463321    -2.1806438476
   24      H      11.4086835579     3.6665212483    -2.0841014873
   25      C       9.8679034815     2.4776674315    -3.1975979438
   26      H      10.4687620244     1.9899162896    -3.9595932423
   27      C       8.4942077961     2.1670730707    -3.1022233838
   28      H       8.0434575914     1.7299956461    -3.9892355471
   29      C       7.5412842691    -2.8654150720    -0.1523106995
   30      C       7.9272834579    -1.5726766125     1.8965867849
   31      C       4.2462630418    -3.0640118861     4.0406156554
   32      C       2.7992859742    -2.1176974118    -2.2322019158
   33      C       2.3166766047    -0.3360674851     3.1897869260
   34      C       7.8993666226    -1.6713068402     0.4774952697
   35      C       1.1611957439    -1.5287337741     0.0796861071
   36      C       5.8376321932    -4.2259875504     2.6763089525
   37      C       5.4848637646     1.6365133060     1.8156416851
   38      C       2.5213744941    -0.8075906789    -1.7894846725
   39      C       5.7284397531     1.6938240851    -0.5903176272
   40      C       4.2467176219     1.8476625285     1.2332405045
   41      C       2.1263510452     0.7051741964    -0.0936212031
   42      C       1.1638363488    -1.4070353419     1.4508613399
   43      C       7.3404748691     0.4352695330     0.9352856057
   44      C       2.1121255766    -2.7911725909     3.1733919249
   45      C       5.9504986171     0.6940406185    -1.6170254146
   46      C       4.7595667858    -0.0310482478    -2.2480892062
   47      C       2.5605052974    -1.6091129260     3.7736815004
   48      C       3.5507953686    -4.8572939355     0.0717560954
   49      C       3.4942699669    -4.5344924261     2.3266931376
   50      C       4.7873190226    -4.8026841771     1.9352581822
   51      C       6.9523136211    -3.7832322491     2.0625222977
   52      C       5.1109891698    -1.3698401292    -2.4915796710
   53      C       6.3852600987     1.5173825914     0.7397911777
   54      C       7.4503904731    -2.6528012023     2.7033171930
   55      C       1.7011592732    -0.5372779653    -0.6941664411
   56      C       7.5551705297    -0.2327657134     2.1543478202
   57      C       3.1016029117     1.3602746367     1.9518066763
   58      C       4.4967190215    -3.5846396738    -1.8399017121
   59      C       5.5544851320    -3.3225203896     3.6688787642
   60      C       4.3227835146     1.8320425233    -0.1703947742
   61      C       5.9700468943    -4.5004607051    -0.0830150289
   62      C       2.0335740543     0.8663117448     1.2761262628
   63      C       5.6776397689     0.9361812802     3.0394416957
   64      C       1.6741136471    -3.5755789817     0.9816827372
   65      C       1.4919262875    -2.8550105797    -0.2170699246
   66      C       4.5664950850     0.5329783424     3.7249786257
   67      C       4.1915306173    -2.3795738939    -2.4407889761
   68      C       3.4336430410     0.2767537321    -1.9014681390
   69      C       3.4251028090    -4.0537940731    -1.0778670392
   70      C       6.9120820019    -0.3603667887    -1.3766997738
   71      C       6.2015343172    -1.0219467878     4.0496916508
   72      C       3.2129024746     1.1454546667    -0.8240293757
   73      C       3.2658619032     0.6386219251     3.1378945093
   74      C       5.8433242821    -3.8713811380    -1.3507927214
   75      C       3.8614386221    -1.7437062558     4.2876504880
   76      C       7.0485567807    -3.8767085236     0.6463858493
   77      C       3.1922113817    -3.6319686429     3.3327708840
   78      C       6.6633290612     0.0110719106     3.2302302525
   79      C       4.8553856765    -0.7331862934     4.3219529478
   80      C       7.5888702766    -0.4239985359    -0.1398660614
   81      C       6.4233907363    -1.5529041628    -1.9299234702
   82      C       2.6835549026    -4.6004003251     1.1592286914
   83      C       6.5267794041    -2.3466876118     3.7648331198
   84      C       1.5368654702    -0.2080507210     2.0184273302
   85      C       2.3832840502    -3.1176611622    -1.3166343885
   86      C       1.3554536821    -2.6965511258     2.0230639619
   87      C       6.7835551572    -2.8108935036    -1.3408993549
   88      C       4.8688850491    -5.0701502494     0.5908791867
   89      O      -8.2531196603    -5.4272187002    -4.1110948167
   90      C      -9.3719687521    -5.9400946598    -4.8384433988
   91      H      -9.3015285315    -5.6836985795    -5.9024839174
   92      H     -10.2945668504    -5.5335182948    -4.4055260759
   93      H      -9.3553935934    -7.0368892334    -4.8364615868
   94      O      -6.7374959820    -5.9505674319    -5.7322132487
   95      C      -6.9633616465    -5.5396702250    -4.6192994214
   96      C      -5.7914729810    -5.1921500162    -3.6645980753
   97      H      -4.8949227540    -5.7960448438    -3.8528259365
   98      H      -6.1940265434    -5.4960007886    -2.6909886375
   99      C      -5.5734043051    -3.6835292947    -3.6638422345
  100      H      -5.3697456116    -3.4262448698    -4.7106186487
  101      H      -6.4297720669    -3.0610300451    -3.3771194752
  102      C      -4.4286094065    -3.3157378329    -2.8088053460
  103      H      -4.4430102823    -3.7899327359    -1.8196598517
  104      H      -3.5926845384    -3.8367820062    -3.2917013848
  105      C      -4.0435533069    -1.8284179724    -2.6887202395
  106      C      -3.2571459568    -1.4007944301    -3.9172150851
  107      C      -4.0224480071    -1.1173894561    -5.0605927098
  108      H      -5.0956143406    -1.2736445764    -5.0014880749
  109      C      -3.4463801520    -0.6785003738    -6.2096685123
  110      H      -4.0450946032    -0.4427968889    -7.0845798639
  111      C      -2.0177004416    -0.5561338887    -6.1817628070
  112      H      -1.4967424908    -0.1753516474    -7.0557431834
  113      C      -1.2716876863    -0.9260200612    -5.1379840046
  114      H      -0.1965123001    -0.7982031654    -5.2203959580
  115      C      -1.8849606307    -1.3542899381    -3.9890256902
  116      H      -1.3778452507    -1.5415961588    -3.0469405714
  117      C      -1.8527334538     2.2816393586     0.0766231582
  118      C      -3.6772049511     3.3876592710    -1.1517764953
  119      C      -6.3244718305     4.1296408523     2.3809706514
  120      C      -3.6574574046    -1.5962902401     2.7950674725
  121      C      -8.3386950302     1.3217546703     1.6986363561
  122      C      -2.7053763073     2.4213298533    -1.0549336145
  123      C      -6.3085800518    -1.0000697605     3.4899695152
  124      C      -3.9318210733     4.4262618681     2.1774974910
  125      C      -6.6831836136     0.8372915070    -1.9278090650
  126      C      -4.7283181756    -2.0695039331     2.0147092151
  127      C      -4.9837125488    -0.9465638565    -1.9797238234
  128      C      -7.1760844977    -0.3158246283    -1.1682059469
  129      C      -6.7452208311    -1.6924343465     1.2675939596
  130      C      -7.2955179352    -0.0009251909     3.4238654809
  131      C      -4.4077336349     1.5420293607    -2.2049749935
  132      C      -7.2035982522     2.4665063255     3.5454281561
  133      C      -3.6147308116    -1.1474076111    -1.4425536554
  134      C      -3.5058209501    -1.7096925009    -0.0298132883
  135      C      -7.9537896237     2.4995657684     2.3878807578
  136      C      -3.1916531424     1.6028650777     4.2777574745
  137      C      -4.8663123520     3.1781903338     4.0440998845
  138      C      -3.7343923801     3.6253269792     3.3721356014
  139      C      -3.1475374818     4.0994007720     1.0935897126
  140      C      -2.4218128591    -1.1569244482     0.7050669322
  141      C      -5.3364727447     0.4839391525    -2.3178013076
  142      C      -3.8992665322     4.2562290126    -0.0849319620
  143      C      -5.9969467832    -1.8517415500     2.4054226656
  144      C      -4.7581023251     2.8377719127    -1.9134153600
  145      C      -7.8917692105    -0.0007227611    -0.0340894603
  146      C      -2.0946229014     0.0314478873     2.7941164586
  147      C      -5.2343554132     4.6402925769     1.6731274393
  148      C      -6.1537535095    -1.3342956595    -1.1534713201
  149      C      -1.9261363211     2.3994945304     2.3193066351
  150      C      -7.8345514630    -0.7906158217     1.1760072640
  151      C      -7.0396838579     2.1593456234    -1.5040408629
  152      C      -5.4850905387     0.8966987092     4.4617546735
  153      C      -5.2394862601    -0.4543749132     4.2144317973
  154      C      -7.8374479449     2.3715315084    -0.3538845207
  155      C      -2.5023335290    -1.1111120727     2.1372954922
  156      C      -4.6074350441    -2.1231959204     0.6559842837
  157      C      -2.8937678529     0.2675208997     3.9105459814
  158      C      -2.7200526567    -0.0431788975    -1.3110433999
  159      C      -6.2974033402     4.0133864308    -0.4330617234
  160      C      -5.9097713361    -1.8729738102     0.1512357540
  161      C      -8.2756502691     1.2548727283     0.3298244027
  162      C      -1.6225405672     1.0936167740     1.9984968725
  163      C      -7.4249722216     3.5775312553     1.6766448163
  164      C      -2.1160914847     3.1293994270     1.1558596541
  165      C      -6.2078448706     3.4235434148     3.5869638359
  166      C      -6.0821345459     3.1590126991    -1.5384073131
  167      C      -7.4560013497     3.5869488179     0.2675527318
  168      C      -3.1336547459     1.2783330550    -1.6982351755
  169      C      -1.9553533113    -0.1244908802    -0.1124203263
  170      C      -4.5207060094     1.9150443813     4.5895066672
  171      C      -5.1927089667     4.5832516859     0.2671232038
  172      C      -8.0468121992     0.0655123382     2.2023283413
  173      C      -3.9185561648    -0.7616278872     3.9071269107
  174      C      -6.8326379262     1.1597513358     4.0109073002
  175      C      -1.5326056512     1.0235864292     0.5540674136
  176      C      -2.6895715681     2.6749898471     3.5383066163
 ----------------------------------------------------------------
 Molecular Point Group                 C1    NOp =  1
 Largest Abelian Subgroup              C1    NOp =  1
 Nuclear Repulsion Energy = 34410.0386222655 hartrees
 There are      462 alpha and      462 beta electrons
 Requested basis set is 6-31G(d,p)
 There are 676 shells and 2360 basis functions

 Total QAlloc Memory Limit  20000 MB
 Mega-Array Size      4888 MB
 MEM_STATIC part      5000 MB
 A cutoff of  1.0D-08 yielded  36636 shell pairs
 There are    518121 function pairs
 
 -------------------------------------------------------
 OpenMP Integral Computing Module                       
 Release: version 1.0, May 2013, Q-Chem Inc. Pittsburgh 
 -------------------------------------------------------
 Integral Job Info:
 Integral job number is                      11
 Integral operator is                         1
 short-range coefficients                     0
 long-range coefficients              100000000
 Omega coefficients                           0
 if combine SR and LR in K                    0
 Integral screening is                        0
 Integral computing path is                   2
 max size of driver memory is            800000
 size of driver memory is                593474
 size of scratch memory is              2260544
 max col of scratch BK array               1296
 max len of scratch array in speh3          155
 max len of scratch index in speh4           18
 max int batch size is                      520
 min int batch size is                       52
 fixed nKL is                                52
 max L of basis functions is                  2
 order of int derivative is                   0
 number of shells is                        676
 number of basis is                        2360
 number of cartesian basis is              2360
 number of contracted shell pairs         36636
 number of primitive shell pairs         112045
 maxK2 (contraction) of shell pair           36
 max number of K2 of shell pair               1
 max number of CS2 of shell pair           7045
 max number of PS2 of shell pair          34218
 mem total for path MDJ                 1471592
 -------------------------------------------------------
 Smallest overlap matrix eigenvalue = 2.49E-04

 Scale SEOQF with 1.000000e-02/1.000000e-02/1.000000e-02

 Standard Electronic Orientation quadrupole field applied
 Nucleus-field energy     =     0.0000000811 hartrees
 Guess from superposition of atomic densities
 Warning:  Energy on first SCF cycle will be non-variational
 A restricted hybrid HF-DFT SCF calculation will be
 performed using Pulay DIIS extrapolation
 Exchange:     0.2000 Hartree-Fock + 0.0800 Slater + 0.7200 B88
 Correlation:  0.1900 VWN1RPA + 0.8100 LYP
 Using SG-1 standard quadrature grid
 SCF converges when DIIS error is below 1.0E-05
 using 16 threads for integral computing 
 -------------------------------------------------------
 OpenMP BLAS3 based DFT computing Module                
 Release: version 1.0, May 2013, Q-Chem Inc. Pittsburgh 
 -------------------------------------------------------
 ---------------------------------------
  Cycle       Energy         DIIS Error
 ---------------------------------------
    1   -5858.9988305361      1.84E-02
    2   -5803.0268872669      1.31E-03
    3   -5802.1350864768      1.84E-03
    4   -5803.8283978829      7.06E-04
    5   -5804.1203289618      3.27E-04
    6   -5804.1949366085      1.30E-04
    7   -5804.2054307540      4.77E-05
    8   -5804.2064078858      3.08E-05
    9   -5804.2071406767      8.23E-06 Convergence criterion met
 ---------------------------------------
 SCF time:  CPU 7043.82 s  wall 822.24 s
 SCF   energy in the final basis set = -5804.2071406767
 Total energy in the final basis set = -5804.2071406767
 
 --------------------------------------------------------------
 
                    Orbital Energies (a.u.)
 --------------------------------------------------------------
 
 Alpha MOs
 -- Occupied --
-19.197 -19.189 -19.142 -19.136 -10.320 -10.319 -10.250 -10.245
-10.243 -10.242 -10.241 -10.238 -10.237 -10.236 -10.236 -10.232
-10.231 -10.231 -10.229 -10.228 -10.227 -10.226 -10.226 -10.225
-10.224 -10.224 -10.223 -10.223 -10.222 -10.222 -10.222 -10.221
-10.221 -10.221 -10.220 -10.220 -10.220 -10.220 -10.220 -10.220
-10.220 -10.220 -10.219 -10.219 -10.219 -10.219 -10.219 -10.218
-10.218 -10.218 -10.218 -10.217 -10.217 -10.217 -10.217 -10.217
-10.216 -10.216 -10.216 -10.216 -10.216 -10.216 -10.216 -10.215
-10.215 -10.215 -10.215 -10.215 -10.215 -10.215 -10.215 -10.214
-10.214 -10.214 -10.214 -10.214 -10.214 -10.214 -10.214 -10.214
-10.214 -10.213 -10.213 -10.213 -10.213 -10.213 -10.213 -10.213
-10.213 -10.213 -10.213 -10.212 -10.212 -10.212 -10.212 -10.212
-10.212 -10.212 -10.212 -10.212 -10.211 -10.211 -10.211 -10.211
-10.211 -10.211 -10.211 -10.210 -10.210 -10.210 -10.210 -10.210
-10.210 -10.209 -10.209 -10.209 -10.209 -10.209 -10.209 -10.209
-10.208 -10.208 -10.208 -10.207 -10.207 -10.207 -10.207 -10.207
-10.206 -10.206 -10.205 -10.205 -10.205 -10.205 -10.204 -10.203
-10.202 -10.202 -10.202 -10.200 -10.198 -10.197 -10.197 -10.196
-10.194 -10.192 -10.192 -10.190  -1.099  -1.089  -1.024  -1.012
 -0.986  -0.985  -0.970  -0.969  -0.967  -0.965  -0.961  -0.961
 -0.941  -0.939  -0.931  -0.928  -0.927  -0.925  -0.924  -0.923
 -0.922  -0.921  -0.902  -0.900  -0.891  -0.891  -0.888  -0.886
 -0.877  -0.875  -0.863  -0.854  -0.844  -0.841  -0.841  -0.839
 -0.836  -0.835  -0.828  -0.822  -0.814  -0.807  -0.802  -0.798
 -0.796  -0.796  -0.794  -0.793  -0.792  -0.792  -0.787  -0.783
 -0.774  -0.770  -0.769  -0.768  -0.767  -0.766  -0.764  -0.764
 -0.759  -0.753  -0.746  -0.744  -0.736  -0.735  -0.719  -0.718
 -0.715  -0.714  -0.713  -0.712  -0.711  -0.711  -0.710  -0.710
 -0.709  -0.709  -0.706  -0.704  -0.702  -0.700  -0.674  -0.674
 -0.661  -0.659  -0.657  -0.657  -0.648  -0.648  -0.636  -0.634
 -0.628  -0.628  -0.626  -0.626  -0.624  -0.623  -0.620  -0.618
 -0.616  -0.616  -0.613  -0.612  -0.611  -0.610  -0.610  -0.608
 -0.607  -0.605  -0.602  -0.602  -0.571  -0.570  -0.567  -0.565
 -0.564  -0.563  -0.560  -0.559  -0.558  -0.557  -0.556  -0.555
 -0.543  -0.540  -0.537  -0.533  -0.528  -0.527  -0.526  -0.525
 -0.523  -0.522  -0.521  -0.520  -0.518  -0.516  -0.515  -0.513
 -0.509  -0.508  -0.500  -0.499  -0.495  -0.492  -0.489  -0.487
 -0.485  -0.485  -0.483  -0.483  -0.480  -0.478  -0.476  -0.475
 -0.474  -0.474  -0.472  -0.470  -0.470  -0.469  -0.468  -0.467
 -0.466  -0.466  -0.465  -0.464  -0.463  -0.463  -0.462  -0.460
 -0.458  -0.458  -0.457  -0.455  -0.453  -0.451  -0.448  -0.446
 -0.443  -0.442  -0.442  -0.440  -0.439  -0.436  -0.436  -0.434
 -0.433  -0.432  -0.430  -0.429  -0.428  -0.428  -0.427  -0.426
 -0.425  -0.424  -0.422  -0.422  -0.421  -0.420  -0.419  -0.418
 -0.418  -0.417  -0.416  -0.416  -0.415  -0.414  -0.414  -0.413
 -0.412  -0.411  -0.409  -0.406  -0.403  -0.402  -0.400  -0.397
 -0.395  -0.394  -0.393  -0.390  -0.389  -0.389  -0.388  -0.385
 -0.384  -0.382  -0.376  -0.376  -0.373  -0.372  -0.370  -0.369
 -0.366  -0.366  -0.365  -0.364  -0.363  -0.361  -0.360  -0.359
 -0.359  -0.357  -0.356  -0.355  -0.354  -0.354  -0.353  -0.353
 -0.352  -0.349  -0.349  -0.347  -0.347  -0.346  -0.344  -0.343
 -0.343  -0.342  -0.341  -0.340  -0.339  -0.339  -0.338  -0.334
 -0.333  -0.332  -0.332  -0.329  -0.327  -0.327  -0.325  -0.324
 -0.316  -0.309  -0.305  -0.296  -0.291  -0.287  -0.274  -0.271
 -0.270  -0.270  -0.269  -0.268  -0.267  -0.266  -0.265  -0.265
 -0.264  -0.262  -0.261  -0.259  -0.258  -0.257  -0.255  -0.255
 -0.250  -0.250  -0.244  -0.241  -0.222  -0.220  -0.215  -0.211
 -0.211  -0.209  -0.207  -0.205  -0.202  -0.195
 -- Virtual --
 -0.127  -0.124  -0.120  -0.119  -0.111  -0.106  -0.082  -0.079
 -0.077  -0.074  -0.064  -0.061  -0.056  -0.055  -0.028  -0.025
 -0.022  -0.020  -0.020  -0.017  -0.017  -0.016  -0.015  -0.013
 -0.011  -0.009  -0.008  -0.007  -0.005  -0.001   0.004   0.005
  0.010   0.011   0.032   0.034   0.037   0.039   0.043   0.049
  0.050   0.051   0.055   0.057   0.062   0.062   0.065   0.067
  0.069   0.075   0.078   0.080   0.082   0.084   0.088   0.089
  0.094   0.094   0.096   0.100   0.101   0.102   0.104   0.105
  0.108   0.111   0.112   0.112   0.114   0.115   0.119   0.120
  0.121   0.121   0.122   0.125   0.126   0.129   0.133   0.138
  0.138   0.141   0.144   0.145   0.146   0.148   0.149   0.152
  0.157   0.158   0.160   0.162   0.164   0.165   0.167   0.169
  0.170   0.172   0.173   0.175   0.176   0.179   0.181   0.182
  0.182   0.183   0.184   0.187   0.188   0.189   0.190   0.191
  0.195   0.197   0.198   0.199   0.202   0.204   0.205   0.208
  0.208   0.210   0.211   0.213   0.215   0.217   0.218   0.219
  0.219   0.221   0.222   0.223   0.224   0.227   0.229   0.230
  0.231   0.231   0.232   0.234   0.235   0.236   0.237   0.240
  0.240   0.241   0.242   0.244   0.246   0.255   0.258   0.259
  0.261   0.265   0.266   0.269   0.273   0.276   0.278   0.279
  0.282   0.285   0.287   0.288   0.293   0.296   0.298   0.303
  0.305   0.307   0.309   0.312   0.313   0.314   0.317   0.319
  0.321   0.321   0.323   0.324   0.330   0.331   0.333   0.335
  0.336   0.337   0.341   0.342   0.344   0.344   0.347   0.348
  0.350   0.352   0.353   0.362   0.366   0.367   0.387   0.389
  0.396   0.397   0.398   0.399   0.402   0.402   0.403   0.405
  0.407   0.410   0.412   0.414   0.415   0.417   0.421   0.422
  0.424   0.426   0.432   0.433   0.435   0.438   0.439   0.444
  0.445   0.448   0.451   0.452   0.454   0.457   0.459   0.462
  0.462   0.466   0.468   0.469   0.470   0.472   0.473   0.474
  0.475   0.477   0.478   0.479   0.480   0.480   0.482   0.484
  0.485   0.486   0.487   0.487   0.488   0.491   0.492   0.493
  0.493   0.497   0.498   0.498   0.500   0.502   0.502   0.503
  0.505   0.506   0.506   0.507   0.509   0.510   0.510   0.511
  0.512   0.513   0.514   0.514   0.516   0.517   0.517   0.518
  0.519   0.519   0.520   0.521   0.522   0.523   0.523   0.524
  0.526   0.527   0.528   0.529   0.529   0.530   0.531   0.532
  0.533   0.533   0.534   0.534   0.535   0.535   0.537   0.538
  0.538   0.539   0.539   0.540   0.541   0.542   0.542   0.543
  0.544   0.544   0.545   0.547   0.548   0.548   0.549   0.549
  0.550   0.551   0.551   0.552   0.553   0.554   0.555   0.555
  0.556   0.557   0.558   0.560   0.560   0.562   0.562   0.564
  0.564   0.566   0.566   0.567   0.568   0.569   0.569   0.570
  0.572   0.573   0.573   0.575   0.576   0.576   0.577   0.578
  0.580   0.581   0.582   0.583   0.583   0.584   0.586   0.587
  0.587   0.588   0.589   0.589   0.590   0.590   0.592   0.592
  0.593   0.594   0.595   0.596   0.597   0.597   0.598   0.599
  0.601   0.602   0.603   0.604   0.604   0.606   0.607   0.609
  0.610   0.610   0.611   0.612   0.613   0.614   0.614   0.615
  0.615   0.616   0.618   0.619   0.621   0.622   0.623   0.623
  0.624   0.625   0.626   0.628   0.629   0.630   0.631   0.632
  0.633   0.634   0.634   0.636   0.636   0.637   0.638   0.638
  0.640   0.641   0.642   0.643   0.645   0.647   0.647   0.648
  0.648   0.650   0.651   0.652   0.653   0.654   0.654   0.656
  0.657   0.657   0.658   0.660   0.660   0.662   0.662   0.663
  0.663   0.665   0.666   0.666   0.666   0.668   0.669   0.670
  0.670   0.671   0.672   0.672   0.673   0.674   0.677   0.678
  0.680   0.681   0.682   0.683   0.684   0.685   0.686   0.687
  0.688   0.688   0.690   0.691   0.692   0.693   0.694   0.695
  0.696   0.696   0.699   0.700   0.701   0.702   0.703   0.704
  0.705   0.705   0.707   0.708   0.709   0.710   0.712   0.712
  0.714   0.717   0.719   0.720   0.721   0.724   0.724   0.725
  0.725   0.726   0.727   0.728   0.729   0.731   0.732   0.735
  0.735   0.736   0.737   0.739   0.739   0.741   0.742   0.743
  0.743   0.745   0.747   0.748   0.749   0.751   0.752   0.753
  0.754   0.756   0.759   0.761   0.763   0.765   0.766   0.767
  0.769   0.769   0.771   0.771   0.772   0.774   0.775   0.776
  0.777   0.780   0.780   0.783   0.784   0.785   0.786   0.788
  0.789   0.790   0.791   0.791   0.793   0.794   0.795   0.796
  0.797   0.798   0.799   0.800   0.801   0.802   0.803   0.805
  0.805   0.807   0.807   0.808   0.808   0.809   0.811   0.811
  0.812   0.812   0.813   0.813   0.814   0.815   0.815   0.816
  0.817   0.818   0.819   0.819   0.820   0.821   0.822   0.822
  0.823   0.824   0.826   0.826   0.827   0.828   0.829   0.830
  0.834   0.835   0.836   0.838   0.839   0.842   0.842   0.843
  0.846   0.848   0.849   0.850   0.851   0.853   0.854   0.856
  0.861   0.866   0.870   0.871   0.876   0.880   0.881   0.882
  0.886   0.889   0.889   0.892   0.895   0.900   0.903   0.904
  0.905   0.910   0.910   0.915   0.917   0.920   0.922   0.922
  0.925   0.926   0.928   0.928   0.930   0.932   0.933   0.935
  0.936   0.937   0.940   0.940   0.942   0.943   0.944   0.944
  0.946   0.951   0.953   0.959   0.961   0.962   0.965   0.967
  0.969   0.971   0.973   0.973   0.976   0.979   0.984   0.988
  0.991   0.994   0.995   0.997   0.998   0.999   1.001   1.003
  1.005   1.006   1.008   1.009   1.010   1.012   1.013   1.016
  1.018   1.019   1.023   1.024   1.026   1.027   1.028   1.030
  1.030   1.032   1.034   1.036   1.039   1.040   1.042   1.044
  1.045   1.046   1.049   1.052   1.052   1.054   1.057   1.057
  1.059   1.059   1.060   1.064   1.066   1.066   1.067   1.068
  1.069   1.071   1.072   1.074   1.078   1.079   1.079   1.080
  1.082   1.084   1.086   1.087   1.088   1.090   1.091   1.093
  1.095   1.095   1.098   1.100   1.101   1.103   1.107   1.108
  1.112   1.113   1.114   1.118   1.120   1.120   1.124   1.127
  1.129   1.132   1.133   1.134   1.136   1.140   1.142   1.143
  1.146   1.148   1.150   1.150   1.153   1.156   1.156   1.158
  1.161   1.161   1.165   1.166   1.167   1.169   1.170   1.172
  1.173   1.177   1.178   1.179   1.181   1.182   1.185   1.185
  1.186   1.188   1.190   1.193   1.194   1.195   1.196   1.200
  1.201   1.203   1.206   1.209   1.212   1.215   1.216   1.220
  1.222   1.226   1.229   1.231   1.234   1.237   1.239   1.243
  1.244   1.246   1.250   1.252   1.255   1.256   1.259   1.263
  1.264   1.268   1.270   1.271   1.271   1.274   1.275   1.276
  1.278   1.281   1.283   1.285   1.287   1.290   1.292   1.293
  1.296   1.297   1.299   1.300   1.303   1.304   1.308   1.312
  1.315   1.315   1.317   1.321   1.321   1.323   1.329   1.330
  1.332   1.335   1.340   1.342   1.343   1.345   1.348   1.349
  1.351   1.352   1.353   1.356   1.358   1.359   1.360   1.363
  1.364   1.369   1.369   1.372   1.373   1.375   1.379   1.381
  1.382   1.384   1.388   1.390   1.394   1.396   1.402   1.403
  1.406   1.407   1.412   1.412   1.413   1.415   1.417   1.421
  1.423   1.424   1.426   1.431   1.440   1.441   1.442   1.445
  1.448   1.451   1.454   1.456   1.457   1.459   1.461   1.463
  1.466   1.467   1.468   1.470   1.472   1.473   1.475   1.476
  1.479   1.480   1.483   1.485   1.488   1.489   1.490   1.492
  1.496   1.500   1.503   1.506   1.507   1.511   1.512   1.515
  1.517   1.520   1.521   1.524   1.528   1.532   1.535   1.536
  1.537   1.542   1.544   1.546   1.551   1.552   1.553   1.555
  1.557   1.558   1.560   1.561   1.563   1.566   1.568   1.571
  1.573   1.573   1.574   1.578   1.581   1.582   1.583   1.585
  1.592   1.592   1.595   1.599   1.604   1.607   1.611   1.616
  1.620   1.622   1.627   1.629   1.630   1.631   1.634   1.636
  1.642   1.646   1.647   1.650   1.655   1.662   1.663   1.666
  1.668   1.677   1.682   1.684   1.685   1.690   1.691   1.694
  1.697   1.701   1.704   1.707   1.710   1.710   1.712   1.716
  1.716   1.719   1.723   1.725   1.728   1.730   1.732   1.736
  1.738   1.739   1.740   1.741   1.742   1.745   1.745   1.746
  1.747   1.749   1.753   1.754   1.756   1.757   1.758   1.759
  1.760   1.761   1.763   1.764   1.766   1.767   1.770   1.770
  1.771   1.772   1.775   1.775   1.776   1.777   1.779   1.780
  1.781   1.782   1.784   1.785   1.786   1.789   1.790   1.790
  1.792   1.792   1.794   1.794   1.796   1.798   1.800   1.800
  1.801   1.802   1.804   1.805   1.806   1.807   1.808   1.809
  1.811   1.813   1.815   1.816   1.818   1.821   1.822   1.823
  1.826   1.830   1.833   1.837   1.838   1.842   1.844   1.845
  1.847   1.848   1.850   1.853   1.854   1.857   1.860   1.861
  1.864   1.865   1.867   1.867   1.868   1.870   1.872   1.873
  1.874   1.875   1.878   1.878   1.879   1.882   1.884   1.886
  1.887   1.889   1.893   1.896   1.896   1.898   1.899   1.909
  1.910   1.911   1.913   1.915   1.918   1.919   1.924   1.925
  1.926   1.927   1.928   1.930   1.931   1.933   1.934   1.936
  1.938   1.939   1.940   1.941   1.943   1.946   1.949   1.951
  1.953   1.956   1.957   1.959   1.960   1.962   1.966   1.968
  1.969   1.970   1.972   1.974   1.976   1.978   1.978   1.980
  1.983   1.985   1.988   1.990   1.991   1.993   1.995   1.996
  1.998   1.999   1.999   2.000   2.000   2.002   2.004   2.006
  2.008   2.008   2.009   2.011   2.014   2.014   2.016   2.017
  2.017   2.019   2.019   2.022   2.023   2.025   2.026   2.027
  2.028   2.030   2.031   2.032   2.034   2.034   2.035   2.037
  2.040   2.040   2.041   2.043   2.044   2.046   2.047   2.049
  2.050   2.050   2.051   2.052   2.053   2.055   2.055   2.057
  2.057   2.059   2.060   2.062   2.063   2.064   2.066   2.067
  2.068   2.071   2.071   2.072   2.074   2.076   2.076   2.078
  2.078   2.081   2.082   2.085   2.085   2.086   2.088   2.090
  2.091   2.092   2.093   2.094   2.097   2.097   2.099   2.101
  2.103   2.104   2.107   2.108   2.111   2.114   2.115   2.119
  2.119   2.122   2.123   2.126   2.132   2.135   2.136   2.141
  2.144   2.146   2.153   2.154   2.156   2.162   2.166   2.170
  2.173   2.182   2.184   2.187   2.193   2.198   2.199   2.200
  2.201   2.208   2.212   2.213   2.217   2.221   2.225   2.229
  2.233   2.234   2.234   2.239   2.241   2.243   2.246   2.247
  2.249   2.250   2.253   2.254   2.256   2.259   2.262   2.265
  2.268   2.269   2.270   2.273   2.274   2.282   2.286   2.288
  2.288   2.289   2.291   2.292   2.294   2.298   2.300   2.304
  2.305   2.307   2.309   2.311   2.315   2.315   2.317   2.320
  2.323   2.328   2.329   2.331   2.332   2.335   2.338   2.341
  2.343   2.345   2.346   2.349   2.350   2.353   2.355   2.356
  2.359   2.361   2.363   2.363   2.365   2.366   2.366   2.368
  2.369   2.372   2.374   2.374   2.377   2.378   2.379   2.380
  2.383   2.385   2.388   2.389   2.390   2.394   2.394   2.398
  2.400   2.402   2.402   2.404   2.406   2.407   2.408   2.409
  2.411   2.412   2.415   2.416   2.417   2.421   2.423   2.426
  2.429   2.430   2.435   2.438   2.440   2.441   2.442   2.443
  2.447   2.449   2.449   2.451   2.453   2.455   2.458   2.461
  2.464   2.464   2.466   2.467   2.468   2.469   2.471   2.475
  2.477   2.479   2.482   2.483   2.486   2.487   2.488   2.490
  2.492   2.494   2.497   2.499   2.501   2.502   2.503   2.505
  2.506   2.508   2.512   2.514   2.515   2.517   2.520   2.521
  2.522   2.524   2.530   2.531   2.532   2.536   2.536   2.539
  2.541   2.546   2.547   2.549   2.552   2.557   2.560   2.561
  2.568   2.569   2.575   2.577   2.579   2.580   2.583   2.585
  2.587   2.592   2.594   2.597   2.598   2.602   2.603   2.604
  2.606   2.609   2.609   2.613   2.616   2.617   2.619   2.621
  2.623   2.625   2.625   2.630   2.630   2.632   2.633   2.634
  2.636   2.637   2.640   2.641   2.642   2.647   2.648   2.649
  2.651   2.652   2.654   2.655   2.657   2.660   2.662   2.663
  2.665   2.666   2.668   2.670   2.671   2.673   2.675   2.676
  2.676   2.678   2.681   2.682   2.685   2.685   2.687   2.689
  2.691   2.694   2.695   2.697   2.700   2.703   2.704   2.706
  2.707   2.711   2.713   2.714   2.717   2.719   2.722   2.724
  2.726   2.728   2.731   2.735   2.736   2.739   2.742   2.744
  2.744   2.745   2.749   2.752   2.753   2.754   2.758   2.759
  2.762   2.765   2.766   2.768   2.769   2.771   2.772   2.775
  2.778   2.781   2.783   2.786   2.788   2.792   2.798   2.799
  2.800   2.806   2.809   2.811   2.811   2.814   2.821   2.821
  2.824   2.825   2.829   2.832   2.836   2.837   2.838   2.843
  2.845   2.847   2.851   2.853   2.854   2.857   2.860   2.863
  2.865   2.867   2.871   2.871   2.872   2.874   2.876   2.877
  2.879   2.883   2.885   2.885   2.887   2.888   2.890   2.891
  2.893   2.896   2.896   2.898   2.901   2.902   2.905   2.905
  2.906   2.907   2.908   2.912   2.913   2.915   2.917   2.920
  2.920   2.923   2.924   2.929   2.932   2.935   2.936   2.937
  2.939   2.941   2.942   2.944   2.944   2.950   2.951   2.956
  2.957   2.960   2.963   2.969   2.970   2.972   2.975   2.977
  2.980   2.982   2.984   2.990   2.996   2.999   2.999   3.002
  3.005   3.008   3.012   3.014   3.016   3.016   3.017   3.020
  3.026   3.028   3.031   3.033   3.036   3.037   3.039   3.041
  3.044   3.045   3.050   3.052   3.055   3.058   3.062   3.065
  3.067   3.069   3.072   3.079   3.084   3.087   3.094   3.096
  3.105   3.117   3.126   3.128   3.133   3.137   3.143   3.148
  3.155   3.156   3.167   3.168   3.172   3.184   3.186   3.189
  3.189   3.198   3.204   3.212   3.217   3.225   3.231   3.232
  3.237   3.239   3.257   3.261   3.262   3.269   3.270   3.280
  3.284   3.292   3.302   3.305   3.314   3.317   3.321   3.325
  3.332   3.337   3.338   3.340   3.350   3.373   3.374   3.385
  3.397   3.398   3.407   3.409   3.412   3.415   3.423   3.424
  3.429   3.448   3.454   3.459   3.465   3.474   3.475   3.488
  3.494   3.503   3.509   3.513   3.518   3.522   3.543   3.550
  3.555   3.558   3.561   3.562   3.570   3.578   3.582   3.601
  3.603   3.626   3.674   3.686   3.845   3.928   3.999   4.001
  4.075   4.076   4.079   4.087   4.089   4.094   4.096   4.098
  4.099   4.100   4.106   4.106   4.110   4.116   4.123   4.126
  4.128   4.131   4.138   4.139   4.142   4.144   4.147   4.159
  4.161   4.163   4.164   4.166   4.169   4.174   4.176   4.180
  4.184   4.188   4.193   4.200   4.208   4.226   4.229   4.235
  4.241   4.244   4.248   4.250   4.252   4.256   4.258   4.262
  4.266   4.269   4.272   4.284   4.287   4.290   4.294   4.301
  4.311   4.314   4.322   4.335   4.378   4.378   4.385   4.393
  4.397   4.403   4.404   4.408   4.410   4.411   4.416   4.417
  4.421   4.425   4.429   4.430   4.436   4.443   4.463   4.468
  4.480   4.490   4.503   4.506   4.535   4.540   4.542   4.550
  4.560   4.563   4.599   4.607   4.620   4.621   4.633   4.638
  4.641   4.649   4.675   4.678   4.693   4.695   4.698   4.701
  4.702   4.709   4.710   4.714   4.752   4.760   4.798   4.839
  4.842   4.858   4.862   4.870   4.872   4.885   4.891   4.896
  4.900   4.905   4.947   4.954   4.963   4.965   4.972   4.979
  4.990   4.995   5.001   5.011   5.154   5.158   5.162   5.171
  5.198   5.200   5.215   5.236   5.287   5.292   5.320   5.328
  5.351   5.368
 --------------------------------------------------------------
 
          Ground-State Mulliken Net Atomic Charges

     Atom                 Charge (a.u.)
  ----------------------------------------
      1 O                    -0.449329
      2 C                    -0.091034
      3 H                     0.126246
      4 H                     0.133161
      5 H                     0.125448
      6 O                    -0.455335
      7 C                     0.579652
      8 C                    -0.271815
      9 H                     0.130375
     10 H                     0.126273
     11 C                    -0.175873
     12 H                     0.113792
     13 H                     0.120435
     14 C                    -0.192757
     15 H                     0.117293
     16 H                     0.110752
     17 C                    -0.000548
     18 C                     0.087588
     19 C                    -0.093479
     20 H                     0.101715
     21 C                    -0.095249
     22 H                     0.085455
     23 C                    -0.074267
     24 H                     0.087181
     25 C                    -0.094131
     26 H                     0.100343
     27 C                    -0.110452
     28 H                     0.093839
     29 C                    -0.008948
     30 C                     0.008018
     31 C                    -0.024529
     32 C                    -0.068538
     33 C                    -0.015505
     34 C                    -0.017240
     35 C                    -0.008636
     36 C                     0.012850
     37 C                     0.010062
     38 C                     0.023777
     39 C                    -0.070631
     40 C                    -0.002258
     41 C                     0.005886
     42 C                     0.033611
     43 C                     0.003560
     44 C                     0.010897
     45 C                    -0.084600
     46 C                     0.040496
     47 C                    -0.011630
     48 C                    -0.023991
     49 C                     0.003701
     50 C                     0.025669
     51 C                     0.004313
     52 C                     0.020552
     53 C                    -0.013357
     54 C                    -0.030285
     55 C                     0.015442
     56 C                    -0.018832
     57 C                    -0.007292
     58 C                     0.000217
     59 C                     0.027100
     60 C                     0.038711
     61 C                     0.001658
     62 C                    -0.013109
     63 C                     0.041094
     64 C                     0.016815
     65 C                    -0.034235
     66 C                    -0.051103
     67 C                     0.013226
     68 C                    -0.034997
     69 C                     0.056952
     70 C                     0.045961
     71 C                    -0.003698
     72 C                    -0.007800
     73 C                     0.031882
     74 C                    -0.034526
     75 C                     0.016680
     76 C                     0.016291
     77 C                     0.009252
     78 C                     0.013331
     79 C                    -0.015343
     80 C                     0.021830
     81 C                    -0.008863
     82 C                    -0.028981
     83 C                    -0.004353
     84 C                    -0.012671
     85 C                    -0.009837
     86 C                    -0.011767
     87 C                    -0.005260
     88 C                    -0.023098
     89 O                    -0.477238
     90 C                    -0.082351
     91 H                     0.130961
     92 H                     0.126077
     93 H                     0.122815
     94 O                    -0.450964
     95 C                     0.567760
     96 C                    -0.234162
     97 H                     0.137600
     98 H                     0.125349
     99 C                    -0.191742
    100 H                     0.124847
    101 H                     0.117630
    102 C                    -0.180260
    103 H                     0.107284
    104 H                     0.112683
    105 C                     0.011854
    106 C                     0.093059
    107 C                    -0.101273
    108 H                     0.087654
    109 C                    -0.088598
    110 H                     0.096457
    111 C                    -0.091148
    112 H                     0.082142
    113 C                    -0.073015
    114 H                     0.093635
    115 C                    -0.115579
    116 H                     0.090252
    117 C                    -0.023547
    118 C                    -0.002529
    119 C                     0.010719
    120 C                    -0.016617
    121 C                     0.000064
    122 C                     0.005183
    123 C                    -0.010904
    124 C                    -0.025867
    125 C                    -0.027075
    126 C                     0.016521
    127 C                    -0.047424
    128 C                    -0.027645
    129 C                    -0.010699
    130 C                    -0.000781
    131 C                     0.011917
    132 C                    -0.020899
    133 C                    -0.089685
    134 C                     0.015987
    135 C                     0.022058
    136 C                    -0.004406
    137 C                     0.002987
    138 C                     0.009846
    139 C                     0.021215
    140 C                     0.022132
    141 C                     0.035499
    142 C                    -0.006149
    143 C                     0.012703
    144 C                    -0.014233
    145 C                     0.028683
    146 C                     0.014480
    147 C                    -0.002536
    148 C                     0.003171
    149 C                    -0.018957
    150 C                    -0.037407
    151 C                     0.013743
    152 C                     0.024197
    153 C                    -0.005611
    154 C                    -0.008514
    155 C                    -0.011441
    156 C                     0.000440
    157 C                     0.008485
    158 C                     0.024863
    159 C                     0.002339
    160 C                     0.001959
    161 C                     0.022739
    162 C                     0.018049
    163 C                    -0.007054
    164 C                     0.007803
    165 C                     0.005833
    166 C                    -0.005407
    167 C                    -0.025479
    168 C                     0.003809
    169 C                    -0.009697
    170 C                    -0.019761
    171 C                     0.003015
    172 C                     0.011565
    173 C                    -0.019629
    174 C                    -0.001302
    175 C                    -0.006518
    176 C                    -0.015166
  ----------------------------------------
  Sum of atomic charges =     0.000000

 -----------------------------------------------------------------
                    Cartesian Multipole Moments
 -----------------------------------------------------------------
    Charge (ESU x 10^10)
                 0.0000
    Dipole Moment (Debye)
         X       0.9609      Y       0.7659      Z      -0.5750
       Tot       1.3567
    Quadrupole Moments (Debye-Ang)
        XX    -775.9560     XY      24.2285     YY    -809.7122
        XZ       0.4721     YZ       7.2862     ZZ    -827.3768
    Octopole Moments (Debye-Ang^2)
       XXX       4.8937    XXY     -11.8302    XYY     -26.2246
       YYY      92.5049    XXZ    -237.5521    XYZ      86.2020
       YYZ     148.8072    XZZ      -7.2791    YZZ     -36.1446
       ZZZ    -105.1489
    Hexadecapole Moments (Debye-Ang^3)
      XXXX -135677.3578   XXXY    4717.8873   XXYY  -29723.4907
      XYYY    1938.0512   YYYY  -41389.0309   XXXZ     768.4849
      XXYZ     631.9369   XYYZ     743.7979   YYYZ     737.4832
      XXZZ  -29275.5078   XYZZ    -456.0869   YYZZ  -14916.4837
      XZZZ     226.9451   YZZZ      62.1511   ZZZZ  -36959.9402
 -----------------------------------------------------------------
Archival summary:
1\1\mn366\SP\ProcedureUnspecified\6-31G**\428\afmv_a\SatOct607:57:082018SatOct607:57:082018\0\\#,ProcedureUnspecified,6-31G**,\\0,1\C\C,1,1.3932\C,2,1.38316,1,120.941\C,1,1.39706,2,115.491,3,138.027,0\C,3,1.39743,2,109.197,1,-142.56,0\C,5,1.38653,3,107.63,2,-1.43872,0\C,6,1.37855,5,109.486,3,3.32642,0\C,7,1.40857,6,120.602,5,143.849,0\C,8,1.37952,7,117.043,6,-141.364,0\C,8,1.39312,7,121.14,6,-0.950692,0\C,9,1.41505,8,107.693,7,140.688,0\C,11,1.40699,9,118.607,8,-138.05,0\C,12,1.34518,11,120.149,9,143.327,0\C,12,1.36515,11,119.858,9,-3.6805,0\C,14,1.36193,12,124.115,11,1.74427,0\C,13,1.37111,12,107.005,11,-146.514,0\C,16,1.406,13,108.645,12,-2.39268,0\C,13,1.41375,12,121.886,11,-8.7877,0\C,18,1.402,13,117.568,12,4.35729,0\C,19,1.39057,18,121.612,13,1.6608,0\C,19,1.39531,18,109.527,13,-136.239,0\C,18,1.40595,13,123.146,12,-131.879,0\C,22,1.3806,18,110.005,13,136.606,0\C,21,1.40833,19,126.563,18,149.369,0\C,24,1.40037,21,117.938,19,-8.67667,0\C,25,1.39582,24,106.744,21,-136.996,0\C,16,1.41715,13,123.166,12,144.193,0\C,27,1.35327,16,118.303,13,-8.10721,0\C,28,1.38457,27,109.34,16,-136.832,0\C,29,1.37189,28,108.002,27,1.44925,0\C,30,1.36247,29,108.928,28,2.70305,0\C,31,1.37758,30,125.245,29,150.033,0\C,30,1.38073,29,117.984,28,146.707,0\C,33,1.41574,30,117.382,29,-143.212,0\C,34,1.38471,33,107.556,30,143.086,0\C,35,1.41311,34,119.367,33,-139.277,0\C,36,1.37358,35,120.649,34,1.8755,0\C,37,1.39628,36,109.504,35,141.13,0\C,38,1.37975,37,107.217,36,-1.46508,0\C,39,1.37391,38,109.283,37,0.156669,0\C,40,1.39351,39,119.811,38,-143.654,0\C,41,1.37981,40,119.501,39,138.658,0\C,41,1.40663,40,119.129,39,1.95582,0\C,43,1.37724,41,109.184,40,145.662,0\C,42,1.40778,41,106.987,40,-141.422,0\C,45,1.39648,42,120.965,41,139.555,0\C,46,1.40235,45,123.718,42,-140.509,0\C,47,1.38173,46,105.246,45,144.659,0\C,48,1.37978,47,113.606,46,-0.379944,0\C,49,1.39553,48,103.889,47,2.13814,0\C,50,1.40947,49,120.42,48,-150.598,0\C,37,1.41239,36,123.774,35,-8.0852,0\C,35,1.41354,34,108.158,33,1.38118,0\C,24,1.41861,21,116.241,19,-142.759,0\C,54,1.39022,24,105.894,21,136.445,0\C,1,1.4241,2,121.234,3,-0.529404,0\C,56,1.42726,1,111.714,2,148.871,0\C,17,1.43247,16,125.008,13,156.016,0\C,34,1.43335,33,121.237,30,1.02068,0\C,57,1.48344,56,127.864,1,146.127,0\C,60,1.47114,57,60.3104,56,106.644,0\C,60,1.52003,57,113.592,56,-9.69899,0\C,62,1.37485,60,124.617,57,-49.7266,0\H,63,1.08617,62,114.509,60,6.74973,0\C,63,1.37099,62,120.052,60,178.613,0\H,65,1.08588,63,122.907,62,-175.163,0\C,65,1.33522,63,119.455,62,-0.00483686,0\H,67,1.08639,65,117.262,63,-176.978,0\C,62,1.40475,60,115.641,57,134.147,0\H,69,1.08609,62,117.71,60,3.2153,0\C,69,1.35825,62,121.515,60,-177.582,0\H,71,1.08604,69,121.188,62,178.814,0\C,60,1.54104,57,125.504,56,-149.551,0\H,73,1.09702,60,107.596,57,104.324,0\H,73,1.09703,60,110.5,57,-5.81914,0\C,73,1.47544,60,118.66,57,-139.975,0\H,76,1.09685,73,108.23,60,51.1262,0\H,76,1.097,73,110.516,60,-63.5167,0\C,76,1.5243,73,110.977,60,-179.54,0\H,79,1.09649,76,109.047,73,-71.6769,0\H,79,1.09723,76,115.335,73,49.2773,0\C,79,1.55098,76,109.278,73,177.662,0\O,82,1.20765,79,120.144,76,-100.207,0\O,82,1.39082,79,117.235,76,83.2512,0\C,84,1.42965,82,120.719,79,169.301,0\H,85,1.09676,84,111.067,82,43.8247,0\H,85,1.09692,84,110.24,82,-70.374,0\H,85,1.09723,84,108.928,82,165.748,0\C,7,3.4171,6,124.271,5,-100.671,0\C,89,1.37799,7,94.5168,6,172.161,0\C,90,1.37657,89,119.19,7,-89.1893,0\C,91,1.36872,90,119.892,89,-9.13873,0\C,92,1.39483,91,122.384,90,-136.524,0\C,89,1.39713,7,91.8731,6,48.7201,0\C,94,1.35692,89,107.169,7,-127.576,0\C,94,1.38231,89,117.432,7,95.5389,0\C,96,1.38128,94,122.658,89,138.208,0\C,95,1.39806,94,109.088,89,1.82401,0\C,98,1.36149,95,108.66,94,-1.57074,0\C,91,1.39873,90,107.14,89,-147.639,0\C,97,1.40151,96,109.441,94,-146.891,0\C,101,1.40462,97,118.308,96,141.018,0\C,102,1.4054,101,119.179,97,-133.778,0\C,103,1.36658,102,121.95,101,-2.01022,0\C,104,1.38072,103,120.819,102,137.841,0\C,105,1.39612,104,111.172,103,-138.521,0\C,106,1.40821,105,124.668,104,150.508,0\C,100,1.41047,91,109.55,90,-1.2897,0\C,108,1.39954,100,106.387,91,-4.18567,0\C,109,1.38013,108,116.891,100,143.367,0\C,110,1.37801,109,124.608,108,-3.7162,0\C,111,1.38491,110,118.983,109,5.67909,0\C,112,1.37736,111,122.554,110,-139.542,0\C,113,1.37315,112,111.835,111,146.308,0\C,111,1.39091,110,113.809,109,-140.66,0\C,115,1.38436,111,120.214,110,141.696,0\C,116,1.37172,115,120.821,111,5.58171,0\C,117,1.34732,116,106.498,115,-147.869,0\C,116,1.38087,115,120.982,111,-143.881,0\C,118,1.39161,117,110.688,116,-4.13884,0\C,119,1.39351,116,121.444,115,9.44593,0\C,121,1.3971,119,120.389,116,127.755,0\C,122,1.36521,121,110.143,119,-138.864,0\C,123,1.36645,122,108.484,121,-0.156675,0\C,115,1.39726,111,105.492,110,3.72197,0\C,110,1.39952,109,118.376,108,-135.714,0\C,121,1.40343,119,117.331,116,-4.06312,0\C,93,1.41054,92,122.842,91,-3.64371,0\C,114,1.41111,113,115.803,112,-138.696,0\C,107,1.41446,106,117.988,105,-140.733,0\C,128,1.41819,93,113.233,92,11.4224,0\C,122,1.41858,121,121.706,119,5.03904,0\C,132,1.40658,122,118.667,121,-138.253,0\C,133,1.39857,132,110.326,122,140.368,0\C,134,1.41133,133,124.113,132,-148.129,0\C,135,1.40251,134,118.323,133,133.068,0\C,132,1.41431,122,117.806,121,-2.50261,0\C,129,1.42094,114,122.359,113,136.214,0\C,138,1.41731,129,105.419,114,-145.878,0\C,139,1.41063,138,109.47,129,-5.01291,0\C,140,1.37964,139,108.922,138,4.23105,0\C,140,1.3967,139,118.987,138,142.173,0\C,123,1.42314,122,123.466,121,143.996,0\C,143,1.38448,123,123.913,122,-136.258,0\C,144,1.40578,143,111.712,123,146.03,0\C,143,1.40796,123,121.926,122,6.19328,0\C,135,1.44713,134,119.804,133,-3.89544,0\C,147,1.45017,135,119.111,134,-1.79673,0\C,148,1.51976,147,63.9447,135,-116.58,0\C,149,1.47268,148,119.751,147,105.497,0\C,150,1.39845,149,117.861,148,52.1985,0\H,151,1.08604,150,129.016,149,-0.738283,0\C,150,1.42015,149,119.655,148,-135.862,0\H,153,1.08674,150,122.174,149,-11.1088,0\C,153,1.4116,150,121.313,149,178.148,0\H,155,1.08608,153,119.142,150,-168.363,0\C,155,1.41765,153,115.909,150,5.42584,0\H,157,1.08551,155,126.696,153,179.987,0\C,157,1.38046,155,121.874,153,-0.542936,0\H,159,1.08579,157,116.405,155,173.21,0\C,149,1.55376,148,121.455,147,-100.53,0\H,161,1.09714,149,108.627,148,5.70766,0\H,161,1.09767,149,119.176,148,121.308,0\C,161,1.53357,149,115.604,148,-105.364,0\H,164,1.0965,161,110.745,149,60.655,0\H,164,1.09722,161,118.377,149,-70.7664,0\C,164,1.57904,161,106.648,149,-175.711,0\H,167,1.09699,164,112.191,161,-38.7161,0\H,167,1.09781,164,104.603,161,89.085,0\C,167,1.56158,164,114.437,161,-157.907,0\O,170,1.20186,167,124.447,164,-134.126,0\O,170,1.35698,167,106.555,164,45.8973,0\C,172,1.43632,170,121.423,167,-173.211,0\H,173,1.09682,172,112.242,170,-55.447,0\H,173,1.0975,172,106.24,170,-178.209,0\H,173,1.09784,172,112.727,170,65.6289,0\\\@

 Total job time:  838.35s(wall), 7071.63s(cpu) 
 Sat Oct  6 07:57:08 2018

        *************************************************************
        *                                                           *
        *  Thank you very much for using Q-Chem.  Have a nice day.  *
        *                                                           *
        *************************************************************


