
Running Job 1 of 1 ./7/32.qcin
qchem ./7/32.qcin_138739.0 /tmpu/cab_g/afmv_a/scratch_qchem/qchem138739/ 1
/tmpu/appuserlic/qchem4.4/serial-multicore/exe/qcprog.exe_s ./7/32.qcin_138739.0 /tmpu/cab_g/afmv_a/scratch_qchem/qchem138739/
Check license passed

                  Welcome to Q-Chem
     A Quantum Leap Into The Future Of Chemistry


 Q-Chem 4.4, Q-Chem, Inc., Pleasanton, CA (2016)

 Y. Shao,  Z. Gan,  E. Epifanovsky,  A. T. B. Gilbert,  M. Wormit,  
 J. Kussmann,  A. W. Lange,  A. Behn,  J. Deng,  X. Feng,  D. Ghosh,  
 M. Goldey,  P. R. Horn,  L. D. Jacobson,  I. Kaliman,  F. Rob,  
 R. Z. Khaliullin,  T. Kus,  A. Landau,  J. Liu,  E. I. Proynov,  Y. M. Rhee,  
 R. M. Richard,  M. A. Rohrdanz,  R. P. Steele,  E. J. Sundstrom,  
 H. L. Woodcock III,  P. M. Zimmerman,  D. Zuev,  B. Albrecht,  E. Alguire,  
 B. Austin,  S. A. Baeppler,  G. J. O. Beran,  Y. A. Bernard,  E. Berquist,  
 K. Brandhorst,  K. B. Bravaya,  S. T. Brown,  D. Casanova,  C.-M. Chang,  
 Y. Chen,  S. H. Chien,  K. D. Closser,  M. P. Coons,  D. L. Crittenden,  
 S. Dasgupta,  M. Diedenhofen,  R. A. DiStasio Jr.,  H. Do,  A. D. Dutoi,  
 R. G. Edgar,  P.-T. Fang,  S. Fatehi,  Q. Feng,  L. Fusti-Molnar,  
 A. Ghysels,  A. Golubeva-Zadorozhnaya,  J. Gomes,  A. Gunina,  
 M. W. D. Hanson-Heine,  P. H. P. Harbach,  A. W. Hauser,  J. E. Herr,  
 E. G. Hohenstein,  Z. C. Holden,  K. Hui,  T.-C. Jagau,  H. Ji,  B. Kaduk,  
 K. Khistyaev,  Jaehoon Kim,  Jihan Kim,  R. A. King,  P. Klunzinger,  
 K. Koh,  D. Kosenkov,  T. Kowalczyk,  C. M. Krauter,  A. Kunitsa,  
 K. U. Lao,  A. Laurent,  K. V. Lawler,  J. Lee,  D. Lefrancois,  S. Lehtola,  
 S. V. Levchenko,  C. Y. Lin,  Y.-S. Lin,  F. Liu,  E. Livshits,  
 R. C. Lochan,  A. Luenser,  P. Manohar,  S. F. Manzer,  S.-P. Mao,  Y. Mao,  
 N. Mardirossian,  A. V. Marenich,  L. A. Martinez-Martinez,  S. A. Maurer,  
 N. J. Mayhall,  J.-M. Mewes,  A. F. Morrison,  K. Nanda,  T. S. Nguyen-Beck,  
 C. M. Oana,  R. Olivares-Amaya,  D. P. O'Neill,  J. A. Parkhill,  
 T. M. Perrine,  R. Peverati,  P. A. Pieniazek,  F. Plasser,  A. Prociuk,  
 D. R. Rehn,  E. Rosta,  N. J. Russ,  N. Sergueev,  S. M. Sharada,  
 S. Sharma,  D. W. Small,  A. Sodt,  T. Stauch,  T. Stein,  D. Stuck,  
 Y.-C. Su,  A. J. W. Thom,  T. Tsuchimochi,  L. Vogt,  O. Vydrov,  T. Wang,  
 M. A. Watson,  J. Wenzel,  A. White,  C. F. Williams,  V. Vanovschi,  
 K. Yao,  S. Yeganeh,  S. R. Yost,  Z.-Q. You,  I. Y. Zhang,  X. Zhang,  
 Y. Zhao,  B. R. Brooks,  G. K. L. Chan,  D. M. Chipman,  C. J. Cramer,  
 W. A. Goddard III,  M. S. Gordon,  W. J. Hehre,  A. Klamt,  
 H. F. Schaefer III,  M. W. Schmidt,  C. D. Sherrill,  D. G. Truhlar,  
 A. Warshel,  X. Xu,  A. Aspuru-Guzik,  R. Baer,  A. T. Bell,  N. A. Besley,  
 J.-D. Chai,  A. Dreuw,  B. D. Dunietz,  T. R. Furlani,  S. R. Gwaltney,  
 C.-P. Hsu,  Y. Jung,  J. Kong,  D. S. Lambrecht,  W. Liang,  C. Ochsenfeld,  
 V. A. Rassolov,  L. V. Slipchenko,  J. E. Subotnik,  T. Van Voorhis,  
 J. M. Herbert,  A. I. Krylov,  P. M. W. Gill,  M. Head-Gordon

 Contributors to earlier versions of Q-Chem not listed above: 
 R. D. Adamson,  J. Baker,  E. F. C. Byrd,  A. K. Chakraborty,  C.-L. Cheng,  
 H. Dachsel,  R. J. Doerksen,  G. Hawkins,  A. Heyden,  S. Hirata,  
 G. Kedziora,  F. J. Keil,  C. Kelley,  P. P. Korambath,  W. Kurlancheek,  
 A. M. Lee,  M. S. Lee,  D. Liotard,  I. Lotan,  P. E. Maslen,  N. Nair,  
 D. Neuhauser,  R. Olson,  B. Peters,  J. Ritchie,  N. E. Schultz,  
 N. Shenvi,  A. C. Simmonett,  K. S. Thanthiriwatte,  Q. Wu,  W. Zhang

 Please cite Q-Chem as follows:
 Y. Shao et al., Mol. Phys. 113, 184-215 (2015)
 DOI: 10.1080/00268976.2014.952696

 Q-Chem 4.4.2 for Intel X86 Linux

 Parts of Q-Chem use Armadillo 5.200.1 (Boston Tea Smuggler).
 http://arma.sourceforge.net/

 Q-Chem begins on Sat Oct  6 09:11:47 2018  

Host: 
0

     Scratch files written to /tmpu/cab_g/afmv_a/scratch_qchem/qchem138739//
 Dec716 11556_ 22328  22283 4050   
Processing $rem in /tmpu/appuserlic/qchem4.4/serial-multicore/config/preferences.
 MEM_TOTAL  2000 
FILE_GEOM_ORG=        593

Checking the input file for inconsistencies... 	...done.

--------------------------------------------------------------
User input:
--------------------------------------------------------------
$comment
SP
$end

$rem
MEM_STATIC 5000
MEM_TOTAL 20000
JOBTYPE SP
EXCHANGE B3LYP
BASIS 6-31g(d,p)
$end

$molecule
0 1
O           9.874000     13.023000      9.933000
C          11.151000     13.707000      9.711000
H          11.616000     13.472000      8.745000
H          11.884000     13.514000     10.503000
H          11.018000     14.794000      9.652000
O           9.105000     13.671000      7.911000
C           8.956000     13.063000      8.926000
C           7.675000     12.364000      9.270000
H           7.098000     12.232000      8.346000
H           7.035000     13.013000      9.880000
C           7.798000     10.976000      9.947000
H           8.532000     10.326000      9.457000
H           8.242000     11.275000     10.905000
C           6.455000     10.292000     10.033000
H           5.710000     11.055000     10.291000
H           6.287000      9.951000      9.004000
C           6.492000      9.089000     11.015000
C           6.448000      9.531000     12.454000
C           5.127000      9.842000     12.950000
H           4.290000      9.890000     12.261000
C           5.029000     10.275000     14.261000
H           4.061000     10.560000     14.664000
C           6.214000     10.487000     15.010000
H           6.116000     10.898000     16.011000
C           7.495000     10.164000     14.516000
H           8.368000     10.181000     15.163000
C           7.612000      9.654000     13.255000
H           8.599000      9.351000     12.918000
C           8.385000      4.098000     12.160000
C           6.126000      4.007000     13.088000
C           4.588000      1.235000      9.790000
C           8.618000      5.646000      7.279000
C           3.231000      3.855000      7.898000
C           7.292000      4.736000     12.836000
C           6.297000      4.751000      6.017000
C           6.684000      1.239000     10.910000
C           3.845000      6.439000     10.838000
C           7.539000      6.520000      7.058000
C           5.736000      7.840000     10.551000
C           3.858000      6.860000      9.522000
C           5.262000      6.698000      7.069000
C           5.127000      4.007000      6.286000
C           5.619000      6.149000     12.459000
C           4.659000      1.961000      7.568000
C           7.228000      7.818000     10.610000
C           7.898000      7.423000      9.268000
C           3.603000      2.584000      8.253000
C           8.608000      2.168000      8.216000
C           6.695000      1.039000      8.523000
C           7.336000      1.057000      9.746000
C           7.132000      1.982000     12.000000
C           8.971000      6.506000      9.559000
C           4.965000      6.962000     11.462000
C           6.041000      2.671000     12.644000
C           6.408000      6.091000      6.432000
C           5.100000      4.878000     12.731000
C           3.381000      6.012000      8.516000
C           9.611000      4.300000      8.902000
C           5.276000      1.298000     11.017000
C           4.981000      7.639000      9.280000
C           9.037000      2.576000     10.593000
C           4.020000      5.940000      7.277000
C           3.251000      5.201000     11.194000
C           6.786000      2.614000      6.708000
C           7.354000      3.876000      6.293000
C           2.813000      4.375000     10.230000
C           9.322000      5.611000      8.538000
C           7.139000      7.329000      8.132000
C           9.085000      3.508000      7.928000
C           7.828000      6.796000     11.513000
C           3.825000      3.048000     11.792000
C           5.733000      7.428000      8.126000
C           2.826000      4.780000      8.864000
C           9.541000      3.883000     10.256000
C           3.521000      2.128000      9.601000
C           8.348000      2.712000     11.836000
C           5.264000      1.172000      8.515000
C           3.927000      4.393000     12.145000
C           3.106000      3.032000     10.567000
C           7.012000      6.010000     12.439000
C           8.853000      6.096000     10.906000
C           7.423000      1.736000      7.570000
C           4.859000      2.177000     12.036000
C           3.959000      4.562000      6.862000
C           8.485000      4.283000      6.897000
C           5.420000      2.679000      6.612000
C           9.162000      4.755000     11.264000
C           8.555000      1.740000      9.583000
O          22.576000      5.348000      5.445000
C          22.604000      5.683000      6.895000
H          23.624000      5.791000      7.283000
H          21.998000      5.035000      7.540000
H          22.136000      6.673000      6.953000
O          23.750000      3.378000      5.757000
C          23.212000      4.195000      5.042000
C          23.105000      3.995000      3.506000
H          23.531000      3.009000      3.284000
H          23.662000      4.753000      2.942000
C          21.689000      3.967000      3.032000
H          21.140000      4.899000      3.211000
H          21.611000      3.856000      1.944000
C          20.926000      2.783000      3.793000
H          21.431000      1.888000      3.408000
H          21.137000      2.849000      4.868000
C          19.401000      2.700000      3.506000
C          19.102000      2.302000      2.051000
C          19.063000      0.983000      1.681000
H          19.280000      0.289000      2.487000
C          18.900000      0.679000      0.309000
H          18.813000     -0.361000      0.009000
C          18.772000      1.676000     -0.687000
H          18.652000      1.475000     -1.748000
C          18.808000      3.037000     -0.276000
H          18.628000      3.828000     -0.998000
C          18.993000      3.284000      1.088000
H          19.101000      4.347000      1.282000
C          14.556000      5.055000      3.764000
C          14.051000      2.768000      4.258000
C          13.226000      3.140000      8.650000
C          18.256000      6.632000      6.899000
C          16.326000      2.000000      9.619000
C          14.731000      3.692000      3.521000
C          18.034000      5.175000      9.363000
C          12.558000      4.604000      6.816000
C          17.166000      0.730000      5.837000
C          19.040000      5.480000      7.193000
C          18.578000      2.274000      4.670000
C          18.117000      1.187000      6.785000
C          19.176000      3.437000      8.178000
C          17.202000      4.267000     10.066000
C          16.144000      1.968000      3.977000
C          14.835000      3.887000     10.125000
C          18.486000      3.678000      4.154000
C          18.870000      4.787000      4.942000
C          15.052000      2.510000      9.759000
C          14.873000      7.112000      7.627000
C          13.712000      5.510000      8.756000
C          13.173000      5.671000      7.492000
C          12.813000      4.479000      5.442000
C          18.012000      5.795000      4.604000
C          17.286000      1.479000      4.603000
C          13.015000      3.101000      5.194000
C          18.974000      4.803000      8.440000
C          14.882000      1.680000      4.521000
C          17.886000      1.306000      8.156000
C          16.436000      7.331000      5.795000
C          12.618000      3.321000      7.437000
C          18.908000      2.161000      6.156000
C          14.117000      6.548000      5.442000
C          18.432000      2.438000      8.867000
C          15.840000      0.496000      6.361000
C          15.883000      6.039000      9.586000
C          17.185000      6.273000      9.145000
C          15.601000      0.638000      7.735000
C          17.709000      6.835000      5.599000
C          19.339000      4.551000      6.219000
C          16.224000      7.357000      7.169000
C          17.179000      4.063000      3.490000
C          13.753000      1.336000      6.618000
C          19.450000      3.266000      6.821000
C          16.598000      1.033000      8.639000
C          15.420000      6.895000      4.950000
C          14.029000      2.058000      8.955000
C          13.650000      5.440000      4.753000
C          13.799000      4.261000      9.309000
C          14.720000      0.930000      5.682000
C          14.268000      1.085000      7.925000
C          16.063000      3.225000      3.376000
C          16.981000      5.401000      3.772000
C          14.795000      6.345000      8.832000
C          12.868000      2.399000      6.384000
C          17.424000      2.878000      9.792000
C          17.311000      6.939000      7.890000
C          15.953000      4.781000     10.197000
C          15.652000      5.906000      3.933000
C          13.894000      6.639000      6.811000
$end

--------------------------------------------------------------
 ----------------------------------------------------------------
             Standard Nuclear Orientation (Angstroms)
    I     Atom           X                Y                Z
 ----------------------------------------------------------------
    1      O       3.9214629042    -7.5124336978    -1.7113036246
    2      C       2.7926946121    -8.4452909152    -1.7707052652
    3      H       1.9668909906    -8.0997447245    -2.4057266891
    4      H       2.3880752893    -8.6920636719    -0.7821768589
    5      H       3.0790837667    -9.3904589716    -2.2475465356
    6      O       3.9768148437    -7.3397078019    -3.9622702897
    7      C       4.3877909022    -7.0138704584    -2.8912806983
    8      C       5.5632914919    -6.0992030111    -2.7195838012
    9      H       5.7203588796    -5.5623833431    -3.6636619123
   10      H       6.4866043591    -6.6787052187    -2.5988711651
   11      C       5.4655063898    -5.0422767148    -1.5911570743
   12      H       4.5012983626    -4.5212554253    -1.5771679357
   13      H       5.4711230110    -5.7038741772    -0.7156239502
   14      C       6.6034960045    -4.0536661618    -1.6719643234
   15      H       7.5103446668    -4.6124346984    -1.9349495435
   16      H       6.3125901195    -3.4129500425    -2.5135120765
   17      C       6.7301256802    -3.2250419673    -0.3641994862
   18      C       7.3850835807    -4.0093978669     0.7420721673
   19      C       8.8279611675    -4.0529404497     0.6789349113
   20      H       9.3409134531    -3.6711710747    -0.1978353534
   21      C       9.4826509576    -4.7788665765     1.6588464058
   22      H      10.5646029506    -4.8739980335     1.6274156761
   23      C       8.7198856972    -5.5152148764     2.6002019916
   24      H       9.2547320827    -6.1367649843     3.3130419507
   25      C       7.3121344814    -5.4497706124     2.6574694585
   26      H       6.7618580008    -5.8901576137     3.4846829037
   27      C       6.6455838305    -4.6720635745     1.7548111660
   28      H       5.5679268104    -4.5837256922     1.8567855031
   29      C       4.5740215027     0.5115138701     2.9815321602
   30      C       6.9639998451     0.9878763040     3.1649125147
   31      C       6.6530406036     4.8699991034     0.7651919226
   32      C       2.8011880491     0.3471712359    -1.8252138331
   33      C       7.6325920480     3.3626251269    -2.2437639865
   34      C       5.9328901214     0.0534758236     3.0299700085
   35      C       4.2892670189     2.1747482958    -3.3172905971
   36      C       5.1632827814     3.9641576977     2.3800309173
   37      C       8.6190223708     0.0141675006    -0.3696138476
   38      C       3.8521608169    -0.0882815993    -2.6515279801
   39      C       7.0300279237    -1.7353031188    -0.5580288123
   40      C       8.1870558402    -0.0192643984    -1.6816935802
   41      C       5.9615983629     0.3948943949    -3.3818349009
   42      C       5.3278008723     3.1194628736    -3.1631516930
   43      C       7.5595476156    -0.6655547575     1.6978260898
   44      C       5.8816081826     4.7856168364    -1.4409750368
   45      C       5.6889146430    -2.1568612981    -0.0543097737
   46      C       4.5079992765    -1.6206765618    -0.9050940152
   47      C       7.2075495816     4.3283646764    -1.3682435558
   48      C       2.5617998604     3.2925356010     0.2344160006
   49      C       4.2251935612     4.7928406431     0.3376883430
   50      C       4.1021055538     4.2613749050     1.6062810719
   51      C       5.2911744439     2.8574737950     3.2165400101
   52      C       3.4812896188    -1.1629898027    -0.0032685835
   53      C       7.9222722727    -0.9555608662     0.3314362186
   54      C       6.6450287395     2.3606742350     3.2191368109
   55      C       4.5743813538     0.7987267103    -3.3909140463
   56      C       7.9152522264     0.5769759689     2.2348341192
   57      C       8.0989414956     1.1694048401    -2.4151581695
   58      C       2.2721021869     0.8604192137     0.3857901614
   59      C       6.4963805549     4.2826727268     2.0353680350
   60      C       7.2074837273    -0.9900673778    -1.8382632159
   61      C       3.1310865710     2.1498196461     2.3250491314
   62      C       7.0404853226     1.3895829707    -3.2982312811
   63      C       9.0801945471     1.2249648368     0.2078859658
   64      C       3.7341917014     3.8118892079    -1.8023542864
   65      C       3.2787568581     2.6024677174    -2.4483974441
   66      C       8.9760600123     2.3708815790    -0.4845350179
   67      C       2.6250435817    -0.1633291863    -0.4871987190
   68      C       4.7580753599    -1.0092984002    -2.1047154956
   69      C       2.2502620788     2.0029108787    -0.3537041286
   70      C       5.3041891583    -1.6338212089     1.2867004301
   71      C       8.4101002570     2.8778027927     1.6713029720
   72      C       6.0539400073    -0.6974453152    -2.5631426641
   73      C       8.5226184204     2.3657296727    -1.8352808047
   74      C       2.7709183168     0.8961245090     1.7131983881
   75      C       7.7083332133     4.4049707713    -0.0359105417
   76      C       4.2476243782     1.8839969763     3.1741354835
   77      C       5.5489461824     5.0811189799    -0.1419871705
   78      C       8.6810657761     1.5165844897     1.5382600493
   79      C       8.6038524998     3.4302315329     0.3770369424
   80      C       6.2589020271    -0.9298732005     2.1435017720
   81      C       4.0224257122    -1.1181209565     1.3011820729
   82      C       3.3252173776     4.2031403987    -0.5376964243
   83      C       7.4092557380     3.3170958044     2.5035678930
   84      C       6.7032667474     2.7862648096    -3.1962828946
   85      C       2.5445096057     1.7416533902    -1.7207260442
   86      C       4.9540599419     4.1680113947    -2.3166455111
   87      C       3.6438463206    -0.0708759444     2.1854227239
   88      C       3.0480981006     3.3299715255     1.5823012232
   89      O     -10.6543320405    -2.8641627332     0.8043179233
   90      C     -10.0792943727    -3.5736997716     1.9796467589
   91      H     -10.8447877200    -4.0693702625     2.5886941296
   92      H      -9.3973373757    -2.9802419590     2.6008612782
   93      H      -9.4605888511    -4.3658727508     1.5412936494
   94      O     -11.9466420361    -1.4731123615     2.1277353702
   95      C     -11.5833490442    -1.8764506481     1.0444558916
   96      C     -12.0953412623    -1.2451117803    -0.2784273997
   97      H     -12.7364856031    -0.4001098568     0.0006096652
   98      H     -12.6833757205    -1.9476841596    -0.8813507181
   99      C     -10.9874501911    -0.6866246334    -1.1098030556
  100      H     -10.2596386479    -1.4352185531    -1.4444125310
  101      H     -11.3428152292    -0.2669839741    -2.0583632312
  102      C     -10.2113748764     0.4128205840    -0.2425814462
  103      H     -10.9698401629     1.1958831082    -0.1168098584
  104      H      -9.9898109571     0.0001181865     0.7499346297
  105      C      -8.9436411602     1.0022027623    -0.9210819050
  106      C      -9.2844889191     1.8483385598    -2.1591073560
  107      C      -9.6147400388     3.1722954027    -2.0316143121
  108      H      -9.6302987887     3.5294743330    -1.0066547339
  109      C     -10.0322329701     3.8706880386    -3.1889026852
  110      H     -10.2444710726     4.9328913134    -3.1124292197
  111      C     -10.1166855666     3.2611815591    -4.4631784051
  112      H     -10.4391827005     3.7682032652    -5.3684112968
  113      C      -9.7611153191     1.8883455808    -4.5700857286
  114      H      -9.7311083232     1.4086455740    -5.5439196383
  115      C      -9.3764836224     1.2382393536    -3.3931616227
  116      H      -9.2190988145     0.1776778488    -3.5655226300
  117      C      -4.0268382028     0.1501087682    -2.9669554356
  118      C      -3.7758430203     2.2622559550    -1.8691095085
  119      C      -1.3158564199     0.9634741074     1.6480348783
  120      C      -5.9526740713    -3.2063143451     0.3542994616
  121      C      -3.9740377330     0.8636489286     3.8326785655
  122      C      -4.5121089950     1.4189650416    -2.6476452174
  123      C      -5.0790198769    -2.4726233191     2.9890394538
  124      C      -1.1415473538     0.3062998695    -0.6952138005
  125      C      -6.3740598199     2.8179712168     1.1788996794
  126      C      -6.7554350490    -2.4509667265     1.2560870129
  127      C      -7.8314219109     1.3126382976     0.0171606648
  128      C      -6.8069068694     1.8691798479     2.1403529389
  129      C      -6.8626209424    -0.8793050571     2.8934509863
  130      C      -4.2142332027    -1.5914339382     3.6865681508
  131      C      -5.9258842407     2.4766064802    -1.2126138093
  132      C      -2.1009706676    -0.5827085531     3.1696885177
  133      C      -7.6988525128     0.1884530569    -0.9649640213
  134      C      -7.5626423649    -1.1544012590    -0.5448805986
  135      C      -2.6729680201     0.7204210487     3.3973862767
  136      C      -2.5150688862    -2.8797555709    -0.1760805513
  137      C      -1.3106206317    -1.3824215245     1.0471369909
  138      C      -1.2649744014    -1.0334643166    -0.2908776909
  139      C      -1.9097998231     0.7214217208    -1.7933886464
  140      C      -6.7337415356    -1.7443269426    -1.4566827170
  141      C      -6.8163035782     2.4302573681    -0.1448281739
  142      C      -2.4241275968     1.9977180389    -1.4651712646
  143      C      -6.3451197442    -2.1483718490     2.5818968374
  144      C      -4.6220049597     2.9537799913    -1.0035007750
  145      C      -6.0626785081     1.4535386717     3.2451287346
  146      C      -4.5872683785    -3.0297535399    -1.4132724821
  147      C      -1.1848033860     1.2998933098     0.3276405347
  148      C      -7.5952620478     0.9189367310     1.4728710054
  149      C      -2.7414170462    -1.5524563188    -2.1384516186
  150      C      -6.0989348259     0.0642172695     3.6369609959
  151      C      -5.0100508247     3.2692021596     1.3321253214
  152      C      -2.8868184979    -2.7135046143     2.2412057052
  153      C      -4.1978881371    -3.1804184436     2.1544366028
  154      C      -4.2534472874     2.8338885876     2.4290365217
  155      C      -5.9059790395    -2.8839066153    -1.0328886402
  156      C      -7.5525654833    -1.4179742577     0.8104104147
  157      C      -3.8752528488    -3.3661482085    -0.2672495711
  158      C      -6.6902418503     0.3877966522    -2.0786680496
  159      C      -2.8675689095     3.0228878123     0.6419670170
  160      C      -7.6497468013    -0.4319382112     1.8322904011
  161      C      -4.7553613696     1.9409034906     3.3871126516
  162      C      -4.0530198487    -2.1096770045    -2.3101641576
  163      C      -2.1197495438     1.6460717748     2.5404329227
  164      C      -2.7647688865    -0.2137110153    -2.4957885797
  165      C      -1.3980755824    -0.4093250568     2.0056847968
  166      C      -4.1689944686     3.3742152832     0.2433675661
  167      C      -2.8907578083     2.7518316482     2.0428473941
  168      C      -5.8604870914     1.5074748052    -2.2147704883
  169      C      -6.1737224635    -0.8621041403    -2.3613829801
  170      C      -2.1250507403    -2.4796094613     1.1407971715
  171      C      -1.9656568965     2.3618802028    -0.2051301799
  172      C      -4.7584124411    -0.3036759330     4.0015749388
  173      C      -4.6677616720    -3.4878525813     0.8432691413
  174      C      -2.9386218577    -1.7430294164     3.2493124962
  175      C      -4.8155403448    -0.9907419091    -2.7926377270
  176      C      -2.0100510244    -1.9441007138    -1.0231537167
 ----------------------------------------------------------------
 Molecular Point Group                 C1    NOp =  1
 Largest Abelian Subgroup              C1    NOp =  1
 Nuclear Repulsion Energy = 33780.6386527836 hartrees
 There are      462 alpha and      462 beta electrons
 Requested basis set is 6-31G(d,p)
 There are 676 shells and 2360 basis functions

 Total QAlloc Memory Limit  20000 MB
 Mega-Array Size      4888 MB
 MEM_STATIC part      5000 MB
 A cutoff of  1.0D-08 yielded  36932 shell pairs
 There are    520957 function pairs
 
 -------------------------------------------------------
 OpenMP Integral Computing Module                       
 Release: version 1.0, May 2013, Q-Chem Inc. Pittsburgh 
 -------------------------------------------------------
 Integral Job Info:
 Integral job number is                      11
 Integral operator is                         1
 short-range coefficients                     0
 long-range coefficients              100000000
 Omega coefficients                           0
 if combine SR and LR in K                    0
 Integral screening is                        0
 Integral computing path is                   2
 max size of driver memory is            800000
 size of driver memory is                593474
 size of scratch memory is              2260544
 max col of scratch BK array               1296
 max len of scratch array in speh3          155
 max len of scratch index in speh4           18
 max int batch size is                      520
 min int batch size is                       52
 fixed nKL is                                52
 max L of basis functions is                  2
 order of int derivative is                   0
 number of shells is                        676
 number of basis is                        2360
 number of cartesian basis is              2360
 number of contracted shell pairs         36932
 number of primitive shell pairs         112588
 maxK2 (contraction) of shell pair           36
 max number of K2 of shell pair               1
 max number of CS2 of shell pair           7089
 max number of PS2 of shell pair          34158
 mem total for path MDJ                 1480744
 -------------------------------------------------------
 Smallest overlap matrix eigenvalue = 2.42E-04

 Scale SEOQF with 1.000000e-02/1.000000e-02/1.000000e-02

 Standard Electronic Orientation quadrupole field applied
 Nucleus-field energy     =     0.0000001431 hartrees
 Guess from superposition of atomic densities
 Warning:  Energy on first SCF cycle will be non-variational
 A restricted hybrid HF-DFT SCF calculation will be
 performed using Pulay DIIS extrapolation
 Exchange:     0.2000 Hartree-Fock + 0.0800 Slater + 0.7200 B88
 Correlation:  0.1900 VWN1RPA + 0.8100 LYP
 Using SG-1 standard quadrature grid
 SCF converges when DIIS error is below 1.0E-05
 using 16 threads for integral computing 
 -------------------------------------------------------
 OpenMP BLAS3 based DFT computing Module                
 Release: version 1.0, May 2013, Q-Chem Inc. Pittsburgh 
 -------------------------------------------------------
 ---------------------------------------
  Cycle       Energy         DIIS Error
 ---------------------------------------
    1   -5858.7707059791      1.84E-02
    2   -5803.1243161899      1.29E-03
    3   -5802.5195609155      1.71E-03
    4   -5804.0399903994      5.76E-04
    5   -5804.2072446172      2.84E-04
    6   -5804.2594323624      1.23E-04
    7   -5804.2697554938      4.65E-05
    8   -5804.2708192823      2.83E-05
    9   -5804.2714102939      8.43E-06 Convergence criterion met
 ---------------------------------------
 SCF time:  CPU 6981.43 s  wall 816.14 s
 SCF   energy in the final basis set = -5804.2714102939
 Total energy in the final basis set = -5804.2714102939
 
 --------------------------------------------------------------
 
                    Orbital Energies (a.u.)
 --------------------------------------------------------------
 
 Alpha MOs
 -- Occupied --
-19.197 -19.194 -19.140 -19.134 -10.319 -10.313 -10.248 -10.246
-10.241 -10.240 -10.239 -10.236 -10.232 -10.231 -10.231 -10.228
-10.228 -10.227 -10.226 -10.224 -10.223 -10.223 -10.222 -10.222
-10.221 -10.221 -10.221 -10.220 -10.220 -10.220 -10.219 -10.219
-10.219 -10.218 -10.218 -10.218 -10.218 -10.217 -10.217 -10.217
-10.217 -10.217 -10.217 -10.217 -10.216 -10.216 -10.216 -10.216
-10.216 -10.216 -10.216 -10.216 -10.216 -10.215 -10.215 -10.215
-10.215 -10.215 -10.215 -10.215 -10.215 -10.215 -10.215 -10.215
-10.214 -10.214 -10.214 -10.214 -10.214 -10.214 -10.214 -10.214
-10.214 -10.214 -10.213 -10.213 -10.213 -10.213 -10.213 -10.213
-10.213 -10.213 -10.213 -10.213 -10.212 -10.212 -10.212 -10.212
-10.212 -10.212 -10.212 -10.212 -10.212 -10.212 -10.212 -10.211
-10.211 -10.211 -10.211 -10.211 -10.211 -10.211 -10.211 -10.211
-10.211 -10.211 -10.210 -10.210 -10.210 -10.210 -10.210 -10.210
-10.210 -10.209 -10.209 -10.209 -10.209 -10.209 -10.209 -10.209
-10.209 -10.208 -10.208 -10.208 -10.208 -10.208 -10.207 -10.207
-10.206 -10.205 -10.205 -10.204 -10.204 -10.204 -10.203 -10.202
-10.202 -10.201 -10.201 -10.201 -10.201 -10.200 -10.199 -10.199
-10.198 -10.197 -10.194 -10.190  -1.097  -1.085  -1.016  -1.011
 -0.985  -0.982  -0.971  -0.964  -0.963  -0.963  -0.961  -0.959
 -0.939  -0.933  -0.929  -0.926  -0.925  -0.925  -0.924  -0.921
 -0.920  -0.920  -0.899  -0.896  -0.891  -0.889  -0.886  -0.883
 -0.875  -0.873  -0.858  -0.854  -0.845  -0.842  -0.840  -0.839
 -0.837  -0.834  -0.823  -0.819  -0.807  -0.807  -0.801  -0.799
 -0.797  -0.796  -0.796  -0.792  -0.790  -0.789  -0.785  -0.783
 -0.771  -0.771  -0.769  -0.767  -0.766  -0.765  -0.765  -0.761
 -0.759  -0.751  -0.740  -0.739  -0.729  -0.729  -0.719  -0.717
 -0.716  -0.714  -0.713  -0.713  -0.712  -0.711  -0.709  -0.709
 -0.708  -0.705  -0.705  -0.702  -0.701  -0.700  -0.672  -0.670
 -0.662  -0.658  -0.657  -0.656  -0.647  -0.646  -0.632  -0.631
 -0.627  -0.626  -0.625  -0.622  -0.622  -0.621  -0.618  -0.618
 -0.617  -0.614  -0.613  -0.612  -0.612  -0.611  -0.610  -0.608
 -0.606  -0.604  -0.604  -0.603  -0.571  -0.567  -0.563  -0.562
 -0.561  -0.560  -0.559  -0.559  -0.557  -0.556  -0.554  -0.552
 -0.539  -0.538  -0.531  -0.530  -0.528  -0.526  -0.526  -0.525
 -0.523  -0.520  -0.520  -0.519  -0.517  -0.517  -0.515  -0.513
 -0.508  -0.506  -0.498  -0.498  -0.493  -0.489  -0.487  -0.485
 -0.484  -0.483  -0.482  -0.480  -0.478  -0.477  -0.475  -0.475
 -0.472  -0.471  -0.470  -0.469  -0.468  -0.467  -0.467  -0.465
 -0.464  -0.464  -0.463  -0.463  -0.461  -0.460  -0.459  -0.458
 -0.456  -0.453  -0.453  -0.452  -0.447  -0.447  -0.445  -0.444
 -0.442  -0.441  -0.441  -0.440  -0.438  -0.438  -0.435  -0.434
 -0.432  -0.431  -0.429  -0.429  -0.426  -0.426  -0.425  -0.423
 -0.422  -0.422  -0.421  -0.420  -0.420  -0.418  -0.418  -0.417
 -0.416  -0.416  -0.415  -0.415  -0.415  -0.414  -0.413  -0.412
 -0.411  -0.410  -0.409  -0.408  -0.402  -0.400  -0.394  -0.394
 -0.394  -0.393  -0.392  -0.389  -0.388  -0.386  -0.386  -0.384
 -0.382  -0.378  -0.377  -0.373  -0.373  -0.369  -0.369  -0.365
 -0.364  -0.364  -0.363  -0.361  -0.361  -0.360  -0.358  -0.358
 -0.358  -0.357  -0.356  -0.356  -0.355  -0.355  -0.355  -0.352
 -0.351  -0.349  -0.347  -0.346  -0.346  -0.345  -0.343  -0.343
 -0.342  -0.340  -0.339  -0.339  -0.338  -0.337  -0.334  -0.333
 -0.332  -0.332  -0.331  -0.329  -0.328  -0.326  -0.325  -0.323
 -0.309  -0.305  -0.303  -0.302  -0.287  -0.285  -0.274  -0.271
 -0.270  -0.269  -0.269  -0.268  -0.267  -0.266  -0.266  -0.265
 -0.263  -0.263  -0.260  -0.260  -0.259  -0.257  -0.255  -0.254
 -0.252  -0.245  -0.244  -0.242  -0.221  -0.220  -0.212  -0.211
 -0.210  -0.208  -0.208  -0.205  -0.202  -0.193
 -- Virtual --
 -0.126  -0.123  -0.119  -0.116  -0.106  -0.103  -0.078  -0.076
 -0.075  -0.071  -0.061  -0.056  -0.052  -0.047  -0.025  -0.023
 -0.021  -0.020  -0.020  -0.017  -0.015  -0.015  -0.014  -0.013
 -0.012  -0.011  -0.010  -0.008  -0.005  -0.005   0.003   0.008
  0.010   0.013   0.032   0.033   0.042   0.046   0.046   0.048
  0.050   0.053   0.055   0.059   0.062   0.064   0.067   0.068
  0.070   0.073   0.079   0.081   0.084   0.084   0.084   0.086
  0.093   0.095   0.097   0.101   0.101   0.102   0.107   0.108
  0.110   0.111   0.113   0.115   0.116   0.117   0.121   0.122
  0.122   0.123   0.126   0.127   0.130   0.135   0.135   0.136
  0.139   0.141   0.145   0.147   0.148   0.151   0.155   0.157
  0.160   0.161   0.161   0.163   0.164   0.165   0.167   0.167
  0.169   0.171   0.173   0.177   0.177   0.179   0.181   0.182
  0.184   0.185   0.187   0.187   0.190   0.190   0.192   0.193
  0.194   0.195   0.197   0.197   0.201   0.201   0.204   0.205
  0.207   0.210   0.211   0.212   0.214   0.218   0.219   0.220
  0.221   0.222   0.223   0.224   0.225   0.227   0.228   0.229
  0.230   0.233   0.233   0.234   0.235   0.239   0.240   0.242
  0.244   0.245   0.246   0.247   0.248   0.252   0.258   0.260
  0.262   0.266   0.268   0.272   0.273   0.276   0.276   0.279
  0.280   0.283   0.285   0.292   0.292   0.293   0.303   0.303
  0.307   0.309   0.311   0.311   0.313   0.314   0.317   0.320
  0.322   0.323   0.326   0.326   0.326   0.328   0.331   0.333
  0.337   0.340   0.342   0.345   0.347   0.347   0.349   0.349
  0.350   0.356   0.358   0.366   0.376   0.379   0.379   0.389
  0.396   0.398   0.401   0.402   0.404   0.405   0.407   0.410
  0.411   0.415   0.416   0.417   0.420   0.422   0.424   0.426
  0.428   0.432   0.433   0.439   0.440   0.441   0.445   0.449
  0.450   0.450   0.453   0.456   0.457   0.462   0.462   0.463
  0.466   0.467   0.471   0.472   0.474   0.475   0.475   0.476
  0.477   0.477   0.480   0.480   0.481   0.482   0.484   0.486
  0.488   0.488   0.490   0.491   0.492   0.494   0.496   0.497
  0.500   0.501   0.501   0.501   0.502   0.503   0.503   0.504
  0.506   0.506   0.507   0.508   0.510   0.510   0.512   0.512
  0.513   0.513   0.514   0.514   0.516   0.516   0.518   0.519
  0.520   0.521   0.522   0.523   0.523   0.525   0.526   0.527
  0.528   0.528   0.529   0.530   0.531   0.531   0.533   0.534
  0.534   0.535   0.536   0.537   0.538   0.539   0.539   0.540
  0.541   0.543   0.543   0.544   0.544   0.544   0.545   0.546
  0.547   0.548   0.549   0.550   0.551   0.551   0.552   0.553
  0.554   0.554   0.555   0.556   0.557   0.557   0.558   0.558
  0.559   0.560   0.561   0.562   0.563   0.563   0.564   0.566
  0.566   0.567   0.567   0.568   0.570   0.570   0.571   0.571
  0.573   0.574   0.575   0.576   0.576   0.577   0.578   0.578
  0.579   0.580   0.581   0.582   0.583   0.584   0.586   0.587
  0.587   0.588   0.588   0.589   0.590   0.592   0.592   0.593
  0.593   0.594   0.595   0.596   0.596   0.597   0.598   0.599
  0.600   0.601   0.602   0.603   0.603   0.605   0.605   0.606
  0.608   0.610   0.611   0.613   0.613   0.614   0.615   0.617
  0.617   0.618   0.619   0.619   0.621   0.622   0.623   0.624
  0.627   0.628   0.629   0.629   0.630   0.631   0.632   0.633
  0.633   0.634   0.635   0.636   0.637   0.639   0.640   0.642
  0.642   0.643   0.645   0.646   0.646   0.646   0.648   0.649
  0.651   0.653   0.654   0.654   0.654   0.655   0.656   0.658
  0.659   0.660   0.660   0.661   0.663   0.663   0.664   0.665
  0.665   0.666   0.667   0.667   0.668   0.669   0.669   0.669
  0.670   0.671   0.672   0.673   0.675   0.675   0.676   0.678
  0.679   0.680   0.681   0.682   0.683   0.685   0.686   0.688
  0.690   0.690   0.691   0.691   0.693   0.694   0.695   0.696
  0.697   0.698   0.699   0.702   0.702   0.702   0.704   0.705
  0.706   0.707   0.708   0.710   0.711   0.712   0.712   0.713
  0.716   0.716   0.718   0.720   0.722   0.722   0.724   0.725
  0.726   0.728   0.729   0.730   0.731   0.732   0.732   0.735
  0.736   0.737   0.737   0.738   0.739   0.740   0.742   0.743
  0.744   0.746   0.746   0.747   0.749   0.753   0.753   0.755
  0.757   0.759   0.762   0.762   0.764   0.766   0.767   0.767
  0.767   0.769   0.771   0.772   0.773   0.774   0.775   0.777
  0.777   0.780   0.781   0.782   0.783   0.784   0.787   0.787
  0.789   0.790   0.791   0.792   0.794   0.795   0.796   0.798
  0.799   0.799   0.800   0.801   0.803   0.804   0.804   0.805
  0.805   0.806   0.807   0.808   0.809   0.810   0.811   0.812
  0.812   0.813   0.813   0.814   0.815   0.816   0.816   0.817
  0.818   0.820   0.820   0.821   0.822   0.823   0.823   0.825
  0.825   0.826   0.826   0.827   0.828   0.828   0.830   0.831
  0.832   0.833   0.836   0.839   0.841   0.843   0.844   0.845
  0.845   0.850   0.853   0.855   0.857   0.860   0.861   0.862
  0.864   0.864   0.869   0.870   0.877   0.879   0.880   0.885
  0.887   0.887   0.894   0.895   0.900   0.901   0.902   0.908
  0.909   0.916   0.917   0.917   0.920   0.924   0.924   0.926
  0.928   0.929   0.931   0.932   0.932   0.934   0.935   0.936
  0.937   0.938   0.942   0.943   0.944   0.946   0.949   0.949
  0.951   0.952   0.955   0.956   0.959   0.960   0.964   0.967
  0.967   0.975   0.975   0.982   0.983   0.983   0.987   0.989
  0.992   0.994   0.997   1.002   1.003   1.004   1.005   1.008
  1.009   1.010   1.012   1.013   1.014   1.016   1.016   1.017
  1.020   1.020   1.021   1.023   1.025   1.028   1.029   1.032
  1.032   1.033   1.035   1.035   1.039   1.041   1.042   1.042
  1.043   1.045   1.047   1.049   1.049   1.052   1.054   1.056
  1.057   1.060   1.062   1.065   1.067   1.068   1.069   1.070
  1.072   1.074   1.075   1.076   1.078   1.079   1.081   1.082
  1.084   1.085   1.086   1.088   1.089   1.090   1.092   1.093
  1.094   1.096   1.097   1.097   1.099   1.101   1.103   1.106
  1.107   1.110   1.114   1.116   1.118   1.121   1.123   1.124
  1.125   1.128   1.131   1.132   1.133   1.139   1.142   1.143
  1.145   1.148   1.149   1.153   1.154   1.156   1.157   1.158
  1.159   1.162   1.165   1.166   1.167   1.171   1.171   1.174
  1.174   1.177   1.177   1.178   1.179   1.181   1.182   1.183
  1.185   1.186   1.186   1.188   1.190   1.193   1.194   1.195
  1.201   1.202   1.205   1.212   1.215   1.218   1.219   1.221
  1.222   1.226   1.232   1.233   1.237   1.239   1.242   1.245
  1.248   1.249   1.251   1.252   1.258   1.258   1.259   1.263
  1.264   1.265   1.268   1.270   1.272   1.274   1.276   1.277
  1.277   1.279   1.282   1.283   1.285   1.286   1.290   1.291
  1.291   1.293   1.296   1.299   1.302   1.304   1.309   1.310
  1.311   1.314   1.316   1.319   1.321   1.323   1.328   1.331
  1.333   1.334   1.335   1.337   1.339   1.341   1.345   1.347
  1.349   1.351   1.355   1.359   1.361   1.362   1.364   1.364
  1.366   1.369   1.371   1.373   1.379   1.380   1.381   1.384
  1.389   1.391   1.393   1.394   1.396   1.397   1.400   1.403
  1.408   1.410   1.412   1.414   1.416   1.422   1.425   1.426
  1.429   1.431   1.433   1.434   1.434   1.439   1.441   1.446
  1.446   1.451   1.452   1.457   1.459   1.460   1.462   1.466
  1.468   1.470   1.471   1.472   1.473   1.475   1.477   1.478
  1.481   1.482   1.486   1.486   1.490   1.491   1.493   1.498
  1.502   1.507   1.508   1.509   1.511   1.514   1.517   1.520
  1.522   1.523   1.526   1.527   1.536   1.537   1.538   1.540
  1.542   1.545   1.548   1.549   1.551   1.553   1.557   1.561
  1.563   1.564   1.567   1.569   1.570   1.574   1.575   1.577
  1.578   1.579   1.581   1.583   1.585   1.589   1.591   1.594
  1.595   1.601   1.605   1.606   1.608   1.612   1.614   1.617
  1.621   1.623   1.629   1.630   1.633   1.634   1.635   1.644
  1.646   1.652   1.654   1.656   1.660   1.667   1.667   1.671
  1.673   1.676   1.679   1.690   1.690   1.694   1.699   1.703
  1.704   1.707   1.708   1.709   1.712   1.714   1.715   1.717
  1.722   1.722   1.724   1.725   1.726   1.731   1.731   1.733
  1.733   1.737   1.737   1.738   1.740   1.743   1.744   1.746
  1.749   1.750   1.751   1.752   1.753   1.754   1.756   1.758
  1.759   1.761   1.762   1.763   1.766   1.768   1.769   1.771
  1.771   1.772   1.773   1.774   1.776   1.777   1.777   1.780
  1.781   1.782   1.782   1.784   1.785   1.787   1.787   1.789
  1.789   1.790   1.792   1.793   1.794   1.796   1.797   1.798
  1.798   1.799   1.800   1.802   1.803   1.804   1.806   1.808
  1.809   1.810   1.812   1.816   1.817   1.819   1.821   1.824
  1.824   1.826   1.829   1.834   1.837   1.839   1.840   1.843
  1.846   1.847   1.849   1.849   1.852   1.853   1.854   1.857
  1.858   1.859   1.861   1.864   1.866   1.866   1.867   1.868
  1.870   1.872   1.872   1.874   1.876   1.877   1.880   1.882
  1.885   1.887   1.888   1.890   1.892   1.894   1.896   1.899
  1.901   1.902   1.903   1.908   1.911   1.912   1.916   1.917
  1.919   1.924   1.928   1.928   1.930   1.933   1.935   1.936
  1.938   1.939   1.940   1.942   1.944   1.946   1.947   1.949
  1.950   1.955   1.956   1.960   1.962   1.963   1.965   1.966
  1.967   1.971   1.975   1.975   1.978   1.978   1.982   1.983
  1.985   1.986   1.987   1.988   1.989   1.990   1.993   1.995
  1.996   1.997   1.999   2.001   2.001   2.003   2.005   2.006
  2.008   2.010   2.012   2.013   2.014   2.015   2.018   2.019
  2.019   2.022   2.022   2.024   2.024   2.025   2.027   2.027
  2.029   2.029   2.031   2.034   2.035   2.035   2.037   2.037
  2.037   2.039   2.041   2.043   2.045   2.047   2.047   2.049
  2.050   2.052   2.053   2.054   2.055   2.055   2.057   2.057
  2.060   2.060   2.062   2.063   2.066   2.066   2.067   2.068
  2.070   2.071   2.072   2.074   2.076   2.077   2.077   2.078
  2.080   2.082   2.082   2.085   2.086   2.088   2.089   2.092
  2.093   2.094   2.096   2.100   2.101   2.103   2.103   2.104
  2.107   2.110   2.112   2.113   2.117   2.121   2.123   2.124
  2.124   2.125   2.131   2.135   2.137   2.138   2.139   2.143
  2.145   2.147   2.148   2.153   2.154   2.162   2.166   2.168
  2.175   2.179   2.181   2.189   2.194   2.197   2.200   2.204
  2.208   2.215   2.215   2.220   2.222   2.223   2.226   2.229
  2.230   2.232   2.236   2.238   2.239   2.241   2.243   2.245
  2.251   2.254   2.257   2.258   2.260   2.263   2.264   2.265
  2.268   2.270   2.273   2.274   2.277   2.279   2.281   2.284
  2.288   2.289   2.291   2.292   2.296   2.298   2.300   2.302
  2.304   2.306   2.308   2.312   2.313   2.315   2.316   2.319
  2.320   2.323   2.324   2.328   2.330   2.335   2.335   2.337
  2.341   2.342   2.346   2.347   2.350   2.352   2.354   2.356
  2.358   2.359   2.361   2.367   2.368   2.370   2.371   2.373
  2.373   2.375   2.377   2.380   2.380   2.381   2.383   2.385
  2.386   2.387   2.388   2.391   2.392   2.393   2.395   2.396
  2.398   2.400   2.402   2.402   2.404   2.405   2.406   2.409
  2.410   2.412   2.413   2.417   2.420   2.421   2.424   2.429
  2.429   2.431   2.432   2.435   2.437   2.439   2.440   2.441
  2.443   2.445   2.449   2.451   2.453   2.454   2.458   2.460
  2.461   2.465   2.470   2.472   2.474   2.475   2.476   2.477
  2.479   2.481   2.483   2.485   2.488   2.490   2.490   2.493
  2.496   2.497   2.497   2.499   2.503   2.504   2.506   2.510
  2.510   2.512   2.514   2.515   2.516   2.520   2.521   2.525
  2.528   2.529   2.530   2.533   2.535   2.537   2.538   2.540
  2.543   2.549   2.552   2.553   2.555   2.559   2.560   2.561
  2.564   2.567   2.571   2.573   2.578   2.581   2.584   2.588
  2.591   2.593   2.596   2.597   2.599   2.602   2.602   2.607
  2.607   2.609   2.611   2.613   2.614   2.615   2.617   2.621
  2.623   2.624   2.625   2.626   2.628   2.629   2.630   2.633
  2.635   2.636   2.640   2.640   2.644   2.646   2.647   2.648
  2.650   2.651   2.652   2.654   2.655   2.657   2.658   2.660
  2.661   2.663   2.665   2.666   2.669   2.669   2.671   2.672
  2.673   2.674   2.677   2.679   2.681   2.681   2.682   2.685
  2.688   2.692   2.697   2.697   2.699   2.703   2.704   2.705
  2.706   2.707   2.713   2.716   2.717   2.718   2.720   2.725
  2.729   2.731   2.731   2.735   2.736   2.738   2.740   2.746
  2.747   2.749   2.750   2.753   2.754   2.756   2.761   2.764
  2.764   2.767   2.769   2.771   2.773   2.774   2.776   2.779
  2.782   2.784   2.786   2.787   2.789   2.792   2.795   2.797
  2.799   2.802   2.806   2.808   2.810   2.813   2.815   2.819
  2.822   2.825   2.828   2.833   2.834   2.837   2.839   2.842
  2.846   2.849   2.850   2.856   2.857   2.858   2.863   2.865
  2.868   2.870   2.871   2.872   2.874   2.874   2.877   2.878
  2.880   2.881   2.884   2.886   2.891   2.891   2.893   2.894
  2.896   2.897   2.898   2.901   2.904   2.906   2.908   2.908
  2.909   2.911   2.913   2.914   2.917   2.918   2.920   2.921
  2.922   2.922   2.925   2.926   2.927   2.929   2.931   2.934
  2.936   2.936   2.940   2.942   2.944   2.948   2.951   2.952
  2.955   2.960   2.963   2.964   2.967   2.969   2.972   2.977
  2.977   2.979   2.985   2.987   2.989   2.995   2.996   3.003
  3.004   3.007   3.008   3.010   3.014   3.016   3.021   3.024
  3.027   3.027   3.031   3.033   3.037   3.039   3.040   3.043
  3.045   3.049   3.052   3.054   3.057   3.058   3.061   3.063
  3.067   3.068   3.070   3.076   3.083   3.084   3.097   3.099
  3.111   3.112   3.125   3.129   3.139   3.139   3.146   3.151
  3.155   3.164   3.170   3.170   3.176   3.178   3.179   3.183
  3.185   3.193   3.200   3.203   3.212   3.216   3.228   3.236
  3.246   3.247   3.255   3.259   3.266   3.272   3.279   3.280
  3.288   3.296   3.302   3.307   3.308   3.314   3.316   3.326
  3.332   3.333   3.337   3.346   3.347   3.350   3.370   3.389
  3.399   3.406   3.413   3.417   3.423   3.432   3.438   3.447
  3.454   3.455   3.471   3.473   3.474   3.481   3.484   3.489
  3.497   3.503   3.508   3.520   3.530   3.534   3.535   3.538
  3.547   3.557   3.557   3.569   3.577   3.590   3.598   3.598
  3.608   3.610   3.686   3.695   3.851   3.857   4.011   4.015
  4.078   4.082   4.082   4.083   4.088   4.090   4.091   4.097
  4.102   4.105   4.110   4.113   4.116   4.117   4.121   4.122
  4.124   4.129   4.131   4.139   4.141   4.145   4.147   4.148
  4.159   4.162   4.167   4.169   4.175   4.179   4.181   4.187
  4.190   4.195   4.200   4.211   4.214   4.220   4.232   4.243
  4.243   4.247   4.248   4.253   4.257   4.261   4.264   4.269
  4.269   4.274   4.278   4.280   4.283   4.290   4.295   4.297
  4.305   4.309   4.324   4.332   4.385   4.388   4.390   4.392
  4.399   4.401   4.403   4.405   4.408   4.411   4.411   4.412
  4.419   4.423   4.425   4.430   4.431   4.451   4.466   4.469
  4.474   4.478   4.491   4.504   4.535   4.541   4.546   4.549
  4.559   4.563   4.616   4.627   4.629   4.630   4.635   4.639
  4.645   4.659   4.670   4.685   4.686   4.692   4.697   4.700
  4.703   4.704   4.708   4.714   4.743   4.758   4.807   4.811
  4.840   4.851   4.854   4.870   4.876   4.884   4.889   4.890
  4.906   4.907   4.952   4.961   4.976   4.978   4.982   4.983
  4.987   4.995   4.995   5.000   5.157   5.159   5.173   5.184
  5.189   5.191   5.208   5.231   5.294   5.307   5.334   5.343
  5.359   5.364
 --------------------------------------------------------------
 
          Ground-State Mulliken Net Atomic Charges

     Atom                 Charge (a.u.)
  ----------------------------------------
      1 O                    -0.470943
      2 C                    -0.093919
      3 H                     0.133936
      4 H                     0.124629
      5 H                     0.127873
      6 O                    -0.458711
      7 C                     0.606453
      8 C                    -0.275684
      9 H                     0.127016
     10 H                     0.133656
     11 C                    -0.182870
     12 H                     0.107246
     13 H                     0.122114
     14 C                    -0.179326
     15 H                     0.106435
     16 H                     0.111073
     17 C                     0.011587
     18 C                     0.062926
     19 C                    -0.092433
     20 H                     0.099014
     21 C                    -0.089358
     22 H                     0.092612
     23 C                    -0.088002
     24 H                     0.087265
     25 C                    -0.088080
     26 H                     0.094946
     27 C                    -0.088183
     28 H                     0.098143
     29 C                     0.009530
     30 C                    -0.017365
     31 C                    -0.017416
     32 C                    -0.011920
     33 C                    -0.005341
     34 C                    -0.003873
     35 C                     0.009824
     36 C                     0.048611
     37 C                     0.024555
     38 C                     0.003972
     39 C                    -0.091779
     40 C                    -0.002039
     41 C                    -0.034740
     42 C                     0.005953
     43 C                    -0.026097
     44 C                     0.004779
     45 C                    -0.091786
     46 C                     0.001097
     47 C                     0.007263
     48 C                    -0.030562
     49 C                    -0.019907
     50 C                     0.040348
     51 C                    -0.024403
     52 C                    -0.004472
     53 C                     0.035128
     54 C                     0.004367
     55 C                    -0.007203
     56 C                     0.016069
     57 C                     0.012365
     58 C                     0.020873
     59 C                    -0.017108
     60 C                     0.009310
     61 C                     0.003146
     62 C                    -0.023189
     63 C                    -0.016998
     64 C                     0.023279
     65 C                     0.002154
     66 C                     0.023456
     67 C                    -0.020523
     68 C                     0.022015
     69 C                     0.013190
     70 C                     0.046696
     71 C                     0.003900
     72 C                     0.038458
     73 C                    -0.006359
     74 C                    -0.014541
     75 C                     0.002823
     76 C                    -0.040344
     77 C                    -0.003263
     78 C                    -0.008672
     79 C                    -0.009386
     80 C                     0.011430
     81 C                    -0.004859
     82 C                    -0.001709
     83 C                     0.004645
     84 C                    -0.025641
     85 C                    -0.002383
     86 C                    -0.004251
     87 C                     0.016954
     88 C                    -0.016580
     89 O                    -0.471627
     90 C                    -0.095126
     91 H                     0.132887
     92 H                     0.135227
     93 H                     0.128463
     94 O                    -0.464368
     95 C                     0.597748
     96 C                    -0.239314
     97 H                     0.128186
     98 H                     0.121991
     99 C                    -0.195335
    100 H                     0.114794
    101 H                     0.107968
    102 C                    -0.194784
    103 H                     0.111148
    104 H                     0.124072
    105 C                     0.013026
    106 C                     0.106469
    107 C                    -0.099769
    108 H                     0.097120
    109 C                    -0.107878
    110 H                     0.090630
    111 C                    -0.080826
    112 H                     0.093474
    113 C                    -0.095801
    114 H                     0.096798
    115 C                    -0.112062
    116 H                     0.087405
    117 C                    -0.009588
    118 C                     0.035944
    119 C                     0.037498
    120 C                    -0.035666
    121 C                     0.003623
    122 C                    -0.014604
    123 C                    -0.004692
    124 C                    -0.014923
    125 C                    -0.033102
    126 C                    -0.017332
    127 C                    -0.111433
    128 C                     0.045668
    129 C                    -0.023764
    130 C                     0.022104
    131 C                     0.020885
    132 C                    -0.035735
    133 C                    -0.100690
    134 C                     0.085389
    135 C                     0.008862
    136 C                    -0.033412
    137 C                     0.007543
    138 C                     0.004617
    139 C                    -0.012444
    140 C                    -0.018689
    141 C                     0.028351
    142 C                    -0.011320
    143 C                     0.012454
    144 C                    -0.015625
    145 C                    -0.022176
    146 C                     0.009126
    147 C                    -0.006972
    148 C                     0.048258
    149 C                    -0.022302
    150 C                    -0.005603
    151 C                    -0.003863
    152 C                     0.014179
    153 C                    -0.024557
    154 C                     0.017088
    155 C                    -0.029933
    156 C                     0.022729
    157 C                     0.002261
    158 C                     0.053143
    159 C                     0.006472
    160 C                    -0.023149
    161 C                     0.002513
    162 C                    -0.004336
    163 C                     0.000920
    164 C                     0.016204
    165 C                     0.011321
    166 C                     0.004920
    167 C                    -0.035485
    168 C                    -0.012280
    169 C                    -0.006202
    170 C                     0.003416
    171 C                    -0.001064
    172 C                    -0.018309
    173 C                     0.026022
    174 C                    -0.013237
    175 C                     0.004474
    176 C                     0.035085
  ----------------------------------------
  Sum of atomic charges =     0.000000

 -----------------------------------------------------------------
                    Cartesian Multipole Moments
 -----------------------------------------------------------------
    Charge (ESU x 10^10)
                 0.0000
    Dipole Moment (Debye)
         X      -0.3357      Y      -2.5200      Z      -0.5596
       Tot       2.6031
    Quadrupole Moments (Debye-Ang)
        XX    -777.6511     XY     -18.8605     YY    -786.8631
        XZ      37.4998     YZ     -21.2584     ZZ    -817.0322
    Octopole Moments (Debye-Ang^2)
       XXX      71.7526    XXY    -225.1301    XYY    -103.7098
       YYY    -327.6054    XXZ    -375.0928    XYZ     -22.2751
       YYZ     128.5552    XZZ    -122.8127    YZZ      17.4465
       ZZZ     -32.0781
    Hexadecapole Moments (Debye-Ang^3)
      XXXX -188213.7838   XXXY   -2967.1190   XXYY  -36524.9933
      XYYY    -821.4949   YYYY  -39034.8844   XXXZ    4543.2157
      XXYZ    -650.4317   XYYZ     579.0651   YYYZ    -888.1749
      XXZZ  -35176.2858   XYZZ    -188.8925   YYZZ  -10957.3543
      XZZZ    1011.6351   YZZZ    -578.7062   ZZZZ  -22530.4998
 -----------------------------------------------------------------
Archival summary:
1\1\mn366\SP\ProcedureUnspecified\6-31G**\428\afmv_a\SatOct609:25:402018SatOct609:25:402018\0\\#,ProcedureUnspecified,6-31G**,\\0,1\C\C,1,1.36111\C,1,1.39095,2,106.312\C,3,1.40238,1,117.581,2,-141.481,0\C,4,1.41295,3,121.991,1,2.71992,0\C,5,1.38169,4,109.497,3,144.641,0\C,1,1.41849,2,119.534,3,-141.672,0\C,7,1.38567,1,121.525,2,134.876,0\C,8,1.3558,7,109.423,1,-141.333,0\C,2,1.42253,1,111.385,3,-1.84746,0\C,10,1.34522,2,121.011,1,142.648,0\C,11,1.39966,10,122.298,2,-136.642,0\C,12,1.40718,11,118.528,10,2.35607,0\C,13,1.36201,12,120.065,11,-1.5892,0\C,14,1.40284,13,107.262,12,136.933,0\C,15,1.36946,14,121.106,13,-150.24,0\C,14,1.40604,13,120.91,12,-1.11976,0\C,15,1.40949,14,108.764,13,2.05515,0\C,18,1.36821,15,108.011,14,0.0936521,0\C,18,1.39346,15,123.054,14,-151.856,0\C,20,1.388,18,119.738,15,133.002,0\C,21,1.38176,20,110.161,18,-135.035,0\C,22,1.38467,21,107.849,20,-0.625414,0\C,21,1.39952,20,119.373,18,9.44819,0\C,24,1.39533,21,119.425,20,-144.752,0\C,24,1.39593,21,120.88,20,-0.0576265,0\C,25,1.39743,24,107.263,21,141.772,0\C,27,1.37108,25,120.882,24,-139.46,0\C,28,1.40445,27,119.27,25,142.98,0\C,29,1.37308,28,104.466,27,-147.033,0\C,12,1.41237,11,104.994,10,140.728,0\C,31,1.39847,12,111.781,11,4.80045,0\C,32,1.37091,31,105.671,12,-7.04276,0\C,33,1.38553,32,122.122,31,-149.071,0\C,34,1.38708,33,120.303,32,10.3466,0\C,35,1.38092,34,110.996,33,135.545,0\C,36,1.34652,35,122.86,34,-138.321,0\C,37,1.39315,36,126.35,35,141.239,0\C,36,1.40678,35,107.814,34,2.52179,0\C,39,1.3969,36,120.383,35,-142.73,0\C,37,1.41329,36,123.607,35,-6.45133,0\C,41,1.40813,37,114.767,36,3.80599,0\C,42,1.40416,41,117.394,37,136.074,0\C,43,1.38658,42,123.25,41,1.46701,0\C,41,1.40886,37,112.066,36,146.677,0\C,45,1.3738,41,119.332,37,-135.76,0\C,46,1.39429,45,120.768,41,133.193,0\C,47,1.39805,46,120.142,45,-1.25365,0\C,48,1.3924,47,120.578,46,6.28319,0\C,49,1.39803,48,104.014,47,-144.723,0\C,50,1.36348,49,111.619,48,-4.09602,0\C,48,1.39957,47,123.005,46,-143.164,0\C,49,1.41041,48,117.867,47,-10.2733,0\C,44,1.4153,43,120.98,42,-135.412,0\C,54,1.34291,44,110.195,43,141.054,0\C,31,1.41564,12,123.673,11,-143.295,0\C,34,1.4171,33,118.352,32,143.377,0\C,9,1.42385,8,109.646,7,-6.31324,0\C,23,1.48164,22,111.57,21,-3.30491,0\C,6,1.48993,5,112.334,4,3.81413,0\C,60,1.52354,6,127.277,5,155.108,0\C,61,1.506,60,120.861,6,-7.81416,0\C,62,1.41832,61,122.759,60,-51.2794,0\H,63,1.08607,62,123.12,61,5.91057,0\C,63,1.36525,62,118.927,61,-174.763,0\H,65,1.08675,63,119.137,62,-174.806,0\C,65,1.41043,63,119.136,62,-3.3116,0\H,67,1.08652,65,119.421,63,179.684,0\C,67,1.4178,65,122.672,63,-1.52096,0\H,69,1.08658,67,120.626,65,178.406,0\C,69,1.38413,67,119.207,65,5.71012,0\H,71,1.08517,69,122.204,67,164.999,0\C,61,1.55335,60,119.31,6,-154.733,0\H,73,1.09697,61,110.849,60,-41.6457,0\H,73,1.09716,61,113.96,60,-165.626,0\C,73,1.5096,61,111.452,60,72.3582,0\H,76,1.09606,73,110.642,61,-68.3355,0\H,76,1.09741,73,115.7,61,52.6235,0\C,76,1.54919,73,111.113,61,165.421,0\H,79,1.09677,76,109.478,73,-62.741,0\H,79,1.09733,76,107.575,73,49.0306,0\C,79,1.4993,76,116.753,73,170.789,0\O,82,1.19251,79,122.666,76,-140.002,0\O,82,1.36322,79,113.091,76,45.1701,0\C,84,1.46556,82,117.463,79,178.519,0\H,85,1.09627,84,113.017,82,172.026,0\H,85,1.09669,84,111.412,82,-67.2951,0\H,85,1.09755,84,113.738,82,47.9313,0\C,1,3.48521,2,82.4828,3,108.205,0\C,89,1.36887,1,92.7442,2,137.928,0\C,90,1.38151,89,123.874,1,-136.545,0\C,91,1.37741,90,107.671,89,-143.332,0\C,92,1.37941,91,120.356,90,142.306,0\C,93,1.40338,92,120.307,91,-1.18145,0\C,94,1.40241,93,106.522,92,-143.777,0\C,95,1.39541,94,118.282,93,139.523,0\C,94,1.40259,93,120.422,92,-4.16576,0\C,97,1.40184,94,122.62,93,-135.084,0\C,98,1.37978,97,108.185,94,142.797,0\C,99,1.39164,98,119.05,97,-139.486,0\C,100,1.39409,99,120.571,98,139.838,0\C,101,1.36358,100,109.484,99,-150.222,0\C,102,1.39551,101,120.344,100,141.38,0\C,103,1.39541,102,118.315,101,1.44653,0\C,104,1.38581,103,110.743,102,-142.968,0\C,105,1.39003,104,119.205,103,142.48,0\C,106,1.35942,105,119.896,104,-139.581,0\C,106,1.38587,105,121.446,104,2.41141,0\C,108,1.38352,106,109.119,105,-144.815,0\C,109,1.36871,108,120.005,106,141.356,0\C,109,1.36963,108,106.727,106,2.1808,0\C,111,1.35864,109,121.783,108,148.433,0\C,110,1.37078,109,122.515,108,-145.422,0\C,112,1.39443,111,122.304,109,-138.92,0\C,103,1.39785,102,121.154,101,-130.214,0\C,112,1.40028,111,118.982,109,-6.26284,0\C,116,1.35697,112,110.132,111,-137.141,0\C,96,1.40357,95,118.322,94,-138.682,0\C,118,1.39893,96,123.604,95,1.74656,0\C,119,1.39491,118,118.893,96,1.33235,0\C,100,1.40411,99,122.574,98,-2.76524,0\C,121,1.3911,100,119.433,99,-0.746427,0\C,121,1.39564,100,107.422,99,147.312,0\C,123,1.40025,121,117.239,100,-142.222,0\C,124,1.38166,123,118.813,121,137.248,0\C,125,1.38218,124,106.979,123,-143.469,0\C,126,1.36619,125,114.02,124,2.31199,0\C,127,1.38072,126,124.629,125,134.85,0\C,128,1.37881,127,117.679,126,7.46845,0\C,108,1.40488,106,121.452,105,4.43297,0\C,130,1.40304,108,117.343,106,-6.27845,0\C,114,1.40497,112,112.582,111,133.867,0\C,132,1.36891,114,121.514,112,-140.579,0\C,99,1.40571,98,108.758,97,0.725624,0\C,134,1.40284,99,122.804,98,-145.805,0\C,135,1.38943,134,117.32,99,2.93971,0\C,127,1.41361,126,105.683,125,-7.51301,0\C,93,1.41648,92,118.318,91,-143.505,0\C,96,1.41843,95,124.969,94,4.01678,0\C,97,1.41873,94,119.527,93,8.4028,0\C,120,1.42347,119,119.177,118,-4.27376,0\C,129,1.42415,128,121.236,127,-1.02845,0\C,142,1.40334,129,113.696,128,-138.222,0\C,143,1.36972,142,103.264,129,141.778,0\C,144,1.3905,143,113.169,142,0.114842,0\C,145,1.3802,144,106.718,143,-1.81852,0\C,145,1.39154,144,119.642,143,-139.64,0\C,137,1.48782,127,126.258,126,-141.031,0\C,148,1.48785,137,60.4812,127,-109.149,0\C,148,1.5378,137,117.557,127,135.475,0\C,150,1.37047,148,120.668,137,130.651,0\H,151,1.08552,150,114.152,148,1.33215,0\C,150,1.3797,148,119.442,137,-55.2688,0\H,153,1.08594,150,124.344,148,0.247748,0\C,153,1.39847,150,124.438,148,-175.792,0\H,155,1.08599,153,122.801,150,-173.81,0\C,151,1.4147,150,118.16,148,174.554,0\H,157,1.0859,151,118.879,150,176.692,0\C,157,1.41507,151,122.795,150,0.229097,0\H,159,1.08652,157,124.539,151,-179.598,0\C,148,1.55399,137,119.208,127,-5.96767,0\H,161,1.09739,148,110.075,137,-168.873,0\H,161,1.0975,148,111.887,137,-49.1461,0\C,161,1.60098,148,114.797,137,76.0763,0\H,164,1.09639,161,108.205,148,-50.6429,0\H,164,1.09643,161,111.279,148,60.9546,0\C,164,1.49349,161,108.352,148,-174.734,0\H,167,1.09677,164,109.345,161,-175.921,0\H,167,1.09679,164,106.688,161,-58.5813,0\C,167,1.55266,164,112.441,161,58.1971,0\O,170,1.21168,167,121.837,164,-120.139,0\O,170,1.37707,167,111.441,164,56.9775,0\C,172,1.48846,170,117.7,167,179.438,0\H,173,1.09658,172,104.282,170,-174.326,0\H,173,1.09663,172,112.602,170,-58.8984,0\H,173,1.09689,172,115.435,170,70.4902,0\\\@

 Total job time:  832.36s(wall), 7008.95s(cpu) 
 Sat Oct  6 09:25:40 2018

        *************************************************************
        *                                                           *
        *  Thank you very much for using Q-Chem.  Have a nice day.  *
        *                                                           *
        *************************************************************


