
Running Job 1 of 1 ./7/7.qcin
qchem ./7/7.qcin_140079.0 /tmpu/cab_g/afmv_a/scratch_qchem/qchem140079/ 1
/tmpu/appuserlic/qchem4.4/serial-multicore/exe/qcprog.exe_s ./7/7.qcin_140079.0 /tmpu/cab_g/afmv_a/scratch_qchem/qchem140079/
Check license passed

                  Welcome to Q-Chem
     A Quantum Leap Into The Future Of Chemistry


 Q-Chem 4.4, Q-Chem, Inc., Pleasanton, CA (2016)

 Y. Shao,  Z. Gan,  E. Epifanovsky,  A. T. B. Gilbert,  M. Wormit,  
 J. Kussmann,  A. W. Lange,  A. Behn,  J. Deng,  X. Feng,  D. Ghosh,  
 M. Goldey,  P. R. Horn,  L. D. Jacobson,  I. Kaliman,  F. Rob,  
 R. Z. Khaliullin,  T. Kus,  A. Landau,  J. Liu,  E. I. Proynov,  Y. M. Rhee,  
 R. M. Richard,  M. A. Rohrdanz,  R. P. Steele,  E. J. Sundstrom,  
 H. L. Woodcock III,  P. M. Zimmerman,  D. Zuev,  B. Albrecht,  E. Alguire,  
 B. Austin,  S. A. Baeppler,  G. J. O. Beran,  Y. A. Bernard,  E. Berquist,  
 K. Brandhorst,  K. B. Bravaya,  S. T. Brown,  D. Casanova,  C.-M. Chang,  
 Y. Chen,  S. H. Chien,  K. D. Closser,  M. P. Coons,  D. L. Crittenden,  
 S. Dasgupta,  M. Diedenhofen,  R. A. DiStasio Jr.,  H. Do,  A. D. Dutoi,  
 R. G. Edgar,  P.-T. Fang,  S. Fatehi,  Q. Feng,  L. Fusti-Molnar,  
 A. Ghysels,  A. Golubeva-Zadorozhnaya,  J. Gomes,  A. Gunina,  
 M. W. D. Hanson-Heine,  P. H. P. Harbach,  A. W. Hauser,  J. E. Herr,  
 E. G. Hohenstein,  Z. C. Holden,  K. Hui,  T.-C. Jagau,  H. Ji,  B. Kaduk,  
 K. Khistyaev,  Jaehoon Kim,  Jihan Kim,  R. A. King,  P. Klunzinger,  
 K. Koh,  D. Kosenkov,  T. Kowalczyk,  C. M. Krauter,  A. Kunitsa,  
 K. U. Lao,  A. Laurent,  K. V. Lawler,  J. Lee,  D. Lefrancois,  S. Lehtola,  
 S. V. Levchenko,  C. Y. Lin,  Y.-S. Lin,  F. Liu,  E. Livshits,  
 R. C. Lochan,  A. Luenser,  P. Manohar,  S. F. Manzer,  S.-P. Mao,  Y. Mao,  
 N. Mardirossian,  A. V. Marenich,  L. A. Martinez-Martinez,  S. A. Maurer,  
 N. J. Mayhall,  J.-M. Mewes,  A. F. Morrison,  K. Nanda,  T. S. Nguyen-Beck,  
 C. M. Oana,  R. Olivares-Amaya,  D. P. O'Neill,  J. A. Parkhill,  
 T. M. Perrine,  R. Peverati,  P. A. Pieniazek,  F. Plasser,  A. Prociuk,  
 D. R. Rehn,  E. Rosta,  N. J. Russ,  N. Sergueev,  S. M. Sharada,  
 S. Sharma,  D. W. Small,  A. Sodt,  T. Stauch,  T. Stein,  D. Stuck,  
 Y.-C. Su,  A. J. W. Thom,  T. Tsuchimochi,  L. Vogt,  O. Vydrov,  T. Wang,  
 M. A. Watson,  J. Wenzel,  A. White,  C. F. Williams,  V. Vanovschi,  
 K. Yao,  S. Yeganeh,  S. R. Yost,  Z.-Q. You,  I. Y. Zhang,  X. Zhang,  
 Y. Zhao,  B. R. Brooks,  G. K. L. Chan,  D. M. Chipman,  C. J. Cramer,  
 W. A. Goddard III,  M. S. Gordon,  W. J. Hehre,  A. Klamt,  
 H. F. Schaefer III,  M. W. Schmidt,  C. D. Sherrill,  D. G. Truhlar,  
 A. Warshel,  X. Xu,  A. Aspuru-Guzik,  R. Baer,  A. T. Bell,  N. A. Besley,  
 J.-D. Chai,  A. Dreuw,  B. D. Dunietz,  T. R. Furlani,  S. R. Gwaltney,  
 C.-P. Hsu,  Y. Jung,  J. Kong,  D. S. Lambrecht,  W. Liang,  C. Ochsenfeld,  
 V. A. Rassolov,  L. V. Slipchenko,  J. E. Subotnik,  T. Van Voorhis,  
 J. M. Herbert,  A. I. Krylov,  P. M. W. Gill,  M. Head-Gordon

 Contributors to earlier versions of Q-Chem not listed above: 
 R. D. Adamson,  J. Baker,  E. F. C. Byrd,  A. K. Chakraborty,  C.-L. Cheng,  
 H. Dachsel,  R. J. Doerksen,  G. Hawkins,  A. Heyden,  S. Hirata,  
 G. Kedziora,  F. J. Keil,  C. Kelley,  P. P. Korambath,  W. Kurlancheek,  
 A. M. Lee,  M. S. Lee,  D. Liotard,  I. Lotan,  P. E. Maslen,  N. Nair,  
 D. Neuhauser,  R. Olson,  B. Peters,  J. Ritchie,  N. E. Schultz,  
 N. Shenvi,  A. C. Simmonett,  K. S. Thanthiriwatte,  Q. Wu,  W. Zhang

 Please cite Q-Chem as follows:
 Y. Shao et al., Mol. Phys. 113, 184-215 (2015)
 DOI: 10.1080/00268976.2014.952696

 Q-Chem 4.4.2 for Intel X86 Linux

 Parts of Q-Chem use Armadillo 5.200.1 (Boston Tea Smuggler).
 http://arma.sourceforge.net/

 Q-Chem begins on Sat Oct  6 11:05:24 2018  

Host: 
0

     Scratch files written to /tmpu/cab_g/afmv_a/scratch_qchem/qchem140079//
 Dec716 11556_ 22328  22283 4050   
Processing $rem in /tmpu/appuserlic/qchem4.4/serial-multicore/config/preferences.
 MEM_TOTAL  2000 
FILE_GEOM_ORG=        593

Checking the input file for inconsistencies... 	...done.

--------------------------------------------------------------
User input:
--------------------------------------------------------------
$comment
SP
$end

$rem
MEM_STATIC 5000
MEM_TOTAL 20000
JOBTYPE SP
EXCHANGE B3LYP
BASIS 6-31g(d,p)
$end

$molecule
0 1
O          18.732000    -10.818000     -8.901000
C          20.125000    -10.604000     -9.377000
H          20.829000    -11.239000     -8.825000
H          20.406000     -9.574000     -9.126000
H          20.143000    -10.734000    -10.466000
O          18.787000    -13.087000     -9.279000
C          18.220000    -12.071000     -8.877000
C          16.760000    -12.004000     -8.342000
H          16.201000    -11.438000     -9.097000
H          16.696000    -11.550000     -7.345000
C          16.021000    -13.367000     -8.163000
H          16.831000    -14.016000     -7.806000
H          15.322000    -13.381000     -7.318000
C          15.437000    -13.941000     -9.421000
H          14.444000    -13.510000     -9.599000
H          15.996000    -13.768000    -10.349000
C          15.187000    -15.428000     -9.179000
C          13.892000    -15.664000     -8.384000
C          12.657000    -15.584000     -9.047000
H          12.636000    -15.409000    -10.118000
C          11.497000    -15.775000     -8.317000
H          10.600000    -15.742000     -8.930000
C          11.605000    -16.179000     -7.015000
H          10.706000    -16.461000     -6.475000
C          12.834000    -16.327000     -6.340000
H          12.924000    -16.507000     -5.273000
C          13.996000    -16.042000     -7.021000
H          14.962000    -16.145000     -6.535000
C          17.292000    -20.287000     -7.712000
C          15.407000    -20.888000     -9.119000
C          17.930000    -22.340000    -12.722000
C          20.288000    -17.078000    -10.146000
C          17.548000    -19.343000    -14.340000
C          15.960000    -20.049000     -8.196000
C          20.259000    -17.626000    -12.870000
C          18.194000    -22.636000    -10.309000
C          14.623000    -18.061000    -11.925000
C          19.525000    -16.256000    -11.002000
C          15.381000    -16.445000    -10.298000
C          15.491000    -17.196000    -12.627000
C          18.175000    -16.341000    -12.790000
C          19.768000    -18.422000    -13.926000
C          14.731000    -18.773000     -9.635000
C          19.256000    -20.812000    -13.770000
C          16.292000    -16.419000     -9.120000
C          17.702000    -16.174000     -9.359000
C          17.975000    -20.614000    -14.186000
C          20.962000    -20.534000    -10.119000
C          19.989000    -21.841000    -11.675000
C          19.551000    -22.241000    -10.391000
C          17.454000    -22.171000     -9.268000
C          18.514000    -16.961000     -8.490000
C          14.637000    -17.720000    -10.565000
C          16.120000    -22.022000     -9.659000
C          19.430000    -16.595000    -12.357000
C          14.635000    -20.113000    -10.026000
C          16.316000    -17.580000    -13.653000
C          20.256000    -18.726000     -8.569000
C          17.393000    -22.683000    -11.452000
C          16.063000    -16.262000    -11.655000
C          19.354000    -20.995000     -8.372000
C          17.624000    -17.159000    -13.748000
C          14.588000    -19.381000    -12.351000
C          20.946000    -19.719000    -12.451000
C          21.048000    -18.420000    -12.010000
C          15.392000    -19.779000    -13.459000
C          19.790000    -17.424000     -8.858000
C          18.226000    -15.850000    -10.610000
C          21.005000    -19.146000     -9.670000
C          16.383000    -17.616000     -8.239000
C          15.256000    -21.581000    -11.897000
C          17.416000    -15.875000    -11.729000
C          16.226000    -18.926000    -14.093000
C          19.442000    -19.638000     -7.880000
C          17.165000    -21.488000    -13.491000
C          18.035000    -21.370000     -8.262000
C          19.240000    -21.845000    -12.830000
C          14.579000    -20.451000    -11.392000
C          15.839000    -21.063000    -13.048000
C          15.565000    -18.740000     -8.524000
C          17.728000    -17.863000     -7.830000
C          20.868000    -20.737000    -11.498000
C          16.058000    -22.325000    -11.021000
C          18.370000    -18.219000    -14.231000
C          21.088000    -18.137000    -10.618000
C          20.169000    -19.733000    -13.580000
C          18.177000    -19.218000     -7.512000
C          20.119000    -21.423000     -9.440000
O          28.195000    -30.547000     -7.107000
C          29.301000    -30.753000     -7.997000
H          30.166000    -31.306000     -7.611000
H          29.737000    -29.752000     -8.107000
H          29.037000    -31.028000     -9.026000
O          29.444000    -29.491000     -5.494000
C          28.373000    -29.973000     -5.894000
C          27.084000    -29.961000     -5.167000
H          27.315000    -29.309000     -4.316000
H          26.863000    -30.947000     -4.740000
C          25.939000    -29.169000     -5.934000
H          26.349000    -28.294000     -6.454000
H          25.489000    -29.811000     -6.701000
C          24.843000    -28.682000     -4.976000
H          24.373000    -29.607000     -4.619000
H          25.362000    -28.339000     -4.072000
C          23.930000    -27.590000     -5.589000
C          22.918000    -28.207000     -6.525000
C          21.740000    -28.773000     -6.004000
H          21.271000    -28.597000     -5.040000
C          20.835000    -29.318000     -6.910000
H          19.850000    -29.614000     -6.559000
C          21.215000    -29.555000     -8.204000
H          20.602000    -30.201000     -8.825000
C          22.397000    -29.011000     -8.723000
H          22.666000    -29.163000     -9.764000
C          23.231000    -28.324000     -7.823000
H          24.121000    -27.796000     -8.154000
C          23.953000    -22.656000     -7.975000
C          21.885000    -22.654000     -6.691000
C          23.086000    -19.701000     -3.418000
C          27.732000    -23.751000     -4.792000
C          23.714000    -22.213000     -0.995000
C          22.857000    -23.322000     -7.464000
C          27.079000    -22.858000     -2.189000
C          23.517000    -19.688000     -5.830000
C          22.100000    -25.013000     -3.420000
C          27.226000    -24.565000     -3.796000
C          23.533000    -26.477000     -4.656000
C          23.108000    -25.289000     -2.572000
C          25.873000    -24.851000     -2.020000
C          26.116000    -22.161000     -1.426000
C          22.098000    -24.734000     -5.863000
C          24.761000    -20.255000     -1.966000
C          24.521000    -26.199000     -5.805000
C          25.937000    -25.781000     -5.464000
C          23.595000    -20.951000     -1.483000
C          26.890000    -20.401000     -5.418000
C          25.333000    -19.320000     -4.189000
C          24.841000    -19.403000     -5.557000
C          23.142000    -20.561000     -6.851000
C          26.387000    -24.846000     -6.458000
C          22.391000    -25.544000     -4.717000
C          21.976000    -21.262000     -6.435000
C          26.934000    -24.179000     -2.501000
C          21.425000    -23.547000     -5.784000
C          23.503000    -24.393000     -1.565000
C          27.225000    -22.563000     -6.628000
C          22.614000    -19.826000     -4.751000
C          24.094000    -26.031000     -3.321000
C          25.417000    -20.995000     -7.290000
C          24.836000    -24.161000     -1.371000
C          21.461000    -23.788000     -3.303000
C          26.926000    -20.715000     -2.965000
C          27.531000    -21.958000     -3.186000
C          21.782000    -22.894000     -2.291000
C          27.344000    -23.862000     -6.102000
C          26.316000    -25.519000     -4.143000
C          27.597000    -21.626000     -5.636000
C          24.226000    -25.285000     -6.968000
C          21.246000    -21.710000     -4.193000
C          25.465000    -25.687000     -3.048000
C          22.790000    -23.151000     -1.398000
C          26.089000    -22.228000     -7.417000
C          22.612000    -20.655000     -2.465000
C          24.079000    -21.277000     -7.620000
C          24.415000    -19.517000     -3.096000
C          21.105000    -23.106000     -4.501000
C          21.681000    -21.617000     -2.850000
C          22.938000    -24.672000     -7.000000
C          25.350000    -24.526000     -7.355000
C          26.552000    -19.995000     -4.099000
C          21.702000    -20.830000     -5.114000
C          24.982000    -22.812000     -0.962000
C          27.918000    -22.391000     -4.516000
C          26.016000    -20.883000     -1.985000
C          25.175000    -23.201000     -7.884000
C          25.856000    -20.058000     -6.300000
$end

--------------------------------------------------------------
 ----------------------------------------------------------------
             Standard Nuclear Orientation (Angstroms)
    I     Atom           X                Y                Z
 ----------------------------------------------------------------
    1      O      -8.4322326509     5.9399266381    -2.5467183132
    2      C      -7.8418971625     6.1426029838    -3.8969950663
    3      H      -6.7505039473     6.2363296724    -3.8368190103
    4      H      -8.1955285679     7.1111170934    -4.2708763960
    5      H      -8.2003777383     5.3421612496    -4.5557284775
    6      O      -7.1348110023     4.0962139198    -2.0866199779
    7      C      -7.9780174122     4.9330445898    -1.7640267663
    8      C      -8.7637896508     4.9510202531    -0.4206902989
    9      H      -9.8003376483     4.7131529542    -0.6887376770
   10      H      -8.6763445119     5.9092561071     0.1069065129
   11      C      -8.3267185801     3.9084699600     0.6554085652
   12      H      -7.2373277289     3.8921879305     0.5223203657
   13      H      -8.4299229831     4.2698302952     1.6857432484
   14      C      -8.8760661281     2.5256446511     0.4576525624
   15      H      -9.8760579978     2.4567534835     0.9034824262
   16      H      -8.9992435468     2.1863971059    -0.5783650179
   17      C      -8.0119171432     1.5635183455     1.2699286878
   18      C      -8.3913873201     1.5795323413     2.7600602044
   19      C      -9.5332694103     0.8810671469     3.1836704784
   20      H     -10.1006646514     0.2987585922     2.4645832879
   21      C      -9.8785130146     0.9215921693     4.5231276730
   22      H     -10.7467074858     0.3104181878     4.7558758729
   23      C      -9.0146779663     1.5151927662     5.4014848559
   24      H      -9.2092053535     1.4346456479     6.4668468870
   25      C      -7.8292980481     2.1716843880     5.0117885637
   26      H      -7.2147945006     2.7657743364     5.6814388629
   27      C      -7.5211472223     2.2304777050     3.6713347546
   28      H      -6.6162380419     2.7267802502     3.3325366455
   29      C      -2.9749213032    -0.3776527693     2.2963411831
   30      C      -4.4297889138    -2.2156039958     2.9282988749
   31      C      -3.3477545893    -4.9484446547    -0.6516767750
   32      C      -4.0076634722     1.0862400870    -2.3928500390
   33      C      -6.1441398170    -3.9796030966    -2.3800959064
   34      C      -4.2054623343    -0.8720272019     2.8499535845
   35      C      -4.8140942429    -1.0933858463    -3.9160772719
   36      C      -1.9874691158    -3.5103551094     0.7840818714
   37      C      -7.8785428147    -2.2496552420     0.7870006602
   38      C      -5.3810045742     0.9109074587    -2.6644778855
   39      C      -7.7121687266     0.1596097830     0.7568228170
   40      C      -8.1359960674    -1.8693895035    -0.5485025374
   41      C      -6.9624050708    -0.6710054958    -2.8174251765
   42      C      -5.0794336154    -2.4773726678    -3.9793899516
   43      C      -6.4125187863    -1.2279459311     2.3899952430
   44      C      -3.8600146161    -4.2049161443    -2.7435943210
   45      C      -6.6372689927     1.1861477254     0.8521717283
   46      C      -5.9567725385     1.5703882757    -0.3703378935
   47      C      -5.0036250959    -4.6699048538    -2.1698682796
   48      C      -1.3911167277    -1.1739029324    -1.7262334581
   49      C      -1.8633476689    -3.3732848751    -1.6004121247
   50      C      -1.3706507678    -2.9306576764    -0.3506797827
   51      C      -2.3358179213    -2.6913560819     1.8114083544
   52      C      -4.5674971500     1.7918206044    -0.1363387081
   53      C      -7.5183529941    -1.1137234703     1.5259183168
   54      C      -3.4735016906    -3.1885481319     2.4541475754
   55      C      -5.7939513104    -0.2414021229    -3.3439104584
   56      C      -5.8008653577    -2.4600234248     2.6460462789
   57      C      -7.7758132985    -2.5989632386    -1.6524715306
   58      C      -2.3450702222     0.9404165772    -0.8377371206
   59      C      -2.9619680397    -4.5002745764     0.6403101905
   60      C      -7.9381417804    -0.4213623664    -0.6401272683
   61      C      -1.4422371820    -0.7758504054     0.6589572858
   62      C      -7.2130454968    -2.0220663886    -2.7694372534
   63      C      -7.2535504219    -3.4745790827     0.9715192051
   64      C      -2.8780616539    -2.1260615405    -3.4539758496
   65      C      -3.4393915312    -0.8887965206    -3.6693128860
   66      C      -6.9325171539    -4.2732292999    -0.1649575749
   67      C      -3.5867394401     1.5542083055    -1.1159425617
   68      C      -6.3314067071     1.1177871063    -1.6349937443
   69      C      -2.0437691300     0.1164253469    -1.9239498549
   70      C      -5.4637606612     0.9368557170     1.7342049989
   71      C      -5.2487116511    -4.5652375175     1.5038965917
   72      C      -7.3156528645     0.1568526911    -1.7644176653
   73      C      -7.1767625568    -3.8658137443    -1.4296621840
   74      C      -2.0279194285     0.5323265004     0.4668466687
   75      C      -4.7050846369    -5.0460536635    -0.8766603816
   76      C      -2.0348041466    -1.3131380415     1.7781857650
   77      C      -2.8352944284    -4.3270104047    -1.8023257469
   78      C      -6.1932006175    -3.6086786558     1.9319032932
   79      C      -5.6640691067    -4.7993268410     0.1978742440
   80      C      -5.4207133818    -0.2603265731     2.4948800254
   81      C      -4.2500997618     1.3791292616     1.1269683621
   82      C      -1.8983355180    -2.2451267806    -2.4657566597
   83      C      -3.8900170416    -4.3113020220     1.7353738525
   84      C      -6.2575300276    -2.8965879273    -3.2548311825
   85      C      -3.0124905535     0.2336757786    -2.9095994579
   86      C      -3.8514991368    -3.0771495706    -3.6165090028
   87      C      -2.9745319013     0.7422778827     1.4526936363
   88      C      -1.1116679664    -1.5797567232    -0.4150499888
   89      O      10.8992415589    -4.4282165659    -1.6545538807
   90      C      11.3904792404    -4.8693219062    -2.9280858273
   91      H      12.4682924167    -4.7841709266    -3.1127424484
   92      H      11.0077895704    -4.1173792949    -3.6297466612
   93      H      10.9609450762    -5.8067686399    -3.3033937320
   94      O      11.7345214312    -2.2978928523    -1.8568764212
   95      C      11.1613619311    -3.1804598693    -1.1996636338
   96      C      10.6026959777    -3.0313613882     0.1626344230
   97      H      10.7010116507    -1.9514129610     0.3260707194
   98      H      11.2496962586    -3.5092244183     0.9085590579
   99      C       9.0323202693    -3.2690992926     0.2257123358
  100      H       8.5411328399    -2.8817389606    -0.6758484676
  101      H       8.8177251645    -4.3439321533     0.2661630785
  102      C       8.4003130117    -2.5814207598     1.4438314031
  103      H       8.8154561633    -3.1265778529     2.3008225977
  104      H       8.9041983558    -1.6111970293     1.5386547796
  105      C       6.8598114228    -2.4450557256     1.3435247135
  106      C       6.1877511743    -3.7589606983     1.6643326704
  107      C       5.9782476945    -4.1261101504     3.0062680532
  108      H       5.9578138318    -3.4921581179     3.8882659431
  109      C       5.3444185607    -5.3414365685     3.2473662212
  110      H       5.0233708442    -5.5780095174     4.2583081600
  111      C       5.2072418304    -6.2578534569     2.2392156216
  112      H       4.9478707664    -7.2823565575     2.4879042781
  113      C       5.4339675402    -5.9039703887     0.9028836170
  114      H       5.2751740514    -6.6233157153     0.1050910819
  115      C       5.9296129191    -4.6102459507     0.6617659344
  116      H       6.0511464485    -4.2206148095    -0.3451412982
  117      C       2.8024854887    -0.4986619732    -1.7849795018
  118      C       1.9657600736    -0.1946957229     0.4805842466
  119      C       2.2723531726     4.3562908558     0.7445176332
  120      C       7.3064978632     1.7906647094    -2.0751705962
  121      C       5.2622508638     4.3226483577     2.6510424766
  122      C       2.7055628258    -0.9220089475    -0.4745305953
  123      C       7.3960365127     3.9585663017    -0.2608794078
  124      C       1.5490529285     2.8987655994    -1.0874569528
  125      C       4.9385327717     0.3279227987     3.1638731551
  126      C       7.8934677032     1.7332154556    -0.8250450064
  127      C       6.2886581493    -1.1475638700     1.8506399102
  128      C       6.1294496606     0.9493127560     3.0805935973
  129      C       7.9137040422     2.3408025702     1.3422134896
  130      C       6.6399192361     4.7022596195     0.6721553788
  131      C       3.7497391491    -1.0737177479     1.5303899133
  132      C       4.3286791708     5.3492276811     0.6642378091
  133      C       6.2919994775    -1.4453492122     0.3390375400
  134      C       7.1088962468    -0.5570872334    -0.5773310133
  135      C       4.1925859877     4.8680485863     2.0159797683
  136      C       4.3966444197     3.5397663648    -2.9677714791
  137      C       3.2009113458     4.7065533238    -1.4472184190
  138      C       2.3599982384     3.6241774561    -1.9388530666
  139      C       1.4230752868     1.5132080141    -1.1852056703
  140      C       6.4101046813    -0.4270075772    -1.8261427008
  141      C       4.9249471116    -0.8222968294     2.3120156335
  142      C       1.2623208423     0.9846223597     0.1258123366
  143      C       7.9961666775     2.7789416463     0.0733951166
  144      C       2.5956130119    -0.3545133840     1.6677832995
  145      C       6.2484794779     2.3472345615     3.1479473515
  146      C       5.4673853992     1.3002225909    -3.2653054093
  147      C       1.4854286992     3.2722156574     0.2745933442
  148      C       6.9347057114     0.1888246624     2.1548606164
  149      C       3.0170970230     1.5095729680    -2.9218068021
  150      C       7.0657335501     2.9856545113     2.2575178208
  151      C       3.7989117304     1.1078191231     3.2890154955
  152      C       5.6339458092     4.9319534081    -1.3405033672
  153      C       6.7191937850     4.0623586923    -1.5016146985
  154      C       3.8723144941     2.4883447308     3.4122310817
  155      C       6.5759289397     0.7534333388    -2.5941938443
  156      C       7.7437201949     0.5921865199    -0.0941184359
  157      C       5.5393611595     2.7114452971    -3.2045850373
  158      C       5.0434333709    -1.6345969515    -0.4857399880
  159      C       1.9891473901     1.9443167406     2.2020777013
  160      C       7.7398745399     0.9683420262     1.2512225046
  161      C       5.0700210385     3.1526777959     3.3512178680
  162      C       4.1793990164     0.7260364184    -3.0738809670
  163      C       2.9501381432     4.1796433665     1.9904727681
  164      C       2.1713778239     0.7453372156    -2.0975673035
  165      C       3.1700372365     5.0433862259    -0.0465855673
  166      C       2.6404466104     0.7151143344     2.5604514868
  167      C       2.7757392172     3.0025987868     2.7147524599
  168      C       3.7951254138    -1.5554684862     0.2007022383
  169      C       5.1521900935    -1.0567839596    -1.7677423756
  170      C       4.4663707165     4.6034332148    -2.0283077619
  171      C       1.3589656913     2.0847019639     1.0130697049
  172      C       6.4889957216     4.2489094163     1.9747484411
  173      C       6.6941898603     2.9850724718    -2.4737192212
  174      C       5.5433805932     5.2174836255    -0.0263517638
  175      C       3.9891126677    -0.5080703008    -2.4098134170
  176      C       3.1325632440     2.9369150967    -2.9094780001
 ----------------------------------------------------------------
 Molecular Point Group                 C1    NOp =  1
 Largest Abelian Subgroup              C1    NOp =  1
 Nuclear Repulsion Energy = 34054.3442701386 hartrees
 There are      462 alpha and      462 beta electrons
 Requested basis set is 6-31G(d,p)
 There are 676 shells and 2360 basis functions

 Total QAlloc Memory Limit  20000 MB
 Mega-Array Size      4888 MB
 MEM_STATIC part      5000 MB
 A cutoff of  1.0D-08 yielded  36797 shell pairs
 There are    521163 function pairs
 
 -------------------------------------------------------
 OpenMP Integral Computing Module                       
 Release: version 1.0, May 2013, Q-Chem Inc. Pittsburgh 
 -------------------------------------------------------
 Integral Job Info:
 Integral job number is                      11
 Integral operator is                         1
 short-range coefficients                     0
 long-range coefficients              100000000
 Omega coefficients                           0
 if combine SR and LR in K                    0
 Integral screening is                        0
 Integral computing path is                   2
 max size of driver memory is            800000
 size of driver memory is                593474
 size of scratch memory is              2260544
 max col of scratch BK array               1296
 max len of scratch array in speh3          155
 max len of scratch index in speh4           18
 max int batch size is                      520
 min int batch size is                       52
 fixed nKL is                                52
 max L of basis functions is                  2
 order of int derivative is                   0
 number of shells is                        676
 number of basis is                        2360
 number of cartesian basis is              2360
 number of contracted shell pairs         36797
 number of primitive shell pairs         112315
 maxK2 (contraction) of shell pair           36
 max number of K2 of shell pair               1
 max number of CS2 of shell pair           7117
 max number of PS2 of shell pair          34170
 mem total for path MDJ                 1486568
 -------------------------------------------------------
 Smallest overlap matrix eigenvalue = 2.34E-04

 Scale SEOQF with 1.000000e-02/1.000000e-02/1.000000e-02

 Standard Electronic Orientation quadrupole field applied
 Nucleus-field energy     =     0.0000001329 hartrees
 Guess from superposition of atomic densities
 Warning:  Energy on first SCF cycle will be non-variational
 A restricted hybrid HF-DFT SCF calculation will be
 performed using Pulay DIIS extrapolation
 Exchange:     0.2000 Hartree-Fock + 0.0800 Slater + 0.7200 B88
 Correlation:  0.1900 VWN1RPA + 0.8100 LYP
 Using SG-1 standard quadrature grid
 SCF converges when DIIS error is below 1.0E-05
 using 16 threads for integral computing 
 -------------------------------------------------------
 OpenMP BLAS3 based DFT computing Module                
 Release: version 1.0, May 2013, Q-Chem Inc. Pittsburgh 
 -------------------------------------------------------
 ---------------------------------------
  Cycle       Energy         DIIS Error
 ---------------------------------------
    1   -5859.2183241311      1.84E-02
    2   -5803.0327951195      1.31E-03
    3   -5802.1097895609      1.86E-03
    4   -5803.8997321029      6.78E-04
    5   -5804.1618732374      2.86E-04
    6   -5804.2118154173      1.31E-04
    7   -5804.2226462359      4.85E-05
    8   -5804.2236357718      3.14E-05
    9   -5804.2243752936      9.81E-06 Convergence criterion met
 ---------------------------------------
 SCF time:  CPU 7000.95 s  wall 821.31 s
 SCF   energy in the final basis set = -5804.2243752936
 Total energy in the final basis set = -5804.2243752936
 
 --------------------------------------------------------------
 
                    Orbital Energies (a.u.)
 --------------------------------------------------------------
 
 Alpha MOs
 -- Occupied --
-19.199 -19.193 -19.142 -19.132 -10.325 -10.315 -10.256 -10.243
-10.243 -10.241 -10.240 -10.232 -10.232 -10.229 -10.228 -10.228
-10.227 -10.226 -10.222 -10.222 -10.220 -10.220 -10.219 -10.219
-10.217 -10.215 -10.215 -10.215 -10.214 -10.214 -10.214 -10.214
-10.214 -10.214 -10.213 -10.213 -10.213 -10.213 -10.213 -10.213
-10.213 -10.213 -10.213 -10.212 -10.212 -10.212 -10.212 -10.212
-10.212 -10.211 -10.211 -10.211 -10.211 -10.211 -10.211 -10.211
-10.211 -10.211 -10.211 -10.210 -10.210 -10.210 -10.210 -10.210
-10.210 -10.210 -10.210 -10.210 -10.209 -10.209 -10.209 -10.209
-10.209 -10.209 -10.208 -10.208 -10.208 -10.208 -10.208 -10.208
-10.208 -10.208 -10.208 -10.208 -10.208 -10.207 -10.207 -10.207
-10.207 -10.207 -10.206 -10.206 -10.206 -10.206 -10.206 -10.206
-10.205 -10.205 -10.205 -10.205 -10.205 -10.205 -10.205 -10.205
-10.205 -10.205 -10.205 -10.204 -10.204 -10.204 -10.204 -10.204
-10.204 -10.204 -10.204 -10.203 -10.203 -10.203 -10.202 -10.202
-10.202 -10.202 -10.202 -10.201 -10.201 -10.201 -10.201 -10.201
-10.200 -10.200 -10.200 -10.200 -10.199 -10.198 -10.198 -10.198
-10.198 -10.197 -10.197 -10.197 -10.197 -10.196 -10.196 -10.195
-10.194 -10.193 -10.193 -10.193  -1.092  -1.091  -1.008  -0.999
 -0.982  -0.979  -0.965  -0.962  -0.960  -0.959  -0.958  -0.955
 -0.933  -0.932  -0.926  -0.925  -0.922  -0.922  -0.921  -0.917
 -0.915  -0.915  -0.895  -0.894  -0.889  -0.883  -0.880  -0.880
 -0.876  -0.872  -0.859  -0.857  -0.840  -0.837  -0.836  -0.836
 -0.834  -0.829  -0.818  -0.817  -0.803  -0.803  -0.796  -0.794
 -0.792  -0.791  -0.791  -0.788  -0.788  -0.784  -0.782  -0.779
 -0.771  -0.767  -0.765  -0.765  -0.764  -0.762  -0.760  -0.759
 -0.759  -0.754  -0.747  -0.744  -0.731  -0.730  -0.715  -0.712
 -0.711  -0.710  -0.709  -0.708  -0.707  -0.706  -0.706  -0.705
 -0.704  -0.703  -0.702  -0.700  -0.699  -0.695  -0.674  -0.670
 -0.658  -0.655  -0.654  -0.649  -0.645  -0.643  -0.632  -0.626
 -0.625  -0.622  -0.621  -0.621  -0.619  -0.618  -0.616  -0.613
 -0.613  -0.612  -0.610  -0.609  -0.607  -0.606  -0.605  -0.605
 -0.603  -0.602  -0.601  -0.596  -0.573  -0.566  -0.564  -0.561
 -0.559  -0.557  -0.557  -0.553  -0.553  -0.551  -0.551  -0.548
 -0.538  -0.534  -0.529  -0.526  -0.523  -0.523  -0.521  -0.519
 -0.518  -0.515  -0.515  -0.514  -0.514  -0.512  -0.511  -0.507
 -0.505  -0.503  -0.498  -0.495  -0.490  -0.490  -0.486  -0.484
 -0.481  -0.480  -0.479  -0.479  -0.478  -0.475  -0.475  -0.472
 -0.470  -0.469  -0.468  -0.468  -0.465  -0.464  -0.464  -0.462
 -0.462  -0.460  -0.460  -0.459  -0.459  -0.458  -0.456  -0.455
 -0.454  -0.453  -0.451  -0.449  -0.448  -0.447  -0.444  -0.443
 -0.439  -0.439  -0.438  -0.436  -0.436  -0.434  -0.432  -0.432
 -0.430  -0.430  -0.427  -0.425  -0.424  -0.424  -0.423  -0.422
 -0.421  -0.418  -0.418  -0.417  -0.415  -0.415  -0.414  -0.413
 -0.413  -0.412  -0.411  -0.410  -0.410  -0.409  -0.408  -0.408
 -0.407  -0.407  -0.406  -0.403  -0.398  -0.396  -0.395  -0.393
 -0.392  -0.390  -0.389  -0.385  -0.385  -0.384  -0.382  -0.378
 -0.373  -0.373  -0.371  -0.369  -0.368  -0.367  -0.365  -0.363
 -0.361  -0.360  -0.359  -0.358  -0.357  -0.356  -0.356  -0.355
 -0.354  -0.354  -0.353  -0.352  -0.352  -0.351  -0.350  -0.349
 -0.347  -0.346  -0.345  -0.343  -0.343  -0.342  -0.341  -0.340
 -0.337  -0.337  -0.336  -0.335  -0.334  -0.331  -0.330  -0.329
 -0.329  -0.327  -0.325  -0.325  -0.324  -0.321  -0.319  -0.316
 -0.316  -0.310  -0.306  -0.293  -0.281  -0.280  -0.275  -0.268
 -0.268  -0.267  -0.265  -0.265  -0.263  -0.262  -0.261  -0.260
 -0.259  -0.257  -0.257  -0.254  -0.253  -0.252  -0.251  -0.250
 -0.249  -0.245  -0.244  -0.234  -0.218  -0.217  -0.208  -0.206
 -0.204  -0.201  -0.199  -0.197  -0.196  -0.195
 -- Virtual --
 -0.120  -0.117  -0.113  -0.111  -0.102  -0.101  -0.073  -0.071
 -0.066  -0.064  -0.059  -0.054  -0.050  -0.047  -0.019  -0.018
 -0.016  -0.016  -0.015  -0.014  -0.012  -0.010  -0.009  -0.008
 -0.008  -0.005  -0.004  -0.001  -0.001   0.001   0.004   0.006
  0.010   0.015   0.037   0.042   0.045   0.048   0.053   0.054
  0.055   0.058   0.060   0.065   0.067   0.071   0.072   0.075
  0.075   0.078   0.083   0.084   0.087   0.087   0.088   0.091
  0.092   0.101   0.101   0.102   0.105   0.106   0.107   0.110
  0.111   0.112   0.115   0.116   0.118   0.120   0.121   0.125
  0.125   0.127   0.127   0.131   0.132   0.133   0.134   0.136
  0.140   0.143   0.144   0.144   0.149   0.154   0.156   0.157
  0.158   0.164   0.165   0.165   0.166   0.169   0.169   0.170
  0.173   0.175   0.176   0.178   0.179   0.181   0.183   0.185
  0.186   0.187   0.188   0.190   0.190   0.192   0.195   0.196
  0.199   0.199   0.201   0.203   0.205   0.207   0.209   0.212
  0.213   0.214   0.215   0.216   0.218   0.219   0.224   0.226
  0.228   0.230   0.231   0.231   0.232   0.233   0.234   0.236
  0.237   0.238   0.240   0.241   0.242   0.243   0.245   0.246
  0.247   0.249   0.252   0.252   0.254   0.254   0.261   0.264
  0.268   0.271   0.273   0.273   0.279   0.281   0.283   0.283
  0.288   0.288   0.290   0.291   0.296   0.297   0.300   0.309
  0.312   0.313   0.316   0.319   0.320   0.321   0.321   0.324
  0.324   0.327   0.328   0.331   0.332   0.333   0.336   0.340
  0.340   0.342   0.344   0.347   0.350   0.351   0.354   0.355
  0.356   0.356   0.362   0.366   0.373   0.374   0.380   0.394
  0.395   0.398   0.404   0.405   0.408   0.411   0.412   0.414
  0.416   0.417   0.419   0.422   0.423   0.428   0.430   0.431
  0.432   0.432   0.439   0.441   0.445   0.451   0.451   0.452
  0.452   0.455   0.458   0.459   0.462   0.465   0.467   0.469
  0.470   0.472   0.473   0.474   0.477   0.480   0.481   0.482
  0.483   0.484   0.485   0.486   0.487   0.489   0.489   0.491
  0.493   0.495   0.495   0.496   0.497   0.497   0.498   0.500
  0.501   0.503   0.504   0.506   0.506   0.508   0.508   0.509
  0.509   0.511   0.511   0.512   0.514   0.514   0.516   0.516
  0.518   0.519   0.519   0.520   0.520   0.522   0.522   0.524
  0.524   0.525   0.525   0.527   0.528   0.529   0.530   0.530
  0.530   0.532   0.533   0.534   0.534   0.535   0.536   0.537
  0.538   0.538   0.540   0.540   0.541   0.543   0.543   0.544
  0.544   0.545   0.546   0.546   0.548   0.550   0.550   0.551
  0.551   0.552   0.553   0.554   0.554   0.555   0.556   0.557
  0.557   0.558   0.559   0.559   0.560   0.561   0.561   0.562
  0.563   0.564   0.564   0.565   0.565   0.566   0.567   0.568
  0.569   0.570   0.571   0.572   0.572   0.573   0.575   0.575
  0.576   0.576   0.577   0.578   0.578   0.581   0.581   0.582
  0.583   0.585   0.586   0.587   0.588   0.588   0.589   0.590
  0.590   0.591   0.592   0.593   0.593   0.594   0.595   0.595
  0.596   0.597   0.599   0.599   0.600   0.601   0.602   0.604
  0.605   0.606   0.607   0.608   0.609   0.609   0.611   0.612
  0.614   0.615   0.616   0.618   0.618   0.619   0.620   0.622
  0.623   0.623   0.624   0.625   0.626   0.627   0.629   0.630
  0.630   0.632   0.633   0.634   0.634   0.635   0.637   0.638
  0.638   0.640   0.641   0.642   0.643   0.643   0.644   0.645
  0.646   0.646   0.647   0.649   0.650   0.650   0.652   0.654
  0.655   0.656   0.657   0.658   0.658   0.660   0.661   0.661
  0.662   0.662   0.663   0.664   0.665   0.666   0.667   0.668
  0.669   0.670   0.671   0.671   0.672   0.673   0.673   0.675
  0.676   0.677   0.677   0.679   0.680   0.680   0.682   0.683
  0.684   0.685   0.686   0.687   0.689   0.691   0.691   0.692
  0.693   0.695   0.696   0.697   0.699   0.700   0.701   0.702
  0.703   0.704   0.706   0.706   0.707   0.709   0.709   0.709
  0.711   0.712   0.713   0.715   0.716   0.718   0.718   0.720
  0.722   0.723   0.723   0.725   0.726   0.728   0.728   0.730
  0.731   0.732   0.733   0.735   0.737   0.738   0.738   0.740
  0.741   0.742   0.744   0.744   0.747   0.749   0.750   0.752
  0.753   0.754   0.755   0.755   0.756   0.758   0.759   0.760
  0.762   0.763   0.765   0.766   0.767   0.768   0.770   0.771
  0.773   0.773   0.775   0.777   0.777   0.778   0.780   0.782
  0.782   0.783   0.784   0.785   0.786   0.787   0.790   0.790
  0.793   0.793   0.794   0.796   0.796   0.797   0.799   0.800
  0.802   0.804   0.805   0.806   0.806   0.807   0.808   0.809
  0.810   0.811   0.812   0.813   0.813   0.814   0.815   0.815
  0.816   0.817   0.818   0.818   0.819   0.819   0.820   0.821
  0.822   0.823   0.823   0.824   0.825   0.826   0.827   0.827
  0.827   0.828   0.829   0.830   0.831   0.831   0.832   0.833
  0.834   0.836   0.839   0.840   0.842   0.844   0.845   0.850
  0.852   0.853   0.855   0.857   0.859   0.862   0.863   0.864
  0.866   0.868   0.871   0.873   0.873   0.883   0.885   0.886
  0.889   0.891   0.892   0.896   0.903   0.905   0.908   0.910
  0.911   0.912   0.916   0.918   0.922   0.924   0.925   0.925
  0.929   0.931   0.932   0.934   0.935   0.936   0.938   0.940
  0.941   0.943   0.944   0.945   0.946   0.949   0.950   0.953
  0.954   0.957   0.960   0.964   0.965   0.966   0.967   0.970
  0.974   0.979   0.980   0.982   0.983   0.987   0.989   0.991
  0.994   0.996   0.997   1.000   1.001   1.004   1.006   1.007
  1.009   1.010   1.013   1.016   1.018   1.020   1.021   1.022
  1.024   1.026   1.028   1.029   1.030   1.033   1.034   1.035
  1.037   1.039   1.040   1.041   1.043   1.044   1.045   1.047
  1.048   1.052   1.054   1.055   1.056   1.057   1.058   1.060
  1.063   1.064   1.067   1.068   1.071   1.073   1.073   1.075
  1.077   1.079   1.079   1.082   1.083   1.085   1.088   1.089
  1.090   1.092   1.094   1.095   1.097   1.098   1.098   1.101
  1.104   1.105   1.106   1.107   1.110   1.111   1.112   1.112
  1.118   1.119   1.120   1.122   1.127   1.128   1.130   1.132
  1.136   1.138   1.141   1.142   1.143   1.145   1.148   1.151
  1.152   1.153   1.156   1.158   1.160   1.161   1.163   1.164
  1.167   1.169   1.171   1.172   1.173   1.174   1.177   1.179
  1.181   1.182   1.183   1.184   1.186   1.188   1.190   1.191
  1.192   1.196   1.197   1.199   1.200   1.204   1.206   1.208
  1.210   1.213   1.214   1.216   1.219   1.222   1.223   1.224
  1.228   1.232   1.234   1.236   1.239   1.242   1.245   1.246
  1.248   1.251   1.254   1.256   1.259   1.261   1.266   1.268
  1.269   1.271   1.271   1.274   1.276   1.276   1.278   1.280
  1.282   1.284   1.286   1.287   1.289   1.291   1.292   1.296
  1.298   1.300   1.303   1.303   1.308   1.309   1.311   1.315
  1.316   1.317   1.319   1.321   1.326   1.328   1.329   1.332
  1.333   1.336   1.337   1.342   1.345   1.346   1.348   1.350
  1.351   1.354   1.354   1.357   1.359   1.366   1.367   1.370
  1.372   1.372   1.374   1.376   1.377   1.379   1.382   1.383
  1.388   1.390   1.391   1.398   1.399   1.400   1.405   1.409
  1.412   1.414   1.417   1.421   1.423   1.428   1.430   1.432
  1.434   1.438   1.439   1.442   1.444   1.449   1.449   1.453
  1.455   1.458   1.459   1.460   1.463   1.465   1.466   1.471
  1.473   1.475   1.476   1.478   1.479   1.482   1.483   1.484
  1.486   1.488   1.493   1.495   1.496   1.498   1.501   1.504
  1.505   1.507   1.510   1.511   1.513   1.516   1.518   1.519
  1.523   1.524   1.528   1.531   1.533   1.540   1.544   1.546
  1.548   1.551   1.554   1.556   1.557   1.562   1.563   1.565
  1.567   1.569   1.570   1.572   1.576   1.577   1.578   1.579
  1.580   1.582   1.584   1.586   1.587   1.592   1.595   1.599
  1.600   1.603   1.605   1.608   1.611   1.615   1.616   1.626
  1.633   1.634   1.635   1.638   1.640   1.643   1.645   1.648
  1.649   1.650   1.656   1.661   1.662   1.663   1.665   1.669
  1.673   1.682   1.684   1.688   1.694   1.696   1.697   1.702
  1.704   1.708   1.711   1.714   1.716   1.719   1.720   1.723
  1.726   1.727   1.730   1.731   1.733   1.733   1.735   1.738
  1.739   1.741   1.743   1.746   1.748   1.749   1.752   1.753
  1.754   1.756   1.758   1.759   1.760   1.762   1.762   1.763
  1.764   1.766   1.768   1.769   1.770   1.772   1.775   1.775
  1.776   1.777   1.778   1.780   1.781   1.783   1.785   1.785
  1.786   1.787   1.789   1.790   1.791   1.793   1.794   1.795
  1.797   1.798   1.799   1.800   1.801   1.802   1.803   1.805
  1.807   1.808   1.808   1.812   1.812   1.814   1.814   1.816
  1.817   1.818   1.820   1.821   1.821   1.822   1.823   1.826
  1.829   1.830   1.832   1.834   1.839   1.840   1.844   1.846
  1.848   1.849   1.851   1.853   1.855   1.855   1.856   1.858
  1.861   1.862   1.864   1.866   1.868   1.869   1.871   1.872
  1.874   1.877   1.878   1.879   1.883   1.884   1.885   1.886
  1.889   1.889   1.891   1.895   1.897   1.898   1.899   1.901
  1.905   1.909   1.911   1.912   1.913   1.913   1.917   1.923
  1.926   1.927   1.927   1.928   1.931   1.932   1.935   1.938
  1.939   1.940   1.945   1.947   1.950   1.952   1.954   1.958
  1.959   1.963   1.964   1.967   1.970   1.971   1.972   1.974
  1.975   1.980   1.981   1.983   1.985   1.986   1.989   1.991
  1.994   1.995   1.995   1.996   1.998   2.000   2.000   2.001
  2.001   2.003   2.004   2.005   2.008   2.010   2.011   2.013
  2.013   2.014   2.016   2.017   2.018   2.019   2.020   2.021
  2.022   2.026   2.027   2.027   2.029   2.031   2.033   2.034
  2.034   2.035   2.037   2.038   2.038   2.040   2.041   2.043
  2.044   2.046   2.047   2.048   2.049   2.050   2.051   2.052
  2.053   2.056   2.057   2.058   2.060   2.060   2.062   2.062
  2.063   2.065   2.065   2.068   2.069   2.071   2.073   2.074
  2.075   2.078   2.080   2.082   2.084   2.085   2.086   2.086
  2.088   2.088   2.089   2.090   2.093   2.095   2.095   2.097
  2.097   2.099   2.100   2.102   2.106   2.107   2.109   2.111
  2.112   2.115   2.116   2.117   2.118   2.124   2.125   2.129
  2.129   2.132   2.133   2.137   2.141   2.144   2.147   2.147
  2.150   2.153   2.160   2.162   2.165   2.168   2.168   2.173
  2.180   2.181   2.194   2.195   2.199   2.201   2.205   2.207
  2.212   2.219   2.221   2.226   2.230   2.230   2.234   2.236
  2.236   2.238   2.242   2.244   2.245   2.247   2.249   2.251
  2.254   2.255   2.258   2.262   2.265   2.266   2.269   2.270
  2.275   2.276   2.276   2.279   2.282   2.286   2.287   2.290
  2.290   2.294   2.294   2.295   2.296   2.298   2.303   2.305
  2.306   2.309   2.309   2.313   2.314   2.319   2.320   2.322
  2.324   2.328   2.330   2.331   2.335   2.335   2.338   2.339
  2.343   2.345   2.347   2.349   2.351   2.352   2.356   2.357
  2.359   2.362   2.365   2.366   2.368   2.373   2.373   2.374
  2.375   2.377   2.380   2.381   2.383   2.386   2.388   2.390
  2.391   2.392   2.394   2.396   2.397   2.401   2.402   2.406
  2.407   2.409   2.409   2.410   2.412   2.412   2.414   2.415
  2.416   2.420   2.420   2.425   2.425   2.426   2.427   2.428
  2.430   2.434   2.436   2.438   2.440   2.446   2.451   2.455
  2.456   2.457   2.459   2.460   2.461   2.463   2.465   2.466
  2.472   2.473   2.474   2.476   2.477   2.480   2.481   2.482
  2.486   2.487   2.489   2.492   2.493   2.495   2.496   2.497
  2.500   2.501   2.502   2.504   2.507   2.509   2.510   2.511
  2.512   2.514   2.515   2.516   2.519   2.525   2.526   2.529
  2.530   2.533   2.535   2.537   2.538   2.540   2.542   2.545
  2.549   2.554   2.554   2.556   2.558   2.563   2.564   2.569
  2.569   2.575   2.575   2.577   2.580   2.586   2.587   2.587
  2.591   2.591   2.595   2.596   2.598   2.601   2.602   2.602
  2.606   2.608   2.611   2.613   2.615   2.618   2.619   2.621
  2.622   2.624   2.627   2.627   2.627   2.632   2.634   2.637
  2.639   2.640   2.641   2.644   2.646   2.649   2.649   2.650
  2.651   2.653   2.654   2.655   2.658   2.660   2.663   2.663
  2.668   2.669   2.670   2.672   2.675   2.677   2.679   2.679
  2.681   2.684   2.686   2.687   2.689   2.691   2.693   2.693
  2.696   2.699   2.701   2.703   2.705   2.708   2.712   2.713
  2.714   2.716   2.719   2.721   2.725   2.727   2.728   2.734
  2.736   2.739   2.740   2.743   2.744   2.747   2.751   2.752
  2.753   2.756   2.758   2.759   2.762   2.763   2.764   2.767
  2.768   2.770   2.772   2.775   2.777   2.779   2.783   2.784
  2.786   2.789   2.791   2.792   2.794   2.797   2.798   2.804
  2.805   2.808   2.810   2.815   2.818   2.820   2.823   2.824
  2.825   2.827   2.831   2.832   2.836   2.837   2.840   2.845
  2.848   2.850   2.855   2.858   2.859   2.863   2.864   2.867
  2.870   2.871   2.875   2.875   2.877   2.877   2.880   2.882
  2.885   2.887   2.891   2.892   2.895   2.899   2.902   2.902
  2.904   2.905   2.906   2.908   2.909   2.911   2.912   2.914
  2.915   2.916   2.917   2.918   2.919   2.923   2.924   2.926
  2.928   2.929   2.931   2.933   2.935   2.940   2.941   2.942
  2.943   2.944   2.945   2.948   2.950   2.956   2.957   2.958
  2.960   2.962   2.966   2.967   2.973   2.978   2.983   2.986
  2.988   2.990   2.995   3.000   3.005   3.008   3.010   3.011
  3.015   3.017   3.019   3.022   3.024   3.026   3.030   3.033
  3.034   3.037   3.042   3.042   3.044   3.048   3.051   3.055
  3.056   3.059   3.062   3.065   3.069   3.069   3.072   3.074
  3.075   3.082   3.084   3.084   3.090   3.092   3.097   3.100
  3.112   3.117   3.121   3.132   3.149   3.155   3.158   3.159
  3.163   3.167   3.172   3.175   3.179   3.180   3.191   3.193
  3.194   3.199   3.207   3.209   3.217   3.232   3.236   3.245
  3.251   3.256   3.256   3.262   3.270   3.272   3.286   3.290
  3.299   3.312   3.315   3.316   3.325   3.330   3.340   3.342
  3.343   3.350   3.355   3.360   3.364   3.365   3.367   3.373
  3.384   3.390   3.412   3.413   3.427   3.428   3.431   3.439
  3.453   3.461   3.478   3.481   3.487   3.491   3.496   3.502
  3.503   3.509   3.511   3.522   3.522   3.535   3.544   3.545
  3.557   3.564   3.572   3.580   3.594   3.598   3.602   3.606
  3.621   3.631   3.701   3.705   3.884   3.889   3.970   4.014
  4.076   4.085   4.088   4.092   4.094   4.096   4.102   4.106
  4.107   4.108   4.113   4.115   4.119   4.124   4.125   4.127
  4.131   4.137   4.139   4.141   4.142   4.146   4.153   4.154
  4.159   4.164   4.170   4.170   4.179   4.181   4.189   4.190
  4.194   4.197   4.202   4.209   4.214   4.219   4.240   4.243
  4.249   4.252   4.256   4.258   4.261   4.265   4.266   4.269
  4.272   4.282   4.285   4.290   4.292   4.301   4.302   4.304
  4.306   4.309   4.322   4.330   4.385   4.395   4.396   4.401
  4.403   4.405   4.411   4.414   4.414   4.417   4.420   4.421
  4.424   4.427   4.428   4.437   4.441   4.448   4.465   4.467
  4.467   4.486   4.498   4.516   4.540   4.545   4.554   4.561
  4.568   4.570   4.617   4.633   4.634   4.643   4.645   4.648
  4.651   4.658   4.675   4.680   4.696   4.701   4.705   4.709
  4.713   4.715   4.717   4.719   4.742   4.755   4.808   4.815
  4.853   4.862   4.864   4.867   4.881   4.884   4.889   4.907
  4.914   4.916   4.952   4.967   4.980   4.981   4.984   4.987
  5.002   5.004   5.006   5.023   5.148   5.173   5.178   5.199
  5.199   5.208   5.232   5.241   5.288   5.343   5.346   5.351
  5.372   5.381
 --------------------------------------------------------------
 
          Ground-State Mulliken Net Atomic Charges

     Atom                 Charge (a.u.)
  ----------------------------------------
      1 O                    -0.466551
      2 C                    -0.088360
      3 H                     0.140853
      4 H                     0.130014
      5 H                     0.138090
      6 O                    -0.475243
      7 C                     0.598612
      8 C                    -0.265973
      9 H                     0.132838
     10 H                     0.131004
     11 C                    -0.187202
     12 H                     0.120642
     13 H                     0.108432
     14 C                    -0.177543
     15 H                     0.107490
     16 H                     0.115090
     17 C                     0.012834
     18 C                     0.072348
     19 C                    -0.098940
     20 H                     0.094469
     21 C                    -0.077686
     22 H                     0.093450
     23 C                    -0.094850
     24 H                     0.085871
     25 C                    -0.089828
     26 H                     0.093374
     27 C                    -0.098976
     28 H                     0.098031
     29 C                    -0.028107
     30 C                    -0.010872
     31 C                    -0.034832
     32 C                    -0.010093
     33 C                     0.023322
     34 C                     0.005773
     35 C                     0.009518
     36 C                    -0.003137
     37 C                     0.005193
     38 C                    -0.019027
     39 C                    -0.099865
     40 C                     0.010057
     41 C                     0.000321
     42 C                    -0.069515
     43 C                     0.021364
     44 C                     0.012850
     45 C                    -0.061909
     46 C                     0.073950
     47 C                    -0.001461
     48 C                    -0.024241
     49 C                     0.001630
     50 C                    -0.017333
     51 C                     0.010721
     52 C                    -0.004879
     53 C                     0.035708
     54 C                    -0.005546
     55 C                     0.020258
     56 C                    -0.015096
     57 C                    -0.007443
     58 C                     0.013435
     59 C                     0.007915
     60 C                    -0.002324
     61 C                     0.011432
     62 C                     0.009648
     63 C                    -0.010637
     64 C                     0.038081
     65 C                    -0.011975
     66 C                     0.009180
     67 C                    -0.009214
     68 C                     0.026192
     69 C                    -0.004989
     70 C                    -0.013615
     71 C                    -0.029539
     72 C                    -0.015515
     73 C                    -0.024019
     74 C                    -0.017882
     75 C                    -0.005047
     76 C                     0.003588
     77 C                     0.000886
     78 C                    -0.001909
     79 C                     0.023734
     80 C                     0.012515
     81 C                     0.002267
     82 C                    -0.003378
     83 C                    -0.005728
     84 C                     0.007283
     85 C                    -0.004159
     86 C                    -0.002771
     87 C                     0.005545
     88 C                     0.024444
     89 O                    -0.448334
     90 C                    -0.093885
     91 H                     0.131183
     92 H                     0.126707
     93 H                     0.125798
     94 O                    -0.484791
     95 C                     0.590339
     96 C                    -0.262334
     97 H                     0.135692
     98 H                     0.133389
     99 C                    -0.190908
    100 H                     0.111909
    101 H                     0.123024
    102 C                    -0.185097
    103 H                     0.113496
    104 H                     0.107855
    105 C                     0.008460
    106 C                     0.102491
    107 C                    -0.110364
    108 H                     0.096953
    109 C                    -0.085401
    110 H                     0.089723
    111 C                    -0.079219
    112 H                     0.087265
    113 C                    -0.095319
    114 H                     0.095948
    115 C                    -0.101017
    116 H                     0.092846
    117 C                     0.004932
    118 C                     0.047963
    119 C                     0.002138
    120 C                    -0.001856
    121 C                     0.012453
    122 C                    -0.002143
    123 C                    -0.000833
    124 C                     0.032282
    125 C                    -0.006530
    126 C                     0.036637
    127 C                    -0.094805
    128 C                    -0.000209
    129 C                    -0.013146
    130 C                    -0.012976
    131 C                     0.017425
    132 C                    -0.005074
    133 C                    -0.084295
    134 C                     0.017795
    135 C                    -0.010551
    136 C                     0.012342
    137 C                    -0.020037
    138 C                    -0.023012
    139 C                    -0.006896
    140 C                    -0.015678
    141 C                     0.045130
    142 C                    -0.029219
    143 C                     0.005180
    144 C                    -0.002392
    145 C                    -0.011461
    146 C                    -0.007781
    147 C                     0.000702
    148 C                     0.018494
    149 C                     0.014615
    150 C                     0.022034
    151 C                     0.002303
    152 C                    -0.009176
    153 C                    -0.006913
    154 C                     0.016437
    155 C                     0.001530
    156 C                     0.018501
    157 C                    -0.017599
    158 C                     0.013395
    159 C                    -0.004728
    160 C                    -0.026586
    161 C                    -0.007483
    162 C                    -0.002553
    163 C                    -0.004408
    164 C                    -0.015751
    165 C                    -0.002771
    166 C                    -0.022900
    167 C                    -0.015514
    168 C                    -0.037546
    169 C                     0.018065
    170 C                     0.016821
    171 C                     0.011392
    172 C                    -0.012642
    173 C                    -0.008754
    174 C                     0.029280
    175 C                     0.002490
    176 C                    -0.015572
  ----------------------------------------
  Sum of atomic charges =     0.000000

 -----------------------------------------------------------------
                    Cartesian Multipole Moments
 -----------------------------------------------------------------
    Charge (ESU x 10^10)
                 0.0000
    Dipole Moment (Debye)
         X      -3.8296      Y      -0.0302      Z       1.9524
       Tot       4.2987
    Quadrupole Moments (Debye-Ang)
        XX    -774.8843     XY     -62.9457     YY    -772.0671
        XZ       7.5052     YZ      -5.3589     ZZ    -790.0357
    Octopole Moments (Debye-Ang^2)
       XXX    -728.7055    XXY     -74.6362    XYY      67.2772
       YYY      12.1378    XXZ     131.7278    XYZ     108.9929
       YYZ     -94.9076    XZZ     -50.9595    YZZ      25.6836
       ZZZ      -1.6806
    Hexadecapole Moments (Debye-Ang^3)
      XXXX -169868.3169   XXXY   -6059.4024   XXYY  -33430.4483
      XYYY   -3882.2536   YYYY  -42451.7377   XXXZ     522.5823
      XXYZ     -53.7013   XYYZ     120.2999   YYYZ    -538.1557
      XXZZ  -30977.1445   XYZZ   -1765.2119   YYZZ  -10512.8132
      XZZZ    -275.0617   YZZZ    -377.1201   ZZZZ  -22890.5793
 -----------------------------------------------------------------
Archival summary:
1\1\mn366\SP\ProcedureUnspecified\6-31G**\428\afmv_a\SatOct611:19:212018SatOct611:19:212018\0\\#,ProcedureUnspecified,6-31G**,\\0,1\C\C,1,1.41659\C,2,1.35299,1,120.107\C,2,1.40411,1,109.482,3,-145.895,0\C,4,1.41375,2,106.699,1,3.47953,0\C,5,1.38157,4,118.779,2,144.411,0\C,5,1.3947,4,109.019,2,-1.75881,0\C,7,1.40783,5,122.633,4,140.759,0\C,8,1.40665,7,113.764,5,1.95003,0\C,9,1.40997,8,104.886,7,-143.135,0\C,10,1.41429,9,108.866,8,-3.09855,0\C,11,1.34112,10,109.371,9,3.75347,0\C,12,1.38054,11,120.147,10,132.98,0\C,13,1.41015,12,121.439,11,-134.969,0\C,14,1.3534,13,106.803,12,147.054,0\C,15,1.3668,14,111.526,13,-3.82788,0\C,15,1.3939,14,119.086,13,-143.459,0\C,3,1.41475,2,119.987,1,-142.58,0\C,18,1.39299,3,120.881,2,2.1523,0\C,18,1.39764,3,109.989,2,145.564,0\C,20,1.37097,18,119.008,3,-144.167,0\C,21,1.37696,20,123.802,18,-0.934561,0\C,22,1.35829,21,117.968,20,-1.92988,0\C,20,1.38796,18,106.271,3,-2.3284,0\C,24,1.38659,20,121.6,18,-143.82,0\C,25,1.34586,24,118.24,20,4.05544,0\C,22,1.40275,21,108.819,20,137.568,0\C,27,1.38746,22,122.045,21,-138.301,0\C,28,1.39849,27,120.266,22,1.92836,0\C,29,1.34786,28,110.87,27,146.618,0\C,30,1.39436,29,118.333,28,-141.883,0\C,31,1.39631,30,122.426,29,-7.40975,0\C,30,1.39997,29,107.21,28,-7.65957,0\C,29,1.40348,28,117.868,27,-4.64835,0\C,34,1.39329,29,116.621,28,141.271,0\C,35,1.37978,34,110.967,29,-139.855,0\C,26,1.4046,25,122.109,24,-1.51095,0\C,37,1.36688,26,118.965,25,135.393,0\C,38,1.40452,37,124.825,26,6.51291,0\C,39,1.34487,38,120.151,37,-136.698,0\C,40,1.36507,39,119.052,38,-9.04695,0\C,40,1.38249,39,111.232,38,132.454,0\C,42,1.36331,40,107.027,39,0.145154,0\C,42,1.38226,40,126.005,39,-146.374,0\C,44,1.37075,42,122.501,40,142.621,0\C,39,1.38641,38,114.934,37,-8.9501,0\C,43,1.39904,42,123.518,40,-154.221,0\C,44,1.40013,42,118.594,40,3.27434,0\C,48,1.3938,44,110.129,42,142.406,0\C,45,1.4065,44,107.852,42,-140.301,0\C,16,1.415,15,107.499,14,7.54562,0\C,45,1.41804,44,119.153,42,-0.0384867,0\C,52,1.40797,45,119.953,44,-137.256,0\C,53,1.4104,52,106.849,45,147.28,0\C,6,1.4182,5,119.148,4,-138.964,0\C,55,1.40169,6,108.138,5,139.295,0\C,25,1.43138,24,119.86,20,143.233,0\C,46,1.43962,39,124.399,38,10.2408,0\C,57,1.47593,25,110.754,24,-155.025,0\C,59,1.50561,57,130.219,25,-157.679,0\C,54,1.50831,53,112.446,52,2.57323,0\C,60,1.51027,59,120.622,57,20.6853,0\C,62,1.34032,60,118.644,59,-129.663,0\H,63,1.08648,62,116.353,60,11.2042,0\C,63,1.40624,62,121.597,60,-173.341,0\H,65,1.08588,63,122.345,62,176.361,0\C,65,1.40086,63,116.937,62,-0.719285,0\H,67,1.08569,65,119.706,63,172.17,0\C,67,1.36931,65,121.135,63,-5.927,0\H,69,1.08676,67,120.637,65,-170.655,0\C,69,1.39172,67,120.166,65,13.5649,0\H,71,1.08639,69,111.123,67,-176.898,0\C,60,1.54977,59,115.538,57,158.092,0\H,73,1.09726,60,118.057,59,-97.6391,0\H,73,1.09737,60,112.596,59,20.0648,0\C,73,1.53498,60,113.411,59,140.429,0\H,76,1.09679,73,109.221,60,74.1492,0\H,76,1.09733,73,108.032,60,-41.6351,0\C,76,1.58952,73,111.794,60,-163.932,0\H,79,1.09666,76,103.294,73,47.7225,0\H,79,1.09698,76,119.377,73,-69.4714,0\C,79,1.47993,76,113.229,73,156.864,0\O,82,1.24071,79,126.18,76,-118.241,0\O,82,1.35371,79,109.214,76,59.1004,0\C,84,1.43449,82,121.028,79,176.702,0\H,85,1.09683,84,117.523,82,-54.3005,0\H,85,1.09734,84,115.613,82,167.821,0\H,85,1.09736,84,103.741,82,55.4857,0\C,1,3.2708,2,111.857,3,-89.9494,0\C,89,1.37568,1,134.347,2,48.8058,0\C,89,1.38168,1,89.3484,2,-176.797,0\C,91,1.37701,89,119.306,1,-143.039,0\C,91,1.40072,89,120.752,1,80.7754,0\C,93,1.39703,91,110.229,89,137.44,0\C,94,1.39664,93,124.324,91,-144.645,0\C,95,1.37061,94,121.531,93,142.416,0\C,95,1.3756,94,118.274,93,3.7708,0\C,90,1.4111,89,119.505,1,125.528,0\C,98,1.35923,90,121.067,89,-3.44134,0\C,99,1.39652,98,109.032,90,145.896,0\C,98,1.39808,90,122.124,89,144.7,0\C,101,1.39667,98,106.975,90,-147.27,0\C,102,1.40147,101,121.317,98,139.971,0\C,103,1.39033,102,118.378,101,-127.813,0\C,103,1.41076,102,118.43,101,-4.45716,0\C,105,1.40831,103,121.357,102,3.73182,0\C,106,1.39918,105,120.241,103,-140.854,0\C,107,1.38959,106,106.699,105,142.941,0\C,108,1.40609,107,109.451,106,1.62015,0\C,109,1.36443,108,107.505,107,-1.69189,0\C,107,1.40803,106,121.808,105,-6.62648,0\C,111,1.40217,107,117.35,106,8.36902,0\C,112,1.38748,111,121.966,107,-5.36089,0\C,97,1.41158,95,107.122,94,141.103,0\C,114,1.41061,97,109.465,95,5.58608,0\C,112,1.41225,111,109.089,107,135.152,0\C,116,1.37141,112,124.759,111,-140.756,0\C,117,1.37736,116,122.5,112,136.049,0\C,118,1.37495,117,120.954,116,-1.17025,0\C,119,1.35168,118,118.913,117,-137.505,0\C,118,1.38326,117,107.578,116,-142.512,0\C,119,1.38526,118,120.945,117,2.50491,0\C,122,1.38162,119,107.77,118,-143.094,0\C,123,1.39447,122,120.138,119,143.452,0\C,121,1.39676,118,109.058,117,4.66846,0\C,125,1.34962,121,124.246,118,148.854,0\C,126,1.36133,125,118.006,121,-6.72182,0\C,126,1.37949,125,117.929,121,-139.156,0\C,128,1.37931,126,110.278,125,142.611,0\C,127,1.39676,126,107.604,125,-138.228,0\C,130,1.37661,127,123.798,126,139.212,0\C,120,1.39999,119,109.12,118,146.197,0\C,125,1.40804,121,107.489,118,-8.01846,0\C,133,1.35097,125,118.356,121,145.539,0\C,122,1.4092,119,118.287,118,-0.066033,0\C,132,1.41088,120,118.871,119,-141.53,0\C,136,1.40864,132,122.809,120,-7.67197,0\C,137,1.38697,136,106.493,132,144.043,0\C,138,1.39628,137,110.624,136,4.19128,0\C,139,1.40323,138,120.189,137,-145.415,0\C,140,1.38277,139,117.642,138,136.852,0\C,141,1.40214,140,107.932,139,-140.332,0\C,139,1.41276,138,107.029,137,-2.9547,0\C,143,1.4064,139,123.308,138,-142.178,0\C,144,1.36638,143,115.529,139,0.419455,0\C,108,1.41906,107,121.692,106,-149.647,0\C,124,1.45095,123,123.516,122,6.35136,0\C,147,1.48546,124,127.135,123,68.421,0\C,147,1.48939,124,117.844,123,-5.70555,0\C,148,1.52717,147,122.283,124,4.35212,0\H,150,1.09704,148,105.075,147,-169.621,0\H,150,1.09708,148,111.777,147,-56.0553,0\C,150,1.50103,148,107.652,147,73.4449,0\H,153,1.09673,150,113.133,148,65.8879,0\H,153,1.09761,150,109.487,148,-47.4375,0\C,148,1.53777,147,120.233,124,155.24,0\C,156,1.40399,148,119.202,147,128.109,0\H,157,1.08541,156,119.483,148,-3.1899,0\C,157,1.38383,156,118.71,148,178.883,0\H,159,1.08695,157,112.959,156,177.138,0\C,159,1.36751,157,118.478,156,7.13334,0\H,161,1.08597,159,118.997,157,171.794,0\C,161,1.40995,159,123.756,157,-4.46746,0\H,163,1.08581,161,124.062,159,-170.797,0\C,163,1.37667,161,118.502,159,-0.444963,0\H,165,1.08626,163,120.642,161,179.94,0\C,153,1.56075,150,114.964,148,-161.249,0\H,167,1.09675,153,106.756,150,-36.304,0\H,167,1.09737,153,103.267,150,-155.06,0\C,167,1.55638,153,116.487,150,80.9369,0\O,170,1.231,167,125.441,153,-6.93956,0\O,170,1.35378,167,108.725,153,176.656,0\C,172,1.48756,170,119.537,167,179.951,0\H,173,1.09675,172,107.566,170,168.662,0\H,173,1.09688,172,108.422,170,-72.9758,0\H,173,1.09706,172,110.895,170,53.9993,0\\\@

 Total job time:  837.49s(wall), 7029.09s(cpu) 
 Sat Oct  6 11:19:21 2018

        *************************************************************
        *                                                           *
        *  Thank you very much for using Q-Chem.  Have a nice day.  *
        *                                                           *
        *************************************************************


