
Running Job 1 of 1 ./10/1.qcin
qchem ./10/1.qcin_20112.0 /tmpu/cab_g/afmv_a/scratch_qchem/qchem20112/ 1
/tmpu/appuserlic/qchem4.4/serial-multicore/exe/qcprog.exe_s ./10/1.qcin_20112.0 /tmpu/cab_g/afmv_a/scratch_qchem/qchem20112/
Check license passed

                  Welcome to Q-Chem
     A Quantum Leap Into The Future Of Chemistry


 Q-Chem 4.4, Q-Chem, Inc., Pleasanton, CA (2016)

 Y. Shao,  Z. Gan,  E. Epifanovsky,  A. T. B. Gilbert,  M. Wormit,  
 J. Kussmann,  A. W. Lange,  A. Behn,  J. Deng,  X. Feng,  D. Ghosh,  
 M. Goldey,  P. R. Horn,  L. D. Jacobson,  I. Kaliman,  F. Rob,  
 R. Z. Khaliullin,  T. Kus,  A. Landau,  J. Liu,  E. I. Proynov,  Y. M. Rhee,  
 R. M. Richard,  M. A. Rohrdanz,  R. P. Steele,  E. J. Sundstrom,  
 H. L. Woodcock III,  P. M. Zimmerman,  D. Zuev,  B. Albrecht,  E. Alguire,  
 B. Austin,  S. A. Baeppler,  G. J. O. Beran,  Y. A. Bernard,  E. Berquist,  
 K. Brandhorst,  K. B. Bravaya,  S. T. Brown,  D. Casanova,  C.-M. Chang,  
 Y. Chen,  S. H. Chien,  K. D. Closser,  M. P. Coons,  D. L. Crittenden,  
 S. Dasgupta,  M. Diedenhofen,  R. A. DiStasio Jr.,  H. Do,  A. D. Dutoi,  
 R. G. Edgar,  P.-T. Fang,  S. Fatehi,  Q. Feng,  L. Fusti-Molnar,  
 A. Ghysels,  A. Golubeva-Zadorozhnaya,  J. Gomes,  A. Gunina,  
 M. W. D. Hanson-Heine,  P. H. P. Harbach,  A. W. Hauser,  J. E. Herr,  
 E. G. Hohenstein,  Z. C. Holden,  K. Hui,  T.-C. Jagau,  H. Ji,  B. Kaduk,  
 K. Khistyaev,  Jaehoon Kim,  Jihan Kim,  R. A. King,  P. Klunzinger,  
 K. Koh,  D. Kosenkov,  T. Kowalczyk,  C. M. Krauter,  A. Kunitsa,  
 K. U. Lao,  A. Laurent,  K. V. Lawler,  J. Lee,  D. Lefrancois,  S. Lehtola,  
 S. V. Levchenko,  C. Y. Lin,  Y.-S. Lin,  F. Liu,  E. Livshits,  
 R. C. Lochan,  A. Luenser,  P. Manohar,  S. F. Manzer,  S.-P. Mao,  Y. Mao,  
 N. Mardirossian,  A. V. Marenich,  L. A. Martinez-Martinez,  S. A. Maurer,  
 N. J. Mayhall,  J.-M. Mewes,  A. F. Morrison,  K. Nanda,  T. S. Nguyen-Beck,  
 C. M. Oana,  R. Olivares-Amaya,  D. P. O'Neill,  J. A. Parkhill,  
 T. M. Perrine,  R. Peverati,  P. A. Pieniazek,  F. Plasser,  A. Prociuk,  
 D. R. Rehn,  E. Rosta,  N. J. Russ,  N. Sergueev,  S. M. Sharada,  
 S. Sharma,  D. W. Small,  A. Sodt,  T. Stauch,  T. Stein,  D. Stuck,  
 Y.-C. Su,  A. J. W. Thom,  T. Tsuchimochi,  L. Vogt,  O. Vydrov,  T. Wang,  
 M. A. Watson,  J. Wenzel,  A. White,  C. F. Williams,  V. Vanovschi,  
 K. Yao,  S. Yeganeh,  S. R. Yost,  Z.-Q. You,  I. Y. Zhang,  X. Zhang,  
 Y. Zhao,  B. R. Brooks,  G. K. L. Chan,  D. M. Chipman,  C. J. Cramer,  
 W. A. Goddard III,  M. S. Gordon,  W. J. Hehre,  A. Klamt,  
 H. F. Schaefer III,  M. W. Schmidt,  C. D. Sherrill,  D. G. Truhlar,  
 A. Warshel,  X. Xu,  A. Aspuru-Guzik,  R. Baer,  A. T. Bell,  N. A. Besley,  
 J.-D. Chai,  A. Dreuw,  B. D. Dunietz,  T. R. Furlani,  S. R. Gwaltney,  
 C.-P. Hsu,  Y. Jung,  J. Kong,  D. S. Lambrecht,  W. Liang,  C. Ochsenfeld,  
 V. A. Rassolov,  L. V. Slipchenko,  J. E. Subotnik,  T. Van Voorhis,  
 J. M. Herbert,  A. I. Krylov,  P. M. W. Gill,  M. Head-Gordon

 Contributors to earlier versions of Q-Chem not listed above: 
 R. D. Adamson,  J. Baker,  E. F. C. Byrd,  A. K. Chakraborty,  C.-L. Cheng,  
 H. Dachsel,  R. J. Doerksen,  G. Hawkins,  A. Heyden,  S. Hirata,  
 G. Kedziora,  F. J. Keil,  C. Kelley,  P. P. Korambath,  W. Kurlancheek,  
 A. M. Lee,  M. S. Lee,  D. Liotard,  I. Lotan,  P. E. Maslen,  N. Nair,  
 D. Neuhauser,  R. Olson,  B. Peters,  J. Ritchie,  N. E. Schultz,  
 N. Shenvi,  A. C. Simmonett,  K. S. Thanthiriwatte,  Q. Wu,  W. Zhang

 Please cite Q-Chem as follows:
 Y. Shao et al., Mol. Phys. 113, 184-215 (2015)
 DOI: 10.1080/00268976.2014.952696

 Q-Chem 4.4.2 for Intel X86 Linux

 Parts of Q-Chem use Armadillo 5.200.1 (Boston Tea Smuggler).
 http://arma.sourceforge.net/

 Q-Chem begins on Mon Oct  8 00:51:08 2018  

Host: 
0

     Scratch files written to /tmpu/cab_g/afmv_a/scratch_qchem/qchem20112//
 Dec716 11556_ 22328  22283 4050   
Processing $rem in /tmpu/appuserlic/qchem4.4/serial-multicore/config/preferences.
 MEM_TOTAL  2000 
FILE_GEOM_ORG=        593

Checking the input file for inconsistencies... 	...done.

--------------------------------------------------------------
User input:
--------------------------------------------------------------
$comment
SP
$end

$rem
MEM_STATIC 5000
MEM_TOTAL 20000
JOBTYPE SP
EXCHANGE B3LYP
BASIS 6-31g(d,p)
$end

$molecule
0 1
O         -22.491000     28.342000      0.623000
C         -21.202000     27.643000      0.837000
H         -20.496000     28.294000      1.367000
H         -20.796000     27.176000     -0.069000
H         -21.431000     26.898000      1.608000
O         -23.501000     26.349000      0.088000
C         -23.585000     27.570000      0.183000
C         -24.770000     28.450000     -0.250000
H         -24.684000     29.273000      0.470000
H         -25.707000     27.890000     -0.140000
C         -24.543000     28.858000     -1.698000
H         -25.256000     29.669000     -1.893000
H         -23.517000     29.194000     -1.893000
C         -24.832000     27.719000     -2.712000
H         -24.640000     26.713000     -2.317000
H         -25.916000     27.871000     -2.778000
C         -24.270000     27.974000     -4.149000
C         -24.942000     29.165000     -4.857000
C         -24.194000     30.240000     -5.216000
H         -23.166000     30.362000     -4.889000
C         -24.658000     31.111000     -6.234000
H         -24.072000     31.982000     -6.511000
C         -25.814000     30.935000     -6.931000
H         -26.087000     31.563000     -7.774000
C         -26.634000     29.853000     -6.502000
H         -27.554000     29.602000     -7.021000
C         -26.200000     29.038000     -5.436000
H         -26.832000     28.213000     -5.121000
C         -22.196000     25.559000     -8.639000
C         -20.708000     27.411000     -8.257000
C         -17.037000     25.083000     -6.919000
C         -22.523000     22.780000     -4.292000
C         -17.768000     25.697000     -3.508000
C         -22.015000     26.881000     -8.311000
C         -20.033000     22.989000     -2.978000
C         -18.686000     24.613000     -8.658000
C         -20.583000     28.439000     -4.386000
C         -22.356000     23.675000     -3.245000
C         -22.778000     27.769000     -4.216000
C         -20.658000     27.724000     -3.170000
C         -20.936000     25.138000     -2.268000
C         -18.763000     23.579000     -3.046000
C         -21.821000     28.243000     -6.459000
C         -17.232000     23.857000     -4.982000
C         -23.691000     26.804000     -4.925000
C         -23.689000     25.356000     -4.475000
C         -17.099000     25.191000     -4.648000
C         -20.192000     21.954000     -6.894000
C         -18.100000     22.871000     -6.986000
C         -18.816000     23.284000     -8.136000
C         -19.829000     25.338000     -9.134000
C         -23.687000     24.531000     -5.512000
C         -21.768000     28.425000     -5.058000
C         -19.618000     26.640000     -8.723000
C         -21.142000     23.804000     -2.608000
C         -20.604000     28.286000     -7.142000
C         -19.538000     26.971000     -2.797000
C         -22.551000     22.643000     -6.625000
C         -17.764000     25.477000     -8.036000
C         -21.929000     27.257000     -3.082000
C         -21.186000     23.457000     -8.516000
C         -19.678000     25.663000     -2.319000
C         -19.341000     28.459000     -5.135000
C         -18.985000     22.182000     -4.792000
C         -20.211000     22.165000     -4.075000
C         -18.307000     27.673000     -4.670000
C         -23.133000     23.232000     -5.460000
C         -22.919000     24.937000     -3.318000
C         -21.436000     21.918000     -6.137000
C         -23.625000     26.608000     -6.382000
C         -18.298000     27.596000     -6.959000
C         -22.061000     25.859000     -2.675000
C         -18.341000     26.989000     -3.467000
C         -22.422000     23.395000     -7.809000
C         -16.967000     25.956000     -5.795000
C         -21.085000     24.748000     -9.066000
C         -17.193000     23.775000     -6.401000
C         -19.340000     28.403000     -6.516000
C         -17.613000     27.204000     -5.830000
C         -22.702000     27.372000     -7.185000
C         -23.615000     25.262000     -6.744000
C         -18.972000     22.063000     -6.205000
C         -18.412000     26.727000     -8.019000
C         -18.586000     24.911000     -2.747000
C         -21.425000     21.982000     -4.705000
C         -18.098000     23.014000     -4.162000
C         -22.987000     24.742000     -7.819000
C         -20.062000     22.688000     -8.094000
O         -10.786000     11.730000     -7.193000
C         -11.604000     10.981000     -8.084000
H         -12.543000     11.517000     -8.268000
H         -11.905000     10.035000     -7.617000
H         -11.142000     10.843000     -9.070000
O         -11.948000     11.076000     -5.372000
C         -11.142000     11.843000     -5.891000
C         -10.207000     12.782000     -5.101000
H          -9.161000     12.803000     -5.432000
H         -10.216000     12.401000     -4.072000
C         -10.610000     14.272000     -4.946000
H         -11.589000     14.121000     -4.474000
H         -10.047000     14.875000     -4.223000
C         -10.726000     14.966000     -6.336000
H          -9.680000     14.974000     -6.665000
H         -11.186000     14.275000     -7.054000
C         -11.484000     16.258000     -6.298000
C         -10.871000     17.311000     -5.454000
C          -9.813000     18.009000     -5.988000
H          -9.518000     17.912000     -7.029000
C          -9.318000     19.156000     -5.402000
H          -8.636000     19.839000     -5.898000
C          -9.791000     19.525000     -4.150000
H          -9.437000     20.428000     -3.662000
C         -10.883000     18.773000     -3.564000
H         -11.234000     18.996000     -2.561000
C         -11.385000     17.647000     -4.202000
H         -12.174000     17.122000     -3.672000
C         -16.484000     18.520000     -6.236000
C         -15.127000     20.105000     -7.556000
C         -16.967000     19.131000    -11.593000
C         -15.987000     13.794000     -8.183000
C         -14.358000     17.013000    -12.668000
C         -15.235000     19.269000     -6.442000
C         -15.569000     13.961000    -10.998000
C         -18.014000     19.466000     -9.394000
C         -12.155000     18.224000     -9.437000
C         -14.720000     13.636000     -8.764000
C         -11.994000     16.741000     -7.574000
C         -12.058000     16.947000     -9.962000
C         -13.305000     14.479000    -10.324000
C         -15.479000     14.888000    -12.067000
C         -13.184000     18.995000     -7.403000
C         -16.775000     17.015000    -12.433000
C         -12.986000     16.234000     -6.543000
C         -13.811000     15.049000     -6.968000
C         -15.580000     17.691000    -12.659000
C         -18.625000     15.965000     -9.047000
C         -18.443000     17.413000    -10.766000
C         -18.714000     18.222000     -9.603000
C         -17.414000     19.625000     -8.154000
C         -15.132000     15.182000     -6.399000
C         -12.232000     18.156000     -8.023000
C         -16.265000     20.357000     -8.368000
C         -14.483000     13.812000    -10.144000
C         -13.845000     20.024000     -8.093000
C         -12.618000     16.645000    -11.210000
C         -17.423000     15.245000     -7.112000
C         -17.089000     19.828000    -10.372000
C         -12.018000     16.009000     -8.887000
C         -18.303000     17.580000     -7.264000
C         -13.214000     15.390000    -11.396000
C         -12.802000     19.264000    -10.164000
C         -17.528000     15.154000    -11.092000
C         -16.870000     14.175000    -10.385000
C         -13.429000     18.924000    -11.395000
C         -16.199000     14.526000     -7.027000
C         -13.631000     14.246000     -8.153000
C         -17.991000     14.962000     -8.310000
C         -14.007000     17.182000     -5.958000
C         -14.739000     20.479000    -10.320000
C         -12.726000     14.773000     -9.099000
C         -13.338000     17.623000    -11.935000
C         -17.569000     16.536000     -6.560000
C         -15.652000     18.995000    -12.114000
C         -17.630000     18.780000     -7.069000
C         -17.643000     17.906000    -11.807000
C         -13.606000     20.277000     -9.444000
C         -14.589000     19.683000    -11.515000
C         -14.033000     18.535000     -6.381000
C         -15.254000     16.507000     -5.849000
C         -18.453000     16.029000    -10.446000
C         -16.010000     20.479000     -9.732000
C         -14.307000     15.608000    -12.304000
C         -17.061000     14.135000     -8.962000
C         -16.701000     15.628000    -12.120000
C         -16.484000     17.166000     -5.926000
C         -18.823000     17.312000     -8.550000
$end

--------------------------------------------------------------
 ----------------------------------------------------------------
             Standard Nuclear Orientation (Angstroms)
    I     Atom           X                Y                Z
 ----------------------------------------------------------------
    1      O      10.0409364002     4.7419229159    -1.4058369687
    2      C       8.8035888169     5.4860181518    -1.0723534789
    3      H       9.0252783137     6.3092556112    -0.3822296838
    4      H       7.9713697137     4.8432578001    -0.7592536631
    5      H       8.5682306434     6.0322716619    -1.9932881306
    6      O       8.9686447981     3.7127178130    -3.1577791984
    7      C       9.9780410759     3.8164120257    -2.4669183842
    8      C      11.2358951113     2.9334448084    -2.5323868405
    9      H      12.0032121008     3.6515147420    -2.2181811625
   10      H      11.3862994690     2.5784105780    -3.5595179053
   11      C      11.0380375834     1.7684593441    -1.5740767307
   12      H      12.0275748165     1.3087037951    -1.4576469258
   13      H      10.6416088911     2.0778834868    -0.5990392997
   14      C      10.0714392660     0.6817067829    -2.1160126713
   15      H       9.2908207367     1.0729775516    -2.7811945241
   16      H      10.8078209605     0.1367758335    -2.7187632502
   17      C       9.5623472534    -0.3282174225    -1.0358661896
   18      C      10.6853160930    -1.2075696709    -0.4553409030
   19      C      10.9756673778    -1.1357283658     0.8692514714
   20      H      10.5500333495    -0.3713213563     1.5119913861
   21      C      11.6505564357    -2.2111052057     1.5004015420
   22      H      11.9012071639    -2.1496891137     2.5549954336
   23      C      12.0137350771    -3.3653046651     0.8766661155
   24      H      12.4357815857    -4.2095765531     1.4139218495
   25      C      11.7785639343    -3.4080058777    -0.5269136435
   26      H      11.9919207738    -4.3000447480    -1.1078676114
   27      C      11.1767000795    -2.3009689441    -1.1602904097
   28      H      10.9982152898    -2.3473697898    -2.2304605557
   29      C       5.3245233337    -3.4901900354     0.4927209427
   30      C       5.9680278542    -2.3860930436     2.5315548655
   31      C       2.3754324567     0.3649671558     2.9908968834
   32      C       4.5196717535     0.0953873528    -3.1434896848
   33      C       4.1634175326     3.0940688389     1.6119873969
   34      C       6.3161882149    -3.0539493168     1.3378977282
   35      C       3.5583276782     2.4069433797    -1.8385363128
   36      C       2.5319008260    -1.9539712272     2.2410539496
   37      C       7.6897717454     1.1611267724     1.8174963594
   38      C       5.3796624690     1.1444700214    -2.8520029375
   39      C       8.5109368186     0.2816682003    -0.1441523203
   40      C       7.5027282805     2.1745648382     0.8513369373
   41      C       5.9200583780     2.7283620726    -1.3319515463
   42      C       3.2461137548     2.9523041676    -0.5852494035
   43      C       7.7276043464    -1.2548252235     1.6439058993
   44      C       2.0551935266     1.9408251337     1.3455432250
   45      C       8.1237876698    -0.8097247241    -1.1066760973
   46      C       7.1305874897    -0.4768309517    -2.2030077709
   47      C       3.0858249327     2.3611175960     2.1640504949
   48      C       1.8394904489    -1.1960937760    -1.1347722662
   49      C       1.2883741128    -0.2825392363     0.8869858517
   50      C       1.7261836956    -1.6115396564     1.1056308896
   51      C       3.6351436923    -2.8633494698     2.1204869986
   52      C       6.2274891952    -1.4368050367    -2.3403439525
   53      C       8.2005966771     0.0235799619     1.2688159942
   54      C       4.6154635671    -2.3405944523     2.9416728088
   55      C       4.9307713828     2.2695075794    -2.1970271473
   56      C       6.8674301362    -1.3061638736     2.7424921140
   57      C       6.3647411289     2.9805729077     0.9773299319
   58      C       3.8238226294    -1.9982207128    -2.3721005067
   59      C       2.8137443734    -0.9405918116     3.1775849821
   60      C       7.9149553449     1.6523202537    -0.3312887183
   61      C       3.1527644471    -3.0200218332    -0.2256370464
   62      C       5.5695329251     3.2803178843    -0.1347603799
   63      C       6.7801032604     1.0614001837     2.9428953353
   64      C       1.8519402988     1.2330396693    -0.9723139452
   65      C       2.7461719031     1.3117368681    -2.0730457876
   66      C       5.6913361299     1.9085141087     2.9555891765
   67      C       4.9203670186    -1.1995352352    -2.8221692907
   68      C       6.6582652255     0.8826901772    -2.3920156505
   69      C       2.7401610532    -1.0909171418    -2.2747772390
   70      C       7.5555491008    -2.0844171781    -0.6398944820
   71      C       5.0311550162    -0.1263062185     3.7736344887
   72      C       7.0276207327     1.8883407954    -1.4690095057
   73      C       5.5005563358     2.9305136235     2.0416192306
   74      C       4.0158000423    -2.9568855155    -1.3581441620
   75      C       3.2956295661     1.4373290596     3.1744240673
   76      C       3.9391289861    -3.4023379458     0.8765640251
   77      C       1.6000418370     0.6929959971     1.8530522252
   78      C       6.3770953272    -0.1687135424     3.4273567131
   79      C       4.6221850301     1.1708998811     3.5556209897
   80      C       7.3892256982    -2.3423451915     0.7694470897
   81      C       6.4243866499    -2.4650822752    -1.3599122551
   82      C       1.3852901658    -0.0230299251    -0.5081740660
   83      C       4.1565448334    -1.1616007457     3.5391579013
   84      C       4.2402399861     3.3614090865     0.2745762774
   85      C       3.1555210490     0.1903823250    -2.7652757100
   86      C       2.1319259349     2.2360957554    -0.0827187949
   87      C       5.3770899375    -3.1595585246    -0.8687082903
   88      C       2.0129266310    -2.1693770577    -0.1256659564
   89      O     -11.5984528074     2.3382104203    -1.2857288479
   90      C     -11.9233630536     1.1383950719    -1.9777421871
   91      H     -11.0087800159     0.5726120844    -2.1929176458
   92      H     -12.3495117570     1.3721126127    -2.9612966562
   93      H     -12.5573077718     0.4654729853    -1.3861562173
   94      O     -10.9423724052     3.3976979312    -3.1674954966
   95      C     -10.9636945632     3.3391789698    -1.9413605543
   96      C     -10.5883050510     4.5113841997    -1.0112725943
   97      H     -11.2731863104     4.6941623000    -0.1736283819
   98      H     -10.6069776373     5.4043070650    -1.6487858029
   99      C      -9.1697379623     4.5358890554    -0.3838963702
  100      H      -8.5871099140     4.5028614361    -1.3131324724
  101      H      -8.8505223218     5.4633875200     0.1071789531
  102      C      -8.9318170369     3.2798119290     0.5065281835
  103      H      -9.6261356946     3.4637566027     1.3350853382
  104      H      -9.3776786771     2.3995001962     0.0260454565
  105      C      -7.4867237774     3.0293836758     0.8135512465
  106      C      -6.8206930283     4.1084051113     1.5810340040
  107      C      -7.0468899319     4.1480033322     2.9371280058
  108      H      -7.5655911058     3.3520940928     3.4639985543
  109      C      -6.3066657433     4.9483347496     3.7830403966
  110      H      -6.3134624802     4.8498731940     4.8637291244
  111      C      -5.4200590783     5.8636376533     3.2320928345
  112      H      -4.8093790679     6.5011707304     3.8641454435
  113      C      -5.2017051845     5.8522591531     1.7990694199
  114      H      -4.5634655758     6.5948202520     1.3298229854
  115      C      -5.9352664115     5.0034933355     0.9815068760
  116      H      -5.7356991601     5.0909188923    -0.0822485865
  117      C      -2.7990824192     0.9151309378    -1.1038537333
  118      C      -2.7261965700     0.4336819821     1.3166769019
  119      C      -3.4417847889    -4.0392059193     0.9807419039
  120      C      -7.2182142675    -0.8122470955    -3.0686267066
  121      C      -6.8775092295    -3.9071984756     1.7724499332
  122      C      -3.0130848935     1.3357110065     0.2892555039
  123      C      -8.0688202849    -3.1171223346    -1.6226469227
  124      C      -1.9973103963    -2.5447307178    -0.3322975476
  125      C      -6.4035650765     0.0254019643     2.8064333568
  126      C      -8.2351892643    -0.7595915233    -2.1038452564
  127      C      -7.1491745482     1.6854068258     1.2622735932
  128      C      -7.5754429620    -0.4573502905     2.2501820809
  129      C      -8.8272500719    -1.4629568646    -0.0299081318
  130      C      -7.6899306882    -3.9830497471    -0.5658582069
  131      C      -4.6786474204     1.4018755180     1.8470493691
  132      C      -5.3941841396    -4.7982852612     0.0686808707
  133      C      -6.6860757852     2.1267514009    -0.1142541042
  134      C      -7.2195335423     1.3175824815    -1.2658371369
  135      C      -5.6375727255    -4.4235025860     1.3863974345
  136      C      -4.2296378237    -2.6790466859    -3.1160727680
  137      C      -3.6749515998    -4.0565375060    -1.4191251455
  138      C      -2.5931998265    -3.1077212709    -1.5193840752
  139      C      -1.9053545868    -1.1615877247    -0.2956834800
  140      C      -6.1930937108     1.2285015937    -2.2782485493
  141      C      -6.0422810238     1.2444303355     2.1792231341
  142      C      -2.0756859136    -0.7944374543     1.0226521822
  143      C      -8.5989347961    -1.8704796948    -1.3131736062
  144      C      -3.6815507608     0.5359116431     2.3242985901
  145      C      -7.8025306010    -1.8361292515     2.1516540093
  146      C      -4.9838983881    -0.4452900707    -3.5018853972
  147      C      -2.5183022687    -2.9762691228     0.8865113274
  148      C      -8.0376053071     0.4725659292     1.2710340884
  149      C      -2.7176186896    -0.8711080448    -2.5362848687
  150      C      -8.4619853285    -2.3318495255     1.0184206387
  151      C      -5.4159034154    -0.8665709813     3.3140224697
  152      C      -6.0280270205    -4.0362321137    -2.1327116892
  153      C      -6.9806344222    -3.1541650765    -2.5863093966
  154      C      -5.6282936785    -2.2625184390     3.1399217188
  155      C      -6.2319450577     0.1535762896    -3.1761545374
  156      C      -8.2489305798     0.3080669874    -1.2143181456
  157      C      -5.1787130557    -1.7823581200    -3.6123990920
  158      C      -5.2075039606     2.2267988007    -0.4095266517
  159      C      -3.3873295617    -1.8297599406     2.8561085601
  160      C      -8.6234456277    -0.0963569703     0.0848545686
  161      C      -6.8189341764    -2.7624685130     2.5699154659
  162      C      -3.7654671539     0.0398252946    -2.9795929410
  163      C      -4.4544999580    -3.9103173876     1.9691536261
  164      C      -2.1432086992    -0.3349257730    -1.3901977278
  165      C      -4.0385280184    -4.5948242235    -0.1762294951
  166      C      -3.9799396546    -0.5446570265     3.1547601596
  167      C      -4.3963351424    -2.8614926105     2.8958129169
  168      C      -4.2659390017     1.9025179620     0.5996865893
  169      C      -4.9632451873     1.7243625636    -1.7173532760
  170      C      -4.6459179897    -3.8416851607    -2.4335307544
  171      C      -2.4872100292    -1.8854471743     1.7847221875
  172      C      -7.8889602685    -3.6264461142     0.7688230566
  173      C      -6.5285546392    -1.9777054468    -3.2752046059
  174      C      -6.4186426752    -4.5515643569    -0.8888302280
  175      C      -3.7555495988     1.1270550431    -2.0885743576
  176      C      -2.9520652797    -2.2638686153    -2.5719610473
 ----------------------------------------------------------------
 Molecular Point Group                 C1    NOp =  1
 Largest Abelian Subgroup              C1    NOp =  1
 Nuclear Repulsion Energy = 33776.3048846503 hartrees
 There are      462 alpha and      462 beta electrons
 Requested basis set is 6-31G(d,p)
 There are 676 shells and 2360 basis functions

 Total QAlloc Memory Limit  20000 MB
 Mega-Array Size      4888 MB
 MEM_STATIC part      5000 MB
 A cutoff of  1.0D-08 yielded  37431 shell pairs
 There are    526134 function pairs
 
 -------------------------------------------------------
 OpenMP Integral Computing Module                       
 Release: version 1.0, May 2013, Q-Chem Inc. Pittsburgh 
 -------------------------------------------------------
 Integral Job Info:
 Integral job number is                      11
 Integral operator is                         1
 short-range coefficients                     0
 long-range coefficients              100000000
 Omega coefficients                           0
 if combine SR and LR in K                    0
 Integral screening is                        0
 Integral computing path is                   2
 max size of driver memory is            800000
 size of driver memory is                593474
 size of scratch memory is              2260544
 max col of scratch BK array               1296
 max len of scratch array in speh3          155
 max len of scratch index in speh4           18
 max int batch size is                      520
 min int batch size is                       52
 fixed nKL is                                52
 max L of basis functions is                  2
 order of int derivative is                   0
 number of shells is                        676
 number of basis is                        2360
 number of cartesian basis is              2360
 number of contracted shell pairs         37431
 number of primitive shell pairs         113732
 maxK2 (contraction) of shell pair           36
 max number of K2 of shell pair               1
 max number of CS2 of shell pair           7152
 max number of PS2 of shell pair          34440
 mem total for path MDJ                 1493848
 -------------------------------------------------------
 Smallest overlap matrix eigenvalue = 2.44E-04

 Scale SEOQF with 1.000000e-02/1.000000e-02/1.000000e-01

 Standard Electronic Orientation quadrupole field applied
 Nucleus-field energy     =    -0.0000002084 hartrees
 Guess from superposition of atomic densities
 Warning:  Energy on first SCF cycle will be non-variational
 A restricted hybrid HF-DFT SCF calculation will be
 performed using Pulay DIIS extrapolation
 Exchange:     0.2000 Hartree-Fock + 0.0800 Slater + 0.7200 B88
 Correlation:  0.1900 VWN1RPA + 0.8100 LYP
 Using SG-1 standard quadrature grid
 SCF converges when DIIS error is below 1.0E-05
 using 16 threads for integral computing 
 -------------------------------------------------------
 OpenMP BLAS3 based DFT computing Module                
 Release: version 1.0, May 2013, Q-Chem Inc. Pittsburgh 
 -------------------------------------------------------
 ---------------------------------------
  Cycle       Energy         DIIS Error
 ---------------------------------------
    1   -5858.0702033865      1.82E-02
    2   -5803.1371334662      1.29E-03
    3   -5802.3703015815      1.79E-03
    4   -5804.0010884295      6.38E-04
    5   -5804.2216250730      2.79E-04
    6   -5804.2698698530      1.24E-04
    7   -5804.2801276606      4.58E-05
    8   -5804.2810499483      2.88E-05
    9   -5804.2816528290      9.48E-06 Convergence criterion met
 ---------------------------------------
 SCF time:  CPU 7138.62 s  wall 827.39 s
 SCF   energy in the final basis set = -5804.2816528290
 Total energy in the final basis set = -5804.2816528290
 
 --------------------------------------------------------------
 
                    Orbital Energies (a.u.)
 --------------------------------------------------------------
 
 Alpha MOs
 -- Occupied --
-19.195 -19.185 -19.138 -19.137 -10.323 -10.318 -10.243 -10.242
-10.242 -10.242 -10.241 -10.238 -10.235 -10.234 -10.234 -10.232
-10.229 -10.227 -10.226 -10.225 -10.224 -10.223 -10.222 -10.222
-10.222 -10.221 -10.221 -10.221 -10.221 -10.220 -10.220 -10.220
-10.219 -10.219 -10.219 -10.219 -10.219 -10.219 -10.219 -10.219
-10.219 -10.219 -10.218 -10.218 -10.218 -10.218 -10.218 -10.218
-10.218 -10.217 -10.217 -10.217 -10.217 -10.217 -10.217 -10.217
-10.217 -10.217 -10.216 -10.216 -10.216 -10.216 -10.216 -10.216
-10.216 -10.215 -10.215 -10.215 -10.215 -10.215 -10.215 -10.214
-10.214 -10.214 -10.214 -10.214 -10.214 -10.214 -10.214 -10.214
-10.214 -10.213 -10.213 -10.213 -10.213 -10.213 -10.213 -10.213
-10.213 -10.213 -10.213 -10.212 -10.212 -10.212 -10.212 -10.212
-10.212 -10.212 -10.212 -10.212 -10.212 -10.211 -10.211 -10.211
-10.211 -10.211 -10.210 -10.210 -10.210 -10.210 -10.210 -10.210
-10.210 -10.210 -10.210 -10.210 -10.210 -10.209 -10.209 -10.209
-10.209 -10.209 -10.208 -10.208 -10.208 -10.206 -10.206 -10.206
-10.206 -10.206 -10.205 -10.204 -10.204 -10.203 -10.203 -10.202
-10.201 -10.201 -10.200 -10.200 -10.199 -10.199 -10.199 -10.199
-10.197 -10.195 -10.195 -10.195  -1.099  -1.073  -1.008  -0.997
 -0.983  -0.980  -0.964  -0.964  -0.963  -0.961  -0.960  -0.957
 -0.935  -0.933  -0.927  -0.926  -0.923  -0.922  -0.921  -0.920
 -0.919  -0.914  -0.898  -0.896  -0.888  -0.885  -0.885  -0.877
 -0.876  -0.875  -0.858  -0.857  -0.842  -0.840  -0.840  -0.836
 -0.836  -0.834  -0.820  -0.819  -0.810  -0.805  -0.798  -0.797
 -0.795  -0.795  -0.794  -0.791  -0.791  -0.787  -0.783  -0.782
 -0.772  -0.768  -0.768  -0.767  -0.766  -0.766  -0.764  -0.762
 -0.758  -0.747  -0.743  -0.742  -0.732  -0.731  -0.717  -0.715
 -0.715  -0.713  -0.711  -0.710  -0.709  -0.708  -0.708  -0.707
 -0.705  -0.705  -0.704  -0.702  -0.701  -0.699  -0.674  -0.672
 -0.660  -0.656  -0.654  -0.653  -0.646  -0.645  -0.630  -0.629
 -0.627  -0.627  -0.624  -0.623  -0.622  -0.622  -0.617  -0.617
 -0.615  -0.613  -0.613  -0.612  -0.611  -0.610  -0.608  -0.608
 -0.607  -0.606  -0.600  -0.600  -0.569  -0.565  -0.565  -0.561
 -0.560  -0.560  -0.556  -0.555  -0.554  -0.554  -0.553  -0.552
 -0.538  -0.536  -0.531  -0.531  -0.529  -0.527  -0.525  -0.525
 -0.523  -0.521  -0.517  -0.517  -0.516  -0.516  -0.515  -0.514
 -0.507  -0.506  -0.502  -0.499  -0.491  -0.490  -0.486  -0.486
 -0.484  -0.483  -0.481  -0.479  -0.478  -0.474  -0.474  -0.473
 -0.473  -0.470  -0.470  -0.470  -0.467  -0.465  -0.465  -0.465
 -0.464  -0.462  -0.462  -0.461  -0.460  -0.460  -0.459  -0.458
 -0.455  -0.454  -0.451  -0.451  -0.450  -0.447  -0.444  -0.444
 -0.442  -0.442  -0.441  -0.439  -0.437  -0.436  -0.432  -0.432
 -0.431  -0.430  -0.427  -0.427  -0.426  -0.425  -0.424  -0.423
 -0.421  -0.421  -0.420  -0.419  -0.419  -0.418  -0.418  -0.416
 -0.416  -0.415  -0.415  -0.414  -0.413  -0.412  -0.412  -0.412
 -0.411  -0.410  -0.409  -0.407  -0.406  -0.400  -0.397  -0.395
 -0.394  -0.392  -0.391  -0.390  -0.390  -0.387  -0.386  -0.385
 -0.383  -0.377  -0.376  -0.372  -0.370  -0.370  -0.366  -0.366
 -0.364  -0.363  -0.360  -0.359  -0.359  -0.358  -0.357  -0.357
 -0.355  -0.355  -0.354  -0.354  -0.352  -0.352  -0.351  -0.351
 -0.348  -0.347  -0.347  -0.346  -0.345  -0.344  -0.344  -0.342
 -0.341  -0.341  -0.340  -0.339  -0.337  -0.337  -0.335  -0.333
 -0.333  -0.330  -0.330  -0.328  -0.327  -0.325  -0.324  -0.324
 -0.312  -0.309  -0.296  -0.294  -0.285  -0.283  -0.272  -0.270
 -0.269  -0.269  -0.267  -0.267  -0.266  -0.265  -0.264  -0.263
 -0.262  -0.261  -0.260  -0.259  -0.259  -0.259  -0.255  -0.254
 -0.252  -0.248  -0.242  -0.240  -0.224  -0.220  -0.215  -0.212
 -0.210  -0.208  -0.207  -0.202  -0.196  -0.195
 -- Virtual --
 -0.122  -0.120  -0.120  -0.119  -0.106  -0.104  -0.079  -0.078
 -0.073  -0.072  -0.060  -0.054  -0.054  -0.053  -0.028  -0.023
 -0.021  -0.020  -0.018  -0.017  -0.016  -0.014  -0.014  -0.014
 -0.013  -0.011  -0.009  -0.007  -0.006  -0.004  -0.004   0.002
  0.003   0.006   0.032   0.038   0.040   0.042   0.047   0.048
  0.049   0.050   0.054   0.057   0.060   0.065   0.067   0.068
  0.071   0.072   0.077   0.080   0.084   0.085   0.089   0.093
  0.094   0.095   0.096   0.100   0.101   0.104   0.105   0.106
  0.111   0.111   0.112   0.113   0.114   0.116   0.120   0.121
  0.124   0.125   0.126   0.130   0.131   0.131   0.134   0.139
  0.142   0.144   0.144   0.147   0.148   0.149   0.154   0.154
  0.157   0.159   0.160   0.162   0.164   0.166   0.168   0.171
  0.171   0.172   0.173   0.175   0.177   0.178   0.179   0.180
  0.182   0.182   0.183   0.186   0.187   0.188   0.190   0.192
  0.193   0.194   0.196   0.199   0.201   0.203   0.205   0.207
  0.208   0.210   0.212   0.213   0.215   0.215   0.216   0.217
  0.218   0.220   0.221   0.223   0.224   0.226   0.228   0.229
  0.230   0.231   0.232   0.234   0.235   0.236   0.238   0.240
  0.241   0.243   0.245   0.247   0.247   0.249   0.255   0.255
  0.264   0.267   0.268   0.270   0.276   0.277   0.278   0.283
  0.287   0.288   0.289   0.289   0.295   0.297   0.299   0.304
  0.305   0.307   0.310   0.312   0.314   0.316   0.317   0.319
  0.319   0.321   0.322   0.323   0.324   0.328   0.329   0.334
  0.335   0.336   0.339   0.342   0.344   0.347   0.348   0.350
  0.351   0.354   0.356   0.357   0.368   0.371   0.381   0.383
  0.388   0.391   0.394   0.398   0.401   0.403   0.405   0.406
  0.406   0.409   0.410   0.411   0.416   0.419   0.421   0.422
  0.429   0.430   0.431   0.432   0.436   0.438   0.439   0.441
  0.446   0.447   0.449   0.454   0.457   0.458   0.460   0.460
  0.466   0.466   0.468   0.469   0.471   0.473   0.475   0.476
  0.477   0.480   0.480   0.481   0.481   0.483   0.485   0.485
  0.487   0.487   0.489   0.490   0.492   0.493   0.494   0.495
  0.495   0.497   0.498   0.499   0.500   0.501   0.503   0.503
  0.505   0.505   0.506   0.506   0.507   0.508   0.509   0.511
  0.512   0.513   0.513   0.514   0.515   0.516   0.517   0.518
  0.519   0.519   0.521   0.521   0.521   0.522   0.524   0.525
  0.526   0.528   0.529   0.529   0.530   0.531   0.531   0.532
  0.533   0.534   0.535   0.536   0.537   0.538   0.539   0.539
  0.540   0.541   0.542   0.543   0.544   0.544   0.545   0.545
  0.546   0.548   0.548   0.550   0.551   0.552   0.552   0.553
  0.553   0.554   0.554   0.555   0.557   0.557   0.557   0.559
  0.560   0.560   0.561   0.562   0.563   0.563   0.565   0.566
  0.566   0.567   0.567   0.568   0.569   0.570   0.571   0.572
  0.573   0.574   0.575   0.576   0.577   0.578   0.578   0.579
  0.581   0.582   0.582   0.583   0.584   0.585   0.586   0.587
  0.587   0.588   0.588   0.589   0.590   0.590   0.591   0.592
  0.593   0.593   0.594   0.595   0.597   0.597   0.598   0.598
  0.600   0.600   0.601   0.602   0.605   0.606   0.608   0.608
  0.609   0.610   0.611   0.612   0.612   0.614   0.614   0.615
  0.617   0.618   0.620   0.621   0.622   0.622   0.623   0.625
  0.626   0.627   0.628   0.629   0.630   0.631   0.633   0.633
  0.635   0.635   0.635   0.636   0.636   0.637   0.639   0.640
  0.642   0.643   0.644   0.645   0.646   0.647   0.647   0.648
  0.649   0.650   0.652   0.653   0.654   0.655   0.655   0.656
  0.658   0.659   0.660   0.661   0.662   0.662   0.664   0.664
  0.664   0.666   0.667   0.668   0.669   0.669   0.670   0.671
  0.671   0.671   0.673   0.675   0.676   0.676   0.677   0.678
  0.680   0.680   0.681   0.682   0.683   0.686   0.687   0.687
  0.689   0.690   0.691   0.692   0.693   0.694   0.695   0.696
  0.697   0.698   0.699   0.701   0.701   0.702   0.702   0.705
  0.705   0.707   0.708   0.709   0.709   0.711   0.712   0.715
  0.716   0.717   0.718   0.719   0.720   0.721   0.722   0.723
  0.725   0.725   0.726   0.727   0.728   0.729   0.730   0.731
  0.732   0.734   0.736   0.737   0.738   0.739   0.741   0.743
  0.744   0.747   0.751   0.752   0.753   0.753   0.756   0.758
  0.758   0.761   0.761   0.762   0.762   0.765   0.766   0.768
  0.770   0.771   0.771   0.772   0.773   0.774   0.776   0.778
  0.779   0.780   0.781   0.784   0.784   0.786   0.787   0.788
  0.789   0.789   0.790   0.791   0.794   0.794   0.795   0.797
  0.797   0.799   0.800   0.801   0.802   0.803   0.803   0.804
  0.806   0.806   0.807   0.808   0.810   0.811   0.811   0.811
  0.812   0.813   0.814   0.814   0.815   0.817   0.817   0.817
  0.818   0.819   0.820   0.820   0.821   0.822   0.823   0.824
  0.825   0.826   0.827   0.827   0.828   0.830   0.830   0.833
  0.834   0.836   0.838   0.839   0.840   0.840   0.842   0.846
  0.847   0.848   0.854   0.859   0.860   0.861   0.863   0.866
  0.868   0.870   0.874   0.876   0.880   0.885   0.886   0.887
  0.888   0.892   0.896   0.898   0.900   0.903   0.906   0.909
  0.911   0.915   0.917   0.918   0.919   0.922   0.922   0.924
  0.927   0.928   0.930   0.931   0.934   0.935   0.939   0.940
  0.942   0.943   0.943   0.944   0.947   0.948   0.949   0.950
  0.954   0.955   0.956   0.959   0.962   0.966   0.967   0.972
  0.975   0.977   0.979   0.986   0.987   0.989   0.990   0.994
  0.994   0.998   0.999   1.002   1.003   1.005   1.007   1.008
  1.009   1.011   1.014   1.015   1.016   1.017   1.020   1.020
  1.022   1.024   1.025   1.026   1.027   1.030   1.031   1.031
  1.032   1.035   1.037   1.039   1.042   1.042   1.043   1.045
  1.047   1.048   1.050   1.051   1.052   1.053   1.057   1.059
  1.061   1.062   1.066   1.067   1.068   1.070   1.071   1.072
  1.075   1.076   1.077   1.077   1.080   1.082   1.083   1.086
  1.087   1.088   1.089   1.092   1.093   1.095   1.096   1.098
  1.100   1.101   1.103   1.103   1.105   1.107   1.109   1.110
  1.114   1.116   1.117   1.120   1.121   1.126   1.128   1.130
  1.133   1.133   1.134   1.137   1.139   1.139   1.143   1.144
  1.146   1.149   1.151   1.152   1.154   1.155   1.158   1.159
  1.160   1.162   1.164   1.165   1.166   1.168   1.170   1.171
  1.173   1.175   1.177   1.179   1.180   1.181   1.182   1.184
  1.185   1.187   1.188   1.190   1.191   1.193   1.197   1.199
  1.201   1.204   1.208   1.211   1.213   1.215   1.215   1.222
  1.224   1.225   1.229   1.231   1.234   1.236   1.239   1.240
  1.245   1.246   1.248   1.252   1.255   1.257   1.257   1.260
  1.262   1.265   1.265   1.266   1.270   1.271   1.272   1.275
  1.277   1.277   1.281   1.281   1.282   1.288   1.289   1.290
  1.292   1.295   1.296   1.297   1.300   1.303   1.305   1.307
  1.311   1.314   1.316   1.321   1.323   1.326   1.327   1.328
  1.329   1.331   1.334   1.336   1.340   1.342   1.344   1.344
  1.347   1.348   1.352   1.355   1.356   1.358   1.360   1.362
  1.367   1.368   1.370   1.372   1.374   1.377   1.380   1.382
  1.385   1.386   1.388   1.390   1.392   1.394   1.396   1.399
  1.403   1.405   1.410   1.411   1.413   1.416   1.420   1.423
  1.424   1.429   1.432   1.435   1.437   1.438   1.440   1.447
  1.447   1.449   1.451   1.454   1.457   1.458   1.461   1.464
  1.467   1.468   1.470   1.470   1.471   1.472   1.473   1.475
  1.481   1.482   1.484   1.485   1.489   1.494   1.496   1.497
  1.499   1.504   1.506   1.507   1.507   1.511   1.513   1.518
  1.521   1.525   1.527   1.532   1.532   1.534   1.536   1.538
  1.540   1.542   1.545   1.547   1.548   1.550   1.552   1.557
  1.558   1.559   1.563   1.567   1.568   1.570   1.572   1.574
  1.576   1.579   1.582   1.582   1.584   1.586   1.589   1.593
  1.595   1.599   1.606   1.608   1.613   1.616   1.621   1.627
  1.627   1.632   1.634   1.636   1.638   1.643   1.644   1.644
  1.648   1.652   1.654   1.656   1.657   1.661   1.663   1.667
  1.675   1.683   1.685   1.686   1.689   1.691   1.694   1.695
  1.700   1.701   1.704   1.705   1.706   1.709   1.711   1.715
  1.716   1.718   1.720   1.722   1.723   1.727   1.728   1.729
  1.732   1.735   1.736   1.737   1.740   1.741   1.741   1.743
  1.744   1.745   1.746   1.748   1.752   1.753   1.756   1.756
  1.757   1.758   1.760   1.762   1.762   1.763   1.765   1.766
  1.768   1.769   1.770   1.772   1.773   1.775   1.776   1.777
  1.778   1.779   1.781   1.782   1.783   1.785   1.786   1.788
  1.790   1.791   1.794   1.794   1.795   1.796   1.797   1.799
  1.799   1.801   1.802   1.805   1.807   1.808   1.809   1.810
  1.811   1.811   1.814   1.816   1.816   1.818   1.820   1.820
  1.823   1.827   1.829   1.831   1.834   1.835   1.836   1.838
  1.842   1.845   1.847   1.849   1.853   1.853   1.854   1.856
  1.857   1.858   1.860   1.862   1.864   1.865   1.867   1.868
  1.869   1.871   1.873   1.875   1.877   1.879   1.883   1.885
  1.885   1.887   1.889   1.890   1.892   1.896   1.898   1.900
  1.901   1.905   1.908   1.910   1.913   1.916   1.917   1.923
  1.924   1.926   1.927   1.929   1.931   1.933   1.936   1.937
  1.939   1.942   1.943   1.946   1.947   1.950   1.953   1.955
  1.955   1.957   1.957   1.959   1.960   1.963   1.964   1.966
  1.968   1.969   1.973   1.973   1.975   1.977   1.978   1.980
  1.984   1.986   1.987   1.991   1.991   1.992   1.994   1.995
  1.996   1.997   1.999   2.001   2.003   2.004   2.005   2.007
  2.007   2.008   2.010   2.011   2.012   2.014   2.014   2.015
  2.016   2.017   2.020   2.020   2.022   2.024   2.024   2.026
  2.027   2.028   2.029   2.030   2.032   2.034   2.035   2.036
  2.036   2.037   2.038   2.039   2.040   2.042   2.043   2.044
  2.045   2.046   2.047   2.049   2.050   2.052   2.053   2.055
  2.055   2.057   2.058   2.060   2.061   2.063   2.064   2.066
  2.067   2.069   2.070   2.070   2.072   2.073   2.075   2.076
  2.077   2.079   2.081   2.081   2.084   2.087   2.088   2.088
  2.091   2.092   2.093   2.095   2.100   2.101   2.104   2.109
  2.110   2.111   2.113   2.116   2.118   2.119   2.121   2.123
  2.128   2.131   2.131   2.134   2.135   2.136   2.139   2.144
  2.146   2.148   2.154   2.156   2.161   2.164   2.166   2.170
  2.173   2.175   2.180   2.185   2.190   2.193   2.197   2.198
  2.204   2.211   2.211   2.212   2.217   2.218   2.219   2.224
  2.225   2.230   2.233   2.236   2.238   2.238   2.241   2.243
  2.246   2.247   2.250   2.251   2.253   2.256   2.258   2.262
  2.263   2.266   2.268   2.270   2.272   2.274   2.276   2.280
  2.282   2.283   2.285   2.287   2.289   2.292   2.294   2.295
  2.297   2.299   2.303   2.305   2.306   2.307   2.312   2.312
  2.315   2.320   2.323   2.326   2.328   2.331   2.334   2.337
  2.339   2.340   2.341   2.344   2.347   2.349   2.351   2.351
  2.355   2.356   2.358   2.359   2.361   2.361   2.363   2.363
  2.369   2.370   2.371   2.373   2.375   2.376   2.378   2.379
  2.380   2.382   2.385   2.385   2.386   2.387   2.389   2.391
  2.392   2.396   2.400   2.403   2.403   2.405   2.406   2.408
  2.409   2.410   2.411   2.414   2.415   2.417   2.419   2.421
  2.424   2.426   2.427   2.430   2.432   2.434   2.438   2.439
  2.442   2.446   2.449   2.452   2.455   2.456   2.458   2.459
  2.459   2.464   2.465   2.466   2.469   2.469   2.470   2.474
  2.477   2.479   2.482   2.483   2.484   2.486   2.489   2.491
  2.493   2.495   2.495   2.497   2.500   2.502   2.503   2.505
  2.506   2.508   2.510   2.512   2.513   2.515   2.516   2.520
  2.523   2.524   2.526   2.528   2.529   2.530   2.532   2.541
  2.541   2.543   2.544   2.549   2.551   2.555   2.556   2.562
  2.563   2.568   2.571   2.573   2.574   2.578   2.582   2.584
  2.584   2.587   2.591   2.593   2.594   2.597   2.598   2.600
  2.603   2.604   2.605   2.607   2.607   2.609   2.612   2.614
  2.616   2.619   2.621   2.626   2.626   2.627   2.631   2.633
  2.634   2.636   2.637   2.638   2.640   2.640   2.641   2.642
  2.644   2.646   2.646   2.649   2.650   2.652   2.654   2.657
  2.657   2.662   2.663   2.663   2.665   2.667   2.669   2.671
  2.673   2.674   2.676   2.678   2.679   2.681   2.682   2.685
  2.688   2.692   2.696   2.697   2.698   2.701   2.702   2.704
  2.709   2.712   2.715   2.716   2.717   2.718   2.721   2.723
  2.724   2.728   2.731   2.732   2.735   2.736   2.737   2.741
  2.744   2.745   2.749   2.750   2.751   2.753   2.755   2.756
  2.758   2.760   2.763   2.764   2.766   2.768   2.770   2.772
  2.773   2.777   2.778   2.780   2.786   2.787   2.788   2.791
  2.795   2.798   2.800   2.802   2.805   2.810   2.812   2.813
  2.818   2.821   2.828   2.829   2.832   2.834   2.835   2.837
  2.837   2.839   2.842   2.846   2.848   2.850   2.851   2.856
  2.859   2.861   2.862   2.864   2.868   2.869   2.871   2.874
  2.875   2.878   2.878   2.880   2.880   2.883   2.889   2.891
  2.892   2.894   2.895   2.896   2.898   2.899   2.901   2.903
  2.903   2.905   2.906   2.909   2.910   2.912   2.913   2.914
  2.916   2.917   2.919   2.922   2.926   2.928   2.928   2.931
  2.932   2.932   2.936   2.936   2.940   2.941   2.943   2.948
  2.950   2.952   2.953   2.960   2.969   2.972   2.972   2.973
  2.980   2.986   2.989   2.990   2.991   2.995   2.998   2.999
  3.003   3.006   3.010   3.013   3.018   3.020   3.022   3.023
  3.024   3.026   3.028   3.031   3.035   3.035   3.040   3.041
  3.044   3.047   3.050   3.051   3.053   3.055   3.059   3.060
  3.065   3.070   3.072   3.079   3.082   3.086   3.086   3.095
  3.099   3.106   3.117   3.123   3.126   3.130   3.134   3.144
  3.148   3.154   3.158   3.168   3.170   3.180   3.187   3.189
  3.191   3.192   3.208   3.213   3.215   3.224   3.229   3.231
  3.239   3.244   3.247   3.250   3.254   3.261   3.270   3.276
  3.279   3.293   3.295   3.309   3.312   3.322   3.326   3.329
  3.333   3.334   3.347   3.348   3.356   3.358   3.386   3.386
  3.410   3.413   3.428   3.430   3.430   3.432   3.436   3.446
  3.449   3.451   3.454   3.458   3.464   3.470   3.476   3.482
  3.494   3.496   3.497   3.505   3.509   3.512   3.527   3.536
  3.548   3.557   3.558   3.560   3.568   3.569   3.578   3.603
  3.605   3.625   3.661   3.696   3.863   3.869   4.015   4.017
  4.072   4.074   4.079   4.086   4.087   4.090   4.093   4.096
  4.097   4.100   4.107   4.108   4.109   4.111   4.121   4.124
  4.128   4.131   4.133   4.134   4.139   4.140   4.145   4.147
  4.151   4.152   4.155   4.160   4.168   4.172   4.176   4.179
  4.180   4.181   4.191   4.195   4.202   4.222   4.238   4.240
  4.244   4.246   4.247   4.252   4.253   4.258   4.262   4.262
  4.263   4.272   4.274   4.275   4.277   4.282   4.288   4.295
  4.300   4.312   4.322   4.326   4.378   4.382   4.389   4.394
  4.395   4.397   4.400   4.403   4.410   4.412   4.415   4.416
  4.417   4.420   4.426   4.431   4.438   4.460   4.465   4.476
  4.492   4.497   4.508   4.518   4.529   4.532   4.543   4.548
  4.561   4.569   4.612   4.620   4.624   4.632   4.635   4.639
  4.663   4.666   4.683   4.689   4.692   4.694   4.699   4.700
  4.701   4.702   4.705   4.706   4.747   4.771   4.815   4.815
  4.842   4.852   4.853   4.857   4.870   4.875   4.883   4.891
  4.893   4.914   4.949   4.953   4.963   4.970   4.973   4.977
  4.981   4.992   4.994   5.005   5.139   5.159   5.163   5.179
  5.194   5.196   5.214   5.224   5.298   5.312   5.320   5.328
  5.351   5.378
 --------------------------------------------------------------
 
          Ground-State Mulliken Net Atomic Charges

     Atom                 Charge (a.u.)
  ----------------------------------------
      1 O                    -0.494080
      2 C                    -0.085858
      3 H                     0.122804
      4 H                     0.135512
      5 H                     0.130023
      6 O                    -0.468187
      7 C                     0.588352
      8 C                    -0.232273
      9 H                     0.130977
     10 H                     0.129294
     11 C                    -0.196554
     12 H                     0.115810
     13 H                     0.118170
     14 C                    -0.208577
     15 H                     0.138059
     16 H                     0.102418
     17 C                     0.016610
     18 C                     0.099054
     19 C                    -0.123356
     20 H                     0.097495
     21 C                    -0.093126
     22 H                     0.084572
     23 C                    -0.069911
     24 H                     0.096501
     25 C                    -0.096607
     26 H                     0.093109
     27 C                    -0.110267
     28 H                     0.087311
     29 C                    -0.008992
     30 C                    -0.005072
     31 C                    -0.001809
     32 C                    -0.017622
     33 C                    -0.000896
     34 C                    -0.001746
     35 C                    -0.012889
     36 C                    -0.002817
     37 C                    -0.018064
     38 C                     0.014613
     39 C                    -0.081015
     40 C                     0.025281
     41 C                     0.006755
     42 C                    -0.016675
     43 C                     0.036358
     44 C                    -0.010277
     45 C                    -0.062662
     46 C                     0.023901
     47 C                     0.028033
     48 C                    -0.000475
     49 C                     0.000561
     50 C                     0.001700
     51 C                    -0.002123
     52 C                     0.016426
     53 C                     0.006133
     54 C                     0.004534
     55 C                    -0.005878
     56 C                    -0.007341
     57 C                     0.005199
     58 C                    -0.014177
     59 C                     0.001773
     60 C                     0.016384
     61 C                     0.018888
     62 C                    -0.018475
     63 C                    -0.009875
     64 C                     0.004930
     65 C                     0.031846
     66 C                     0.017986
     67 C                     0.013728
     68 C                    -0.024680
     69 C                    -0.006753
     70 C                     0.016306
     71 C                     0.028802
     72 C                     0.027730
     73 C                    -0.033123
     74 C                    -0.014615
     75 C                    -0.019672
     76 C                    -0.008937
     77 C                    -0.017496
     78 C                    -0.027215
     79 C                    -0.011297
     80 C                    -0.016152
     81 C                     0.020052
     82 C                     0.004252
     83 C                     0.006572
     84 C                     0.019391
     85 C                    -0.014182
     86 C                    -0.014039
     87 C                     0.012003
     88 C                    -0.010671
     89 O                    -0.448323
     90 C                    -0.097016
     91 H                     0.121763
     92 H                     0.138098
     93 H                     0.124530
     94 O                    -0.472780
     95 C                     0.599446
     96 C                    -0.258593
     97 H                     0.123712
     98 H                     0.133509
     99 C                    -0.205850
    100 H                     0.110253
    101 H                     0.118230
    102 C                    -0.183619
    103 H                     0.110657
    104 H                     0.115916
    105 C                     0.044597
    106 C                     0.083551
    107 C                    -0.112081
    108 H                     0.092619
    109 C                    -0.080266
    110 H                     0.095395
    111 C                    -0.086646
    112 H                     0.089518
    113 C                    -0.098257
    114 H                     0.090514
    115 C                    -0.100034
    116 H                     0.099708
    117 C                    -0.025707
    118 C                    -0.008652
    119 C                    -0.018606
    120 C                     0.019690
    121 C                    -0.033368
    122 C                    -0.023865
    123 C                    -0.028054
    124 C                    -0.042147
    125 C                     0.000131
    126 C                    -0.015564
    127 C                    -0.101312
    128 C                     0.012726
    129 C                     0.010494
    130 C                    -0.006285
    131 C                     0.024869
    132 C                     0.012728
    133 C                    -0.095067
    134 C                     0.047659
    135 C                     0.015523
    136 C                    -0.007434
    137 C                     0.000267
    138 C                    -0.009966
    139 C                     0.048647
    140 C                    -0.006629
    141 C                     0.024699
    142 C                    -0.003447
    143 C                     0.021134
    144 C                     0.041979
    145 C                    -0.008599
    146 C                     0.007355
    147 C                     0.019313
    148 C                     0.044621
    149 C                    -0.024065
    150 C                    -0.016276
    151 C                    -0.019798
    152 C                     0.003365
    153 C                    -0.006297
    154 C                     0.016746
    155 C                    -0.014737
    156 C                    -0.027439
    157 C                     0.004448
    158 C                     0.014780
    159 C                    -0.022498
    160 C                    -0.010466
    161 C                     0.027772
    162 C                     0.006166
    163 C                     0.008567
    164 C                     0.010707
    165 C                    -0.016016
    166 C                    -0.049724
    167 C                    -0.001811
    168 C                     0.009938
    169 C                    -0.001499
    170 C                     0.004237
    171 C                     0.022999
    172 C                    -0.013677
    173 C                    -0.005044
    174 C                     0.005865
    175 C                     0.012740
    176 C                     0.015633
  ----------------------------------------
  Sum of atomic charges =     0.000000

 -----------------------------------------------------------------
                    Cartesian Multipole Moments
 -----------------------------------------------------------------
    Charge (ESU x 10^10)
                 0.0000
    Dipole Moment (Debye)
         X       3.1180      Y       1.2927      Z       2.8630
       Tot       4.4260
    Quadrupole Moments (Debye-Ang)
        XX    -751.5661     XY     -12.4719     YY    -791.2239
        XZ     -21.0306     YZ      16.7458     ZZ    -818.7774
    Octopole Moments (Debye-Ang^2)
       XXX     651.4210    XXY     -94.1459    XYY      89.3844
       YYY     281.5255    XXZ     156.0148    XYZ     -98.3665
       YYZ      44.5632    XZZ      88.9454    YZZ      15.8648
       ZZZ      36.9180
    Hexadecapole Moments (Debye-Ang^3)
      XXXX -200314.8567   XXXY    -627.7683   XXYY  -39429.4888
      XYYY    -566.9399   YYYY  -32108.1985   XXXZ   -2755.2066
      XXYZ    1135.9175   XYYZ    -322.1230   YYYZ      20.3535
      XXZZ  -38972.0427   XYZZ    -117.6181   YYZZ   -9002.4082
      XZZZ    -594.5498   YZZZ     264.6877   ZZZZ  -20431.9356
 -----------------------------------------------------------------
Archival summary:
1\1\mn366\SP\ProcedureUnspecified\6-31G**\428\afmv_a\MonOct801:05:122018MonOct801:05:122018\0\\#,ProcedureUnspecified,6-31G**,\\0,1\C\C,1,1.37907\C,1,1.38668,2,106.416\C,1,1.39209,2,124.919,3,-156.626,0\C,4,1.38959,1,119.338,2,141.532,0\C,2,1.39298,1,110.546,3,9.63639,0\C,3,1.39397,1,108.088,2,-13.3126,0\C,6,1.40042,2,125.259,1,144.019,0\C,7,1.41122,3,122.421,1,-141.326,0\C,5,1.41281,4,118.022,1,4.30137,0\C,10,1.39599,5,122.29,4,1.83948,0\C,9,1.41541,7,121.13,3,9.4508,0\C,12,1.39254,9,108.907,7,136.903,0\C,13,1.39143,12,107.307,9,2.30286,0\C,14,1.39752,13,121.085,12,-149.536,0\C,15,1.39635,14,115.05,13,133.669,0\C,12,1.4024,9,117.676,7,-0.307446,0\C,16,1.41155,15,123.805,14,9.90242,0\C,18,1.39143,16,121.568,15,-2.64263,0\C,19,1.40075,18,113.679,16,-4.74284,0\C,16,1.41439,15,109.807,14,-138.039,0\C,21,1.40082,16,120.737,15,147.323,0\C,22,1.38411,21,120.585,16,2.47648,0\C,21,1.40173,16,109.55,15,3.68773,0\C,24,1.40975,21,120.339,16,141.301,0\C,25,1.36564,24,118.134,21,-136.099,0\C,25,1.38647,24,120.522,21,4.47805,0\C,26,1.38957,25,122.736,24,-2.32457,0\C,26,1.41122,25,109.552,24,144.583,0\C,29,1.38973,26,104.098,25,-0.651362,0\C,29,1.40279,26,122.864,25,-138.967,0\C,31,1.36989,29,120.041,26,0.0694762,0\C,31,1.3846,29,122.931,26,133.045,0\C,33,1.40115,31,120.34,29,-1.73571,0\C,32,1.40497,31,113.678,29,145.751,0\C,35,1.3557,32,104.811,31,-5.24694,0\C,35,1.39683,32,118.572,31,-143.027,0\C,37,1.41099,35,120.025,32,-7.7469,0\C,36,1.41163,35,119.546,32,-141.938,0\C,39,1.40573,36,120.424,35,138.954,0\C,40,1.38903,39,109.646,36,-141.318,0\C,40,1.39754,39,119.527,36,-0.230635,0\C,23,1.41773,22,109.747,21,-147.664,0\C,43,1.41231,23,116.485,22,136.51,0\C,44,1.40423,43,122.473,23,11.8163,0\C,45,1.39228,44,106.651,43,-146.08,0\C,45,1.39511,44,121.876,43,-0.390298,0\C,46,1.39698,45,110.117,44,-7.20006,0\C,44,1.40602,43,122.125,23,-135.033,0\C,28,1.41781,26,118.939,25,2.9797,0\C,50,1.39576,28,121.238,26,-2.55446,0\C,49,1.41782,44,121.198,43,2.47135,0\C,18,1.42271,16,121.524,15,-146.352,0\C,13,1.4238,12,123.84,9,-140.302,0\C,54,1.40192,13,117.381,12,1.96851,0\C,55,1.37523,54,109.598,13,144.039,0\C,22,1.42726,21,122.72,16,-143.13,0\C,30,1.44272,29,120.508,26,-139.045,0\C,57,1.50345,22,109.77,21,153.179,0\C,59,1.45656,57,127.532,22,155.953,0\C,60,1.4822,59,114.083,57,-146.139,0\C,61,1.3754,60,117.232,59,58.3634,0\H,62,1.08633,61,122.386,60,-8.8664,0\C,62,1.37987,61,122.202,60,-168.344,0\H,64,1.08519,62,123.677,61,166.529,0\C,64,1.38831,62,118.796,61,-8.15829,0\H,66,1.08576,64,121.017,62,179.112,0\C,61,1.39449,60,122.004,59,-117.819,0\H,68,1.08584,61,126.126,60,-7.86141,0\C,68,1.38814,61,118.346,60,170.417,0\H,70,1.08579,68,118.311,61,175.887,0\C,60,1.49842,59,116.157,57,-9.30698,0\H,72,1.09655,60,118.938,59,-79.3953,0\H,72,1.09754,60,110.33,59,37.8921,0\C,58,1.50515,30,126.995,29,149.638,0\C,72,1.55794,60,113.524,59,161.276,0\H,76,1.09695,72,112.42,60,63.1145,0\H,76,1.09728,72,112.25,60,-54.3402,0\C,76,1.5513,72,110.981,60,-163.117,0\H,79,1.09731,76,103.749,72,176.903,0\H,79,1.09732,76,105.034,72,-70.5981,0\C,79,1.54274,76,118.576,72,60.631,0\O,82,1.22772,79,124.171,76,99.395,0\O,82,1.35451,79,112.564,76,-94.3074,0\C,84,1.42268,82,119.657,79,175.274,0\H,85,1.09676,84,109.88,82,-70.5006,0\H,85,1.09709,84,110.19,82,44.6621,0\H,85,1.09758,84,112.755,82,171.835,0\C,2,3.40549,1,83.1036,3,-105.115,0\C,89,1.40787,2,107.188,1,-153.474,0\C,90,1.41546,89,120.817,2,-113.176,0\C,91,1.38977,90,119.898,89,1.3853,0\C,92,1.40808,91,118.862,90,-133.706,0\C,93,1.37541,92,122.143,91,-3.0739,0\C,94,1.37751,93,119.542,92,4.9376,0\C,94,1.39042,93,123.376,92,143.895,0\C,96,1.38214,94,110.024,93,-140.707,0\C,97,1.37956,96,108.25,94,0.744999,0\C,98,1.38428,97,123.782,96,148.663,0\C,99,1.37187,98,116.894,97,-8.35023,0\C,93,1.39915,92,109.597,91,144.992,0\C,101,1.38154,93,109.873,92,-3.88227,0\C,102,1.38934,101,121.582,93,-138.819,0\C,100,1.39962,99,105.446,98,-138.172,0\C,104,1.36411,100,117.69,99,145.598,0\C,105,1.39197,104,119.748,100,-140.878,0\C,106,1.37703,105,109.466,104,144.502,0\C,107,1.38381,106,107.316,105,-0.428663,0\C,107,1.38749,106,121.038,105,-143.393,0\C,109,1.39306,107,118.431,106,131.373,0\C,104,1.39325,100,108.729,99,1.90485,0\C,111,1.36603,104,109.263,100,1.24958,0\C,111,1.37657,104,119.223,100,146.122,0\C,105,1.39682,104,122.222,100,-0.117888,0\C,100,1.40019,99,124.109,98,7.99143,0\C,115,1.35694,100,123.153,99,-142.074,0\C,113,1.40201,111,120.873,104,-2.65125,0\C,117,1.3835,113,109.192,111,-137.37,0\C,118,1.37992,117,123.654,113,145.57,0\C,95,1.40572,94,120.104,93,-3.84075,0\C,120,1.38501,95,117.852,94,136.431,0\C,121,1.38159,120,110.016,95,-141.157,0\C,103,1.40691,102,118.275,101,132.968,0\C,92,1.40836,91,121.568,90,-1.49191,0\C,115,1.41262,100,117.325,99,-6.543,0\C,125,1.36235,115,111.915,100,-142.092,0\C,110,1.41316,109,120.051,107,6.42713,0\C,127,1.32514,110,122.962,109,1.73487,0\C,126,1.41377,125,121.516,115,138.33,0\C,129,1.39622,126,116.623,125,9.59556,0\C,101,1.41411,93,117.69,92,-145.425,0\C,131,1.41141,101,119.765,93,142.535,0\C,132,1.37406,131,119.499,101,-9.04699,0\C,133,1.40199,132,119.694,131,-128.92,0\C,134,1.34923,133,120.266,132,-2.82161,0\C,135,1.39387,134,125.622,133,-4.0214,0\C,132,1.40745,131,106.882,101,-145.664,0\C,89,1.41624,2,99.1006,1,82.8839,0\C,138,1.38185,89,107.783,2,-98.0393,0\C,139,1.41268,138,109.445,89,-3.29375,0\C,140,1.40535,139,107.234,138,2.22214,0\C,113,1.41665,111,119.78,104,-140.289,0\C,142,1.36963,113,107.495,111,138.676,0\C,123,1.42527,103,107.223,102,-144.693,0\C,144,1.40855,123,121.306,103,145.336,0\C,145,1.41668,144,119.386,123,0.9262,0\C,126,1.46949,125,108.65,115,-5.46308,0\C,136,1.4716,135,112.71,134,148.04,0\C,147,1.50751,126,130.166,125,-150.678,0\C,149,1.53991,147,121.107,126,11.1217,0\C,150,1.35794,149,119.567,147,18.9855,0\H,151,1.08563,150,122.068,149,9.58819,0\C,150,1.39066,149,121.034,147,-144.601,0\H,153,1.08594,150,118.364,149,-19.2361,0\C,153,1.4103,150,122.705,149,154.396,0\H,155,1.08571,153,119.242,150,-169.848,0\C,151,1.41784,150,119.727,149,-158.626,0\H,157,1.08571,151,119.959,150,-178.847,0\C,157,1.36129,151,124.479,150,1.87841,0\H,159,1.08608,157,122.42,151,173.424,0\C,149,1.56392,147,111.982,126,148.597,0\H,161,1.09659,149,106.101,147,178.746,0\H,161,1.09769,149,114.659,147,58.6916,0\C,161,1.55211,149,114.439,147,-75.5739,0\H,164,1.09709,161,106.425,149,40.2684,0\H,164,1.09732,161,107.775,149,-78.2465,0\C,164,1.52141,161,113.404,149,165.129,0\H,167,1.09687,164,114.32,161,173.235,0\H,167,1.09712,164,111.084,161,44.4778,0\C,167,1.53822,164,107.842,161,-75.8082,0\O,170,1.22757,167,126.867,164,89.9287,0\O,170,1.4094,167,111.869,164,-84.8233,0\C,172,1.48186,170,117.51,167,169.214,0\H,173,1.09632,172,103.911,170,60.3534,0\H,173,1.09688,172,110.469,170,168.42,0\H,173,1.09716,172,113.792,170,-61.2749,0\\\@

 Total job time:  844.16s(wall), 7164.95s(cpu) 
 Mon Oct  8 01:05:12 2018

        *************************************************************
        *                                                           *
        *  Thank you very much for using Q-Chem.  Have a nice day.  *
        *                                                           *
        *************************************************************


