
Running Job 1 of 1 ./10/11.qcin
qchem ./10/11.qcin_18588.0 /tmpu/cab_g/afmv_a/scratch_qchem/qchem18588/ 1
/tmpu/appuserlic/qchem4.4/serial-multicore/exe/qcprog.exe_s ./10/11.qcin_18588.0 /tmpu/cab_g/afmv_a/scratch_qchem/qchem18588/
Check license passed

                  Welcome to Q-Chem
     A Quantum Leap Into The Future Of Chemistry


 Q-Chem 4.4, Q-Chem, Inc., Pleasanton, CA (2016)

 Y. Shao,  Z. Gan,  E. Epifanovsky,  A. T. B. Gilbert,  M. Wormit,  
 J. Kussmann,  A. W. Lange,  A. Behn,  J. Deng,  X. Feng,  D. Ghosh,  
 M. Goldey,  P. R. Horn,  L. D. Jacobson,  I. Kaliman,  F. Rob,  
 R. Z. Khaliullin,  T. Kus,  A. Landau,  J. Liu,  E. I. Proynov,  Y. M. Rhee,  
 R. M. Richard,  M. A. Rohrdanz,  R. P. Steele,  E. J. Sundstrom,  
 H. L. Woodcock III,  P. M. Zimmerman,  D. Zuev,  B. Albrecht,  E. Alguire,  
 B. Austin,  S. A. Baeppler,  G. J. O. Beran,  Y. A. Bernard,  E. Berquist,  
 K. Brandhorst,  K. B. Bravaya,  S. T. Brown,  D. Casanova,  C.-M. Chang,  
 Y. Chen,  S. H. Chien,  K. D. Closser,  M. P. Coons,  D. L. Crittenden,  
 S. Dasgupta,  M. Diedenhofen,  R. A. DiStasio Jr.,  H. Do,  A. D. Dutoi,  
 R. G. Edgar,  P.-T. Fang,  S. Fatehi,  Q. Feng,  L. Fusti-Molnar,  
 A. Ghysels,  A. Golubeva-Zadorozhnaya,  J. Gomes,  A. Gunina,  
 M. W. D. Hanson-Heine,  P. H. P. Harbach,  A. W. Hauser,  J. E. Herr,  
 E. G. Hohenstein,  Z. C. Holden,  K. Hui,  T.-C. Jagau,  H. Ji,  B. Kaduk,  
 K. Khistyaev,  Jaehoon Kim,  Jihan Kim,  R. A. King,  P. Klunzinger,  
 K. Koh,  D. Kosenkov,  T. Kowalczyk,  C. M. Krauter,  A. Kunitsa,  
 K. U. Lao,  A. Laurent,  K. V. Lawler,  J. Lee,  D. Lefrancois,  S. Lehtola,  
 S. V. Levchenko,  C. Y. Lin,  Y.-S. Lin,  F. Liu,  E. Livshits,  
 R. C. Lochan,  A. Luenser,  P. Manohar,  S. F. Manzer,  S.-P. Mao,  Y. Mao,  
 N. Mardirossian,  A. V. Marenich,  L. A. Martinez-Martinez,  S. A. Maurer,  
 N. J. Mayhall,  J.-M. Mewes,  A. F. Morrison,  K. Nanda,  T. S. Nguyen-Beck,  
 C. M. Oana,  R. Olivares-Amaya,  D. P. O'Neill,  J. A. Parkhill,  
 T. M. Perrine,  R. Peverati,  P. A. Pieniazek,  F. Plasser,  A. Prociuk,  
 D. R. Rehn,  E. Rosta,  N. J. Russ,  N. Sergueev,  S. M. Sharada,  
 S. Sharma,  D. W. Small,  A. Sodt,  T. Stauch,  T. Stein,  D. Stuck,  
 Y.-C. Su,  A. J. W. Thom,  T. Tsuchimochi,  L. Vogt,  O. Vydrov,  T. Wang,  
 M. A. Watson,  J. Wenzel,  A. White,  C. F. Williams,  V. Vanovschi,  
 K. Yao,  S. Yeganeh,  S. R. Yost,  Z.-Q. You,  I. Y. Zhang,  X. Zhang,  
 Y. Zhao,  B. R. Brooks,  G. K. L. Chan,  D. M. Chipman,  C. J. Cramer,  
 W. A. Goddard III,  M. S. Gordon,  W. J. Hehre,  A. Klamt,  
 H. F. Schaefer III,  M. W. Schmidt,  C. D. Sherrill,  D. G. Truhlar,  
 A. Warshel,  X. Xu,  A. Aspuru-Guzik,  R. Baer,  A. T. Bell,  N. A. Besley,  
 J.-D. Chai,  A. Dreuw,  B. D. Dunietz,  T. R. Furlani,  S. R. Gwaltney,  
 C.-P. Hsu,  Y. Jung,  J. Kong,  D. S. Lambrecht,  W. Liang,  C. Ochsenfeld,  
 V. A. Rassolov,  L. V. Slipchenko,  J. E. Subotnik,  T. Van Voorhis,  
 J. M. Herbert,  A. I. Krylov,  P. M. W. Gill,  M. Head-Gordon

 Contributors to earlier versions of Q-Chem not listed above: 
 R. D. Adamson,  J. Baker,  E. F. C. Byrd,  A. K. Chakraborty,  C.-L. Cheng,  
 H. Dachsel,  R. J. Doerksen,  G. Hawkins,  A. Heyden,  S. Hirata,  
 G. Kedziora,  F. J. Keil,  C. Kelley,  P. P. Korambath,  W. Kurlancheek,  
 A. M. Lee,  M. S. Lee,  D. Liotard,  I. Lotan,  P. E. Maslen,  N. Nair,  
 D. Neuhauser,  R. Olson,  B. Peters,  J. Ritchie,  N. E. Schultz,  
 N. Shenvi,  A. C. Simmonett,  K. S. Thanthiriwatte,  Q. Wu,  W. Zhang

 Please cite Q-Chem as follows:
 Y. Shao et al., Mol. Phys. 113, 184-215 (2015)
 DOI: 10.1080/00268976.2014.952696

 Q-Chem 4.4.2 for Intel X86 Linux

 Parts of Q-Chem use Armadillo 5.200.1 (Boston Tea Smuggler).
 http://arma.sourceforge.net/

 Q-Chem begins on Sun Oct  7 22:41:32 2018  

Host: 
0

     Scratch files written to /tmpu/cab_g/afmv_a/scratch_qchem/qchem18588//
 Dec716 11556_ 22328  22283 4050   
Processing $rem in /tmpu/appuserlic/qchem4.4/serial-multicore/config/preferences.
 MEM_TOTAL  2000 
FILE_GEOM_ORG=        593

Checking the input file for inconsistencies... 	...done.

--------------------------------------------------------------
User input:
--------------------------------------------------------------
$comment
SP
$end

$rem
MEM_STATIC 5000
MEM_TOTAL 20000
JOBTYPE SP
EXCHANGE B3LYP
BASIS 6-31g(d,p)
$end

$molecule
0 1
O         -18.761000      0.491000      9.280000
C         -20.028000      1.140000      8.984000
H         -20.517000      1.247000      9.960000
H         -20.668000      0.646000      8.243000
H         -19.929000      2.149000      8.565000
O         -17.778000      1.030000      7.292000
C         -17.711000      0.672000      8.439000
C         -16.401000      0.524000      9.223000
H         -16.231000      1.447000      9.791000
H         -15.547000      0.438000      8.540000
C         -16.399000     -0.629000     10.160000
H         -17.318000     -0.561000     10.756000
H         -16.497000     -1.524000      9.534000
C         -15.038000     -0.737000     10.914000
H         -14.274000     -0.506000     10.162000
H         -15.000000      0.145000     11.565000
C         -14.740000     -1.919000     11.790000
C         -15.769000     -2.179000     12.822000
C         -16.956000     -2.934000     12.489000
H         -17.113000     -3.360000     11.503000
C         -17.866000     -3.239000     13.556000
H         -18.626000     -3.996000     13.383000
C         -17.749000     -2.579000     14.797000
H         -18.497000     -2.734000     15.570000
C         -16.743000     -1.600000     14.981000
H         -16.713000     -1.053000     15.919000
C         -15.681000     -1.530000     14.041000
H         -14.916000     -0.868000     14.436000
C         -10.506000     -4.318000     14.453000
C         -11.909000     -6.230000     13.905000
C          -9.172000     -7.886000     10.584000
C          -9.446000     -1.529000     10.361000
C         -11.072000     -6.384000      7.925000
C         -11.765000     -4.879000     14.234000
C          -9.313000     -3.094000      8.046000
C          -8.608000     -6.942000     12.750000
C         -14.056000     -5.402000     10.498000
C         -10.550000     -1.620000      9.532000
C         -14.023000     -3.107000     11.159000
C         -13.751000     -4.634000      9.359000
C         -11.741000     -2.990000      8.233000
C          -9.501000     -4.430000      7.656000
C         -13.492000     -4.975000     12.816000
C          -8.796000     -6.567000      8.800000
C         -13.261000     -2.196000     12.038000
C         -12.106000     -1.490000     11.437000
C         -10.072000     -7.128000      8.551000
C          -7.298000     -4.002000     11.408000
C          -7.441000     -6.174000     10.789000
C          -7.626000     -6.124000     12.135000
C          -9.436000     -6.418000     13.769000
C         -10.983000     -1.454000     12.291000
C         -14.100000     -4.538000     11.597000
C         -10.756000     -6.971000     13.626000
C         -10.486000     -2.374000      8.346000
C         -13.022000     -6.285000     12.973000
C         -12.893000     -5.088000      8.362000
C          -8.743000     -2.257000     12.289000
C          -9.428000     -7.771000     11.993000
C         -13.648000     -3.289000      9.772000
C          -8.368000     -4.260000     13.558000
C         -11.883000     -4.277000      7.767000
C         -13.484000     -6.734000     10.653000
C          -7.722000     -4.381000      9.119000
C          -8.250000     -3.074000      9.006000
C         -12.646000     -7.184000      9.614000
C          -9.683000     -1.501000     11.713000
C         -11.820000     -1.622000     10.038000
C          -7.832000     -2.679000     11.349000
C         -12.630000     -2.683000     13.310000
C         -11.796000     -7.882000     11.644000
C         -12.584000     -2.487000      9.245000
C         -12.342000     -6.394000      8.519000
C          -9.002000     -2.985000     13.443000
C         -10.299000     -7.937000      9.718000
C          -9.330000     -5.066000     14.194000
C          -8.223000     -6.994000     10.009000
C         -12.958000     -7.131000     11.871000
C         -11.620000     -7.982000     10.228000
C         -12.766000     -4.096000     13.640000
C         -11.312000     -2.187000     13.471000
C          -7.180000     -4.842000     10.336000
C         -10.719000     -7.817000     12.515000
C         -10.753000     -5.053000      7.489000
C          -8.332000     -2.236000     10.115000
C          -8.530000     -5.218000      8.360000
C         -10.286000     -2.998000     14.010000
C          -7.525000     -4.794000     12.565000
O         -11.034000      8.239000     10.009000
C         -10.763000      9.326000      9.044000
H         -11.771000      9.615000      8.720000
H         -10.219000      8.996000      8.150000
H         -10.305000     10.134000      9.628000
O          -8.906000      7.870000     10.510000
C         -10.061000      7.553000     10.618000
C         -10.545000      6.505000     11.546000
H         -10.005000      6.710000     12.479000
H         -10.060000      5.583000     11.205000
C         -12.052000      6.379000     11.852000
H         -12.126000      5.694000     12.706000
H         -12.325000      7.342000     12.302000
C         -12.980000      5.997000     10.714000
H         -13.950000      6.050000     11.224000
H         -13.006000      6.738000      9.906000
C         -12.724000      4.641000     10.087000
C         -12.858000      3.554000     11.108000
C         -14.126000      3.356000     11.713000
H         -14.942000      4.015000     11.431000
C         -14.229000      2.397000     12.723000
H         -15.141000      2.092000     13.228000
C         -13.171000      1.556000     13.032000
H         -13.289000      0.692000     13.678000
C         -11.882000      1.823000     12.446000
H         -10.999000      1.283000     12.775000
C         -11.734000      2.855000     11.520000
H         -10.759000      3.014000     11.069000
C         -10.099000      1.421000      6.502000
C         -12.469000      0.659000      6.326000
C         -13.210000      2.512000      2.249000
C          -9.786000      6.396000      5.866000
C         -14.878000      5.313000      3.567000
C         -11.364000      1.160000      7.138000
C         -11.815000      7.224000      4.096000
C         -11.292000      1.343000      3.092000
C         -14.941000      3.650000      7.229000
C         -10.984000      6.940000      6.359000
C         -13.273000      4.501000      8.731000
C         -14.809000      5.015000      7.075000
C         -13.196000      7.153000      6.084000
C         -12.900000      6.796000      3.315000
C         -13.290000      2.129000      7.866000
C         -13.108000      4.731000      2.000000
C         -11.793000      4.391000      8.939000
C         -10.953000      5.400000      8.237000
C         -14.322000      4.456000      2.605000
C          -9.295000      4.229000      3.180000
C         -10.986000      3.461000      1.858000
C         -10.445000      2.368000      2.575000
C         -11.028000      0.725000      4.340000
C          -9.790000      4.787000      7.699000
C         -14.008000      3.299000      8.269000
C         -12.272000      0.563000      4.978000
C         -11.955000      7.398000      5.490000
C         -13.580000      1.306000      6.773000
C         -15.045000      5.584000      5.769000
C          -8.690000      4.447000      5.559000
C         -12.634000      1.440000      2.946000
C         -13.807000      5.550000      7.839000
C          -9.116000      2.240000      4.640000
C         -14.309000      6.668000      5.313000
C         -15.339000      2.822000      6.126000
C         -10.987000      5.849000      2.435000
C         -10.648000      6.646000      3.544000
C         -15.569000      3.393000      4.885000
C          -9.180000      5.326000      6.543000
C         -11.615000      6.423000      7.492000
C          -9.018000      5.009000      4.344000
C         -11.095000      3.088000      8.571000
C         -14.468000      1.480000      4.534000
C         -13.012000      6.606000      7.323000
C         -15.496000      4.810000      4.711000
C          -8.722000      3.046000      5.758000
C         -14.419000      3.069000      2.702000
C          -9.928000      1.222000      5.101000
C         -12.419000      3.562000      1.718000
C         -14.662000      1.655000      5.894000
C         -15.011000      2.540000      3.874000
C         -11.891000      1.974000      8.118000
C          -9.932000      3.418000      7.871000
C         -10.237000      4.624000      2.210000
C         -13.248000      0.973000      4.063000
C         -14.140000      6.460000      3.937000
C          -9.702000      6.212000      4.501000
C         -12.374000      5.869000      2.391000
C          -9.367000      2.535000      6.882000
C          -9.410000      2.854000      3.413000
$end

--------------------------------------------------------------
 ----------------------------------------------------------------
             Standard Nuclear Orientation (Angstroms)
    I     Atom           X                Y                Z
 ----------------------------------------------------------------
    1      O      -0.5509355291    -5.4043437648    -3.9540629909
    2      C      -1.3628595668    -6.3604811242    -4.6893770102
    3      H      -1.0025175960    -7.3413606182    -4.3559477338
    4      H      -1.3654676120    -6.2605401464    -5.7814951352
    5      H      -2.4331614134    -6.3170232017    -4.4527161427
    6      O      -1.9363765788    -3.6273553981    -4.3171324641
    7      C      -1.0441531363    -4.1629623140    -3.7127116172
    8      C      -0.4127693956    -3.6060565387    -2.4305764724
    9      H      -0.9050036946    -4.0754075636    -1.5698395728
   10      H      -0.6130255767    -2.5319494899    -2.3336615111
   11      C       1.0511373282    -3.8431739618    -2.3403853879
   12      H       1.2175575911    -4.9090843172    -2.5417318812
   13      H       1.4959895873    -3.2928499785    -3.1780935596
   14      C       1.6372266558    -3.2411649331    -1.0263894102
   15      H       1.1223131252    -2.2818599050    -0.8953973527
   16      H       1.2112006664    -3.8478973403    -0.2179670933
   17      C       3.1197492623    -3.2112914279    -0.7928550557
   18      C       3.7790120416    -4.5290587006    -0.9354278537
   19      C       4.1613791843    -5.0113043543    -2.2435247529
   20      H       4.0166225233    -4.4208926564    -3.1428470177
   21      C       4.8868248599    -6.2480240189    -2.3057103041
   22      H       5.3870240065    -6.5045125523    -3.2355449378
   23      C       4.9559527292    -7.0862398121    -1.1734622651
   24      H       5.4174913722    -8.0672787160    -1.2483137844
   25      C       4.2909165853    -6.7134009106     0.0194547819
   26      H       4.2969640768    -7.4042993404     0.8576527224
   27      C       3.8440845693    -5.3728435598     0.1594231305
   28      H       3.5380048522    -5.2188363600     1.1900011184
   29      C       6.8758529135    -0.9527322185     2.6077510167
   30      C       8.1259224570    -1.1459852830     0.5282230920
   31      C       8.0986467507     3.3583781784    -0.4579370590
   32      C       2.5012997285     1.5125022356     1.9501124248
   33      C       5.3084327607     3.1015233863    -2.7129351755
   34      C       7.1431265892    -1.6113626318     1.4066957469
   35      C       2.6882363199     3.4332048204    -0.0752505777
   36      C       8.4277429819     2.2237548620     1.6645882296
   37      C       5.5167487753    -0.9531836951    -2.6431933496
   38      C       2.0695989577     1.2039710678     0.6723092463
   39      C       3.8812738074    -1.9638160343    -1.2258440969
   40      C       4.3070665042    -0.2571940682    -2.8232967703
   41      C       2.4923613051     1.4678722574    -1.5035607314
   42      C       3.6237061001     3.8978076562    -1.0140692478
   43      C       6.3668029540    -2.0344718184    -0.6477553305
   44      C       6.0957714283     4.3396776489    -0.7568263226
   45      C       3.6053522009    -2.1709185383     0.2108819800
   46      C       2.7908978433    -1.1405886496     0.8955325623
   47      C       6.3464924391     3.6862104063    -1.9876868093
   48      C       5.3325057214     3.1904354608     2.9474362024
   49      C       6.8743974557     4.0589845042     1.5369800921
   50      C       7.4956711310     3.1012126873     2.2753114317
   51      C       8.4234441645     0.8461003826     1.9817169978
   52      C       3.2840498080    -0.8173856115     2.1777501475
   53      C       5.3255812269    -1.8843837059    -1.6172525577
   54      C       8.7171656094     0.0939578838     0.7914786292
   55      C       2.1239839131     2.1715343830    -0.3475297154
   56      C       7.6105440499    -1.4097355938    -0.8041578111
   57      C       4.2648091869     1.1103225757    -3.0770713705
   58      C       4.1583644146     1.0910487180     3.2984041435
   59      C       8.6900016761     2.2914524070     0.3010166620
   60      C       3.3684415056    -0.8019326228    -1.9219388952
   61      C       6.5510928731     1.1728211800     3.4749226642
   62      C       3.3511662364     1.9988150617    -2.4385702653
   63      C       6.7868239116    -0.2444671844    -2.7435081322
   64      C       4.4674352324     4.3461962751     1.0822799116
   65      C       3.2436860482     3.6524043974     1.2268232086
   66      C       6.7182704289     1.1320175706    -3.0348071866
   67      C       3.1402023398     0.5182047228     2.6487059468
   68      C       2.2216809472    -0.0523565294     0.1551515944
   69      C       4.1217749776     2.4553836956     3.1285327741
   70      C       4.7181961495    -2.3214656664     1.2069883540
   71      C       8.4132190386     0.7516695474    -1.5139230386
   72      C       2.5013308638     0.0889896264    -1.2096147550
   73      C       5.5118163991     1.7948100538    -3.1787370244
   74      C       5.3450572959     0.4094985053     3.5351113739
   75      C       7.6119937925     3.0435287809    -1.7566767386
   76      C       7.4851111999     0.2944883822     2.8955115308
   77      C       7.1204559295     4.1664786459     0.1878232306
   78      C       7.7863860413    -0.4667340924    -1.8111552105
   79      C       7.7988214561     1.7584808381    -2.3231687587
   80      C       6.0876299964    -2.2268139344     0.7174406151
   81      C       4.4823724948    -1.5656882665     2.3826790981
   82      C       5.5228069025     4.1544035395     1.9970368106
   83      C       8.8862295052     1.0220516832    -0.2387957511
   84      C       3.9710837740     3.2306404868    -2.2047575864
   85      C       3.0767623261     2.6939230468     2.2229652525
   86      C       4.7365510354     4.4263386540    -0.2781126361
   87      C       5.5362287878    -0.8907542295     3.0420492214
   88      C       6.5783516431     2.5489908472     3.1795110759
   89      O      -6.2007260958    -2.1951562208     4.8805539142
   90      C      -7.5994685195    -1.7177412922     4.9233279485
   91      H      -8.0947748800    -2.3620886020     4.1857310711
   92      H      -7.7222533761    -0.6823551591     4.5813170795
   93      H      -7.9609813051    -1.9481630225     5.9332281080
   94      O      -5.4546375869    -0.7927063890     6.4271735849
   95      C      -5.2233184141    -1.6367728969     5.6024183663
   96      C      -3.8943920708    -2.2630017172     5.4139077869
   97      H      -3.5548100470    -2.4722707730     6.4361624085
   98      H      -3.2342099467    -1.4374618529     5.1236777135
   99      C      -3.7563511949    -3.5432464950     4.5639201249
  100      H      -2.7427542012    -3.9183969673     4.7533937574
  101      H      -4.3791878668    -4.2860908954     5.0783661153
  102      C      -4.0794554988    -3.4535886279     3.0841508606
  103      H      -3.9477854192    -4.5022168448     2.7894461730
  104      H      -5.1262207226    -3.1967087098     2.8818731456
  105      C      -3.2097110832    -2.5080567958     2.2798404689
  106      C      -1.7713591931    -2.9160074956     2.3616088413
  107      C      -1.4007224117    -4.1753515635     1.8233394897
  108      H      -2.1768489088    -4.8037475652     1.3962480175
  109      C      -0.0753393537    -4.5891365293     1.9734452918
  110      H       0.3662083774    -5.4913253912     1.5600630732
  111      C       0.8908235124    -3.7442649041     2.4977040572
  112      H       1.9495692060    -3.9781776795     2.4521149154
  113      C       0.4722304554    -2.4997489506     3.0911397268
  114      H       1.1753822507    -1.8823042208     3.6423833739
  115      C      -0.8697436678    -2.1227383378     3.0540931284
  116      H      -1.1533686598    -1.1647689191     3.4797202620
  117      C      -2.0357120281     2.5062825802     0.3852753894
  118      C      -1.6659640764     1.0431555779    -1.6024534220
  119      C      -5.3777490559     2.4071699892    -3.8310709198
  120      C      -6.6055430139     1.7339638217     2.3277630975
  121      C      -7.2570604311    -0.4156586828    -2.9011375655
  122      C      -1.5950451390     1.2482313488    -0.1587483162
  123      C      -8.3784927358     1.0366331923     0.2527439947
  124      C      -3.7889965475     3.6704900666    -2.5520784066
  125      C      -3.9845793920    -2.1886978542    -1.3756927303
  126      C      -6.9232024241     0.3872038647     2.0837976960
  127      C      -3.8194440824    -2.0707606681     1.0162207610
  128      C      -5.2242457789    -2.3782002772    -0.7997751312
  129      C      -7.4281044170    -1.1699813792     0.5559933584
  130      C      -8.4948292551     0.8076869449    -1.1272630452
  131      C      -2.2194766429    -0.9046490227    -0.5506824980
  132      C      -7.4016374188     2.0136994581    -2.9676921872
  133      C      -3.4974433160    -1.0523048344     2.0673283774
  134      C      -4.6493009485    -0.2828132093     2.6128479768
  135      C      -6.9603716965     0.8164129766    -3.5036358815
  136      C      -6.0590315732     4.3134448429     0.0475944838
  137      C      -6.2065106602     4.0474446962    -2.2117157739
  138      C      -4.8606230268     4.3301624553    -1.8799385190
  139      C      -2.6060813551     3.2950557963    -1.8673268046
  140      C      -4.2979702199     1.0838006700     2.7762959014
  141      C      -3.0807264387    -2.0115278345    -0.2680146981
  142      C      -2.2477301223     2.0239725199    -2.3539022853
  143      C      -7.8358055929     0.0493856059     1.1035934926
  144      C      -2.0881477008    -0.2394564644    -1.7739361795
  145      C      -6.3920238885    -1.9333771066    -1.5233216975
  146      C      -4.9952100667     3.2847941725     2.0182166192
  147      C      -4.0571060073     2.7222887743    -3.4798287108
  148      C      -5.2152974253    -2.2313074620     0.5612051875
  149      C      -3.5981232506     4.1298250235     0.2207302384
  150      C      -7.4927336264    -1.4100469070    -0.8605611261
  151      C      -3.8629402995    -1.5972873717    -2.6780116514
  152      C      -7.9671154988     3.0355460738    -0.8290351238
  153      C      -8.0639719100     2.4048603730     0.4251041757
  154      C      -4.9991243088    -1.1873785460    -3.3563055786
  155      C      -5.2942330561     2.0830265518     2.6870490629
  156      C      -5.9591921648    -0.6201871117     2.1544138471
  157      C      -6.1186444646     3.6080259061     1.2881006010
  158      C      -2.5059015934     0.0557187242     1.7363211178
  159      C      -3.4415235950     0.3834753382    -3.6745336273
  160      C      -6.3173581626    -1.6199557624     1.2132237690
  161      C      -6.2984500369    -1.4237634119    -2.8091594853
  162      C      -3.6936174933     3.5325768994     1.5203346120
  163      C      -5.7276831464     1.0724347067    -4.1015646499
  164      C      -2.5578872486     3.5279843213    -0.4603614069
  165      C      -6.4825583907     3.0261585084    -3.1935824518
  166      C      -2.9213296593    -0.6242998118    -2.8797704447
  167      C      -4.7304452021     0.0743784953    -3.9862855039
  168      C      -1.8432998719     0.0391840260     0.4554985062
  169      C      -3.0466069528     1.2561418146     2.2033233858
  170      C      -6.9660948324     4.0753830632    -1.0035248399
  171      C      -3.1427279460     1.7232914130    -3.3866030007
  172      C      -7.9947197856    -0.4022855793    -1.6958024101
  173      C      -7.1296310988     2.6645802018     1.4540229573
  174      C      -8.1212926665     2.0140209564    -1.7557609923
  175      C      -2.7404648827     2.5183732804     1.5787565282
  176      C      -4.7694820417     4.4712753342    -0.4723002572
 ----------------------------------------------------------------
 Molecular Point Group                 C1    NOp =  1
 Largest Abelian Subgroup              C1    NOp =  1
 Nuclear Repulsion Energy = 35393.2792153543 hartrees
 There are      462 alpha and      462 beta electrons
 Requested basis set is 6-31G(d,p)
 There are 676 shells and 2360 basis functions

 Total QAlloc Memory Limit  20000 MB
 Mega-Array Size      4888 MB
 MEM_STATIC part      5000 MB
 A cutoff of  1.0D-08 yielded  39457 shell pairs
 There are    542911 function pairs
 
 -------------------------------------------------------
 OpenMP Integral Computing Module                       
 Release: version 1.0, May 2013, Q-Chem Inc. Pittsburgh 
 -------------------------------------------------------
 Integral Job Info:
 Integral job number is                      11
 Integral operator is                         1
 short-range coefficients                     0
 long-range coefficients              100000000
 Omega coefficients                           0
 if combine SR and LR in K                    0
 Integral screening is                        0
 Integral computing path is                   2
 max size of driver memory is            800000
 size of driver memory is                593474
 size of scratch memory is              2260544
 max col of scratch BK array               1296
 max len of scratch array in speh3          155
 max len of scratch index in speh4           18
 max int batch size is                      520
 min int batch size is                       52
 fixed nKL is                                52
 max L of basis functions is                  2
 order of int derivative is                   0
 number of shells is                        676
 number of basis is                        2360
 number of cartesian basis is              2360
 number of contracted shell pairs         39457
 number of primitive shell pairs         117831
 maxK2 (contraction) of shell pair           36
 max number of K2 of shell pair               1
 max number of CS2 of shell pair           7308
 max number of PS2 of shell pair          35070
 mem total for path MDJ                 1526296
 -------------------------------------------------------
 Smallest overlap matrix eigenvalue = 2.51E-04

 Scale SEOQF with 1.000000e-02/1.000000e-02/1.000000e-02

 Standard Electronic Orientation quadrupole field applied
 Nucleus-field energy     =     0.0000000830 hartrees
 Guess from superposition of atomic densities
 Warning:  Energy on first SCF cycle will be non-variational
 A restricted hybrid HF-DFT SCF calculation will be
 performed using Pulay DIIS extrapolation
 Exchange:     0.2000 Hartree-Fock + 0.0800 Slater + 0.7200 B88
 Correlation:  0.1900 VWN1RPA + 0.8100 LYP
 Using SG-1 standard quadrature grid
 SCF converges when DIIS error is below 1.0E-05
 using 16 threads for integral computing 
 -------------------------------------------------------
 OpenMP BLAS3 based DFT computing Module                
 Release: version 1.0, May 2013, Q-Chem Inc. Pittsburgh 
 -------------------------------------------------------
 ---------------------------------------
  Cycle       Energy         DIIS Error
 ---------------------------------------
    1   -5858.6322262370      1.83E-02
    2   -5803.1247565389      1.29E-03
    3   -5802.2831630672      1.80E-03
    4   -5803.8613237657      7.41E-04
    5   -5804.1887002044      3.26E-04
    6   -5804.2605175956      1.32E-04
    7   -5804.2712344510      5.11E-05
    8   -5804.2724841320      3.16E-05
    9   -5804.2732708857      8.15E-06 Convergence criterion met
 ---------------------------------------
 SCF time:  CPU 7552.29 s  wall 863.16 s
 SCF   energy in the final basis set = -5804.2732708857
 Total energy in the final basis set = -5804.2732708857
 
 --------------------------------------------------------------
 
                    Orbital Energies (a.u.)
 --------------------------------------------------------------
 
 Alpha MOs
 -- Occupied --
-19.198 -19.184 -19.141 -19.119 -10.319 -10.304 -10.252 -10.248
-10.240 -10.240 -10.236 -10.236 -10.232 -10.232 -10.232 -10.232
-10.228 -10.227 -10.226 -10.226 -10.225 -10.225 -10.225 -10.224
-10.224 -10.223 -10.223 -10.223 -10.223 -10.222 -10.222 -10.221
-10.221 -10.220 -10.220 -10.220 -10.219 -10.219 -10.219 -10.219
-10.219 -10.218 -10.218 -10.218 -10.218 -10.218 -10.218 -10.218
-10.218 -10.218 -10.218 -10.217 -10.217 -10.217 -10.217 -10.217
-10.217 -10.217 -10.217 -10.217 -10.217 -10.217 -10.216 -10.216
-10.216 -10.216 -10.216 -10.216 -10.216 -10.216 -10.216 -10.216
-10.215 -10.215 -10.215 -10.215 -10.215 -10.215 -10.214 -10.214
-10.214 -10.214 -10.214 -10.214 -10.214 -10.214 -10.213 -10.213
-10.213 -10.213 -10.213 -10.213 -10.213 -10.213 -10.213 -10.213
-10.212 -10.212 -10.212 -10.212 -10.212 -10.212 -10.212 -10.212
-10.212 -10.212 -10.212 -10.211 -10.211 -10.211 -10.211 -10.211
-10.211 -10.210 -10.210 -10.210 -10.210 -10.210 -10.209 -10.209
-10.209 -10.208 -10.208 -10.208 -10.208 -10.207 -10.207 -10.207
-10.206 -10.205 -10.205 -10.205 -10.205 -10.205 -10.204 -10.204
-10.204 -10.203 -10.202 -10.201 -10.201 -10.200 -10.198 -10.197
-10.195 -10.195 -10.195 -10.188  -1.100  -1.092  -1.020  -1.002
 -0.984  -0.983  -0.969  -0.965  -0.965  -0.964  -0.961  -0.958
 -0.939  -0.938  -0.929  -0.926  -0.926  -0.924  -0.923  -0.921
 -0.920  -0.918  -0.900  -0.897  -0.894  -0.889  -0.888  -0.883
 -0.880  -0.874  -0.859  -0.852  -0.841  -0.840  -0.839  -0.838
 -0.835  -0.834  -0.822  -0.821  -0.811  -0.807  -0.798  -0.796
 -0.796  -0.795  -0.794  -0.794  -0.792  -0.789  -0.786  -0.785
 -0.770  -0.770  -0.768  -0.767  -0.767  -0.766  -0.764  -0.763
 -0.759  -0.750  -0.743  -0.742  -0.735  -0.733  -0.717  -0.715
 -0.714  -0.714  -0.712  -0.712  -0.711  -0.710  -0.709  -0.709
 -0.709  -0.708  -0.706  -0.706  -0.705  -0.703  -0.675  -0.673
 -0.658  -0.657  -0.657  -0.656  -0.649  -0.649  -0.635  -0.632
 -0.629  -0.627  -0.627  -0.626  -0.625  -0.623  -0.622  -0.619
 -0.616  -0.613  -0.612  -0.612  -0.610  -0.609  -0.609  -0.608
 -0.607  -0.606  -0.603  -0.601  -0.575  -0.568  -0.565  -0.562
 -0.561  -0.560  -0.559  -0.558  -0.556  -0.555  -0.554  -0.553
 -0.540  -0.539  -0.535  -0.534  -0.528  -0.527  -0.524  -0.524
 -0.523  -0.521  -0.520  -0.519  -0.517  -0.516  -0.516  -0.515
 -0.510  -0.508  -0.500  -0.495  -0.493  -0.492  -0.489  -0.487
 -0.485  -0.483  -0.481  -0.480  -0.480  -0.478  -0.477  -0.477
 -0.474  -0.474  -0.470  -0.469  -0.468  -0.468  -0.467  -0.466
 -0.465  -0.464  -0.463  -0.463  -0.462  -0.461  -0.460  -0.460
 -0.458  -0.455  -0.453  -0.452  -0.451  -0.447  -0.444  -0.443
 -0.442  -0.442  -0.440  -0.440  -0.438  -0.438  -0.437  -0.434
 -0.433  -0.432  -0.431  -0.430  -0.429  -0.427  -0.426  -0.425
 -0.424  -0.423  -0.422  -0.420  -0.420  -0.419  -0.419  -0.418
 -0.418  -0.416  -0.415  -0.415  -0.414  -0.413  -0.413  -0.412
 -0.412  -0.411  -0.410  -0.408  -0.403  -0.401  -0.400  -0.398
 -0.395  -0.392  -0.391  -0.391  -0.391  -0.387  -0.386  -0.385
 -0.384  -0.381  -0.376  -0.373  -0.372  -0.369  -0.369  -0.368
 -0.367  -0.364  -0.363  -0.361  -0.360  -0.360  -0.359  -0.359
 -0.358  -0.357  -0.355  -0.354  -0.354  -0.353  -0.353  -0.352
 -0.351  -0.350  -0.350  -0.348  -0.346  -0.346  -0.345  -0.345
 -0.342  -0.342  -0.341  -0.339  -0.338  -0.338  -0.334  -0.333
 -0.332  -0.332  -0.330  -0.329  -0.328  -0.326  -0.325  -0.324
 -0.312  -0.308  -0.305  -0.293  -0.291  -0.286  -0.272  -0.271
 -0.270  -0.269  -0.268  -0.266  -0.265  -0.264  -0.264  -0.262
 -0.261  -0.261  -0.260  -0.260  -0.259  -0.257  -0.255  -0.253
 -0.250  -0.249  -0.245  -0.242  -0.223  -0.220  -0.214  -0.210
 -0.209  -0.209  -0.206  -0.205  -0.200  -0.194
 -- Virtual --
 -0.125  -0.123  -0.121  -0.119  -0.112  -0.106  -0.080  -0.079
 -0.077  -0.071  -0.065  -0.063  -0.056  -0.055  -0.028  -0.026
 -0.025  -0.022  -0.020  -0.019  -0.018  -0.017  -0.016  -0.014
 -0.013  -0.011  -0.011  -0.008  -0.008  -0.005   0.003   0.006
  0.010   0.021   0.028   0.036   0.041   0.042   0.045   0.048
  0.050   0.052   0.054   0.055   0.058   0.061   0.063   0.064
  0.066   0.068   0.075   0.078   0.081   0.087   0.090   0.093
  0.093   0.095   0.098   0.099   0.102   0.102   0.104   0.105
  0.107   0.109   0.112   0.112   0.113   0.116   0.117   0.120
  0.120   0.122   0.123   0.126   0.127   0.128   0.133   0.137
  0.142   0.142   0.145   0.148   0.149   0.150   0.152   0.155
  0.160   0.162   0.162   0.164   0.165   0.166   0.169   0.171
  0.171   0.172   0.175   0.178   0.180   0.182   0.183   0.184
  0.187   0.188   0.188   0.189   0.191   0.192   0.194   0.196
  0.198   0.198   0.200   0.201   0.204   0.206   0.207   0.209
  0.212   0.212   0.216   0.217   0.218   0.219   0.220   0.221
  0.222   0.224   0.224   0.226   0.228   0.229   0.230   0.230
  0.231   0.233   0.234   0.235   0.236   0.239   0.239   0.240
  0.241   0.245   0.247   0.247   0.252   0.257   0.259   0.262
  0.266   0.267   0.272   0.273   0.274   0.276   0.277   0.279
  0.280   0.283   0.285   0.288   0.289   0.297   0.299   0.301
  0.304   0.307   0.308   0.310   0.313   0.317   0.318   0.318
  0.321   0.323   0.324   0.328   0.329   0.334   0.334   0.336
  0.337   0.337   0.339   0.345   0.346   0.348   0.350   0.353
  0.354   0.357   0.366   0.368   0.370   0.379   0.385   0.387
  0.390   0.393   0.400   0.402   0.404   0.405   0.408   0.410
  0.411   0.412   0.416   0.418   0.419   0.421   0.422   0.424
  0.425   0.428   0.431   0.432   0.435   0.437   0.437   0.439
  0.442   0.445   0.447   0.450   0.453   0.454   0.457   0.459
  0.462   0.465   0.467   0.469   0.471   0.472   0.472   0.473
  0.474   0.477   0.478   0.478   0.480   0.481   0.481   0.483
  0.486   0.488   0.488   0.489   0.490   0.490   0.491   0.492
  0.494   0.496   0.496   0.497   0.499   0.499   0.500   0.500
  0.503   0.503   0.504   0.507   0.507   0.509   0.510   0.511
  0.512   0.514   0.514   0.515   0.515   0.516   0.518   0.518
  0.519   0.520   0.521   0.522   0.523   0.524   0.526   0.526
  0.527   0.527   0.528   0.529   0.530   0.531   0.532   0.533
  0.533   0.534   0.535   0.536   0.537   0.537   0.537   0.538
  0.539   0.540   0.540   0.542   0.542   0.543   0.544   0.545
  0.546   0.547   0.548   0.548   0.549   0.550   0.550   0.551
  0.551   0.552   0.553   0.554   0.554   0.555   0.556   0.557
  0.558   0.559   0.560   0.560   0.561   0.561   0.562   0.563
  0.564   0.565   0.565   0.567   0.568   0.568   0.569   0.570
  0.571   0.572   0.573   0.573   0.574   0.575   0.575   0.576
  0.578   0.580   0.580   0.582   0.582   0.584   0.585   0.586
  0.587   0.587   0.588   0.589   0.589   0.590   0.591   0.591
  0.593   0.594   0.594   0.596   0.597   0.597   0.598   0.599
  0.600   0.601   0.602   0.603   0.604   0.606   0.608   0.609
  0.610   0.611   0.611   0.614   0.616   0.617   0.617   0.619
  0.620   0.621   0.622   0.623   0.624   0.624   0.625   0.628
  0.629   0.630   0.630   0.631   0.631   0.632   0.633   0.633
  0.634   0.635   0.636   0.638   0.639   0.640   0.641   0.641
  0.642   0.644   0.646   0.647   0.647   0.648   0.650   0.651
  0.652   0.653   0.654   0.656   0.657   0.658   0.659   0.660
  0.661   0.661   0.663   0.663   0.664   0.664   0.666   0.667
  0.667   0.668   0.668   0.669   0.670   0.671   0.671   0.672
  0.672   0.674   0.674   0.675   0.675   0.678   0.679   0.680
  0.681   0.682   0.683   0.684   0.685   0.687   0.688   0.688
  0.690   0.690   0.692   0.693   0.694   0.695   0.696   0.698
  0.699   0.701   0.702   0.704   0.705   0.706   0.708   0.708
  0.709   0.711   0.711   0.711   0.713   0.713   0.714   0.715
  0.717   0.718   0.719   0.722   0.722   0.724   0.724   0.725
  0.727   0.727   0.729   0.730   0.732   0.732   0.735   0.736
  0.738   0.740   0.740   0.742   0.744   0.744   0.746   0.747
  0.747   0.749   0.750   0.753   0.754   0.755   0.757   0.759
  0.759   0.761   0.761   0.765   0.766   0.767   0.768   0.770
  0.771   0.772   0.773   0.774   0.777   0.777   0.778   0.779
  0.780   0.781   0.783   0.784   0.785   0.786   0.787   0.789
  0.789   0.792   0.792   0.793   0.794   0.796   0.797   0.798
  0.798   0.801   0.801   0.803   0.804   0.804   0.806   0.807
  0.807   0.808   0.808   0.809   0.810   0.810   0.811   0.812
  0.812   0.813   0.813   0.814   0.815   0.816   0.817   0.818
  0.819   0.820   0.821   0.822   0.823   0.824   0.824   0.825
  0.826   0.827   0.828   0.829   0.830   0.833   0.835   0.837
  0.839   0.839   0.841   0.843   0.845   0.845   0.849   0.851
  0.852   0.855   0.858   0.859   0.861   0.864   0.866   0.869
  0.872   0.875   0.878   0.881   0.885   0.888   0.889   0.893
  0.895   0.899   0.902   0.905   0.909   0.910   0.911   0.914
  0.915   0.917   0.920   0.923   0.923   0.924   0.926   0.928
  0.929   0.930   0.932   0.933   0.936   0.937   0.940   0.941
  0.943   0.944   0.945   0.947   0.948   0.949   0.951   0.953
  0.955   0.960   0.963   0.966   0.968   0.973   0.975   0.978
  0.983   0.986   0.988   0.989   0.992   0.993   0.994   0.996
  0.999   0.999   1.002   1.006   1.007   1.009   1.009   1.011
  1.014   1.015   1.016   1.017   1.017   1.019   1.021   1.026
  1.027   1.028   1.029   1.030   1.032   1.035   1.035   1.038
  1.040   1.040   1.042   1.042   1.043   1.045   1.048   1.048
  1.049   1.052   1.053   1.054   1.056   1.058   1.061   1.062
  1.063   1.063   1.065   1.067   1.069   1.070   1.071   1.074
  1.076   1.079   1.079   1.080   1.081   1.082   1.085   1.086
  1.087   1.088   1.091   1.093   1.096   1.097   1.098   1.100
  1.102   1.103   1.104   1.107   1.109   1.110   1.111   1.115
  1.119   1.119   1.122   1.124   1.126   1.128   1.129   1.130
  1.133   1.135   1.139   1.140   1.145   1.146   1.148   1.149
  1.150   1.154   1.156   1.158   1.160   1.161   1.163   1.164
  1.165   1.167   1.168   1.169   1.171   1.172   1.172   1.174
  1.176   1.176   1.179   1.181   1.183   1.184   1.185   1.185
  1.189   1.191   1.192   1.193   1.195   1.198   1.201   1.204
  1.205   1.208   1.208   1.213   1.215   1.217   1.219   1.222
  1.227   1.229   1.232   1.233   1.237   1.244   1.245   1.249
  1.250   1.251   1.253   1.256   1.258   1.260   1.262   1.264
  1.266   1.267   1.268   1.270   1.273   1.274   1.275   1.278
  1.280   1.281   1.283   1.283   1.288   1.290   1.291   1.293
  1.298   1.299   1.303   1.303   1.304   1.307   1.310   1.313
  1.314   1.318   1.322   1.322   1.328   1.329   1.333   1.333
  1.335   1.338   1.341   1.342   1.344   1.347   1.349   1.350
  1.352   1.353   1.355   1.360   1.361   1.362   1.364   1.366
  1.367   1.370   1.370   1.373   1.378   1.380   1.381   1.385
  1.385   1.388   1.389   1.392   1.395   1.397   1.400   1.402
  1.405   1.408   1.409   1.413   1.415   1.416   1.419   1.424
  1.428   1.429   1.430   1.434   1.439   1.441   1.444   1.447
  1.449   1.451   1.454   1.455   1.459   1.459   1.461   1.462
  1.464   1.467   1.468   1.470   1.472   1.472   1.473   1.474
  1.476   1.477   1.481   1.488   1.489   1.492   1.492   1.493
  1.496   1.499   1.503   1.507   1.512   1.515   1.516   1.520
  1.522   1.525   1.527   1.528   1.531   1.535   1.536   1.537
  1.540   1.541   1.547   1.549   1.552   1.553   1.555   1.557
  1.557   1.560   1.562   1.564   1.567   1.569   1.570   1.574
  1.577   1.578   1.579   1.583   1.585   1.589   1.591   1.593
  1.594   1.596   1.601   1.606   1.608   1.612   1.618   1.621
  1.626   1.629   1.631   1.633   1.636   1.637   1.643   1.643
  1.651   1.655   1.657   1.659   1.662   1.668   1.671   1.675
  1.679   1.684   1.689   1.690   1.696   1.701   1.701   1.703
  1.704   1.705   1.708   1.709   1.715   1.717   1.719   1.721
  1.724   1.725   1.727   1.728   1.729   1.731   1.734   1.734
  1.736   1.738   1.738   1.742   1.745   1.747   1.747   1.749
  1.750   1.751   1.752   1.755   1.755   1.756   1.758   1.760
  1.762   1.763   1.764   1.765   1.767   1.767   1.769   1.770
  1.772   1.773   1.776   1.777   1.778   1.778   1.780   1.780
  1.782   1.782   1.783   1.784   1.786   1.787   1.788   1.789
  1.789   1.792   1.793   1.794   1.795   1.796   1.797   1.798
  1.799   1.800   1.802   1.804   1.804   1.806   1.807   1.809
  1.810   1.811   1.813   1.813   1.816   1.821   1.822   1.825
  1.826   1.828   1.832   1.835   1.836   1.840   1.840   1.842
  1.844   1.846   1.847   1.850   1.852   1.855   1.855   1.856
  1.859   1.860   1.862   1.864   1.866   1.868   1.869   1.871
  1.872   1.874   1.875   1.877   1.880   1.881   1.883   1.888
  1.890   1.893   1.896   1.897   1.899   1.901   1.905   1.905
  1.909   1.910   1.914   1.915   1.917   1.919   1.921   1.923
  1.926   1.927   1.931   1.933   1.935   1.937   1.938   1.940
  1.942   1.944   1.946   1.946   1.948   1.950   1.950   1.954
  1.955   1.956   1.958   1.959   1.964   1.964   1.965   1.967
  1.970   1.974   1.975   1.978   1.978   1.981   1.983   1.984
  1.985   1.986   1.989   1.991   1.993   1.994   1.994   1.995
  1.998   1.998   2.000   2.001   2.002   2.004   2.006   2.007
  2.008   2.009   2.010   2.011   2.013   2.013   2.014   2.015
  2.017   2.017   2.020   2.020   2.022   2.022   2.025   2.025
  2.026   2.028   2.029   2.030   2.031   2.032   2.034   2.035
  2.038   2.038   2.039   2.040   2.042   2.043   2.043   2.045
  2.046   2.047   2.048   2.050   2.051   2.052   2.053   2.053
  2.055   2.056   2.057   2.059   2.061   2.063   2.064   2.065
  2.066   2.068   2.069   2.072   2.075   2.076   2.079   2.080
  2.081   2.081   2.082   2.084   2.085   2.086   2.087   2.089
  2.091   2.092   2.095   2.095   2.096   2.099   2.100   2.101
  2.105   2.107   2.108   2.110   2.111   2.114   2.116   2.118
  2.120   2.123   2.128   2.132   2.134   2.135   2.139   2.143
  2.148   2.150   2.153   2.155   2.163   2.166   2.171   2.174
  2.177   2.185   2.190   2.192   2.195   2.199   2.205   2.209
  2.209   2.210   2.212   2.218   2.221   2.222   2.226   2.227
  2.228   2.232   2.233   2.236   2.237   2.239   2.243   2.244
  2.247   2.247   2.250   2.251   2.254   2.259   2.260   2.263
  2.264   2.268   2.271   2.272   2.274   2.275   2.277   2.280
  2.281   2.284   2.287   2.288   2.292   2.293   2.296   2.297
  2.299   2.300   2.302   2.307   2.309   2.313   2.314   2.316
  2.321   2.324   2.325   2.326   2.329   2.331   2.334   2.337
  2.339   2.340   2.346   2.347   2.349   2.352   2.353   2.355
  2.358   2.360   2.362   2.362   2.364   2.367   2.370   2.370
  2.371   2.371   2.374   2.376   2.376   2.379   2.382   2.383
  2.384   2.385   2.387   2.389   2.390   2.392   2.393   2.396
  2.398   2.399   2.400   2.401   2.406   2.408   2.408   2.411
  2.412   2.414   2.415   2.418   2.420   2.422   2.423   2.427
  2.428   2.431   2.434   2.435   2.437   2.439   2.440   2.443
  2.445   2.450   2.451   2.453   2.454   2.456   2.458   2.463
  2.465   2.467   2.470   2.471   2.472   2.474   2.475   2.477
  2.480   2.482   2.484   2.486   2.489   2.490   2.492   2.493
  2.495   2.497   2.500   2.500   2.502   2.503   2.505   2.507
  2.508   2.510   2.511   2.512   2.513   2.518   2.522   2.523
  2.525   2.526   2.528   2.529   2.531   2.534   2.538   2.539
  2.541   2.545   2.546   2.550   2.552   2.560   2.561   2.563
  2.565   2.569   2.571   2.572   2.577   2.578   2.583   2.584
  2.585   2.588   2.592   2.595   2.599   2.601   2.602   2.604
  2.606   2.608   2.609   2.612   2.615   2.617   2.618   2.620
  2.621   2.623   2.625   2.626   2.627   2.631   2.632   2.633
  2.635   2.636   2.638   2.640   2.641   2.644   2.645   2.646
  2.647   2.649   2.652   2.653   2.655   2.655   2.661   2.662
  2.665   2.666   2.667   2.667   2.669   2.672   2.672   2.675
  2.675   2.675   2.680   2.681   2.681   2.683   2.686   2.689
  2.692   2.692   2.694   2.697   2.699   2.704   2.705   2.706
  2.708   2.714   2.715   2.717   2.721   2.723   2.724   2.726
  2.728   2.729   2.731   2.733   2.737   2.742   2.744   2.747
  2.748   2.749   2.751   2.754   2.755   2.757   2.758   2.759
  2.762   2.763   2.765   2.766   2.768   2.770   2.774   2.775
  2.778   2.779   2.782   2.784   2.790   2.793   2.794   2.798
  2.800   2.800   2.808   2.812   2.813   2.815   2.825   2.827
  2.828   2.831   2.835   2.836   2.838   2.838   2.845   2.847
  2.852   2.854   2.855   2.858   2.861   2.862   2.863   2.864
  2.868   2.869   2.872   2.874   2.875   2.876   2.879   2.880
  2.880   2.884   2.884   2.887   2.889   2.889   2.891   2.892
  2.896   2.898   2.899   2.900   2.901   2.904   2.905   2.906
  2.909   2.911   2.912   2.914   2.915   2.917   2.918   2.919
  2.921   2.925   2.927   2.931   2.931   2.932   2.934   2.935
  2.937   2.940   2.942   2.945   2.947   2.947   2.949   2.952
  2.955   2.959   2.966   2.971   2.973   2.976   2.977   2.980
  2.981   2.986   2.986   2.992   2.994   2.998   2.999   3.001
  3.004   3.006   3.007   3.012   3.013   3.014   3.016   3.021
  3.026   3.029   3.030   3.032   3.037   3.040   3.043   3.048
  3.048   3.052   3.054   3.054   3.058   3.062   3.063   3.064
  3.066   3.076   3.077   3.080   3.081   3.093   3.096   3.100
  3.106   3.113   3.124   3.130   3.132   3.135   3.147   3.149
  3.152   3.159   3.162   3.167   3.172   3.177   3.177   3.184
  3.195   3.198   3.200   3.207   3.218   3.224   3.232   3.237
  3.241   3.243   3.254   3.258   3.261   3.268   3.277   3.287
  3.296   3.303   3.311   3.316   3.317   3.324   3.325   3.329
  3.335   3.344   3.347   3.348   3.356   3.367   3.368   3.382
  3.394   3.404   3.422   3.433   3.436   3.437   3.440   3.447
  3.452   3.457   3.465   3.468   3.472   3.479   3.482   3.487
  3.498   3.503   3.507   3.523   3.533   3.536   3.543   3.546
  3.557   3.562   3.570   3.576   3.577   3.584   3.606   3.610
  3.615   3.629   3.675   3.685   3.819   3.866   4.015   4.073
  4.074   4.074   4.077   4.081   4.084   4.089   4.095   4.097
  4.100   4.104   4.106   4.109   4.114   4.117   4.121   4.126
  4.128   4.131   4.132   4.142   4.145   4.149   4.152   4.156
  4.158   4.162   4.168   4.170   4.173   4.175   4.177   4.187
  4.191   4.194   4.198   4.208   4.212   4.221   4.234   4.241
  4.246   4.252   4.253   4.255   4.256   4.260   4.263   4.268
  4.271   4.273   4.276   4.283   4.284   4.293   4.296   4.299
  4.306   4.315   4.344   4.359   4.381   4.388   4.394   4.395
  4.398   4.404   4.408   4.411   4.411   4.412   4.415   4.417
  4.418   4.419   4.427   4.432   4.434   4.457   4.476   4.481
  4.483   4.495   4.518   4.527   4.533   4.536   4.539   4.556
  4.559   4.564   4.612   4.618   4.624   4.634   4.637   4.644
  4.648   4.679   4.686   4.689   4.692   4.694   4.695   4.697
  4.703   4.705   4.709   4.718   4.749   4.762   4.791   4.824
  4.849   4.856   4.857   4.863   4.870   4.879   4.886   4.899
  4.901   4.919   4.947   4.961   4.962   4.966   4.974   4.979
  4.988   4.996   5.000   5.008   5.160   5.165   5.177   5.185
  5.191   5.199   5.216   5.221   5.312   5.317   5.327   5.332
  5.349   5.376
 --------------------------------------------------------------
 
          Ground-State Mulliken Net Atomic Charges

     Atom                 Charge (a.u.)
  ----------------------------------------
      1 O                    -0.460102
      2 C                    -0.091788
      3 H                     0.126013
      4 H                     0.131717
      5 H                     0.128170
      6 O                    -0.461276
      7 C                     0.594395
      8 C                    -0.259354
      9 H                     0.128503
     10 H                     0.127446
     11 C                    -0.193959
     12 H                     0.129144
     13 H                     0.097371
     14 C                    -0.185139
     15 H                     0.109468
     16 H                     0.112498
     17 C                     0.015315
     18 C                     0.076444
     19 C                    -0.095377
     20 H                     0.101333
     21 C                    -0.096796
     22 H                     0.095860
     23 C                    -0.079391
     24 H                     0.091166
     25 C                    -0.100742
     26 H                     0.091479
     27 C                    -0.100577
     28 H                     0.093499
     29 C                    -0.008730
     30 C                    -0.020439
     31 C                    -0.021663
     32 C                     0.006302
     33 C                    -0.006168
     34 C                     0.005727
     35 C                    -0.025003
     36 C                     0.006348
     37 C                    -0.010305
     38 C                    -0.002545
     39 C                    -0.084406
     40 C                     0.010178
     41 C                     0.006022
     42 C                     0.008438
     43 C                     0.013435
     44 C                     0.006813
     45 C                    -0.070667
     46 C                     0.053777
     47 C                    -0.000838
     48 C                     0.009567
     49 C                     0.006944
     50 C                     0.005842
     51 C                    -0.012235
     52 C                    -0.024489
     53 C                     0.033429
     54 C                     0.004970
     55 C                    -0.010863
     56 C                    -0.025639
     57 C                    -0.016651
     58 C                     0.025390
     59 C                    -0.002381
     60 C                     0.026528
     61 C                    -0.006876
     62 C                    -0.003807
     63 C                    -0.017474
     64 C                     0.000652
     65 C                     0.010139
     66 C                     0.007375
     67 C                     0.005084
     68 C                     0.004615
     69 C                    -0.023217
     70 C                    -0.003682
     71 C                     0.006762
     72 C                    -0.012792
     73 C                     0.021633
     74 C                     0.002120
     75 C                    -0.008987
     76 C                    -0.014379
     77 C                     0.015728
     78 C                     0.018494
     79 C                    -0.024680
     80 C                     0.016961
     81 C                    -0.013346
     82 C                    -0.020367
     83 C                     0.018443
     84 C                     0.003117
     85 C                    -0.004161
     86 C                    -0.010082
     87 C                     0.004705
     88 C                    -0.000972
     89 O                    -0.479143
     90 C                    -0.086149
     91 H                     0.125370
     92 H                     0.139108
     93 H                     0.134966
     94 O                    -0.481219
     95 C                     0.610498
     96 C                    -0.277705
     97 H                     0.138963
     98 H                     0.134000
     99 C                    -0.186518
    100 H                     0.108160
    101 H                     0.104791
    102 C                    -0.174574
    103 H                     0.102914
    104 H                     0.122804
    105 C                     0.020281
    106 C                     0.090615
    107 C                    -0.100071
    108 H                     0.095668
    109 C                    -0.107337
    110 H                     0.090915
    111 C                    -0.084918
    112 H                     0.096872
    113 C                    -0.097928
    114 H                     0.096784
    115 C                    -0.103619
    116 H                     0.101389
    117 C                     0.007341
    118 C                    -0.035227
    119 C                    -0.012611
    120 C                    -0.010851
    121 C                     0.010950
    122 C                    -0.020243
    123 C                    -0.008694
    124 C                    -0.014970
    125 C                    -0.009798
    126 C                    -0.027064
    127 C                    -0.076891
    128 C                     0.007451
    129 C                    -0.031294
    130 C                    -0.008401
    131 C                     0.030006
    132 C                     0.014868
    133 C                    -0.092619
    134 C                     0.011544
    135 C                     0.013600
    136 C                     0.003585
    137 C                    -0.011981
    138 C                     0.001085
    139 C                    -0.028413
    140 C                     0.014057
    141 C                    -0.015679
    142 C                     0.025337
    143 C                     0.017949
    144 C                     0.012753
    145 C                     0.004959
    146 C                     0.014818
    147 C                     0.038042
    148 C                     0.054515
    149 C                     0.015738
    150 C                    -0.008283
    151 C                     0.059199
    152 C                     0.001076
    153 C                    -0.005814
    154 C                    -0.016111
    155 C                    -0.022540
    156 C                     0.029832
    157 C                    -0.002716
    158 C                    -0.005251
    159 C                    -0.005522
    160 C                    -0.016079
    161 C                    -0.020719
    162 C                    -0.029774
    163 C                    -0.012398
    164 C                    -0.003554
    165 C                    -0.009449
    166 C                    -0.000744
    167 C                     0.010294
    168 C                     0.001538
    169 C                     0.029614
    170 C                    -0.026783
    171 C                     0.013112
    172 C                    -0.014828
    173 C                     0.026640
    174 C                     0.007347
    175 C                    -0.001205
    176 C                     0.011312
  ----------------------------------------
  Sum of atomic charges =     0.000000

 -----------------------------------------------------------------
                    Cartesian Multipole Moments
 -----------------------------------------------------------------
    Charge (ESU x 10^10)
                 0.0000
    Dipole Moment (Debye)
         X       0.3223      Y      -6.9327      Z      -0.8538
       Tot       6.9925
    Quadrupole Moments (Debye-Ang)
        XX    -817.7062     XY       3.4063     YY    -768.3621
        XZ      -0.5313     YZ      -1.0453     ZZ    -824.9839
    Octopole Moments (Debye-Ang^2)
       XXX    -238.3928    XXY    -187.9875    XYY     -22.1823
       YYY    -520.7285    XXZ      20.5887    XYZ      58.7880
       YYZ     -46.6999    XZZ      72.0068    YZZ    -170.0247
       ZZZ    -126.6725
    Hexadecapole Moments (Debye-Ang^3)
      XXXX -134337.7648   XXXY     448.3298   XXYY  -28291.9373
      XYYY    -159.2146   YYYY  -36120.3019   XXXZ   -1177.9638
      XXYZ    -144.4066   XYYZ    -253.8239   YYYZ     825.7718
      XXZZ  -27581.1343   XYZZ     208.5836   YYZZ  -10503.5468
      XZZZ     179.2742   YZZZ     185.5864   ZZZZ  -29931.9511
 -----------------------------------------------------------------
Archival summary:
1\1\mn366\SP\ProcedureUnspecified\6-31G**\428\afmv_a\SunOct722:56:122018SunOct722:56:122018\0\\#,ProcedureUnspecified,6-31G**,\\0,1\C\C,1,1.37867\C,1,1.42994,2,108.223\C,3,1.3986,1,106.069,2,-4.23338,0\C,4,1.36115,3,111.537,1,0.267166,0\C,5,1.3657,4,118.378,3,138.016,0\C,6,1.39925,5,121.617,4,7.38374,0\C,7,1.35749,6,108.868,5,-148.046,0\C,8,1.3534,7,109.577,6,-0.39478,0\C,8,1.40242,7,119.088,6,145.106,0\C,7,1.4026,6,119.54,5,0.839647,0\C,11,1.36163,7,117.742,6,-140.45,0\C,11,1.38487,7,119.822,6,-4.35098,0\C,13,1.36896,11,110.086,7,-140.026,0\C,14,1.38529,13,106.36,11,0.251768,0\C,10,1.40611,8,119.724,7,1.05471,0\C,16,1.39377,10,108.176,8,-137.882,0\C,17,1.384,16,106.81,10,-4.61944,0\C,18,1.38593,17,110.942,16,0.561293,0\C,17,1.40322,16,122.173,10,142.425,0\C,20,1.39416,17,121.188,16,-3.51829,0\C,21,1.3863,20,106.296,17,-135.933,0\C,22,1.38733,21,110.977,20,-8.11822,0\C,23,1.40186,22,105.703,21,8.23339,0\C,6,1.40742,5,124.531,4,-138.898,0\C,18,1.4095,17,119.732,16,144.528,0\C,26,1.38784,18,121.171,17,-144.28,0\C,27,1.40713,26,104.927,18,143.906,0\C,26,1.4106,18,121.206,17,5.0628,0\C,29,1.4037,26,106.058,18,-143.384,0\C,30,1.41178,29,120.684,26,138.989,0\C,31,1.38122,30,120.707,29,-135.985,0\C,32,1.39612,31,108.399,30,141.595,0\C,31,1.39748,30,119.088,29,0.734883,0\C,34,1.36682,31,109.628,30,-144.38,0\C,32,1.40506,31,120.466,30,-5.51586,0\C,36,1.3799,32,116.783,31,6.93741,0\C,37,1.39274,36,104.867,32,141.697,0\C,38,1.37828,37,111.698,36,-0.441031,0\C,36,1.40373,32,119.603,31,144.381,0\C,40,1.41384,36,119.912,32,-1.19645,0\C,41,1.38705,40,121.455,36,-133.366,0\C,42,1.39695,41,112.366,40,146.838,0\C,39,1.41542,38,121.477,37,-143.254,0\C,44,1.39303,39,119.144,38,131.79,0\C,45,1.38608,44,108.55,39,-137.859,0\C,35,1.41895,34,123.508,31,139.494,0\C,47,1.36891,35,119.868,34,-0.903602,0\C,48,1.37999,47,113.223,35,-142.701,0\C,41,1.42049,40,119.894,36,5.28957,0\C,46,1.42536,45,108.561,44,0.527877,0\C,51,1.38137,46,107.197,45,1.3729,0\C,52,1.4032,51,119.415,46,139.003,0\C,53,1.39934,52,123.941,51,-140.025,0\C,54,1.40865,53,109.587,52,150.13,0\C,53,1.41763,52,121.323,51,6.14408,0\C,56,1.41472,53,108.296,52,-149.407,0\C,3,1.43068,1,122.006,2,151.697,0\C,47,1.4769,35,123.069,34,-145.986,0\C,59,1.4696,47,128.659,35,-64.1306,0\C,50,1.48879,41,110.369,40,-151.443,0\C,60,1.49732,59,121.775,47,-148.524,0\C,62,1.38626,60,119.746,59,-111.275,0\H,63,1.08596,62,122.054,60,4.93985,0\C,63,1.39442,62,118.979,60,178.37,0\H,65,1.08606,63,118.872,62,179.402,0\C,62,1.41882,60,118.168,59,74.3412,0\H,67,1.08612,62,118.428,60,1.50115,0\C,67,1.39656,62,118.042,60,176.16,0\H,69,1.08618,67,126.227,62,175.712,0\C,69,1.38641,67,121.43,62,7.02227,0\H,71,1.08524,69,122.184,67,168.42,0\C,60,1.51572,59,113.817,47,-11.9406,0\H,73,1.09664,60,107.681,59,31.0198,0\H,73,1.09718,60,112.632,59,-86.458,0\C,73,1.51728,60,115.607,59,158.96,0\H,76,1.09728,73,112.664,60,61.9211,0\H,76,1.09745,73,112.106,60,176.594,0\C,76,1.54291,73,117.982,60,-61.7663,0\H,79,1.09617,76,115.161,73,62.1051,0\H,79,1.09732,76,109.104,73,175.752,0\C,79,1.48113,76,120.081,73,-64.6568,0\O,82,1.20257,79,123.823,76,-166.305,0\O,82,1.33724,79,114.239,76,6.31369,0\C,84,1.47859,82,122.752,79,179.925,0\H,85,1.09713,84,105.696,82,67.1263,0\H,85,1.0973,84,113.672,82,-62.0367,0\H,85,1.09752,84,102.587,82,-177.301,0\H,72,2.37809,71,141.849,69,-25.4727,0\C,89,1.08605,72,139.983,71,-49.7075,0\C,90,1.3838,89,130.622,72,-28.669,0\C,90,1.41998,89,108.427,72,147.227,0\H,92,1.08626,90,121.746,89,0.250739,0\C,92,1.41574,90,118.652,89,169.176,0\H,94,1.08676,92,119.687,90,-172.128,0\C,94,1.41045,92,119.794,90,15.0021,0\H,96,1.08654,94,121.609,92,-179.905,0\C,96,1.43514,94,120.14,92,-0.923029,0\H,98,1.0855,96,120.014,94,173.273,0\C,91,1.48036,90,119.178,89,4.63269,0\C,100,1.5011,91,114.025,90,87.0465,0\H,101,1.09661,100,115.325,91,-178.169,0\H,101,1.09689,100,106.256,91,-65.5875,0\C,100,1.52433,91,118.597,90,-127.522,0\C,104,1.44828,100,128.037,91,-140.112,0\C,105,1.41075,104,112.412,100,144.796,0\C,106,1.39151,105,118.411,104,150.175,0\C,106,1.40719,105,107.41,104,6.30308,0\C,108,1.39865,106,107.799,105,1.6434,0\C,107,1.42543,106,123.391,105,-2.22764,0\C,110,1.37611,107,117.637,106,-1.48073,0\C,110,1.3987,107,109.862,106,-143.912,0\C,111,1.40259,110,122.03,107,-143.564,0\C,113,1.40684,111,105.224,110,141.79,0\C,114,1.36709,113,110.702,111,7.50147,0\C,114,1.3836,113,120.269,111,-142.23,0\C,116,1.34215,114,121.186,113,5.37798,0\C,116,1.3729,114,116.977,113,143.7,0\C,118,1.33675,116,106.942,114,-139.669,0\C,119,1.37536,118,110.17,116,-5.27159,0\C,119,1.38881,118,121.558,116,147.474,0\C,117,1.39243,116,120.789,114,-0.68652,0\C,115,1.40027,114,107.347,113,-5.29974,0\C,121,1.40368,119,120.736,118,-2.96685,0\C,112,1.40838,110,116.693,107,143.959,0\C,125,1.4044,112,124.941,110,1.56854,0\C,124,1.40963,121,106.164,119,-140.698,0\C,127,1.39562,124,117.897,121,138.452,0\C,128,1.39792,127,121.221,124,-143.123,0\C,129,1.39869,128,118.296,127,8.30464,0\C,130,1.39693,129,120.087,128,134.299,0\C,131,1.38665,130,120.49,129,-3.14134,0\C,131,1.3933,130,107.609,129,-144.26,0\C,133,1.39021,131,111.236,130,-1.40822,0\C,132,1.40206,131,121.125,130,1.62723,0\C,135,1.38485,132,109.023,131,-145.323,0\C,135,1.39076,132,119.489,131,-1.35339,0\C,137,1.40059,135,119.708,132,-133.144,0\C,128,1.40283,127,119.064,124,2.65427,0\C,136,1.40864,135,109.341,132,1.93914,0\C,140,1.38403,136,122.133,135,138.658,0\C,141,1.40208,140,122.562,136,-142.051,0\C,142,1.39478,141,117.095,140,5.20342,0\C,134,1.41369,133,105.549,131,1.66379,0\C,122,1.41414,117,120.969,116,134.765,0\C,145,1.38907,122,107.221,117,-138.271,0\C,145,1.40974,122,120.982,117,4.34707,0\C,147,1.36701,145,116.286,122,-5.25036,0\C,124,1.41454,121,120.282,119,4.83333,0\C,143,1.41594,142,120.91,141,131.953,0\C,150,1.4044,143,113.491,142,-143.966,0\C,151,1.37562,150,122.604,143,145.067,0\C,152,1.35957,151,120.393,150,-134.905,0\C,153,1.40143,152,109.2,151,138.946,0\C,154,1.40778,153,122.226,152,-140.719,0\C,155,1.40697,154,120.729,153,-2.0093,0\C,149,1.41741,124,121.138,121,-137.758,0\C,118,1.42348,116,123.931,114,5.13127,0\C,158,1.41129,118,118.695,116,-2.56842,0\C,151,1.42369,150,105.439,143,-0.140153,0\C,160,1.42221,151,107.743,150,1.53242,0\C,161,1.41674,160,121.387,151,140.58,0\C,104,1.47757,100,61.04,91,111.68,0\C,101,1.55965,100,120.656,91,53.7165,0\H,164,1.09659,101,107.304,100,57.3207,0\H,164,1.09745,101,118.196,100,-63.1182,0\C,164,1.48573,101,111.088,100,172.591,0\H,167,1.09691,164,109.317,101,-55.1753,0\H,167,1.09702,164,109.038,101,59.7259,0\C,167,1.53384,164,113.477,101,-179.335,0\O,170,1.20344,167,124.293,164,143.3,0\O,170,1.3574,167,109.336,164,-43.7601,0\C,172,1.454,170,119.236,167,-152.391,0\H,173,1.09668,172,116.424,170,-80.8334,0\H,173,1.09688,172,104.529,170,154.214,0\H,173,1.09702,172,114.184,170,37.7786,0\\\@

 Total job time:  879.69s(wall), 7580.34s(cpu) 
 Sun Oct  7 22:56:12 2018

        *************************************************************
        *                                                           *
        *  Thank you very much for using Q-Chem.  Have a nice day.  *
        *                                                           *
        *************************************************************


