
Running Job 1 of 1 ./10/13.qcin
qchem ./10/13.qcin_18945.0 /tmpu/cab_g/afmv_a/scratch_qchem/qchem18945/ 1
/tmpu/appuserlic/qchem4.4/serial-multicore/exe/qcprog.exe_s ./10/13.qcin_18945.0 /tmpu/cab_g/afmv_a/scratch_qchem/qchem18945/
Check license passed

                  Welcome to Q-Chem
     A Quantum Leap Into The Future Of Chemistry


 Q-Chem 4.4, Q-Chem, Inc., Pleasanton, CA (2016)

 Y. Shao,  Z. Gan,  E. Epifanovsky,  A. T. B. Gilbert,  M. Wormit,  
 J. Kussmann,  A. W. Lange,  A. Behn,  J. Deng,  X. Feng,  D. Ghosh,  
 M. Goldey,  P. R. Horn,  L. D. Jacobson,  I. Kaliman,  F. Rob,  
 R. Z. Khaliullin,  T. Kus,  A. Landau,  J. Liu,  E. I. Proynov,  Y. M. Rhee,  
 R. M. Richard,  M. A. Rohrdanz,  R. P. Steele,  E. J. Sundstrom,  
 H. L. Woodcock III,  P. M. Zimmerman,  D. Zuev,  B. Albrecht,  E. Alguire,  
 B. Austin,  S. A. Baeppler,  G. J. O. Beran,  Y. A. Bernard,  E. Berquist,  
 K. Brandhorst,  K. B. Bravaya,  S. T. Brown,  D. Casanova,  C.-M. Chang,  
 Y. Chen,  S. H. Chien,  K. D. Closser,  M. P. Coons,  D. L. Crittenden,  
 S. Dasgupta,  M. Diedenhofen,  R. A. DiStasio Jr.,  H. Do,  A. D. Dutoi,  
 R. G. Edgar,  P.-T. Fang,  S. Fatehi,  Q. Feng,  L. Fusti-Molnar,  
 A. Ghysels,  A. Golubeva-Zadorozhnaya,  J. Gomes,  A. Gunina,  
 M. W. D. Hanson-Heine,  P. H. P. Harbach,  A. W. Hauser,  J. E. Herr,  
 E. G. Hohenstein,  Z. C. Holden,  K. Hui,  T.-C. Jagau,  H. Ji,  B. Kaduk,  
 K. Khistyaev,  Jaehoon Kim,  Jihan Kim,  R. A. King,  P. Klunzinger,  
 K. Koh,  D. Kosenkov,  T. Kowalczyk,  C. M. Krauter,  A. Kunitsa,  
 K. U. Lao,  A. Laurent,  K. V. Lawler,  J. Lee,  D. Lefrancois,  S. Lehtola,  
 S. V. Levchenko,  C. Y. Lin,  Y.-S. Lin,  F. Liu,  E. Livshits,  
 R. C. Lochan,  A. Luenser,  P. Manohar,  S. F. Manzer,  S.-P. Mao,  Y. Mao,  
 N. Mardirossian,  A. V. Marenich,  L. A. Martinez-Martinez,  S. A. Maurer,  
 N. J. Mayhall,  J.-M. Mewes,  A. F. Morrison,  K. Nanda,  T. S. Nguyen-Beck,  
 C. M. Oana,  R. Olivares-Amaya,  D. P. O'Neill,  J. A. Parkhill,  
 T. M. Perrine,  R. Peverati,  P. A. Pieniazek,  F. Plasser,  A. Prociuk,  
 D. R. Rehn,  E. Rosta,  N. J. Russ,  N. Sergueev,  S. M. Sharada,  
 S. Sharma,  D. W. Small,  A. Sodt,  T. Stauch,  T. Stein,  D. Stuck,  
 Y.-C. Su,  A. J. W. Thom,  T. Tsuchimochi,  L. Vogt,  O. Vydrov,  T. Wang,  
 M. A. Watson,  J. Wenzel,  A. White,  C. F. Williams,  V. Vanovschi,  
 K. Yao,  S. Yeganeh,  S. R. Yost,  Z.-Q. You,  I. Y. Zhang,  X. Zhang,  
 Y. Zhao,  B. R. Brooks,  G. K. L. Chan,  D. M. Chipman,  C. J. Cramer,  
 W. A. Goddard III,  M. S. Gordon,  W. J. Hehre,  A. Klamt,  
 H. F. Schaefer III,  M. W. Schmidt,  C. D. Sherrill,  D. G. Truhlar,  
 A. Warshel,  X. Xu,  A. Aspuru-Guzik,  R. Baer,  A. T. Bell,  N. A. Besley,  
 J.-D. Chai,  A. Dreuw,  B. D. Dunietz,  T. R. Furlani,  S. R. Gwaltney,  
 C.-P. Hsu,  Y. Jung,  J. Kong,  D. S. Lambrecht,  W. Liang,  C. Ochsenfeld,  
 V. A. Rassolov,  L. V. Slipchenko,  J. E. Subotnik,  T. Van Voorhis,  
 J. M. Herbert,  A. I. Krylov,  P. M. W. Gill,  M. Head-Gordon

 Contributors to earlier versions of Q-Chem not listed above: 
 R. D. Adamson,  J. Baker,  E. F. C. Byrd,  A. K. Chakraborty,  C.-L. Cheng,  
 H. Dachsel,  R. J. Doerksen,  G. Hawkins,  A. Heyden,  S. Hirata,  
 G. Kedziora,  F. J. Keil,  C. Kelley,  P. P. Korambath,  W. Kurlancheek,  
 A. M. Lee,  M. S. Lee,  D. Liotard,  I. Lotan,  P. E. Maslen,  N. Nair,  
 D. Neuhauser,  R. Olson,  B. Peters,  J. Ritchie,  N. E. Schultz,  
 N. Shenvi,  A. C. Simmonett,  K. S. Thanthiriwatte,  Q. Wu,  W. Zhang

 Please cite Q-Chem as follows:
 Y. Shao et al., Mol. Phys. 113, 184-215 (2015)
 DOI: 10.1080/00268976.2014.952696

 Q-Chem 4.4.2 for Intel X86 Linux

 Parts of Q-Chem use Armadillo 5.200.1 (Boston Tea Smuggler).
 http://arma.sourceforge.net/

 Q-Chem begins on Sun Oct  7 23:10:59 2018  

Host: 
0

     Scratch files written to /tmpu/cab_g/afmv_a/scratch_qchem/qchem18945//
 Dec716 11556_ 22328  22283 4050   
Processing $rem in /tmpu/appuserlic/qchem4.4/serial-multicore/config/preferences.
 MEM_TOTAL  2000 
FILE_GEOM_ORG=        593

Checking the input file for inconsistencies... 	...done.

--------------------------------------------------------------
User input:
--------------------------------------------------------------
$comment
SP
$end

$rem
MEM_STATIC 5000
MEM_TOTAL 20000
JOBTYPE SP
EXCHANGE B3LYP
BASIS 6-31g(d,p)
$end

$molecule
0 1
O          25.484000     15.768000     12.537000
C          24.408000     16.273000     13.185000
H          24.469000     15.999000     14.246000
H          23.478000     15.793000     12.856000
H          24.295000     17.353000     13.026000
O          24.939000     16.741000     10.513000
C          25.688000     16.127000     11.229000
C          26.946000     15.542000     10.645000
H          26.920000     14.490000     10.956000
H          27.839000     15.933000     11.149000
C          27.250000     15.732000      9.149000
H          27.323000     16.811000      8.968000
H          28.302000     15.479000      8.970000
C          26.324000     14.967000      8.151000
H          26.287000     13.876000      8.256000
H          25.254000     15.040000      8.383000
C          26.541000     15.580000      6.751000
C          27.802000     15.329000      6.046000
C          27.991000     14.078000      5.422000
H          27.220000     13.314000      5.453000
C          29.236000     13.681000      4.966000
H          29.293000     12.696000      4.512000
C          30.367000     14.553000      5.073000
H          31.348000     14.216000      4.752000
C          30.223000     15.706000      5.769000
H          31.132000     16.173000      6.137000
C          28.936000     16.166000      6.134000
H          28.880000     17.082000      6.715000
C          26.263000     20.473000      4.199000
C          25.751000     18.903000      2.480000
C          21.344000     19.803000      2.159000
C          23.109000     19.639000      8.094000
C          20.242000     17.015000      3.963000
C          26.507000     19.251000      3.623000
C          20.670000     18.692000      7.194000
C          23.205000     21.330000      2.398000
C          24.037000     15.517000      3.944000
C          22.829000     18.279000      8.187000
C          25.326000     15.859000      5.853000
C          23.182000     15.300000      5.066000
C          21.812000     16.564000      7.070000
C          19.954000     18.340000      6.015000
C          25.929000     17.035000      3.770000
C          19.875000     19.386000      3.832000
C          25.926000     17.004000      6.634000
C          25.098000     17.811000      7.581000
C          20.102000     18.168000      3.152000
C          22.366000     21.967000      5.671000
C          21.230000     21.545000      3.829000
C          22.538000     21.970000      3.432000
C          24.578000     21.014000      2.476000
C          25.380000     19.173000      7.502000
C          25.301000     15.908000      4.396000
C          24.841000     19.768000      1.906000
C          21.593000     17.803000      7.702000
C          25.390000     17.534000      2.579000
C          21.797000     15.540000      4.873000
C          24.277000     21.269000      7.011000
C          22.621000     20.225000      1.790000
C          23.880000     15.565000      6.196000
C          24.578000     22.033000      4.716000
C          21.130000     16.125000      5.967000
C          23.520000     16.093000      2.702000
C          20.476000     20.530000      5.918000
C          20.991000     20.028000      7.092000
C          22.167000     16.362000      2.606000
C          24.381000     20.088000      7.741000
C          23.797000     17.422000      7.760000
C          22.951000     21.484000      6.863000
C          26.556000     18.142000      5.834000
C          23.338000     17.904000      1.439000
C          23.214000     16.265000      7.200000
C          21.288000     16.140000      3.703000
C          25.099000     21.492000      5.919000
C          21.050000     18.431000      2.144000
C          25.295000     21.385000      3.656000
C          20.643000     20.403000      3.206000
C          24.229000     17.052000      1.991000
C          22.029000     17.502000      1.788000
C          26.625000     18.089000      4.413000
C          26.221000     19.388000      6.373000
C          21.117000     21.558000      5.233000
C          23.579000     19.269000      1.441000
C          20.141000     17.045000      5.384000
C          22.237000     20.537000      7.556000
C          19.859000     19.490000      5.244000
C          26.103000     20.543000      5.585000
C          23.175000     22.268000      4.629000
O          28.209000      7.150000      4.511000
C          29.367000      7.786000      5.229000
H          29.198000      8.851000      5.435000
H          30.275000      7.652000      4.627000
H          29.575000      7.228000      6.150000
O          26.623000      7.841000      5.962000
C          26.961000      7.139000      5.098000
C          26.080000      6.087000      4.396000
H          25.090000      6.234000      4.844000
H          26.329000      5.071000      4.728000
C          26.106000      6.199000      2.904000
H          27.137000      6.309000      2.544000
H          25.986000      5.203000      2.460000
C          25.160000      7.308000      2.440000
H          24.117000      7.160000      2.747000
H          25.311000      8.193000      3.070000
C          25.210000      7.561000      0.939000
C          24.530000      6.477000      0.208000
C          23.194000      6.412000     -0.016000
H          22.547000      7.223000      0.304000
C          22.514000      5.352000     -0.569000
H          21.448000      5.340000     -0.776000
C          23.223000      4.134000     -0.898000
H          22.698000      3.261000     -1.272000
C          24.643000      4.209000     -0.678000
H          25.174000      3.278000     -0.857000
C          25.303000      5.400000     -0.271000
H          26.350000      5.400000      0.017000
C          28.350000      9.567000     -3.037000
C          26.163000     10.006000     -3.937000
C          26.585000     14.443000     -3.118000
C          29.175000     11.202000      1.577000
C          24.794000     14.475000     -0.179000
C          26.993000      9.167000     -3.229000
C          27.703000     13.585000      1.804000
C          28.161000     12.917000     -4.159000
C          23.750000     10.675000     -0.781000
C          27.996000     11.158000      2.279000
C          24.951000      8.967000      0.421000
C          23.957000     11.134000      0.560000
C          25.893000     12.095000      2.141000
C          26.841000     14.595000      1.247000
C          25.023000      9.050000     -2.145000
C          26.855000     15.348000     -1.078000
C          26.323000      8.368000      0.410000
C          27.381000      9.024000      1.155000
C          25.487000     15.026000     -1.275000
C          30.234000     13.010000     -1.266000
C          28.780000     14.347000     -2.298000
C          29.120000     13.354000     -3.220000
C          28.000000     11.527000     -4.338000
C          28.563000      9.172000      0.436000
C          24.394000      9.400000     -0.936000
C          26.699000     11.213000     -4.513000
C          27.266000     12.362000      2.249000
C          24.952000     10.017000     -3.267000
C          24.045000     12.546000      0.702000
C          30.223000     10.752000     -0.391000
C          26.823000     13.433000     -4.054000
C          24.734000     10.179000      1.325000
C          29.886000     11.115000     -2.773000
C          24.982000     13.021000      1.600000
C          23.562000     11.557000     -1.872000
C          28.806000     14.478000      0.081000
C          28.969000     13.616000      1.192000
C          23.552000     12.937000     -1.656000
C          29.522000     10.235000      0.695000
C          27.072000     10.119000      2.028000
C          30.352000     12.115000     -0.163000
C          27.016000      8.188000     -0.947000
C          24.661000     12.432000     -3.645000
C          25.835000     10.741000      1.980000
C          23.924000     13.437000     -0.365000
C          29.982000     10.231000     -1.690000
C          25.329000     14.453000     -2.510000
C          28.829000     10.715000     -3.568000
C          27.529000     14.997000     -2.278000
C          24.168000     11.206000     -3.122000
C          24.316000     13.481000     -2.741000
C          26.317000      8.568000     -2.137000
C          28.324000      8.628000     -0.825000
C          29.462000     14.184000     -1.105000
C          25.911000     12.427000     -4.277000
C          25.459000     14.262000      1.069000
C          29.698000     12.421000      1.066000
C          27.509000     15.090000      0.148000
C          29.041000      9.249000     -1.866000
C          30.030000     12.526000     -2.553000
$end

--------------------------------------------------------------
 ----------------------------------------------------------------
             Standard Nuclear Orientation (Angstroms)
    I     Atom           X                Y                Z
 ----------------------------------------------------------------
    1      O      -6.7084615585    -7.3734688847     0.4825134688
    2      C      -7.7532033566    -7.4292446638    -0.3766190225
    3      H      -8.1269219704    -8.4603304851    -0.4180246600
    4      H      -7.4361990598    -7.2366728256    -1.4090750085
    5      H      -8.5343588548    -6.6986984491    -0.1305533486
    6      O      -6.4591472647    -5.0830860390     0.3027391584
    7      C      -6.1909489364    -6.1446907302     0.8044543528
    8      C      -5.0724378290    -6.2193771268     1.8090437440
    9      H      -4.4360496359    -7.0332289456     1.4392380048
   10      H      -5.4292942083    -6.5964099255     2.7759179826
   11      C      -4.2900159919    -4.9456467664     2.1723054096
   12      H      -5.0090311193    -4.2333124547     2.5941206239
   13      H      -3.7147126239    -5.1361483102     3.0863563910
   14      C      -3.3693728925    -4.3561069759     1.0571533487
   15      H      -2.5883315479    -5.0192751843     0.6661835988
   16      H      -3.8392265628    -4.3020762508     0.0670163838
   17      C      -2.9941312395    -2.9182118355     1.4748964124
   18      C      -2.0663891725    -2.7151874826     2.5921353166
   19      C      -0.6867259322    -2.9078301857     2.3696131101
   20      H      -0.3112874448    -3.1939498874     1.3917176870
   21      C       0.2090330181    -2.9846801005     3.4218868357
   22      H       1.2500038584    -3.1493993081     3.1595182165
   23      C      -0.2345176984    -2.8235034127     4.7740254518
   24      H       0.4683661814    -2.9285084851     5.5949390808
   25      C      -1.5669106689    -2.7511885184     5.0065346519
   26      H      -1.9014735747    -2.9787580313     6.0145395025
   27      C      -2.4710642246    -2.5576921692     3.9358995550
   28      H      -3.5302026060    -2.5345564882     4.1755735616
   29      C      -5.4302038846     1.8531555558     2.8280557841
   30      C      -3.3633156507     2.5252705600     1.8491587263
   31      C      -5.0398036847     4.1185700040    -2.0219489645
   32      C      -7.8233027934    -1.1903794395    -0.4619699522
   33      C      -4.1817356661     1.3544891616    -3.9879958541
   34      C      -4.0859967790     1.6259747188     2.6665252149
   35      C      -7.2138838591    -0.4878695507    -3.0678514573
   36      C      -5.8772812168     4.3813408235     0.2323256150
   37      C      -2.0064848787    -0.1615050689    -0.8869580431
   38      C      -6.8895653979    -1.9409149674    -1.1701224059
   39      C      -3.0200835124    -1.7965799372     0.4252591587
   40      C      -2.6999004149    -1.0360887728    -1.7764951357
   41      C      -5.1846009414    -1.7444457420    -2.6793271785
   42      C      -6.4571079291     0.4312035676    -3.8483614157
   43      C      -2.5939551690     0.4301920651     1.3975631671
   44      C      -6.0518956286     2.8018162113    -3.5622763149
   45      C      -4.1991721791    -1.9415513735     1.3578465266
   46      C      -5.5842219422    -2.1293257908     0.8286774401
   47      C      -4.6561325816     2.6655889719    -3.7376064492
   48      C      -8.4553644042     2.1914884967    -0.3843208519
   49      C      -7.3773188965     3.6992110089    -1.5785296734
   50      C      -7.1393368154     4.0016612165    -0.1997670393
   51      C      -5.3147020045     3.8839941432     1.4269887095
   52      C      -6.5269541268    -1.3896199180     1.5392407729
   53      C      -2.2363330666    -0.5671186730     0.4311953678
   54      C      -3.9502079308     3.6353788176     1.2755577255
   55      C      -6.5673381196    -1.5590361175    -2.4891505046
   56      C      -2.4472480380     1.7805612108     1.0614334480
   57      C      -3.1409930717    -0.4825193960    -3.0061585909
   58      C      -8.1713335698     0.3481853311     1.1829330922
   59      C      -4.8235468103     4.4023457635    -0.6737359685
   60      C      -3.3657212553    -1.9579596469    -1.0408554821
   61      C      -7.3828034624     2.5869077630     1.7376079005
   62      C      -4.3942931569    -0.9409876323    -3.4567091127
   63      C      -1.8850226582     1.2677934943    -1.1767537406
   64      C      -7.9720216772     1.5827142838    -2.6412771576
   65      C      -8.1130265981     0.2493383129    -2.3286573686
   66      C      -2.3954756496     1.7509441836    -2.3676312133
   67      C      -7.6385046949    -0.9043517753     0.8901512843
   68      C      -5.7244643660    -2.2345428092    -0.5297129462
   69      C      -8.6030312949     0.8400133133     0.0005002991
   70      C      -4.4658998881    -0.7956175370     2.3313124846
   71      C      -2.6263538903     3.3109257532    -0.7477402477
   72      C      -4.6572266760    -2.2810428091    -1.4521984274
   73      C      -3.0770807703     0.8988634744    -3.2812541796
   74      C      -7.5083215673     1.2076511000     2.0429392994
   75      C      -4.0389753908     3.4531378001    -2.7462332375
   76      C      -6.0865949970     2.9740752352     2.2146172952
   77      C      -6.2870001690     3.7133279700    -2.4993270364
   78      C      -2.0420754623     2.2295251264    -0.1876684639
   79      C      -2.8552329042     3.0604592798    -2.1195153542
   80      C      -3.5984206279     0.3315622742     2.3926020136
   81      C      -5.8316759621    -0.5076563810     2.4149551060
   82      C      -8.2155061234     2.5730679464    -1.6942792973
   83      C      -3.6282529353     3.9934975646    -0.0757253477
   84      C      -5.0396901710     0.2211538150    -4.0870264538
   85      C      -8.4464104534    -0.0995285701    -0.9892395462
   86      C      -6.9400932751     1.6991418900    -3.5567734085
   87      C      -6.3149326946     0.7813645036     2.6865818527
   88      C      -7.8850021518     3.0540746263     0.4883062563
   89      O       5.2891424849    -5.9083937251     0.3299454637
   90      C       4.6892108439    -6.3812867423     1.6251049985
   91      H       3.6974857353    -5.9482223756     1.8099253521
   92      H       5.3744664633    -6.1324724703     2.4456780873
   93      H       4.6550964298    -7.4774907095     1.6315910581
   94      O       3.5088421990    -6.4270265603    -0.9583979977
   95      C       4.6361513123    -6.1570857051    -0.8591503389
   96      C       5.6240196192    -5.9732761110    -2.0279100410
   97      H       4.9946648669    -6.0726922122    -2.9203460524
   98      H       6.2926287260    -6.8380226352    -2.1261765718
   99      C       6.3919567771    -4.6911163339    -1.9529245260
  100      H       6.7817000395    -4.5344182726    -0.9389191477
  101      H       7.3893290616    -4.8359067555    -2.3863253334
  102      C       5.5428536007    -3.5339705879    -2.4821981022
  103      H       5.2097188924    -3.6651047429    -3.5194189560
  104      H       4.5343831938    -3.6075417466    -2.0573443356
  105      C       6.2122982269    -2.1735586490    -2.3385553196
  106      C       7.2943923889    -2.0216797432    -3.3274041566
  107      C       7.1215533899    -1.6152760766    -4.6096910747
  108      H       6.1374623767    -1.3199934501    -4.9605515146
  109      C       8.0837203346    -1.5969625527    -5.5923957024
  110      H       7.9308116333    -1.2281032068    -6.6023019911
  111      C       9.4064811398    -2.1145986177    -5.3152626001
  112      H      10.1617978491    -2.1732434355    -6.0922358648
  113      C       9.5958610199    -2.5285152848    -3.9502595767
  114      H      10.5628508228    -2.9816908100    -3.7494470662
  115      C       8.6093448968    -2.3527797588    -2.9424734071
  116      H       8.7205577160    -2.7910325164    -1.9551947083
  117      C       7.7341719315     1.5665646971     1.3203502248
  118      C       7.3293480106     2.9624153828    -0.5962635746
  119      C       3.5156907430     4.5823459974     1.2388541461
  120      C       4.0525975701    -1.5121862295     2.5892666735
  121      C       1.3491181975     2.5265075557    -0.4716772645
  122      C       7.7987632728     1.7713895013    -0.0910985905
  123      C       1.6792938331    -0.1403840537     1.9707279422
  124      C       5.7111278761     4.3187606876     2.2422043238
  125      C       4.3794587722     1.1886449118    -2.6896717521
  126      C       3.3780589118    -1.8864017316     1.4535988716
  127      C       5.3428139582    -0.9451646574    -2.1211011687
  128      C       3.3134701865     0.2914828775    -2.3571366120
  129      C       2.1737847635    -0.8669383639    -0.2286734660
  130      C       0.9823094919     1.0241156257     1.4895353355
  131      C       6.7561617593     1.1960252756    -2.0020101771
  132      C       1.7210965849     3.3368237867     1.7695435379
  133      C       6.1763465909    -1.5205793134    -1.0186369634
  134      C       5.5192071825    -1.9857439302     0.1882245354
  135      C       1.7248388356     3.5896235074     0.3731212176
  136      C       4.5379952840     1.5902645667     4.2054913227
  137      C       3.7007286734     3.4343375935     3.2753900944
  138      C       5.0883874127     3.5958533263     3.2823823193
  139      C       6.8541760730     3.7530105470     1.6393531000
  140      C       6.1231296409    -1.5424601199     1.3607287476
  141      C       5.6306373326     0.5098823531    -2.4941734172
  142      C       6.8567686888     3.9791105512     0.3086788099
  143      C       2.2648390735    -1.0769312181     1.1554125551
  144      C       6.6217274060     2.6501120285    -1.7439925038
  145      C       2.1551395656     0.9134810668    -1.8158045279
  146      C       5.7977205872    -0.3358476753     3.4521694846
  147      C       4.8977734006     4.7658956331     1.1440013199
  148      C       3.8269783618    -0.9983188912    -1.9403635908
  149      C       6.7807508149     1.8825172224     3.2739259659
  150      C       1.5203133259     0.2488667487    -0.7836798002
  151      C       4.2629278105     2.5942419899    -2.5702297621
  152      C       2.2526364325     1.5426489426     3.3203446274
  153      C       2.3356379882     0.1361136387     3.1835850550
  154      C       3.0617239872     3.1570938460    -2.1326647237
  155      C       5.3990812802    -1.3710024448     2.6109636203
  156      C       4.0880417556    -2.0583258790     0.2441922199
  157      C       4.6394517396     0.1813020550     4.0155196714
  158      C       7.2703190827    -0.6340241977    -0.4092584161
  159      C       4.8776835522     4.3095369826    -1.2297845129
  160      C       3.3055860495    -1.4480357900    -0.7225890765
  161      C       2.0355421532     2.2912685803    -1.6303078258
  162      C       6.8792272761     0.5001238252     3.0669190047
  163      C       2.8322868395     4.3291589569     0.0488308576
  164      C       7.2670255183     2.5256308459     2.1517781236
  165      C       2.8541014658     4.0063741104     2.3038461713
  166      C       5.4065054667     3.3179969346    -2.0997556136
  167      C       3.4552935596     4.1937604140    -1.2231140553
  168      C       7.4671994639     0.6826038843    -0.9354044123
  169      C       7.2014823341    -0.7504393682     0.9695298236
  170      C       3.3285196487     2.2346528721     3.8560440457
  171      C       5.5692614203     4.5862947845    -0.0435829401
  172      C       0.9801454083     1.2580924477     0.0761184955
  173      C       3.5302877843    -0.5400327887     3.4852137563
  174      C       1.3968237500     2.0645353014     2.2925016039
  175      C       7.4976638500     0.3002865681     1.8592840123
  176      C       5.5935532775     2.4290526036     3.8671528064
 ----------------------------------------------------------------
 Molecular Point Group                 C1    NOp =  1
 Largest Abelian Subgroup              C1    NOp =  1
 Nuclear Repulsion Energy = 35029.3118619544 hartrees
 There are      462 alpha and      462 beta electrons
 Requested basis set is 6-31G(d,p)
 There are 676 shells and 2360 basis functions

 Total QAlloc Memory Limit  20000 MB
 Mega-Array Size      4888 MB
 MEM_STATIC part      5000 MB
 A cutoff of  1.0D-08 yielded  38063 shell pairs
 There are    536341 function pairs
 
 -------------------------------------------------------
 OpenMP Integral Computing Module                       
 Release: version 1.0, May 2013, Q-Chem Inc. Pittsburgh 
 -------------------------------------------------------
 Integral Job Info:
 Integral job number is                      11
 Integral operator is                         1
 short-range coefficients                     0
 long-range coefficients              100000000
 Omega coefficients                           0
 if combine SR and LR in K                    0
 Integral screening is                        0
 Integral computing path is                   2
 max size of driver memory is            800000
 size of driver memory is                593474
 size of scratch memory is              2260544
 max col of scratch BK array               1296
 max len of scratch array in speh3          155
 max len of scratch index in speh4           18
 max int batch size is                      520
 min int batch size is                       52
 fixed nKL is                                52
 max L of basis functions is                  2
 order of int derivative is                   0
 number of shells is                        676
 number of basis is                        2360
 number of cartesian basis is              2360
 number of contracted shell pairs         38063
 number of primitive shell pairs         114825
 maxK2 (contraction) of shell pair           36
 max number of K2 of shell pair               1
 max number of CS2 of shell pair           7348
 max number of PS2 of shell pair          34710
 mem total for path MDJ                 1534616
 -------------------------------------------------------
 Smallest overlap matrix eigenvalue = 2.47E-04

 Scale SEOQF with 1.000000e-02/1.000000e-02/1.000000e-02

 Standard Electronic Orientation quadrupole field applied
 Nucleus-field energy     =     0.0000001021 hartrees
 Guess from superposition of atomic densities
 Warning:  Energy on first SCF cycle will be non-variational
 A restricted hybrid HF-DFT SCF calculation will be
 performed using Pulay DIIS extrapolation
 Exchange:     0.2000 Hartree-Fock + 0.0800 Slater + 0.7200 B88
 Correlation:  0.1900 VWN1RPA + 0.8100 LYP
 Using SG-1 standard quadrature grid
 SCF converges when DIIS error is below 1.0E-05
 using 16 threads for integral computing 
 -------------------------------------------------------
 OpenMP BLAS3 based DFT computing Module                
 Release: version 1.0, May 2013, Q-Chem Inc. Pittsburgh 
 -------------------------------------------------------
 ---------------------------------------
  Cycle       Energy         DIIS Error
 ---------------------------------------
    1   -5859.0151469610      1.84E-02
    2   -5803.0628415281      1.30E-03
    3   -5802.3663983916      1.75E-03
    4   -5803.9307729643      6.29E-04
    5   -5804.1447730684      3.07E-04
    6   -5804.2090657781      1.23E-04
    7   -5804.2187081491      4.71E-05
    8   -5804.2197530711      2.90E-05
    9   -5804.2204075430      7.89E-06 Convergence criterion met
 ---------------------------------------
 SCF time:  CPU 7413.47 s  wall 859.20 s
 SCF   energy in the final basis set = -5804.2204075430
 Total energy in the final basis set = -5804.2204075430
 
 --------------------------------------------------------------
 
                    Orbital Energies (a.u.)
 --------------------------------------------------------------
 
 Alpha MOs
 -- Occupied --
-19.201 -19.185 -19.146 -19.143 -10.324 -10.315 -10.253 -10.242
-10.239 -10.237 -10.234 -10.233 -10.232 -10.231 -10.230 -10.226
-10.224 -10.223 -10.222 -10.222 -10.222 -10.220 -10.220 -10.220
-10.219 -10.218 -10.217 -10.217 -10.217 -10.217 -10.217 -10.217
-10.216 -10.216 -10.216 -10.216 -10.216 -10.216 -10.215 -10.215
-10.215 -10.215 -10.215 -10.215 -10.214 -10.214 -10.214 -10.214
-10.213 -10.213 -10.213 -10.213 -10.213 -10.213 -10.212 -10.212
-10.212 -10.212 -10.212 -10.212 -10.212 -10.212 -10.211 -10.211
-10.211 -10.211 -10.211 -10.211 -10.211 -10.210 -10.210 -10.210
-10.210 -10.210 -10.210 -10.210 -10.210 -10.210 -10.209 -10.209
-10.209 -10.209 -10.208 -10.208 -10.208 -10.208 -10.208 -10.208
-10.208 -10.208 -10.207 -10.207 -10.207 -10.207 -10.207 -10.207
-10.207 -10.207 -10.207 -10.207 -10.206 -10.206 -10.206 -10.206
-10.206 -10.206 -10.205 -10.205 -10.205 -10.205 -10.205 -10.205
-10.204 -10.204 -10.204 -10.204 -10.204 -10.204 -10.203 -10.203
-10.203 -10.203 -10.203 -10.202 -10.202 -10.202 -10.202 -10.201
-10.201 -10.200 -10.200 -10.200 -10.199 -10.199 -10.199 -10.199
-10.198 -10.198 -10.197 -10.197 -10.196 -10.195 -10.195 -10.195
-10.194 -10.193 -10.191 -10.191  -1.116  -1.100  -1.036  -1.018
 -0.981  -0.979  -0.964  -0.962  -0.962  -0.958  -0.957  -0.954
 -0.935  -0.930  -0.925  -0.922  -0.922  -0.920  -0.919  -0.917
 -0.917  -0.916  -0.897  -0.890  -0.888  -0.886  -0.885  -0.878
 -0.870  -0.870  -0.852  -0.849  -0.840  -0.837  -0.836  -0.835
 -0.834  -0.832  -0.822  -0.815  -0.810  -0.802  -0.796  -0.794
 -0.793  -0.791  -0.790  -0.789  -0.787  -0.786  -0.782  -0.780
 -0.768  -0.766  -0.766  -0.765  -0.764  -0.763  -0.761  -0.760
 -0.751  -0.747  -0.744  -0.739  -0.729  -0.729  -0.713  -0.712
 -0.712  -0.710  -0.710  -0.708  -0.707  -0.706  -0.706  -0.705
 -0.704  -0.704  -0.704  -0.702  -0.701  -0.699  -0.669  -0.666
 -0.657  -0.655  -0.654  -0.652  -0.645  -0.644  -0.632  -0.628
 -0.627  -0.624  -0.624  -0.621  -0.619  -0.619  -0.617  -0.617
 -0.614  -0.611  -0.609  -0.609  -0.609  -0.607  -0.606  -0.605
 -0.604  -0.602  -0.599  -0.598  -0.572  -0.566  -0.563  -0.562
 -0.558  -0.557  -0.555  -0.553  -0.553  -0.552  -0.551  -0.548
 -0.537  -0.531  -0.530  -0.526  -0.525  -0.525  -0.522  -0.521
 -0.518  -0.517  -0.517  -0.515  -0.513  -0.513  -0.511  -0.510
 -0.509  -0.505  -0.502  -0.500  -0.498  -0.492  -0.487  -0.486
 -0.486  -0.482  -0.479  -0.478  -0.477  -0.475  -0.475  -0.474
 -0.472  -0.469  -0.469  -0.468  -0.467  -0.466  -0.465  -0.463
 -0.462  -0.461  -0.460  -0.459  -0.458  -0.457  -0.456  -0.454
 -0.453  -0.450  -0.449  -0.448  -0.445  -0.444  -0.443  -0.440
 -0.437  -0.437  -0.437  -0.436  -0.435  -0.435  -0.433  -0.432
 -0.428  -0.427  -0.426  -0.426  -0.425  -0.422  -0.421  -0.420
 -0.420  -0.419  -0.419  -0.418  -0.416  -0.416  -0.415  -0.415
 -0.414  -0.413  -0.412  -0.412  -0.412  -0.411  -0.410  -0.409
 -0.408  -0.406  -0.405  -0.404  -0.401  -0.401  -0.398  -0.395
 -0.394  -0.391  -0.389  -0.389  -0.387  -0.387  -0.384  -0.382
 -0.382  -0.375  -0.374  -0.372  -0.369  -0.367  -0.365  -0.363
 -0.361  -0.361  -0.360  -0.358  -0.357  -0.356  -0.355  -0.354
 -0.353  -0.353  -0.352  -0.352  -0.351  -0.349  -0.348  -0.347
 -0.346  -0.346  -0.344  -0.343  -0.343  -0.342  -0.340  -0.340
 -0.337  -0.337  -0.336  -0.335  -0.335  -0.334  -0.332  -0.332
 -0.329  -0.328  -0.327  -0.325  -0.325  -0.324  -0.322  -0.319
 -0.308  -0.303  -0.303  -0.301  -0.285  -0.281  -0.277  -0.272
 -0.269  -0.267  -0.264  -0.263  -0.263  -0.262  -0.261  -0.259
 -0.258  -0.257  -0.256  -0.254  -0.254  -0.252  -0.251  -0.250
 -0.248  -0.244  -0.242  -0.237  -0.216  -0.216  -0.208  -0.208
 -0.207  -0.204  -0.203  -0.201  -0.198  -0.191
 -- Virtual --
 -0.122  -0.119  -0.115  -0.113  -0.107  -0.102  -0.078  -0.072
 -0.070  -0.066  -0.059  -0.053  -0.051  -0.044  -0.024  -0.019
 -0.019  -0.018  -0.016  -0.015  -0.013  -0.012  -0.010  -0.009
 -0.007  -0.006  -0.005  -0.003  -0.003  -0.001   0.003   0.008
  0.014   0.015   0.038   0.040   0.042   0.046   0.049   0.052
  0.056   0.058   0.059   0.060   0.064   0.069   0.070   0.072
  0.074   0.080   0.081   0.084   0.084   0.087   0.090   0.092
  0.096   0.100   0.100   0.101   0.104   0.106   0.108   0.111
  0.112   0.112   0.114   0.116   0.118   0.119   0.123   0.123
  0.127   0.127   0.128   0.131   0.133   0.134   0.135   0.139
  0.140   0.142   0.142   0.143   0.149   0.150   0.152   0.155
  0.158   0.159   0.162   0.164   0.164   0.169   0.170   0.173
  0.173   0.176   0.177   0.178   0.181   0.182   0.183   0.183
  0.185   0.186   0.187   0.190   0.192   0.193   0.194   0.196
  0.196   0.199   0.199   0.203   0.204   0.206   0.209   0.211
  0.213   0.216   0.217   0.220   0.221   0.222   0.224   0.225
  0.226   0.227   0.228   0.230   0.230   0.232   0.233   0.235
  0.237   0.239   0.239   0.241   0.241   0.242   0.244   0.246
  0.248   0.250   0.251   0.253   0.254   0.258   0.261   0.264
  0.266   0.271   0.272   0.274   0.275   0.279   0.280   0.281
  0.285   0.286   0.288   0.290   0.295   0.299   0.303   0.306
  0.309   0.310   0.311   0.314   0.317   0.318   0.320   0.322
  0.324   0.325   0.328   0.330   0.331   0.334   0.335   0.341
  0.342   0.343   0.344   0.345   0.346   0.349   0.349   0.353
  0.356   0.359   0.361   0.366   0.371   0.377   0.382   0.392
  0.393   0.396   0.401   0.402   0.406   0.407   0.409   0.412
  0.413   0.416   0.417   0.419   0.421   0.423   0.424   0.429
  0.431   0.433   0.436   0.436   0.442   0.443   0.447   0.449
  0.449   0.450   0.453   0.456   0.458   0.460   0.461   0.464
  0.467   0.468   0.470   0.473   0.474   0.476   0.478   0.479
  0.480   0.481   0.483   0.485   0.487   0.488   0.488   0.491
  0.491   0.492   0.493   0.494   0.495   0.497   0.498   0.499
  0.500   0.500   0.501   0.502   0.505   0.506   0.506   0.507
  0.508   0.508   0.509   0.510   0.511   0.512   0.513   0.514
  0.515   0.516   0.518   0.518   0.519   0.520   0.521   0.522
  0.522   0.522   0.523   0.524   0.526   0.526   0.528   0.529
  0.530   0.530   0.531   0.532   0.534   0.534   0.535   0.535
  0.537   0.537   0.537   0.538   0.540   0.540   0.541   0.542
  0.543   0.544   0.544   0.545   0.546   0.547   0.548   0.548
  0.550   0.551   0.551   0.552   0.553   0.553   0.554   0.555
  0.556   0.556   0.558   0.558   0.558   0.559   0.560   0.561
  0.562   0.563   0.563   0.564   0.565   0.566   0.566   0.567
  0.568   0.570   0.570   0.571   0.572   0.572   0.574   0.574
  0.575   0.575   0.577   0.578   0.580   0.580   0.581   0.582
  0.582   0.584   0.584   0.586   0.587   0.588   0.589   0.590
  0.591   0.591   0.592   0.593   0.593   0.594   0.594   0.595
  0.597   0.598   0.599   0.600   0.601   0.601   0.602   0.603
  0.604   0.605   0.605   0.606   0.607   0.608   0.611   0.612
  0.613   0.614   0.615   0.617   0.618   0.619   0.620   0.621
  0.622   0.623   0.624   0.626   0.626   0.626   0.628   0.631
  0.631   0.632   0.633   0.634   0.635   0.635   0.636   0.638
  0.638   0.639   0.640   0.641   0.642   0.644   0.645   0.645
  0.646   0.646   0.647   0.649   0.650   0.652   0.653   0.654
  0.655   0.656   0.657   0.657   0.658   0.660   0.661   0.661
  0.662   0.662   0.664   0.665   0.666   0.667   0.669   0.669
  0.670   0.671   0.671   0.673   0.674   0.674   0.674   0.675
  0.675   0.676   0.677   0.679   0.679   0.680   0.681   0.682
  0.683   0.685   0.686   0.689   0.689   0.691   0.692   0.693
  0.695   0.696   0.697   0.698   0.699   0.700   0.700   0.701
  0.701   0.703   0.704   0.706   0.708   0.709   0.710   0.712
  0.713   0.714   0.715   0.717   0.717   0.718   0.719   0.720
  0.722   0.723   0.724   0.725   0.728   0.729   0.730   0.732
  0.732   0.732   0.733   0.735   0.735   0.737   0.738   0.740
  0.743   0.743   0.744   0.747   0.748   0.748   0.750   0.751
  0.755   0.755   0.756   0.757   0.759   0.761   0.762   0.763
  0.764   0.765   0.766   0.767   0.768   0.769   0.771   0.772
  0.774   0.775   0.776   0.778   0.779   0.780   0.781   0.783
  0.784   0.785   0.786   0.787   0.788   0.791   0.791   0.793
  0.794   0.795   0.797   0.798   0.798   0.799   0.802   0.802
  0.804   0.805   0.806   0.806   0.807   0.808   0.809   0.810
  0.811   0.812   0.812   0.813   0.814   0.814   0.816   0.817
  0.817   0.818   0.819   0.820   0.821   0.822   0.823   0.823
  0.824   0.825   0.826   0.826   0.827   0.829   0.830   0.830
  0.831   0.832   0.832   0.835   0.835   0.836   0.838   0.839
  0.840   0.842   0.844   0.845   0.847   0.849   0.851   0.851
  0.854   0.855   0.860   0.861   0.865   0.866   0.868   0.872
  0.875   0.879   0.880   0.882   0.885   0.886   0.890   0.893
  0.896   0.899   0.902   0.904   0.906   0.907   0.909   0.910
  0.912   0.915   0.916   0.917   0.920   0.922   0.923   0.926
  0.928   0.930   0.932   0.934   0.936   0.937   0.938   0.939
  0.940   0.943   0.945   0.947   0.951   0.952   0.953   0.956
  0.958   0.962   0.964   0.965   0.968   0.972   0.975   0.976
  0.978   0.979   0.983   0.986   0.986   0.992   0.993   0.995
  0.997   0.999   1.002   1.005   1.005   1.009   1.010   1.013
  1.015   1.016   1.017   1.018   1.020   1.021   1.022   1.024
  1.024   1.026   1.027   1.029   1.030   1.031   1.032   1.034
  1.035   1.037   1.040   1.042   1.045   1.046   1.047   1.049
  1.050   1.053   1.054   1.057   1.059   1.060   1.062   1.064
  1.066   1.068   1.070   1.071   1.072   1.073   1.074   1.077
  1.078   1.079   1.081   1.081   1.083   1.084   1.087   1.089
  1.090   1.092   1.093   1.094   1.096   1.097   1.101   1.103
  1.105   1.106   1.107   1.109   1.110   1.112   1.114   1.116
  1.121   1.122   1.125   1.126   1.130   1.132   1.132   1.135
  1.135   1.140   1.141   1.144   1.147   1.149   1.150   1.152
  1.154   1.155   1.157   1.159   1.162   1.162   1.164   1.166
  1.167   1.170   1.170   1.172   1.174   1.176   1.178   1.178
  1.180   1.182   1.183   1.183   1.185   1.189   1.191   1.193
  1.194   1.195   1.197   1.197   1.202   1.203   1.206   1.209
  1.212   1.214   1.218   1.220   1.222   1.225   1.226   1.231
  1.231   1.235   1.236   1.239   1.243   1.244   1.246   1.250
  1.252   1.254   1.256   1.257   1.259   1.261   1.265   1.266
  1.269   1.269   1.271   1.274   1.276   1.280   1.281   1.283
  1.284   1.286   1.287   1.289   1.292   1.293   1.295   1.297
  1.298   1.301   1.306   1.309   1.310   1.311   1.314   1.315
  1.318   1.321   1.325   1.328   1.330   1.331   1.335   1.337
  1.338   1.339   1.341   1.342   1.345   1.347   1.349   1.351
  1.353   1.356   1.360   1.362   1.363   1.365   1.367   1.370
  1.372   1.373   1.377   1.377   1.380   1.383   1.387   1.387
  1.390   1.393   1.395   1.398   1.399   1.401   1.403   1.405
  1.411   1.412   1.415   1.417   1.423   1.423   1.427   1.430
  1.432   1.434   1.437   1.437   1.440   1.448   1.449   1.453
  1.454   1.455   1.458   1.462   1.464   1.465   1.468   1.469
  1.472   1.473   1.475   1.475   1.478   1.480   1.483   1.483
  1.487   1.488   1.489   1.492   1.492   1.496   1.498   1.498
  1.502   1.504   1.507   1.510   1.512   1.512   1.514   1.521
  1.524   1.527   1.529   1.532   1.532   1.539   1.541   1.546
  1.547   1.548   1.549   1.551   1.555   1.559   1.561   1.564
  1.564   1.565   1.568   1.571   1.572   1.573   1.576   1.578
  1.580   1.582   1.583   1.586   1.589   1.592   1.594   1.596
  1.598   1.602   1.604   1.610   1.611   1.617   1.623   1.624
  1.626   1.630   1.633   1.634   1.639   1.644   1.646   1.651
  1.654   1.655   1.657   1.661   1.662   1.670   1.675   1.679
  1.680   1.687   1.690   1.693   1.694   1.697   1.700   1.703
  1.704   1.705   1.710   1.712   1.713   1.716   1.718   1.722
  1.723   1.725   1.726   1.729   1.732   1.733   1.734   1.736
  1.737   1.738   1.742   1.744   1.745   1.746   1.748   1.750
  1.750   1.756   1.756   1.758   1.759   1.762   1.763   1.765
  1.767   1.768   1.769   1.769   1.770   1.772   1.774   1.775
  1.776   1.778   1.779   1.781   1.782   1.783   1.785   1.785
  1.787   1.787   1.788   1.790   1.790   1.791   1.793   1.795
  1.796   1.797   1.798   1.799   1.801   1.802   1.802   1.803
  1.805   1.806   1.809   1.810   1.811   1.813   1.814   1.817
  1.818   1.820   1.821   1.824   1.824   1.825   1.826   1.829
  1.833   1.835   1.836   1.839   1.840   1.841   1.845   1.849
  1.851   1.852   1.854   1.855   1.856   1.858   1.863   1.863
  1.865   1.867   1.869   1.871   1.871   1.873   1.874   1.876
  1.877   1.880   1.883   1.883   1.884   1.885   1.886   1.889
  1.889   1.894   1.896   1.897   1.901   1.903   1.903   1.910
  1.910   1.912   1.914   1.914   1.916   1.919   1.923   1.925
  1.927   1.930   1.933   1.934   1.935   1.937   1.938   1.940
  1.941   1.943   1.945   1.947   1.951   1.952   1.954   1.954
  1.960   1.961   1.963   1.966   1.966   1.968   1.972   1.974
  1.975   1.979   1.980   1.981   1.984   1.985   1.988   1.989
  1.991   1.991   1.993   1.994   1.996   1.997   1.999   2.000
  2.002   2.003   2.004   2.004   2.006   2.008   2.010   2.010
  2.010   2.012   2.014   2.015   2.017   2.019   2.021   2.024
  2.024   2.025   2.026   2.026   2.028   2.029   2.031   2.032
  2.033   2.034   2.035   2.035   2.036   2.038   2.038   2.040
  2.041   2.042   2.044   2.044   2.045   2.047   2.049   2.051
  2.051   2.052   2.053   2.054   2.055   2.057   2.058   2.060
  2.062   2.063   2.065   2.066   2.067   2.069   2.070   2.072
  2.073   2.075   2.076   2.076   2.078   2.080   2.081   2.083
  2.084   2.084   2.086   2.088   2.089   2.093   2.094   2.094
  2.097   2.099   2.101   2.102   2.104   2.108   2.111   2.111
  2.114   2.115   2.118   2.122   2.123   2.125   2.128   2.129
  2.131   2.134   2.137   2.138   2.144   2.144   2.147   2.148
  2.149   2.156   2.158   2.160   2.163   2.169   2.173   2.175
  2.178   2.185   2.186   2.196   2.199   2.205   2.207   2.209
  2.212   2.214   2.220   2.223   2.224   2.226   2.228   2.231
  2.233   2.237   2.241   2.242   2.243   2.244   2.247   2.250
  2.252   2.253   2.257   2.260   2.264   2.266   2.268   2.272
  2.276   2.277   2.277   2.279   2.281   2.284   2.285   2.289
  2.292   2.293   2.295   2.297   2.299   2.301   2.302   2.304
  2.306   2.307   2.308   2.315   2.316   2.316   2.321   2.322
  2.323   2.324   2.328   2.332   2.335   2.337   2.339   2.342
  2.348   2.349   2.352   2.354   2.355   2.357   2.359   2.360
  2.362   2.363   2.366   2.370   2.372   2.374   2.375   2.378
  2.381   2.382   2.382   2.383   2.385   2.387   2.389   2.390
  2.390   2.393   2.395   2.396   2.398   2.400   2.401   2.402
  2.403   2.406   2.408   2.411   2.412   2.412   2.415   2.418
  2.419   2.421   2.422   2.424   2.428   2.429   2.430   2.432
  2.435   2.437   2.439   2.440   2.444   2.446   2.449   2.452
  2.454   2.457   2.459   2.460   2.463   2.464   2.465   2.466
  2.468   2.471   2.474   2.475   2.480   2.481   2.482   2.483
  2.485   2.487   2.488   2.489   2.491   2.494   2.495   2.498
  2.501   2.502   2.502   2.504   2.506   2.508   2.511   2.513
  2.515   2.516   2.517   2.520   2.522   2.525   2.527   2.529
  2.532   2.534   2.535   2.536   2.539   2.542   2.545   2.547
  2.549   2.550   2.552   2.557   2.559   2.561   2.565   2.568
  2.572   2.579   2.581   2.585   2.587   2.587   2.590   2.592
  2.596   2.599   2.601   2.601   2.604   2.608   2.608   2.611
  2.611   2.613   2.616   2.617   2.620   2.622   2.625   2.625
  2.627   2.629   2.630   2.634   2.635   2.638   2.639   2.641
  2.641   2.645   2.645   2.648   2.649   2.651   2.652   2.654
  2.657   2.658   2.659   2.660   2.661   2.664   2.665   2.668
  2.669   2.671   2.673   2.674   2.675   2.676   2.677   2.679
  2.682   2.685   2.686   2.688   2.689   2.691   2.692   2.696
  2.698   2.702   2.706   2.707   2.708   2.709   2.713   2.714
  2.714   2.718   2.719   2.721   2.722   2.725   2.726   2.729
  2.731   2.733   2.735   2.740   2.743   2.744   2.745   2.748
  2.749   2.751   2.756   2.758   2.762   2.763   2.765   2.766
  2.768   2.770   2.772   2.774   2.778   2.779   2.781   2.783
  2.785   2.789   2.792   2.793   2.795   2.797   2.800   2.801
  2.807   2.809   2.810   2.811   2.814   2.823   2.824   2.826
  2.828   2.833   2.835   2.838   2.840   2.843   2.845   2.848
  2.850   2.851   2.854   2.855   2.857   2.860   2.862   2.863
  2.868   2.870   2.872   2.874   2.877   2.878   2.880   2.883
  2.883   2.884   2.886   2.887   2.888   2.891   2.892   2.896
  2.896   2.898   2.900   2.901   2.905   2.906   2.909   2.912
  2.915   2.915   2.917   2.919   2.921   2.922   2.922   2.925
  2.927   2.929   2.932   2.934   2.935   2.939   2.940   2.943
  2.946   2.946   2.948   2.951   2.955   2.958   2.961   2.965
  2.966   2.971   2.973   2.976   2.979   2.983   2.986   2.990
  2.994   2.994   2.999   3.003   3.004   3.006   3.009   3.015
  3.019   3.021   3.023   3.025   3.027   3.029   3.030   3.033
  3.037   3.038   3.044   3.047   3.049   3.051   3.052   3.054
  3.055   3.055   3.061   3.062   3.067   3.067   3.069   3.073
  3.075   3.082   3.085   3.086   3.093   3.098   3.099   3.113
  3.121   3.130   3.137   3.143   3.145   3.152   3.155   3.159
  3.164   3.167   3.173   3.178   3.181   3.186   3.194   3.196
  3.204   3.205   3.210   3.213   3.221   3.236   3.239   3.246
  3.252   3.258   3.262   3.276   3.281   3.290   3.301   3.303
  3.305   3.309   3.314   3.317   3.321   3.335   3.337   3.343
  3.343   3.347   3.356   3.356   3.361   3.368   3.375   3.381
  3.385   3.405   3.410   3.415   3.421   3.430   3.437   3.438
  3.440   3.462   3.463   3.471   3.473   3.486   3.498   3.503
  3.506   3.515   3.523   3.531   3.534   3.537   3.540   3.546
  3.550   3.557   3.571   3.584   3.585   3.590   3.599   3.601
  3.616   3.644   3.678   3.709   3.826   3.861   3.991   4.019
  4.072   4.077   4.081   4.084   4.088   4.098   4.102   4.106
  4.107   4.109   4.111   4.114   4.117   4.119   4.122   4.128
  4.131   4.136   4.138   4.148   4.151   4.154   4.155   4.158
  4.159   4.166   4.171   4.174   4.176   4.179   4.184   4.193
  4.194   4.199   4.203   4.216   4.224   4.228   4.246   4.247
  4.250   4.251   4.255   4.261   4.263   4.265   4.269   4.273
  4.275   4.288   4.289   4.297   4.299   4.304   4.308   4.311
  4.322   4.331   4.348   4.359   4.391   4.394   4.399   4.402
  4.403   4.407   4.412   4.415   4.418   4.419   4.421   4.426
  4.428   4.430   4.432   4.437   4.445   4.458   4.462   4.477
  4.488   4.496   4.506   4.523   4.538   4.545   4.556   4.561
  4.567   4.572   4.623   4.624   4.628   4.641   4.643   4.652
  4.669   4.677   4.684   4.692   4.697   4.704   4.706   4.707
  4.710   4.714   4.717   4.722   4.732   4.737   4.788   4.801
  4.847   4.854   4.862   4.867   4.872   4.885   4.892   4.894
  4.906   4.925   4.949   4.963   4.972   4.976   4.978   4.988
  4.995   5.004   5.012   5.018   5.157   5.176   5.186   5.190
  5.198   5.214   5.226   5.260   5.323   5.337   5.341   5.344
  5.355   5.409
 --------------------------------------------------------------
 
          Ground-State Mulliken Net Atomic Charges

     Atom                 Charge (a.u.)
  ----------------------------------------
      1 O                    -0.442670
      2 C                    -0.085397
      3 H                     0.117441
      4 H                     0.113618
      5 H                     0.121557
      6 O                    -0.453070
      7 C                     0.612149
      8 C                    -0.282934
      9 H                     0.129883
     10 H                     0.128428
     11 C                    -0.170586
     12 H                     0.115750
     13 H                     0.109215
     14 C                    -0.181303
     15 H                     0.104288
     16 H                     0.122929
     17 C                     0.004823
     18 C                     0.096079
     19 C                    -0.093579
     20 H                     0.090217
     21 C                    -0.098258
     22 H                     0.088335
     23 C                    -0.080797
     24 H                     0.088020
     25 C                    -0.090162
     26 H                     0.092890
     27 C                    -0.115556
     28 H                     0.086562
     29 C                    -0.000311
     30 C                    -0.006321
     31 C                    -0.001769
     32 C                    -0.007359
     33 C                     0.010452
     34 C                    -0.003450
     35 C                    -0.009566
     36 C                     0.009193
     37 C                    -0.009660
     38 C                     0.003165
     39 C                    -0.101911
     40 C                     0.022739
     41 C                     0.019729
     42 C                    -0.016015
     43 C                     0.030544
     44 C                    -0.013234
     45 C                    -0.081472
     46 C                     0.067209
     47 C                    -0.014276
     48 C                     0.026236
     49 C                    -0.029516
     50 C                     0.000010
     51 C                    -0.017628
     52 C                    -0.027474
     53 C                     0.017144
     54 C                    -0.006634
     55 C                    -0.000254
     56 C                     0.004324
     57 C                    -0.012138
     58 C                    -0.003256
     59 C                     0.008564
     60 C                     0.033955
     61 C                    -0.009910
     62 C                    -0.027302
     63 C                    -0.006182
     64 C                     0.022178
     65 C                     0.003603
     66 C                    -0.016618
     67 C                    -0.001654
     68 C                     0.058945
     69 C                     0.013298
     70 C                     0.008555
     71 C                    -0.017804
     72 C                    -0.031327
     73 C                     0.026031
     74 C                    -0.010750
     75 C                     0.017353
     76 C                    -0.013611
     77 C                     0.006319
     78 C                     0.028295
     79 C                    -0.028100
     80 C                    -0.005592
     81 C                     0.006596
     82 C                    -0.017582
     83 C                     0.007447
     84 C                    -0.032425
     85 C                    -0.010623
     86 C                     0.009794
     87 C                     0.008516
     88 C                     0.001941
     89 O                    -0.489009
     90 C                    -0.091405
     91 H                     0.137898
     92 H                     0.129427
     93 H                     0.126597
     94 O                    -0.427904
     95 C                     0.592757
     96 C                    -0.268050
     97 H                     0.125096
     98 H                     0.124349
     99 C                    -0.187391
    100 H                     0.128861
    101 H                     0.104413
    102 C                    -0.180293
    103 H                     0.112357
    104 H                     0.117066
    105 C                     0.000892
    106 C                     0.121250
    107 C                    -0.101836
    108 H                     0.082933
    109 C                    -0.092817
    110 H                     0.092353
    111 C                    -0.086476
    112 H                     0.097765
    113 C                    -0.106358
    114 H                     0.086691
    115 C                    -0.109086
    116 H                     0.087364
    117 C                    -0.019483
    118 C                     0.009934
    119 C                     0.017053
    120 C                     0.020778
    121 C                     0.028186
    122 C                    -0.009161
    123 C                     0.006803
    124 C                    -0.059291
    125 C                     0.016443
    126 C                    -0.048130
    127 C                    -0.102546
    128 C                    -0.012546
    129 C                     0.026564
    130 C                    -0.009658
    131 C                    -0.030141
    132 C                    -0.018287
    133 C                    -0.080241
    134 C                     0.047626
    135 C                    -0.025722
    136 C                    -0.003299
    137 C                    -0.000982
    138 C                     0.045570
    139 C                     0.024079
    140 C                     0.006014
    141 C                     0.050932
    142 C                    -0.019744
    143 C                     0.011198
    144 C                    -0.008946
    145 C                    -0.004070
    146 C                    -0.008065
    147 C                    -0.006598
    148 C                    -0.019835
    149 C                    -0.040657
    150 C                    -0.020454
    151 C                     0.009778
    152 C                     0.009129
    153 C                    -0.015830
    154 C                    -0.033432
    155 C                     0.008349
    156 C                    -0.022188
    157 C                    -0.007564
    158 C                     0.014909
    159 C                    -0.015997
    160 C                     0.042402
    161 C                     0.028581
    162 C                     0.008795
    163 C                     0.029763
    164 C                     0.058484
    165 C                    -0.007705
    166 C                    -0.007252
    167 C                    -0.012460
    168 C                     0.023606
    169 C                     0.005949
    170 C                    -0.007520
    171 C                     0.022902
    172 C                    -0.025007
    173 C                    -0.007823
    174 C                     0.027302
    175 C                    -0.009916
    176 C                    -0.016299
  ----------------------------------------
  Sum of atomic charges =     0.000000

 -----------------------------------------------------------------
                    Cartesian Multipole Moments
 -----------------------------------------------------------------
    Charge (ESU x 10^10)
                 0.0000
    Dipole Moment (Debye)
         X       2.4442      Y      -7.2500      Z       1.1827
       Tot       7.7417
    Quadrupole Moments (Debye-Ang)
        XX    -785.7092     XY      -1.9130     YY    -779.1165
        XZ     -16.1141     YZ      -8.5313     ZZ    -788.8807
    Octopole Moments (Debye-Ang^2)
       XXX     197.0329    XXY    -493.0292    XYY     -58.9051
       YYY    -538.5589    XXZ    -105.4809    XYZ      25.4494
       YYZ      61.4076    XZZ      99.1675    YZZ    -192.1270
       ZZZ      -7.2517
    Hexadecapole Moments (Debye-Ang^3)
      XXXX -137996.2959   XXXY     -30.8892   XXYY  -28391.5861
      XYYY     716.1842   YYYY  -41081.4407   XXXZ   -1700.7557
      XXYZ     381.1990   XYYZ      43.3777   YYYZ    -282.4201
      XXZZ  -26912.5060   XYZZ    -102.0697   YYZZ  -11286.9527
      XZZZ   -1244.1470   YZZZ    -208.8875   ZZZZ  -26034.0913
 -----------------------------------------------------------------
Archival summary:
1\1\mn366\SP\ProcedureUnspecified\6-31G**\428\afmv_a\SunOct723:25:342018SunOct723:25:342018\0\\#,ProcedureUnspecified,6-31G**,\\0,1\C\C,1,1.43007\C,2,1.36709,1,107.552\C,3,1.39535,2,109.003,1,1.96911,0\C,4,1.38203,3,109.645,2,-1.12475,0\C,5,1.40715,4,117.553,3,137.421,0\C,6,1.36477,5,125.451,4,8.25092,0\C,7,1.38541,6,113.79,5,-151.146,0\C,7,1.39895,6,119.159,5,5.77533,0\C,6,1.40288,5,122.545,4,-135.182,0\C,10,1.37285,6,117.138,5,-0.204828,0\C,11,1.40651,10,116.564,6,144.455,0\C,12,1.40547,11,119.153,10,-0.308936,0\C,10,1.40834,6,110.257,5,155.582,0\C,14,1.37287,10,114.007,6,-141.037,0\C,15,1.35404,14,122.024,10,131.556,0\C,16,1.39215,15,111.837,14,-145.166,0\C,17,1.38795,16,106.46,15,-1.49263,0\C,2,1.40892,1,120.556,3,143.2,0\C,19,1.37059,2,118.734,1,-134.931,0\C,20,1.39546,19,106.968,2,139.584,0\C,21,1.37973,20,110.345,19,-0.254678,0\C,21,1.39744,20,116.763,19,-152.086,0\C,23,1.37605,21,121.605,20,5.71594,0\C,24,1.4007,23,121.046,21,-4.86121,0\C,22,1.40993,21,114.414,20,-141.094,0\C,26,1.38381,22,118.644,21,140.5,0\C,27,1.38686,26,118.631,22,-9.7214,0\C,26,1.39704,22,123.572,21,-9.05132,0\C,29,1.39949,26,105.322,22,150.128,0\C,30,1.39005,29,109.311,26,0.139992,0\C,29,1.41151,26,119.587,22,2.78301,0\C,32,1.4107,29,117.84,26,133.134,0\C,33,1.34975,32,110.835,29,-141.53,0\C,33,1.39265,32,115.875,29,0.734906,0\C,35,1.35252,33,120.076,32,-141.369,0\C,35,1.38176,33,127.206,32,8.11747,0\C,36,1.39637,35,110.321,33,152.07,0\C,38,1.37142,36,106.505,35,0.70233,0\C,38,1.40834,36,117.927,35,-145.414,0\C,40,1.38541,38,123.753,36,-7.11596,0\C,40,1.39398,38,114.16,36,134.286,0\C,42,1.3914,40,106.278,38,-148.484,0\C,19,1.41913,2,117.058,1,-0.180561,0\C,44,1.41328,19,121.674,2,-1.96141,0\C,45,1.37806,44,122.214,19,4.33875,0\C,25,1.42115,24,118.2,23,137.564,0\C,4,1.42185,3,123.531,2,142.72,0\C,20,1.42278,19,120.93,2,-11.0731,0\C,36,1.42769,35,121.441,33,0.964444,0\C,50,1.37626,36,118.139,35,2.11133,0\C,51,1.38403,50,106.469,36,138.223,0\C,50,1.41712,36,117.917,35,141.016,0\C,53,1.38088,50,107.158,36,-140.936,0\C,54,1.40706,53,120.05,50,138.82,0\C,48,1.43241,4,114.876,3,-0.83747,0\C,56,1.41547,48,122.759,4,3.83401,0\C,57,1.39684,56,119.826,48,1.07199,0\C,43,1.45077,42,113.719,40,-0.614783,0\C,59,1.47304,43,127.903,42,-152.128,0\C,60,1.47371,59,124.993,43,152.147,0\C,61,1.35621,60,124.871,59,124.779,0\H,62,1.08569,61,120.17,60,-3.45878,0\C,62,1.37543,61,126.183,60,172.737,0\H,64,1.08598,62,124.781,61,177.347,0\C,61,1.40957,60,118.524,59,-57.0345,0\H,66,1.08589,61,116.016,60,-5.52863,0\C,66,1.42117,61,118.879,60,-164.716,0\H,68,1.08663,66,122.565,61,166.853,0\C,68,1.4389,66,123.078,61,-13.6545,0\H,70,1.08519,68,124.894,66,-175.688,0\C,59,1.4971,43,118.923,42,132.874,0\C,60,1.52299,59,118.018,43,2.99183,0\H,73,1.09678,60,115.312,59,-47.3544,0\H,73,1.09727,60,109.23,59,-152.277,0\C,73,1.52974,60,113.52,59,79.4201,0\H,76,1.09707,73,117.89,60,57.8597,0\H,76,1.09757,73,114.127,60,-50.3593,0\C,76,1.49642,73,110.239,60,-175.449,0\H,79,1.09655,76,114.393,73,-37.8799,0\H,79,1.09749,76,111.528,73,-152.795,0\C,79,1.54132,76,113.147,73,80.7166,0\O,82,1.16342,79,125.733,76,-129.102,0\O,82,1.3792,79,109.197,76,48.9807,0\C,84,1.50366,82,119.802,79,162.822,0\H,85,1.09675,84,109.381,82,-64.3157,0\H,85,1.09764,84,108.877,82,-177.327,0\H,85,1.09783,84,112.418,82,60.0097,0\H,14,3.00565,10,78.5824,6,134.579,0\C,89,1.08609,14,138.763,10,3.7204,0\C,90,1.38404,89,116.428,14,-55.8569,0\H,91,1.08586,90,116.506,89,-10.6596,0\C,91,1.41071,90,121.374,89,-179.092,0\C,93,1.41219,91,116.46,90,-2.22121,0\H,94,1.08616,93,119.457,91,172.175,0\C,94,1.41464,93,121.45,91,7.6927,0\H,96,1.08618,94,122.286,93,158.124,0\C,96,1.35446,94,120.405,93,-13.561,0\H,98,1.0858,96,120.809,94,-177.317,0\C,93,1.46634,91,118.664,90,167.484,0\C,100,1.53638,93,115.477,91,75.5336,0\C,101,1.45804,100,127.138,93,0.451796,0\C,102,1.39817,101,109.217,100,-150.378,0\C,103,1.42723,102,109.266,101,-4.18552,0\C,104,1.35437,103,108.507,102,-0.846452,0\C,105,1.3934,104,116.945,103,-138.442,0\C,106,1.41143,105,120.017,104,128.226,0\C,107,1.36154,106,110.288,105,-150.74,0\C,107,1.36966,106,124.982,105,12.6201,0\C,108,1.39164,107,116.816,106,146.903,0\C,110,1.36244,108,122.802,107,-131.971,0\C,111,1.37363,110,108.72,108,143.288,0\C,112,1.35145,111,110.186,110,3.93297,0\C,113,1.38487,112,118.061,111,-142.266,0\C,113,1.39229,112,105.406,111,-4.42357,0\C,115,1.37563,113,121.827,112,-143.593,0\C,108,1.4105,107,107.623,106,10.1361,0\C,117,1.37852,108,119.723,107,138.123,0\C,118,1.3778,117,119.776,108,-3.75149,0\C,119,1.37677,118,109.241,117,-140.925,0\C,120,1.3844,119,107.936,118,2.01053,0\C,121,1.38779,120,108.755,119,-1.6781,0\C,120,1.39172,119,121.114,118,148.567,0\C,123,1.38533,120,118.536,119,-7.28012,0\C,124,1.35309,123,111.177,120,-142.071,0\C,125,1.3883,124,109.992,123,4.82782,0\C,126,1.38696,125,121.411,124,136.401,0\C,127,1.38987,126,119.401,125,-130.691,0\C,128,1.39462,127,120.635,126,-3.59346,0\C,129,1.39557,128,121.894,127,4.60156,0\C,128,1.39768,127,111.409,126,143.525,0\C,131,1.38611,128,123.694,127,-147.613,0\C,132,1.35074,131,120.39,128,134.26,0\C,133,1.3878,132,120.392,131,-0.662771,0\C,133,1.38848,132,107.944,131,-138.26,0\C,135,1.38282,133,109.251,132,0.794421,0\C,134,1.39929,133,123.988,132,-139.524,0\C,129,1.40323,128,119.004,127,145.879,0\C,138,1.39579,129,120.433,128,-1.13644,0\C,117,1.40801,108,108.361,107,-5.35875,0\C,140,1.36911,117,124.492,108,145.33,0\C,138,1.40852,129,108.417,128,-148.69,0\C,141,1.40853,140,121.535,117,-134.408,0\C,123,1.4086,120,121.381,119,-138.507,0\C,143,1.40996,141,107.267,140,133.152,0\C,145,1.38829,143,112.631,141,4.8584,0\C,127,1.41105,126,122.01,125,3.52899,0\C,147,1.3952,127,111.151,126,-141.17,0\C,148,1.38051,147,120.928,127,140.718,0\C,142,1.41331,138,106.948,129,3.13754,0\C,149,1.41389,148,122.301,147,3.20826,0\C,151,1.37281,149,117.597,148,-3.09286,0\C,152,1.39696,151,118.767,149,-133.041,0\C,153,1.40317,152,120.418,151,-1.45218,0\C,154,1.39831,153,122.49,152,-2.83835,0\C,151,1.41006,149,107.148,148,-143.221,0\C,114,1.41821,113,120.813,112,-5.01132,0\C,146,1.4249,145,104.681,143,-4.15582,0\C,147,1.42973,127,118.391,126,0.765689,0\C,109,1.49454,107,117.11,106,-5.08308,0\C,100,1.54365,93,119.272,91,-77.4208,0\H,161,1.09667,100,119.12,93,64.0727,0\H,161,1.09729,100,107.603,93,165.165,0\C,161,1.56164,100,107.56,93,-71.3214,0\H,164,1.09651,161,114.584,100,-38.8322,0\H,164,1.0967,161,110.578,100,70.5432,0\C,164,1.53835,161,116.346,100,-164.908,0\H,167,1.09732,164,113.497,161,-54.3048,0\H,167,1.09743,164,103.993,161,-165.872,0\C,167,1.50527,164,119.633,161,69.1946,0\O,170,1.20443,167,119.157,164,0.255633,0\O,170,1.37163,167,113.113,164,-173.946,0\C,172,1.35377,170,118.492,167,-177.67,0\H,173,1.09706,172,111.532,170,-74.3556,0\H,173,1.09747,172,112.308,170,46.3272,0\H,173,1.09751,172,108.992,170,172.392,0\\\@

 Total job time:  875.96s(wall), 7441.18s(cpu) 
 Sun Oct  7 23:25:34 2018

        *************************************************************
        *                                                           *
        *  Thank you very much for using Q-Chem.  Have a nice day.  *
        *                                                           *
        *************************************************************


