
Running Job 1 of 1 ./10/15.qcin
qchem ./10/15.qcin_19264.0 /tmpu/cab_g/afmv_a/scratch_qchem/qchem19264/ 1
/tmpu/appuserlic/qchem4.4/serial-multicore/exe/qcprog.exe_s ./10/15.qcin_19264.0 /tmpu/cab_g/afmv_a/scratch_qchem/qchem19264/
Check license passed

                  Welcome to Q-Chem
     A Quantum Leap Into The Future Of Chemistry


 Q-Chem 4.4, Q-Chem, Inc., Pleasanton, CA (2016)

 Y. Shao,  Z. Gan,  E. Epifanovsky,  A. T. B. Gilbert,  M. Wormit,  
 J. Kussmann,  A. W. Lange,  A. Behn,  J. Deng,  X. Feng,  D. Ghosh,  
 M. Goldey,  P. R. Horn,  L. D. Jacobson,  I. Kaliman,  F. Rob,  
 R. Z. Khaliullin,  T. Kus,  A. Landau,  J. Liu,  E. I. Proynov,  Y. M. Rhee,  
 R. M. Richard,  M. A. Rohrdanz,  R. P. Steele,  E. J. Sundstrom,  
 H. L. Woodcock III,  P. M. Zimmerman,  D. Zuev,  B. Albrecht,  E. Alguire,  
 B. Austin,  S. A. Baeppler,  G. J. O. Beran,  Y. A. Bernard,  E. Berquist,  
 K. Brandhorst,  K. B. Bravaya,  S. T. Brown,  D. Casanova,  C.-M. Chang,  
 Y. Chen,  S. H. Chien,  K. D. Closser,  M. P. Coons,  D. L. Crittenden,  
 S. Dasgupta,  M. Diedenhofen,  R. A. DiStasio Jr.,  H. Do,  A. D. Dutoi,  
 R. G. Edgar,  P.-T. Fang,  S. Fatehi,  Q. Feng,  L. Fusti-Molnar,  
 A. Ghysels,  A. Golubeva-Zadorozhnaya,  J. Gomes,  A. Gunina,  
 M. W. D. Hanson-Heine,  P. H. P. Harbach,  A. W. Hauser,  J. E. Herr,  
 E. G. Hohenstein,  Z. C. Holden,  K. Hui,  T.-C. Jagau,  H. Ji,  B. Kaduk,  
 K. Khistyaev,  Jaehoon Kim,  Jihan Kim,  R. A. King,  P. Klunzinger,  
 K. Koh,  D. Kosenkov,  T. Kowalczyk,  C. M. Krauter,  A. Kunitsa,  
 K. U. Lao,  A. Laurent,  K. V. Lawler,  J. Lee,  D. Lefrancois,  S. Lehtola,  
 S. V. Levchenko,  C. Y. Lin,  Y.-S. Lin,  F. Liu,  E. Livshits,  
 R. C. Lochan,  A. Luenser,  P. Manohar,  S. F. Manzer,  S.-P. Mao,  Y. Mao,  
 N. Mardirossian,  A. V. Marenich,  L. A. Martinez-Martinez,  S. A. Maurer,  
 N. J. Mayhall,  J.-M. Mewes,  A. F. Morrison,  K. Nanda,  T. S. Nguyen-Beck,  
 C. M. Oana,  R. Olivares-Amaya,  D. P. O'Neill,  J. A. Parkhill,  
 T. M. Perrine,  R. Peverati,  P. A. Pieniazek,  F. Plasser,  A. Prociuk,  
 D. R. Rehn,  E. Rosta,  N. J. Russ,  N. Sergueev,  S. M. Sharada,  
 S. Sharma,  D. W. Small,  A. Sodt,  T. Stauch,  T. Stein,  D. Stuck,  
 Y.-C. Su,  A. J. W. Thom,  T. Tsuchimochi,  L. Vogt,  O. Vydrov,  T. Wang,  
 M. A. Watson,  J. Wenzel,  A. White,  C. F. Williams,  V. Vanovschi,  
 K. Yao,  S. Yeganeh,  S. R. Yost,  Z.-Q. You,  I. Y. Zhang,  X. Zhang,  
 Y. Zhao,  B. R. Brooks,  G. K. L. Chan,  D. M. Chipman,  C. J. Cramer,  
 W. A. Goddard III,  M. S. Gordon,  W. J. Hehre,  A. Klamt,  
 H. F. Schaefer III,  M. W. Schmidt,  C. D. Sherrill,  D. G. Truhlar,  
 A. Warshel,  X. Xu,  A. Aspuru-Guzik,  R. Baer,  A. T. Bell,  N. A. Besley,  
 J.-D. Chai,  A. Dreuw,  B. D. Dunietz,  T. R. Furlani,  S. R. Gwaltney,  
 C.-P. Hsu,  Y. Jung,  J. Kong,  D. S. Lambrecht,  W. Liang,  C. Ochsenfeld,  
 V. A. Rassolov,  L. V. Slipchenko,  J. E. Subotnik,  T. Van Voorhis,  
 J. M. Herbert,  A. I. Krylov,  P. M. W. Gill,  M. Head-Gordon

 Contributors to earlier versions of Q-Chem not listed above: 
 R. D. Adamson,  J. Baker,  E. F. C. Byrd,  A. K. Chakraborty,  C.-L. Cheng,  
 H. Dachsel,  R. J. Doerksen,  G. Hawkins,  A. Heyden,  S. Hirata,  
 G. Kedziora,  F. J. Keil,  C. Kelley,  P. P. Korambath,  W. Kurlancheek,  
 A. M. Lee,  M. S. Lee,  D. Liotard,  I. Lotan,  P. E. Maslen,  N. Nair,  
 D. Neuhauser,  R. Olson,  B. Peters,  J. Ritchie,  N. E. Schultz,  
 N. Shenvi,  A. C. Simmonett,  K. S. Thanthiriwatte,  Q. Wu,  W. Zhang

 Please cite Q-Chem as follows:
 Y. Shao et al., Mol. Phys. 113, 184-215 (2015)
 DOI: 10.1080/00268976.2014.952696

 Q-Chem 4.4.2 for Intel X86 Linux

 Parts of Q-Chem use Armadillo 5.200.1 (Boston Tea Smuggler).
 http://arma.sourceforge.net/

 Q-Chem begins on Sun Oct  7 23:39:52 2018  

Host: 
0

     Scratch files written to /tmpu/cab_g/afmv_a/scratch_qchem/qchem19264//
 Dec716 11556_ 22328  22283 4050   
Processing $rem in /tmpu/appuserlic/qchem4.4/serial-multicore/config/preferences.
 MEM_TOTAL  2000 
FILE_GEOM_ORG=        593

Checking the input file for inconsistencies... 	...done.

--------------------------------------------------------------
User input:
--------------------------------------------------------------
$comment
SP
$end

$rem
MEM_STATIC 5000
MEM_TOTAL 20000
JOBTYPE SP
EXCHANGE B3LYP
BASIS 6-31g(d,p)
$end

$molecule
0 1
O          -9.946000     16.055000     -1.397000
C          -8.511000     15.828000     -1.695000
H          -8.062000     15.345000     -0.818000
H          -8.077000     16.814000     -1.901000
H          -8.321000     15.210000     -2.582000
O         -10.237000     13.789000     -1.543000
C         -10.678000     14.905000     -1.296000
C         -12.154000     15.201000     -1.018000
H         -12.618000     14.207000     -1.021000
H         -12.522000     15.782000     -1.873000
C         -12.366000     15.824000      0.331000
H         -13.269000     15.373000      0.761000
H         -11.536000     15.671000      1.031000
C         -12.725000     17.335000      0.207000
H         -12.027000     17.767000     -0.521000
H         -13.686000     17.540000     -0.281000
C         -12.576000     18.168000      1.486000
C         -13.424000     17.557000      2.569000
C         -12.934000     16.542000      3.391000
H         -11.910000     16.207000      3.253000
C         -13.590000     16.086000      4.548000
H         -13.037000     15.339000      5.112000
C         -14.898000     16.519000      4.742000
H         -15.448000     16.137000      5.597000
C         -15.488000     17.505000      3.898000
H         -16.459000     17.923000      4.147000
C         -14.698000     18.046000      2.901000
H         -15.081000     18.891000      2.336000
C         -12.403000     22.883000      3.848000
C         -10.977000     21.579000      5.284000
C          -7.071000     23.686000      4.002000
C         -11.003000     22.720000     -0.928000
C          -6.262000     21.168000      1.753000
C         -12.072000     21.678000      4.522000
C          -8.253000     22.409000     -0.992000
C          -9.289000     24.574000      4.448000
C          -9.254000     18.693000      3.117000
C         -10.409000     21.469000     -1.137000
C         -11.212000     18.625000      1.779000
C          -8.828000     18.739000      1.772000
C          -8.706000     20.122000     -0.656000
C          -7.091000     22.347000     -0.216000
C         -11.249000     19.647000      4.138000
C          -6.478000     23.588000      1.829000
C         -12.288000     19.563000      1.510000
C         -12.121000     20.450000      0.386000
C          -6.124000     22.377000      2.470000
C          -9.998000     25.381000      1.096000
C          -8.197000     25.121000      2.398000
C          -9.264000     25.302000      3.254000
C         -10.512000     23.924000      4.910000
C         -12.690000     21.661000      0.589000
C         -10.652000     18.811000      3.164000
C         -10.169000     22.710000      5.412000
C          -9.006000     21.325000     -1.256000
C         -10.383000     20.324000      5.019000
C          -7.652000     19.417000      1.410000
C         -12.023000     24.051000      0.555000
C          -8.203000     23.773000      4.820000
C          -9.960000     18.676000      0.927000
C         -11.638000     24.791000      2.895000
C          -7.578000     19.998000      0.174000
C          -8.413000     19.353000      4.057000
C          -8.048000     24.396000      0.069000
C          -8.814000     23.681000     -0.794000
C          -7.285000     20.068000      3.695000
C         -12.148000     22.823000     -0.073000
C         -10.965000     20.390000     -0.439000
C         -10.810000     24.667000      0.185000
C         -12.862000     20.507000      2.591000
C          -8.172000     21.354000      5.238000
C          -9.893000     19.536000     -0.148000
C          -6.898000     20.073000      2.369000
C         -12.409000     24.074000      1.931000
C          -6.471000     22.435000      3.800000
C         -11.692000     24.096000      4.095000
C          -7.123000     24.353000      2.802000
C          -9.000000     20.189000      5.076000
C          -7.046000     21.228000      4.386000
C         -12.263000     20.485000      3.868000
C         -13.095000     21.707000      1.913000
C          -8.645000     25.222000      1.046000
C          -8.764000     22.600000      5.359000
C          -6.751000     21.136000      0.405000
C         -10.192000     23.841000     -0.767000
C          -7.004000     23.528000      0.506000
C         -12.857000     22.872000      2.548000
C         -10.439000     25.406000      2.472000
O          -6.014000     27.464000      0.960000
C          -6.203000     28.252000      2.101000
H          -6.573000     29.221000      1.746000
H          -5.369000     28.277000      2.813000
H          -7.072000     27.848000      2.634000
O          -4.107000     28.474000      0.261000
C          -5.048000     27.729000      0.044000
C          -5.233000     26.957000     -1.233000
H          -5.904000     27.575000     -1.843000
H          -5.714000     26.048000     -0.852000
C          -4.008000     26.479000     -1.985000
H          -3.343000     27.298000     -2.286000
H          -3.392000     25.990000     -1.220000
C          -4.415000     25.622000     -3.180000
H          -4.978000     24.786000     -2.746000
H          -5.132000     26.087000     -3.866000
C          -3.269000     25.210000     -4.162000
C          -2.643000     26.347000     -4.863000
C          -1.446000     26.981000     -4.396000
H          -0.800000     26.574000     -3.623000
C          -1.049000     28.222000     -4.918000
H          -0.151000     28.755000     -4.621000
C          -1.810000     28.857000     -5.915000
H          -1.468000     29.839000     -6.228000
C          -3.008000     28.264000     -6.416000
H          -3.572000     28.735000     -7.215000
C          -3.400000     27.064000     -5.856000
H          -4.344000     26.743000     -6.287000
C          -2.907000     21.749000     -8.293000
C          -0.592000     21.887000     -7.437000
C          -0.260000     17.861000     -5.615000
C          -5.885000     20.423000     -4.273000
C          -0.890000     18.938000     -2.383000
C          -1.831000     22.485000     -7.693000
C          -4.430000     18.913000     -2.514000
C          -1.366000     18.499000     -7.705000
C          -0.453000     22.776000     -3.473000
C          -5.336000     21.054000     -3.173000
C          -2.475000     23.937000     -3.901000
C          -1.286000     22.466000     -2.381000
C          -3.676000     21.070000     -1.666000
C          -3.163000     18.346000     -2.354000
C          -0.973000     23.435000     -5.813000
C          -1.693000     17.316000     -3.922000
C          -3.638000     23.899000     -4.785000
C          -4.771000     22.966000     -4.424000
C          -0.610000     18.018000     -3.395000
C          -4.678000     18.049000     -6.486000
C          -2.592000     17.106000     -6.186000
C          -2.554000     17.759000     -7.380000
C          -1.500000     19.784000     -8.246000
C          -5.216000     22.350000     -5.559000
C          -1.148000     23.621000     -4.382000
C          -0.419000     20.538000     -7.707000
C          -4.655000     20.255000     -2.240000
C          -0.026000     22.448000     -6.281000
C          -1.239000     21.156000     -1.843000
C          -5.587000     20.208000     -6.538000
C          -0.216000     18.511000     -6.854000
C          -2.568000     23.057000     -2.687000
C          -3.908000     19.622000     -8.208000
C          -2.396000     20.504000     -1.427000
C           0.522000     21.820000     -4.010000
C          -4.041000     17.380000     -4.217000
C          -5.046000     18.281000     -3.674000
C           0.583000     20.526000     -3.411000
C          -5.861000     21.113000     -5.539000
C          -4.826000     22.283000     -3.204000
C          -5.622000     18.942000     -5.973000
C          -3.463000     23.563000     -6.201000
C           0.878000     20.305000     -5.661000
C          -3.722000     22.334000     -2.363000
C          -0.307000     20.216000     -2.357000
C          -4.774000     20.588000     -7.663000
C           0.256000     18.355000     -4.401000
C          -2.743000     20.376000     -8.583000
C          -1.503000     17.261000     -5.289000
C           0.711000     21.680000     -5.390000
C           0.902000     19.628000     -4.438000
C          -2.121000     23.359000     -6.631000
C          -4.469000     22.749000     -6.661000
C          -3.905000     17.215000     -5.610000
C           0.335000     19.763000     -6.852000
C          -2.145000     19.119000     -1.847000
C          -5.774000     19.058000     -4.580000
C          -2.961000     17.399000     -3.388000
C          -4.236000     21.881000     -7.753000
C          -3.816000     18.391000     -7.560000
$end

--------------------------------------------------------------
 ----------------------------------------------------------------
             Standard Nuclear Orientation (Angstroms)
    I     Atom           X                Y                Z
 ----------------------------------------------------------------
    1      O       2.9873019957    -5.4873497649     0.8892941185
    2      C       1.7388773594    -5.6228542962     0.1002234947
    3      H       2.0238361429    -5.8050136134    -0.9436325658
    4      H       1.1872039479    -4.6835826578     0.2283376481
    5      H       1.0714984044    -6.4270386043     0.4359107437
    6      O       3.3196878902    -7.7298412834     0.5706965563
    7      C       3.7082295197    -6.6446940540     0.9859517703
    8      C       4.9677854996    -6.4529038118     1.8346043708
    9      H       5.4053687281    -7.4581348963     1.8716500842
   10      H       4.6275618169    -6.1619919184     2.8364167863
   11      C       5.9546267913    -5.5249401908     1.1881511372
   12      H       6.9546677128    -5.9450334132     1.3529232217
   13      H       5.8075695124    -5.3947966046     0.1093806317
   14      C       6.0014182679    -4.1496108948     1.9186700524
   15      H       4.9607975885    -3.8489720516     2.0934181213
   16      H       6.3809203911    -4.1888327233     2.9473244096
   17      C       6.6526413906    -2.9984527509     1.1423490026
   18      C       8.0553163529    -3.3940784687     0.7664537491
   19      C       8.3228981738    -4.0959486404    -0.4090407134
   20      H       7.4971449697    -4.3388269134    -1.0716014958
   21      C       9.6161099891    -4.3021221273    -0.9209163761
   22      H       9.6421827603    -4.8079379855    -1.8828854651
   23      C      10.6820514753    -3.9823455039    -0.0857513271
   24      H      11.6907018998    -4.1851426748    -0.4335251454
   25      C      10.4775408602    -3.3252260955     1.1628484852
   26      H      11.3288342130    -2.9677040289     1.7347257443
   27      C       9.1812587844    -2.9805590378     1.4969852824
   28      H       9.0182171068    -2.3620901302     2.3749674130
   29      C       7.6365912834     2.1603392581     0.6335213151
   30      C       7.6339455801     1.4475184043    -1.6660150361
   31      C       3.6733373022     3.5662616753    -2.7450507260
   32      C       3.4670341358     0.9051212172     3.0492956967
   33      C       1.8246785404     0.6523863121    -2.3647914070
   34      C       7.9435881739     1.2197106642    -0.3847285351
   35      C       1.3961358185     0.8975905434     1.2122762497
   36      C       5.5434601987     4.2866246962    -1.3700229190
   37      C       5.1894169939    -1.6953221891    -2.0407776212
   38      C       3.0015098785    -0.2823133159     2.4706728527
   39      C       5.7819911434    -2.3310332661     0.1667910196
   40      C       3.9829143319    -1.9571908526    -1.3563850951
   41      C       2.1682952224    -1.2564271794     0.6533026324
   42      C       1.0421169877     1.1720247441    -0.1127220661
   43      C       7.2642313907    -0.7356361026    -1.2001053700
   44      C       1.8113799878     2.9673991725    -1.6235960180
   45      C       6.3232907434    -1.6230779010     1.3138633555
   46      C       5.3776163451    -1.0498364959     2.2385947889
   47      C       2.0800479697     2.0149162665    -2.6351847830
   48      C       3.7972448592     4.0996226018     1.6804846133
   49      C       3.3289782927     4.3939898577    -0.4875742745
   50      C       4.6728342601     4.6732199298    -0.3459137449
   51      C       6.8224576838     3.6484716587    -1.0723668524
   52      C       5.8242091039     0.1004813106     2.7943059114
   53      C       6.2554134177    -1.7261218557    -1.1279578116
   54      C       7.0083332272     2.6553453570    -1.9793395263
   55      C       1.8868945638    -0.2947983065     1.5984441985
   56      C       7.1320093515     0.2415297594    -2.2061422532
   57      C       2.8021692613    -1.2711699568    -1.6864160159
   58      C       5.0807177970     2.4565109940     3.0277364317
   59      C       5.0496045211     3.7381547197    -2.5594211931
   60      C       4.2807762216    -2.3662024575    -0.0360041645
   61      C       6.2609070821     3.8238247639     1.3221481737
   62      C       1.8809481801    -1.0310146094    -0.7043721632
   63      C       5.1162354922    -0.7217326320    -3.0767548614
   64      C       1.7550419877     3.1036217265     0.8651051383
   65      C       1.8277905093     2.1059465943     1.7827662866
   66      C       3.9679698719    -0.0056176885    -3.3654042210
   67      C       4.8758457996     1.1006210069     3.2215992896
   68      C       3.9762839626    -1.1950123457     2.0495114039
   69      C       3.8727922900     3.0851471184     2.6624179509
   70      C       7.3751469106    -0.4983941767     1.1802290637
   71      C       5.5257250462     1.5332830650    -3.5284909697
   72      C       3.4446235788    -1.8171313148     0.9121960454
   73      C       2.8069394631    -0.3061421855    -2.6800113288
   74      C       6.2712409176     2.7971242141     2.3139168931
   75      C       3.2079213489     2.3813377887    -3.3325440222
   76      C       7.1541080005     3.4671908671     0.3216755938
   77      C       2.8620550333     3.8842157527    -1.6828269807
   78      C       6.1471289829     0.2816998922    -3.1872436853
   79      C       4.1352381240     1.3144067360    -3.6967029540
   80      C       7.7677722865    -0.1168482416    -0.1198793986
   81      C       6.9926562559     0.4473435790     2.1358723007
   82      C       2.7667596296     4.0853127264     0.7881363523
   83      C       5.9324144841     2.6930168005    -2.8903355311
   84      C       1.3081238090     0.2127198036    -1.1010218193
   85      C       2.8617821374     2.1123748163     2.7079867960
   86      C       1.3415342089     2.5033359478    -0.3608627653
   87      C       7.1234246054     1.7573271624     1.8461540754
   88      C       5.0287372654     4.4360057804     1.0031702029
   89      O       0.5332515131     6.5053329067    -0.2659342433
   90      C       1.3509271737     7.5393153771    -0.7358627113
   91      H       1.3045754328     8.3332737503     0.0187018106
   92      H       1.1922207025     7.8436443565    -1.7776501792
   93      H       2.3888154850     7.1951394546    -0.6534200787
   94      O      -1.4466876456     7.5026295055    -0.7461325585
   95      C      -0.8158783834     6.6264610935    -0.1786789583
   96      C      -1.4445175345     5.5302639180     0.6362459279
   97      H      -1.4005233847     5.8871748042     1.6730410543
   98      H      -0.7498806113     4.7055339410     0.4359885688
   99      C      -2.8106936728     5.0114042835     0.2375474967
  100      H      -3.5821030564     5.7914771887     0.2366389162
  101      H      -2.7237065325     4.8127170766    -0.8379796444
  102      C      -3.2114566091     3.8304935307     1.1167299936
  103      H      -2.4274306522     3.0804900838     0.9523550306
  104      H      -3.1687469446     4.0156598510     2.1959886829
  105      C      -4.6757267984     3.3055949054     0.9500619219
  106      C      -5.7102395468     4.2809119353     1.3432362657
  107      C      -6.3580813454     5.1450328541     0.4017215065
  108      H      -6.2959064101     5.0303849660    -0.6769277132
  109      C      -7.1133258011     6.2414780785     0.8462298663
  110      H      -7.6397139263     6.9307031892     0.1930941312
  111      C      -7.2577675047     6.5028914211     2.2199673443
  112      H      -7.8105109806     7.3999207589     2.4827790961
  113      C      -6.6353197257     5.6690129357     3.1972387672
  114      H      -6.7818776501     5.8473239159     4.2579290938
  115      C      -5.8626657141     4.6224073938     2.7336801212
  116      H      -5.4095721942     4.0959840586     3.5688583862
  117      C      -7.3384832704    -1.0566707429     2.6979441788
  118      C      -8.5212971758    -0.4406820721     0.6164749327
  119      C      -7.1988802420    -3.7828906819    -1.9757131512
  120      C      -2.3463818288    -1.6035010233     1.4461215711
  121      C      -4.7045929009    -1.9715715461    -3.5569489491
  122      C      -7.8178997369    -0.0733604477     1.7691101166
  123      C      -2.1394250152    -2.4255909430    -1.1562894343
  124      C      -7.8033833142    -3.8444767937     0.3968726084
  125      C      -6.1041512332     1.4688334705    -2.0357116906
  126      C      -2.0932766200    -0.6482773634     0.4801777256
  127      C      -4.9801422845     2.2429779399    -0.0974410119
  128      C      -4.7347551854     1.3657092748    -2.3464734396
  129      C      -2.3470257867    -0.0512786380    -1.6660070014
  130      C      -2.9297120429    -2.7853104952    -2.2510160018
  131      C      -7.3133070168     1.4271451738     0.1360353888
  132      C      -4.9639180497    -4.0202936815    -2.3823417471
  133      C      -4.6870238361     1.8442082757     1.2775256532
  134      C      -3.5154189238     0.9183542966     1.5112676876
  135      C      -5.4933635126    -3.0879740901    -3.2733466188
  136      C      -4.4825866114    -4.3254327086     1.5795795318
  137      C      -5.7588167525    -4.9171547290    -0.2511980838
  138      C      -6.6322018786    -4.6009818784     0.7441521813
  139      C      -8.1778621720    -2.7702030415     1.2139181949
  140      C      -3.8707281411    -0.0200719147     2.4379918139
  141      C      -6.2596877133     1.9620061823    -0.7106003444
  142      C      -8.7027602942    -1.7851190155     0.3297861781
  143      C      -1.9157738279    -1.0926223117    -0.8403151089
  144      C      -8.2376251938     0.4640786870    -0.4190689705
  145      C      -4.2948241839     0.2569655109    -3.1112616324
  146      C      -4.0371576545    -2.3716417621     2.7938941457
  147      C      -8.1060345458    -3.4807514770    -0.9532944650
  148      C      -4.0313740678     1.7083733893    -1.1322752234
  149      C      -6.3360046416    -3.1845788180     2.7179147220
  150      C      -3.0952421215    -0.3878201996    -2.8247947705
  151      C      -7.0976240401     0.5204665678    -2.5519887478
  152      C      -3.4066862246    -4.2989158670    -0.6211990157
  153      C      -2.3817139263    -3.4050330043    -0.1044009744
  154      C      -6.6295876030    -0.5553440730    -3.3647195511
  155      C      -3.2600220686    -1.2723610365     2.5115040477
  156      C      -2.6094476655     0.5783660964     0.5005560062
  157      C      -3.5222212861    -3.4402853976     2.0755298114
  158      C      -5.7168536172     1.1695398436     2.0730444328
  159      C      -8.3077083789    -1.3256270444    -2.0272066332
  160      C      -2.8878703231     0.9716969427    -0.8019299511
  161      C      -5.2425002091    -0.6748275912    -3.6113533902
  162      C      -5.4197680937    -2.2123439122     3.1599632218
  163      C      -6.8334721157    -2.9326798883    -3.0376484165
  164      C      -7.5241190402    -2.4303710062     2.4247923029
  165      C      -5.9988944965    -4.4111124904    -1.5553602400
  166      C      -8.1324937648     0.0446600713    -1.7381252269
  167      C      -7.4594377427    -1.6502476953    -3.0900765033
  168      C      -6.9845299196     1.0109845703     1.4442861188
  169      C      -5.1906102155     0.1561043012     2.8360963862
  170      C      -4.4081136493    -4.8080212961     0.2297561977
  171      C      -8.6333457647    -2.2188094428    -0.9768355102
  172      C      -3.4302533926    -1.7974707226    -3.0662049008
  173      C      -2.5042687887    -2.9799265957     1.2218018182
  174      C      -3.6720593161    -3.9420884436    -1.9081540701
  175      C      -6.0015913547    -0.9367470533     3.2210152202
  176      C      -5.8648324970    -4.1836690731     1.8673005484
 ----------------------------------------------------------------
 Molecular Point Group                 C1    NOp =  1
 Largest Abelian Subgroup              C1    NOp =  1
 Nuclear Repulsion Energy = 34781.4185075232 hartrees
 There are      462 alpha and      462 beta electrons
 Requested basis set is 6-31G(d,p)
 There are 676 shells and 2360 basis functions

 Total QAlloc Memory Limit  20000 MB
 Mega-Array Size      4888 MB
 MEM_STATIC part      5000 MB
 A cutoff of  1.0D-08 yielded  37946 shell pairs
 There are    529987 function pairs
 
 -------------------------------------------------------
 OpenMP Integral Computing Module                       
 Release: version 1.0, May 2013, Q-Chem Inc. Pittsburgh 
 -------------------------------------------------------
 Integral Job Info:
 Integral job number is                      11
 Integral operator is                         1
 short-range coefficients                     0
 long-range coefficients              100000000
 Omega coefficients                           0
 if combine SR and LR in K                    0
 Integral screening is                        0
 Integral computing path is                   2
 max size of driver memory is            800000
 size of driver memory is                593474
 size of scratch memory is              2260544
 max col of scratch BK array               1296
 max len of scratch array in speh3          155
 max len of scratch index in speh4           18
 max int batch size is                      520
 min int batch size is                       52
 fixed nKL is                                52
 max L of basis functions is                  2
 order of int derivative is                   0
 number of shells is                        676
 number of basis is                        2360
 number of cartesian basis is              2360
 number of contracted shell pairs         37946
 number of primitive shell pairs         114623
 maxK2 (contraction) of shell pair           36
 max number of K2 of shell pair               1
 max number of CS2 of shell pair           7164
 max number of PS2 of shell pair          34470
 mem total for path MDJ                 1496344
 -------------------------------------------------------
 Smallest overlap matrix eigenvalue = 2.36E-04

 Scale SEOQF with 1.000000e-02/1.000000e-02/1.000000e-01

 Standard Electronic Orientation quadrupole field applied
 Nucleus-field energy     =    -0.0000001829 hartrees
 Guess from superposition of atomic densities
 Warning:  Energy on first SCF cycle will be non-variational
 A restricted hybrid HF-DFT SCF calculation will be
 performed using Pulay DIIS extrapolation
 Exchange:     0.2000 Hartree-Fock + 0.0800 Slater + 0.7200 B88
 Correlation:  0.1900 VWN1RPA + 0.8100 LYP
 Using SG-1 standard quadrature grid
 SCF converges when DIIS error is below 1.0E-05
 using 16 threads for integral computing 
 -------------------------------------------------------
 OpenMP BLAS3 based DFT computing Module                
 Release: version 1.0, May 2013, Q-Chem Inc. Pittsburgh 
 -------------------------------------------------------
 ---------------------------------------
  Cycle       Energy         DIIS Error
 ---------------------------------------
    1   -5859.2065857432      1.84E-02
    2   -5803.0798719247      1.30E-03
    3   -5802.4018282334      1.76E-03
    4   -5803.9954925291      5.98E-04
    5   -5804.1780739723      2.75E-04
    6   -5804.2243241537      1.20E-04
    7   -5804.2339565964      4.20E-05
    8   -5804.2347954131      2.36E-05
    9   -5804.2351906466      7.92E-06 Convergence criterion met
 ---------------------------------------
 SCF time:  CPU 7286.71 s  wall 841.89 s
 SCF   energy in the final basis set = -5804.2351906466
 Total energy in the final basis set = -5804.2351906466
 
 --------------------------------------------------------------
 
                    Orbital Energies (a.u.)
 --------------------------------------------------------------
 
 Alpha MOs
 -- Occupied --
-19.195 -19.190 -19.135 -19.130 -10.315 -10.313 -10.244 -10.242
-10.239 -10.236 -10.235 -10.233 -10.231 -10.231 -10.231 -10.230
-10.229 -10.229 -10.227 -10.227 -10.224 -10.224 -10.223 -10.222
-10.222 -10.221 -10.221 -10.221 -10.221 -10.221 -10.221 -10.221
-10.221 -10.220 -10.220 -10.220 -10.220 -10.220 -10.220 -10.219
-10.219 -10.219 -10.219 -10.219 -10.219 -10.219 -10.219 -10.219
-10.219 -10.219 -10.218 -10.218 -10.218 -10.218 -10.218 -10.218
-10.218 -10.217 -10.217 -10.217 -10.217 -10.217 -10.217 -10.217
-10.217 -10.217 -10.217 -10.217 -10.217 -10.216 -10.216 -10.216
-10.216 -10.215 -10.215 -10.215 -10.215 -10.215 -10.215 -10.215
-10.215 -10.215 -10.214 -10.214 -10.214 -10.214 -10.214 -10.214
-10.214 -10.214 -10.213 -10.213 -10.213 -10.213 -10.213 -10.213
-10.213 -10.213 -10.213 -10.213 -10.213 -10.213 -10.212 -10.212
-10.212 -10.212 -10.212 -10.212 -10.212 -10.212 -10.211 -10.211
-10.211 -10.211 -10.211 -10.210 -10.210 -10.210 -10.210 -10.210
-10.210 -10.209 -10.209 -10.209 -10.208 -10.208 -10.208 -10.207
-10.206 -10.206 -10.206 -10.205 -10.204 -10.204 -10.203 -10.202
-10.202 -10.201 -10.201 -10.201 -10.201 -10.200 -10.199 -10.199
-10.199 -10.198 -10.196 -10.190  -1.099  -1.088  -1.009  -1.003
 -0.991  -0.984  -0.977  -0.970  -0.970  -0.964  -0.962  -0.959
 -0.949  -0.937  -0.935  -0.928  -0.928  -0.927  -0.924  -0.924
 -0.921  -0.919  -0.907  -0.897  -0.893  -0.890  -0.888  -0.886
 -0.881  -0.875  -0.859  -0.852  -0.848  -0.843  -0.843  -0.840
 -0.838  -0.836  -0.825  -0.821  -0.813  -0.808  -0.806  -0.802
 -0.799  -0.798  -0.796  -0.794  -0.793  -0.792  -0.787  -0.783
 -0.774  -0.772  -0.771  -0.769  -0.769  -0.768  -0.766  -0.764
 -0.754  -0.753  -0.747  -0.742  -0.735  -0.732  -0.721  -0.720
 -0.717  -0.716  -0.714  -0.714  -0.713  -0.712  -0.711  -0.709
 -0.708  -0.708  -0.705  -0.704  -0.704  -0.703  -0.677  -0.676
 -0.663  -0.662  -0.659  -0.658  -0.651  -0.648  -0.635  -0.634
 -0.632  -0.628  -0.627  -0.625  -0.623  -0.623  -0.620  -0.619
 -0.618  -0.616  -0.615  -0.614  -0.613  -0.613  -0.613  -0.609
 -0.608  -0.606  -0.605  -0.603  -0.572  -0.567  -0.566  -0.563
 -0.562  -0.561  -0.560  -0.559  -0.559  -0.557  -0.555  -0.554
 -0.543  -0.537  -0.535  -0.533  -0.530  -0.529  -0.529  -0.528
 -0.526  -0.524  -0.523  -0.518  -0.517  -0.515  -0.515  -0.513
 -0.510  -0.507  -0.501  -0.500  -0.496  -0.493  -0.488  -0.488
 -0.487  -0.486  -0.484  -0.481  -0.480  -0.479  -0.478  -0.476
 -0.475  -0.474  -0.473  -0.471  -0.471  -0.469  -0.468  -0.468
 -0.467  -0.466  -0.465  -0.464  -0.464  -0.463  -0.461  -0.460
 -0.458  -0.457  -0.454  -0.452  -0.451  -0.448  -0.446  -0.445
 -0.445  -0.444  -0.442  -0.439  -0.438  -0.438  -0.436  -0.434
 -0.433  -0.432  -0.430  -0.429  -0.429  -0.428  -0.427  -0.426
 -0.426  -0.425  -0.424  -0.423  -0.422  -0.421  -0.420  -0.420
 -0.419  -0.417  -0.417  -0.416  -0.415  -0.415  -0.415  -0.414
 -0.414  -0.412  -0.411  -0.410  -0.403  -0.401  -0.400  -0.397
 -0.395  -0.394  -0.392  -0.391  -0.389  -0.386  -0.385  -0.384
 -0.384  -0.377  -0.376  -0.372  -0.371  -0.368  -0.368  -0.368
 -0.367  -0.365  -0.364  -0.363  -0.362  -0.362  -0.361  -0.360
 -0.359  -0.358  -0.358  -0.356  -0.355  -0.354  -0.353  -0.352
 -0.351  -0.350  -0.349  -0.349  -0.347  -0.347  -0.344  -0.342
 -0.342  -0.341  -0.341  -0.340  -0.340  -0.338  -0.336  -0.335
 -0.332  -0.331  -0.331  -0.331  -0.330  -0.329  -0.324  -0.322
 -0.315  -0.309  -0.302  -0.297  -0.291  -0.287  -0.276  -0.273
 -0.271  -0.269  -0.268  -0.267  -0.267  -0.266  -0.265  -0.264
 -0.262  -0.262  -0.261  -0.261  -0.259  -0.258  -0.258  -0.257
 -0.249  -0.249  -0.247  -0.243  -0.224  -0.219  -0.215  -0.213
 -0.212  -0.212  -0.210  -0.208  -0.198  -0.196
 -- Virtual --
 -0.126  -0.124  -0.122  -0.120  -0.109  -0.107  -0.081  -0.077
 -0.073  -0.072  -0.063  -0.060  -0.054  -0.052  -0.025  -0.025
 -0.024  -0.023  -0.020  -0.019  -0.019  -0.016  -0.015  -0.014
 -0.013  -0.013  -0.010  -0.009  -0.007  -0.007   0.002   0.007
  0.010   0.012   0.034   0.035   0.039   0.040   0.044   0.044
  0.048   0.049   0.055   0.056   0.059   0.062   0.062   0.067
  0.068   0.072   0.078   0.079   0.083   0.086   0.087   0.090
  0.092   0.094   0.097   0.099   0.101   0.103   0.103   0.108
  0.110   0.111   0.111   0.112   0.114   0.116   0.117   0.120
  0.124   0.126   0.126   0.127   0.128   0.131   0.134   0.137
  0.139   0.140   0.142   0.148   0.149   0.151   0.152   0.153
  0.156   0.158   0.160   0.162   0.163   0.166   0.167   0.168
  0.170   0.173   0.175   0.176   0.177   0.181   0.181   0.183
  0.183   0.184   0.185   0.186   0.188   0.191   0.191   0.193
  0.194   0.196   0.197   0.200   0.202   0.203   0.205   0.206
  0.208   0.210   0.211   0.215   0.216   0.216   0.218   0.221
  0.222   0.222   0.223   0.225   0.226   0.229   0.230   0.232
  0.233   0.235   0.236   0.236   0.237   0.240   0.241   0.242
  0.244   0.246   0.249   0.250   0.252   0.254   0.256   0.261
  0.263   0.268   0.271   0.273   0.275   0.276   0.280   0.281
  0.285   0.289   0.290   0.295   0.297   0.300   0.305   0.306
  0.306   0.308   0.310   0.313   0.314   0.316   0.317   0.318
  0.319   0.320   0.326   0.327   0.328   0.330   0.332   0.333
  0.335   0.336   0.339   0.340   0.345   0.346   0.348   0.349
  0.352   0.352   0.355   0.366   0.369   0.372   0.384   0.391
  0.393   0.397   0.402   0.403   0.403   0.405   0.407   0.408
  0.410   0.411   0.413   0.413   0.417   0.419   0.420   0.428
  0.429   0.432   0.435   0.437   0.441   0.444   0.446   0.447
  0.450   0.451   0.455   0.455   0.457   0.460   0.463   0.465
  0.465   0.468   0.469   0.470   0.471   0.472   0.474   0.476
  0.476   0.479   0.480   0.480   0.482   0.484   0.484   0.486
  0.486   0.487   0.490   0.491   0.492   0.493   0.494   0.495
  0.497   0.498   0.500   0.501   0.502   0.503   0.504   0.504
  0.506   0.506   0.507   0.508   0.508   0.509   0.509   0.512
  0.512   0.513   0.514   0.514   0.516   0.516   0.518   0.518
  0.519   0.520   0.520   0.522   0.522   0.523   0.524   0.525
  0.526   0.527   0.528   0.529   0.529   0.530   0.531   0.532
  0.533   0.534   0.534   0.535   0.536   0.537   0.538   0.539
  0.540   0.541   0.542   0.543   0.544   0.545   0.545   0.546
  0.547   0.547   0.548   0.548   0.549   0.550   0.550   0.551
  0.552   0.553   0.555   0.555   0.555   0.556   0.557   0.558
  0.558   0.559   0.560   0.561   0.562   0.564   0.564   0.564
  0.565   0.566   0.567   0.568   0.568   0.569   0.571   0.571
  0.572   0.574   0.575   0.575   0.575   0.577   0.578   0.578
  0.580   0.580   0.581   0.582   0.583   0.583   0.584   0.586
  0.587   0.587   0.588   0.589   0.589   0.590   0.590   0.591
  0.591   0.592   0.592   0.593   0.595   0.596   0.598   0.599
  0.600   0.600   0.601   0.602   0.604   0.604   0.606   0.606
  0.608   0.609   0.610   0.611   0.612   0.613   0.614   0.616
  0.619   0.619   0.621   0.622   0.622   0.624   0.624   0.625
  0.626   0.627   0.628   0.629   0.630   0.631   0.631   0.632
  0.632   0.634   0.636   0.636   0.638   0.638   0.639   0.639
  0.641   0.642   0.644   0.645   0.646   0.647   0.648   0.650
  0.650   0.652   0.652   0.653   0.655   0.656   0.657   0.658
  0.659   0.659   0.660   0.660   0.661   0.662   0.663   0.663
  0.664   0.664   0.666   0.666   0.666   0.667   0.668   0.669
  0.669   0.670   0.671   0.671   0.673   0.674   0.675   0.676
  0.676   0.677   0.680   0.682   0.684   0.685   0.686   0.686
  0.686   0.689   0.690   0.692   0.693   0.693   0.695   0.695
  0.697   0.698   0.699   0.700   0.702   0.704   0.705   0.706
  0.708   0.708   0.709   0.711   0.711   0.713   0.715   0.716
  0.717   0.718   0.720   0.721   0.722   0.723   0.724   0.724
  0.725   0.726   0.727   0.728   0.730   0.730   0.732   0.734
  0.736   0.736   0.737   0.738   0.739   0.740   0.741   0.742
  0.745   0.746   0.747   0.748   0.752   0.753   0.754   0.755
  0.755   0.757   0.758   0.760   0.761   0.763   0.764   0.765
  0.768   0.769   0.770   0.772   0.773   0.773   0.775   0.776
  0.777   0.778   0.779   0.779   0.782   0.783   0.784   0.784
  0.786   0.787   0.789   0.790   0.792   0.793   0.795   0.796
  0.796   0.797   0.799   0.799   0.801   0.802   0.803   0.804
  0.804   0.805   0.806   0.807   0.808   0.809   0.810   0.811
  0.811   0.813   0.814   0.814   0.815   0.815   0.816   0.817
  0.818   0.819   0.820   0.821   0.821   0.822   0.823   0.825
  0.826   0.826   0.828   0.830   0.830   0.831   0.832   0.833
  0.836   0.837   0.838   0.841   0.843   0.845   0.846   0.848
  0.851   0.853   0.854   0.856   0.858   0.861   0.862   0.863
  0.867   0.869   0.871   0.875   0.877   0.880   0.884   0.885
  0.890   0.891   0.897   0.899   0.901   0.904   0.906   0.907
  0.909   0.912   0.913   0.915   0.917   0.920   0.921   0.922
  0.924   0.927   0.929   0.930   0.931   0.933   0.934   0.935
  0.937   0.937   0.940   0.943   0.944   0.946   0.948   0.950
  0.953   0.954   0.959   0.960   0.962   0.965   0.967   0.970
  0.975   0.977   0.979   0.981   0.982   0.985   0.989   0.991
  0.992   0.995   0.996   0.999   1.000   1.002   1.004   1.005
  1.008   1.010   1.011   1.013   1.013   1.014   1.014   1.016
  1.018   1.019   1.022   1.024   1.025   1.026   1.028   1.029
  1.030   1.032   1.035   1.036   1.038   1.039   1.043   1.044
  1.045   1.047   1.049   1.051   1.052   1.053   1.056   1.057
  1.060   1.061   1.062   1.063   1.064   1.064   1.068   1.069
  1.071   1.072   1.074   1.074   1.075   1.079   1.081   1.082
  1.082   1.085   1.088   1.089   1.091   1.092   1.094   1.095
  1.096   1.098   1.101   1.103   1.105   1.107   1.108   1.112
  1.113   1.116   1.118   1.122   1.122   1.124   1.124   1.126
  1.128   1.130   1.133   1.136   1.138   1.140   1.141   1.142
  1.144   1.145   1.147   1.152   1.154   1.156   1.157   1.158
  1.160   1.161   1.163   1.164   1.166   1.166   1.168   1.169
  1.170   1.171   1.173   1.176   1.177   1.180   1.180   1.182
  1.184   1.185   1.188   1.190   1.191   1.193   1.197   1.201
  1.202   1.204   1.206   1.208   1.216   1.217   1.219   1.222
  1.225   1.226   1.228   1.233   1.240   1.241   1.243   1.245
  1.248   1.249   1.251   1.254   1.256   1.259   1.260   1.261
  1.263   1.264   1.268   1.269   1.272   1.273   1.274   1.277
  1.278   1.281   1.282   1.283   1.285   1.286   1.288   1.292
  1.292   1.296   1.297   1.300   1.303   1.305   1.309   1.313
  1.316   1.317   1.321   1.323   1.327   1.328   1.328   1.329
  1.330   1.332   1.335   1.337   1.340   1.342   1.344   1.347
  1.352   1.355   1.358   1.360   1.361   1.364   1.366   1.368
  1.372   1.373   1.375   1.377   1.379   1.381   1.382   1.385
  1.388   1.390   1.392   1.396   1.398   1.399   1.402   1.405
  1.407   1.412   1.412   1.414   1.418   1.420   1.421   1.424
  1.427   1.430   1.434   1.439   1.441   1.444   1.448   1.448
  1.451   1.452   1.454   1.455   1.457   1.460   1.461   1.465
  1.467   1.468   1.471   1.471   1.473   1.473   1.475   1.477
  1.479   1.481   1.482   1.485   1.488   1.491   1.494   1.495
  1.499   1.500   1.503   1.507   1.507   1.508   1.518   1.523
  1.524   1.527   1.530   1.533   1.536   1.536   1.539   1.542
  1.542   1.546   1.548   1.550   1.551   1.553   1.554   1.557
  1.558   1.562   1.563   1.567   1.568   1.572   1.573   1.574
  1.577   1.579   1.580   1.585   1.587   1.590   1.590   1.591
  1.595   1.597   1.600   1.604   1.609   1.611   1.613   1.619
  1.620   1.623   1.627   1.629   1.633   1.639   1.641   1.643
  1.645   1.653   1.654   1.660   1.662   1.670   1.672   1.674
  1.679   1.683   1.685   1.688   1.690   1.694   1.697   1.699
  1.702   1.704   1.706   1.707   1.709   1.711   1.712   1.715
  1.716   1.718   1.720   1.723   1.725   1.727   1.728   1.730
  1.731   1.733   1.734   1.736   1.737   1.739   1.741   1.744
  1.745   1.746   1.749   1.751   1.753   1.753   1.755   1.755
  1.757   1.760   1.761   1.762   1.764   1.765   1.766   1.767
  1.769   1.772   1.773   1.774   1.775   1.775   1.778   1.779
  1.779   1.781   1.783   1.784   1.785   1.785   1.786   1.788
  1.790   1.791   1.791   1.794   1.795   1.796   1.797   1.798
  1.800   1.802   1.802   1.805   1.808   1.810   1.810   1.812
  1.813   1.815   1.816   1.817   1.819   1.820   1.822   1.824
  1.826   1.827   1.829   1.832   1.837   1.838   1.841   1.847
  1.848   1.849   1.852   1.853   1.853   1.857   1.857   1.858
  1.859   1.861   1.862   1.862   1.864   1.866   1.868   1.871
  1.871   1.872   1.874   1.878   1.879   1.880   1.881   1.883
  1.887   1.891   1.892   1.895   1.896   1.897   1.898   1.900
  1.905   1.909   1.910   1.911   1.913   1.916   1.919   1.921
  1.921   1.926   1.930   1.932   1.933   1.933   1.934   1.935
  1.937   1.939   1.940   1.941   1.944   1.945   1.949   1.950
  1.954   1.956   1.958   1.961   1.962   1.963   1.965   1.968
  1.973   1.974   1.975   1.977   1.979   1.980   1.981   1.983
  1.987   1.988   1.988   1.989   1.990   1.994   1.994   1.997
  1.998   1.998   2.001   2.002   2.002   2.005   2.006   2.007
  2.009   2.010   2.011   2.012   2.013   2.013   2.015   2.017
  2.018   2.019   2.019   2.022   2.024   2.026   2.026   2.027
  2.030   2.030   2.033   2.034   2.034   2.035   2.036   2.037
  2.038   2.039   2.040   2.041   2.042   2.044   2.044   2.045
  2.046   2.048   2.050   2.052   2.053   2.054   2.055   2.055
  2.057   2.058   2.059   2.060   2.062   2.062   2.064   2.065
  2.066   2.068   2.069   2.071   2.072   2.074   2.075   2.076
  2.077   2.079   2.081   2.082   2.083   2.085   2.087   2.089
  2.091   2.092   2.096   2.097   2.099   2.102   2.102   2.103
  2.107   2.110   2.114   2.116   2.117   2.119   2.124   2.125
  2.129   2.130   2.132   2.134   2.138   2.141   2.144   2.148
  2.152   2.154   2.157   2.159   2.161   2.168   2.174   2.176
  2.183   2.185   2.192   2.193   2.200   2.203   2.206   2.208
  2.211   2.213   2.217   2.221   2.225   2.226   2.229   2.230
  2.233   2.235   2.236   2.238   2.240   2.242   2.245   2.247
  2.247   2.249   2.251   2.255   2.258   2.259   2.265   2.267
  2.268   2.271   2.272   2.273   2.276   2.278   2.279   2.282
  2.287   2.289   2.290   2.295   2.296   2.297   2.301   2.301
  2.304   2.307   2.308   2.310   2.312   2.316   2.317   2.322
  2.323   2.327   2.328   2.329   2.332   2.335   2.338   2.343
  2.344   2.345   2.350   2.351   2.352   2.354   2.355   2.357
  2.358   2.362   2.362   2.363   2.367   2.368   2.369   2.369
  2.374   2.376   2.376   2.378   2.380   2.381   2.384   2.385
  2.386   2.390   2.392   2.392   2.394   2.396   2.397   2.398
  2.401   2.402   2.404   2.406   2.407   2.408   2.410   2.412
  2.415   2.417   2.418   2.421   2.422   2.422   2.423   2.425
  2.429   2.432   2.434   2.435   2.439   2.441   2.445   2.447
  2.451   2.454   2.455   2.456   2.458   2.461   2.463   2.467
  2.467   2.468   2.469   2.471   2.471   2.472   2.475   2.476
  2.478   2.482   2.485   2.485   2.488   2.489   2.493   2.494
  2.496   2.497   2.498   2.501   2.502   2.505   2.506   2.509
  2.511   2.512   2.513   2.515   2.516   2.518   2.521   2.522
  2.526   2.528   2.530   2.531   2.533   2.534   2.538   2.539
  2.544   2.546   2.548   2.552   2.554   2.556   2.561   2.565
  2.569   2.572   2.573   2.579   2.582   2.585   2.586   2.588
  2.591   2.592   2.594   2.598   2.598   2.601   2.603   2.603
  2.607   2.608   2.612   2.612   2.613   2.615   2.617   2.618
  2.619   2.622   2.622   2.624   2.625   2.629   2.631   2.631
  2.635   2.637   2.638   2.639   2.640   2.641   2.645   2.647
  2.650   2.651   2.653   2.653   2.657   2.658   2.659   2.661
  2.662   2.664   2.667   2.668   2.669   2.670   2.674   2.675
  2.678   2.679   2.681   2.684   2.687   2.689   2.689   2.691
  2.693   2.695   2.696   2.699   2.704   2.706   2.707   2.707
  2.711   2.713   2.716   2.720   2.721   2.722   2.724   2.727
  2.728   2.730   2.732   2.733   2.736   2.740   2.742   2.744
  2.748   2.751   2.753   2.754   2.756   2.757   2.760   2.760
  2.762   2.764   2.764   2.768   2.769   2.772   2.776   2.777
  2.777   2.784   2.785   2.789   2.791   2.795   2.796   2.799
  2.800   2.802   2.805   2.811   2.814   2.816   2.820   2.823
  2.825   2.828   2.830   2.832   2.834   2.842   2.843   2.848
  2.851   2.852   2.855   2.855   2.858   2.860   2.861   2.863
  2.866   2.868   2.870   2.875   2.876   2.876   2.879   2.880
  2.881   2.883   2.884   2.887   2.888   2.891   2.892   2.893
  2.895   2.897   2.898   2.900   2.902   2.903   2.904   2.906
  2.908   2.910   2.911   2.912   2.915   2.916   2.916   2.918
  2.921   2.923   2.927   2.928   2.931   2.931   2.934   2.936
  2.939   2.940   2.944   2.945   2.946   2.949   2.952   2.960
  2.961   2.964   2.965   2.968   2.970   2.971   2.973   2.982
  2.988   2.990   2.992   2.994   3.000   3.001   3.004   3.007
  3.011   3.012   3.014   3.016   3.020   3.022   3.024   3.028
  3.028   3.034   3.035   3.036   3.037   3.038   3.041   3.046
  3.048   3.049   3.053   3.057   3.060   3.061   3.065   3.067
  3.072   3.074   3.082   3.085   3.091   3.098   3.107   3.110
  3.118   3.121   3.127   3.133   3.134   3.149   3.152   3.161
  3.163   3.165   3.170   3.174   3.177   3.179   3.186   3.189
  3.190   3.202   3.205   3.211   3.217   3.227   3.228   3.238
  3.239   3.248   3.249   3.267   3.273   3.275   3.278   3.286
  3.294   3.304   3.307   3.309   3.324   3.326   3.333   3.336
  3.342   3.348   3.350   3.352   3.366   3.367   3.379   3.391
  3.393   3.396   3.413   3.418   3.433   3.433   3.439   3.445
  3.449   3.453   3.468   3.470   3.478   3.478   3.485   3.486
  3.486   3.497   3.505   3.508   3.530   3.534   3.543   3.548
  3.558   3.564   3.572   3.574   3.575   3.588   3.593   3.607
  3.614   3.615   3.682   3.699   3.826   3.856   3.998   4.018
  4.071   4.076   4.077   4.085   4.088   4.090   4.095   4.098
  4.102   4.109   4.110   4.113   4.115   4.117   4.120   4.123
  4.127   4.129   4.131   4.132   4.142   4.143   4.148   4.151
  4.154   4.159   4.162   4.165   4.170   4.173   4.175   4.178
  4.187   4.190   4.197   4.199   4.215   4.222   4.236   4.241
  4.243   4.248   4.249   4.252   4.256   4.261   4.262   4.264
  4.268   4.272   4.275   4.282   4.284   4.289   4.290   4.301
  4.307   4.311   4.321   4.325   4.376   4.380   4.391   4.394
  4.398   4.400   4.402   4.403   4.409   4.413   4.415   4.419
  4.421   4.422   4.426   4.437   4.440   4.446   4.453   4.469
  4.477   4.496   4.500   4.515   4.535   4.539   4.540   4.549
  4.561   4.565   4.618   4.626   4.629   4.634   4.642   4.644
  4.649   4.683   4.685   4.687   4.690   4.693   4.700   4.701
  4.702   4.708   4.710   4.714   4.763   4.771   4.805   4.830
  4.842   4.855   4.861   4.868   4.871   4.883   4.885   4.895
  4.899   4.909   4.956   4.963   4.967   4.970   4.980   4.986
  4.991   4.997   5.010   5.018   5.167   5.182   5.186   5.188
  5.195   5.207   5.218   5.232   5.315   5.327   5.343   5.351
  5.367   5.385
 --------------------------------------------------------------
 
          Ground-State Mulliken Net Atomic Charges

     Atom                 Charge (a.u.)
  ----------------------------------------
      1 O                    -0.463914
      2 C                    -0.093800
      3 H                     0.131753
      4 H                     0.126700
      5 H                     0.139935
      6 O                    -0.474039
      7 C                     0.584249
      8 C                    -0.249270
      9 H                     0.133176
     10 H                     0.132945
     11 C                    -0.181919
     12 H                     0.122836
     13 H                     0.113414
     14 C                    -0.184403
     15 H                     0.115076
     16 H                     0.104516
     17 C                     0.005673
     18 C                     0.111571
     19 C                    -0.126778
     20 H                     0.083520
     21 C                    -0.070718
     22 H                     0.096359
     23 C                    -0.105635
     24 H                     0.087954
     25 C                    -0.082995
     26 H                     0.096364
     27 C                    -0.119734
     28 H                     0.083892
     29 C                     0.003160
     30 C                    -0.014791
     31 C                    -0.006166
     32 C                    -0.022976
     33 C                    -0.003187
     34 C                     0.012600
     35 C                     0.032313
     36 C                    -0.012725
     37 C                     0.001395
     38 C                    -0.031611
     39 C                    -0.074648
     40 C                    -0.025665
     41 C                    -0.012406
     42 C                    -0.004008
     43 C                     0.027550
     44 C                    -0.016396
     45 C                    -0.110478
     46 C                     0.069947
     47 C                    -0.007370
     48 C                    -0.005471
     49 C                     0.019282
     50 C                    -0.013689
     51 C                    -0.017398
     52 C                    -0.003073
     53 C                     0.036533
     54 C                     0.037264
     55 C                    -0.003366
     56 C                    -0.002117
     57 C                     0.036054
     58 C                    -0.020357
     59 C                    -0.006756
     60 C                     0.028003
     61 C                     0.020306
     62 C                    -0.015296
     63 C                    -0.021580
     64 C                    -0.020334
     65 C                     0.018085
     66 C                     0.039035
     67 C                     0.014376
     68 C                     0.008584
     69 C                     0.004683
     70 C                     0.011281
     71 C                    -0.023179
     72 C                     0.014527
     73 C                    -0.005801
     74 C                    -0.020011
     75 C                     0.011322
     76 C                    -0.039281
     77 C                     0.017889
     78 C                    -0.033380
     79 C                    -0.007569
     80 C                     0.014135
     81 C                    -0.015166
     82 C                     0.025168
     83 C                     0.016838
     84 C                    -0.027952
     85 C                    -0.002080
     86 C                    -0.004835
     87 C                     0.035267
     88 C                    -0.010740
     89 O                    -0.455278
     90 C                    -0.079099
     91 H                     0.116939
     92 H                     0.130252
     93 H                     0.117466
     94 O                    -0.472106
     95 C                     0.578736
     96 C                    -0.259959
     97 H                     0.132955
     98 H                     0.130148
     99 C                    -0.181461
    100 H                     0.125119
    101 H                     0.109379
    102 C                    -0.170479
    103 H                     0.110906
    104 H                     0.108303
    105 C                     0.005197
    106 C                     0.089060
    107 C                    -0.109961
    108 H                     0.099529
    109 C                    -0.080233
    110 H                     0.096081
    111 C                    -0.086353
    112 H                     0.088567
    113 C                    -0.084592
    114 H                     0.097248
    115 C                    -0.110217
    116 H                     0.088393
    117 C                    -0.009582
    118 C                    -0.002710
    119 C                    -0.001175
    120 C                    -0.017984
    121 C                     0.007378
    122 C                    -0.003261
    123 C                    -0.003634
    124 C                     0.006356
    125 C                     0.008489
    126 C                     0.024854
    127 C                    -0.053975
    128 C                    -0.017057
    129 C                    -0.037136
    130 C                    -0.000259
    131 C                    -0.027393
    132 C                    -0.004600
    133 C                    -0.108871
    134 C                     0.040951
    135 C                     0.017671
    136 C                     0.002322
    137 C                    -0.006173
    138 C                    -0.017283
    139 C                     0.017745
    140 C                     0.026922
    141 C                     0.018381
    142 C                    -0.005400
    143 C                     0.015450
    144 C                    -0.008739
    145 C                     0.018003
    146 C                     0.027460
    147 C                    -0.031125
    148 C                     0.035391
    149 C                    -0.027198
    150 C                    -0.015916
    151 C                    -0.013669
    152 C                     0.010549
    153 C                    -0.049109
    154 C                    -0.007818
    155 C                    -0.050422
    156 C                     0.000398
    157 C                    -0.011095
    158 C                     0.026336
    159 C                     0.021402
    160 C                    -0.002820
    161 C                     0.006397
    162 C                     0.020757
    163 C                    -0.008228
    164 C                    -0.014533
    165 C                     0.017913
    166 C                     0.002417
    167 C                    -0.017037
    168 C                     0.028559
    169 C                     0.002761
    170 C                    -0.021763
    171 C                     0.023606
    172 C                    -0.005993
    173 C                     0.012390
    174 C                     0.009446
    175 C                    -0.025945
    176 C                     0.032589
  ----------------------------------------
  Sum of atomic charges =     0.000000

 -----------------------------------------------------------------
                    Cartesian Multipole Moments
 -----------------------------------------------------------------
    Charge (ESU x 10^10)
                 0.0000
    Dipole Moment (Debye)
         X       2.7844      Y       1.8343      Z       2.1578
       Tot       3.9716
    Quadrupole Moments (Debye-Ang)
        XX    -779.8238     XY     -13.9582     YY    -828.5967
        XZ       0.2581     YZ      11.2506     ZZ    -800.3142
    Octopole Moments (Debye-Ang^2)
       XXX     430.2016    XXY      -5.4507    XYY       6.3286
       YYY     270.3332    XXZ      65.5569    XYZ     -67.4217
       YYZ      83.9074    XZZ      36.4628    YZZ      16.9103
       ZZZ      64.2682
    Hexadecapole Moments (Debye-Ang^3)
      XXXX -142411.7269   XXXY   -3433.5782   XXYY  -31804.8711
      XYYY    -137.8097   YYYY  -55300.1619   XXXZ     369.8195
      XXYZ     263.1666   XYYZ    -408.9884   YYYZ     501.2449
      XXZZ  -27059.0969   XYZZ    -744.7841   YYZZ  -11347.5078
      XZZZ     -74.5704   YZZZ      48.9128   ZZZZ  -18290.7257
 -----------------------------------------------------------------
Archival summary:
1\1\mn366\SP\ProcedureUnspecified\6-31G**\428\afmv_a\SunOct723:54:102018SunOct723:54:102018\0\\#,ProcedureUnspecified,6-31G**,\\0,1\O\C,1,1.36694\O,2,1.22513,1,123.966\C,1,1.48309,2,113.842,3,6.26841,0\H,4,1.09681,1,106.44,2,-171.519,0\H,4,1.09728,1,107.62,2,67.5708,0\H,4,1.09763,1,114.585,2,-53.953,0\C,2,1.53084,1,111.535,3,172.508,0\H,8,1.09697,2,103.422,1,-176.857,0\H,8,1.09727,2,106.513,1,-61.3368,0\C,8,1.50096,2,112.312,1,66.2554,0\H,11,1.0965,8,114.138,2,19.4342,0\H,11,1.09714,8,107.33,2,139.563,0\C,11,1.558,8,111.319,2,-107.365,0\H,14,1.09713,11,114.737,8,-65.5182,0\H,14,1.09718,11,106.743,8,45.2982,0\C,14,1.5336,11,115.977,8,163.277,0\C,17,1.42462,14,124.441,11,-151.904,0\C,18,1.44154,17,127.793,14,-1.81351,0\C,19,1.35333,18,112.64,17,-139.897,0\C,20,1.38532,19,107.217,18,-8.19587,0\C,21,1.348,20,115.296,19,-138.152,0\C,22,1.37704,21,120.652,20,139.146,0\C,21,1.39785,20,112.726,19,2.95876,0\C,24,1.41068,21,121.55,20,-133.23,0\C,25,1.34288,24,120.821,21,132.138,0\C,25,1.37384,24,118.452,21,-8.6831,0\C,27,1.33771,25,108.705,24,148.702,0\C,28,1.39585,27,117.782,25,-144.034,0\C,29,1.35774,28,122.98,27,-6.57345,0\C,26,1.4087,25,106.86,24,-144.739,0\C,31,1.39074,26,126.179,25,147.087,0\C,29,1.4103,28,120.666,27,137.618,0\C,33,1.38478,29,119.958,28,2.86553,0\C,33,1.40754,29,110.271,28,-149.347,0\C,35,1.39933,33,119.634,29,144.214,0\C,36,1.3739,35,116.729,33,-130.247,0\C,37,1.38077,36,123.713,35,-2.16785,0\C,38,1.37985,37,119.533,36,-3.40927,0\C,37,1.3957,36,108.985,35,142.4,0\C,39,1.39866,38,118.368,37,7.18136,0\C,36,1.40207,35,119.07,33,3.73184,0\C,42,1.37574,36,106.549,35,-139.113,0\C,43,1.41238,42,120.147,36,141.871,0\C,44,1.40818,43,119.189,42,-7.21558,0\C,45,1.38133,44,123.317,43,6.58584,0\C,46,1.3712,45,115.585,44,-1.84795,0\C,46,1.38371,45,118.777,44,-147.833,0\C,45,1.38511,44,108.136,43,-142.508,0\C,49,1.36775,45,113.268,44,0.290506,0\C,49,1.40489,45,120.387,44,149.812,0\C,50,1.40594,49,121.84,45,139.712,0\C,52,1.37739,50,120.593,49,-131.481,0\C,53,1.34602,52,119.742,50,3.42292,0\C,54,1.39867,53,122.54,52,-5.8241,0\C,55,1.38694,54,107.649,53,145.226,0\C,55,1.40277,54,119.029,53,5.40949,0\C,54,1.40425,53,122.253,52,138.74,0\C,58,1.35748,54,109.957,53,-149.144,0\C,58,1.38752,54,120.262,53,-4.84226,0\C,60,1.39294,58,118.893,54,-0.529469,0\C,61,1.40054,60,119.285,58,1.17412,0\C,62,1.40021,61,116.456,60,-137.511,0\C,63,1.40114,62,105.629,61,146.373,0\C,64,1.3783,63,120.338,62,-154.93,0\C,60,1.40375,58,121.217,54,-137.353,0\C,66,1.40987,60,107.437,58,143.265,0\C,67,1.38492,66,110.247,60,-3.68021,0\C,51,1.4116,49,120.921,45,1.02357,0\C,69,1.40376,51,109.251,49,-141.323,0\C,59,1.41181,58,120.63,54,140.331,0\C,71,1.36323,59,120.884,58,3.82211,0\C,39,1.41526,38,107.991,37,147.262,0\C,73,1.41236,39,120.486,38,-140.063,0\C,74,1.38778,73,120.669,39,-1.20677,0\C,22,1.42345,21,125.533,20,-9.0558,0\C,18,1.45258,17,61.3503,14,101.705,0\C,17,1.5051,14,108.957,11,56.969,0\C,78,1.39499,17,121.431,14,-87.2258,0\H,79,1.08621,78,118.73,17,-1.34143,0\C,78,1.40443,17,122.673,14,98.8707,0\H,81,1.08625,78,117.888,17,-0.893308,0\C,81,1.38231,78,123.55,17,179.532,0\H,83,1.08608,81,121.714,78,-178.416,0\C,79,1.40603,78,123.847,17,-169.235,0\H,85,1.08716,79,114.357,78,175.828,0\C,85,1.3914,79,116.898,78,-11.2482,0\H,87,1.08602,85,118.45,79,-176.529,0\H,38,2.95937,37,101.158,36,-108.275,0\C,89,1.09657,38,127.012,37,-60.5006,0\H,90,1.09631,89,102.449,38,-132.88,0\H,90,1.09687,89,107.184,38,103.954,0\O,90,1.39948,89,107.209,38,-21.3026,0\C,93,1.35736,90,122.438,89,-177.193,0\O,94,1.21967,93,123.248,90,-15.8861,0\C,94,1.50364,93,112.664,90,166.793,0\H,96,1.09672,94,100.63,93,30.7475,0\H,96,1.09739,94,104.962,93,-86.8125,0\C,96,1.5148,94,118.955,93,145.121,0\H,99,1.09708,96,113.006,94,59.0629,0\H,99,1.09718,96,104.391,94,-49.2967,0\C,99,1.52582,96,110.507,94,-175.243,0\H,102,1.09586,99,115.243,96,-53.6917,0\H,102,1.09737,99,104.773,96,59.4628,0\C,102,1.56441,99,116.368,96,-172.257,0\C,105,1.47514,102,113.965,99,64.3557,0\C,106,1.43278,105,122.732,102,-95.318,0\H,107,1.08651,106,124.254,105,-12.4916,0\C,107,1.40363,106,120.418,105,166.192,0\H,109,1.08568,107,124.49,106,179.286,0\C,109,1.40583,107,120.663,106,0.619992,0\H,111,1.08594,109,116.256,107,-176.723,0\C,111,1.42753,109,121.034,107,-0.425898,0\H,113,1.08551,111,120.938,109,177.404,0\C,113,1.38104,111,117.184,109,-1.61165,0\H,115,1.08625,113,110.033,111,-177.335,0\C,105,1.49767,102,108.129,99,-151.035,0\C,117,1.46132,105,61.9341,102,114.13,0\C,118,1.44643,117,121.554,105,117.717,0\C,119,1.42244,118,111.44,117,135.806,0\C,120,1.408,119,109.716,118,-1.59738,0\C,121,1.41695,120,118.581,119,-141.468,0\C,122,1.39169,121,121.269,120,140.422,0\C,123,1.41982,122,120.825,121,-7.12058,0\C,124,1.39719,123,117.925,122,-130.526,0\C,125,1.38804,124,122.105,123,-3.26577,0\C,126,1.39728,125,121.112,124,6.6673,0\C,127,1.3751,126,119.038,125,-3.57433,0\C,128,1.37662,127,117.222,126,142.089,0\C,129,1.39605,128,123.487,127,0.276841,0\C,130,1.36951,129,119.812,128,-140.184,0\C,130,1.39407,129,116.748,128,-3.77048,0\C,132,1.37836,130,122.54,129,7.04736,0\C,133,1.36162,132,119.535,130,-143.318,0\C,132,1.38124,130,106.698,129,-138.635,0\C,125,1.40451,124,106.309,123,139.436,0\C,136,1.33098,125,110.792,124,-0.513098,0\C,136,1.38187,125,117.494,124,-150.655,0\C,137,1.38878,136,108.93,125,-4.16263,0\C,137,1.39925,136,119.084,125,-144.516,0\C,140,1.36591,137,119.443,136,1.2744,0\C,141,1.38983,140,110.75,137,146.417,0\C,142,1.3734,141,107.354,140,-4.41539,0\C,141,1.3952,140,122.585,137,-7.0854,0\C,144,1.37554,141,118.739,140,141.272,0\C,145,1.3868,144,107.44,141,-144.709,0\C,146,1.39705,145,114.637,144,143.478,0\C,139,1.39979,137,122.287,136,-141.397,0\C,138,1.40349,136,125.931,125,3.10994,0\C,149,1.39805,138,116.101,136,-0.46972,0\C,129,1.40494,128,104.566,127,-145.622,0\C,131,1.40858,130,108.37,129,139.455,0\C,152,1.39984,131,126.049,130,-141.301,0\C,153,1.36788,152,115.872,131,2.80133,0\C,154,1.37847,153,107.059,152,140.616,0\C,155,1.38659,154,119.633,153,-146.816,0\C,156,1.39938,155,119.38,154,141.828,0\C,156,1.40407,155,119.917,154,1.48465,0\C,158,1.38812,156,121.429,155,0.00179803,0\C,159,1.3999,158,120.38,156,136.441,0\C,157,1.40564,156,108.069,155,-139.043,0\C,134,1.40932,133,121.795,132,-2.99497,0\C,159,1.41137,158,118.593,156,0.457449,0\C,163,1.39808,159,107.808,158,145.89,0\C,164,1.40103,163,109.084,159,-7.47262,0\C,161,1.41167,157,107.668,156,-7.94389,0\C,142,1.41428,141,121.64,140,-148.505,0\C,167,1.40335,142,116.924,141,1.10632,0\C,168,1.40717,167,111.822,142,142.134,0\C,169,1.39418,168,117.822,167,-141.725,0\C,135,1.41935,132,121.619,130,155.015,0\C,171,1.36143,135,118.716,132,-143.563,0\C,155,1.42394,154,110.63,153,-1.56912,0\C,173,1.40066,155,105.483,154,1.08593,0\C,173,1.41742,155,122.316,154,-148.395,0\C,175,1.41284,173,117.314,155,3.52592,0\\\@

 Total job time:  858.18s(wall), 7313.48s(cpu) 
 Sun Oct  7 23:54:10 2018

        *************************************************************
        *                                                           *
        *  Thank you very much for using Q-Chem.  Have a nice day.  *
        *                                                           *
        *************************************************************


