
Running Job 1 of 1 ./10/18.qcin
qchem ./10/18.qcin_19791.0 /tmpu/cab_g/afmv_a/scratch_qchem/qchem19791/ 1
/tmpu/appuserlic/qchem4.4/serial-multicore/exe/qcprog.exe_s ./10/18.qcin_19791.0 /tmpu/cab_g/afmv_a/scratch_qchem/qchem19791/
Check license passed

                  Welcome to Q-Chem
     A Quantum Leap Into The Future Of Chemistry


 Q-Chem 4.4, Q-Chem, Inc., Pleasanton, CA (2016)

 Y. Shao,  Z. Gan,  E. Epifanovsky,  A. T. B. Gilbert,  M. Wormit,  
 J. Kussmann,  A. W. Lange,  A. Behn,  J. Deng,  X. Feng,  D. Ghosh,  
 M. Goldey,  P. R. Horn,  L. D. Jacobson,  I. Kaliman,  F. Rob,  
 R. Z. Khaliullin,  T. Kus,  A. Landau,  J. Liu,  E. I. Proynov,  Y. M. Rhee,  
 R. M. Richard,  M. A. Rohrdanz,  R. P. Steele,  E. J. Sundstrom,  
 H. L. Woodcock III,  P. M. Zimmerman,  D. Zuev,  B. Albrecht,  E. Alguire,  
 B. Austin,  S. A. Baeppler,  G. J. O. Beran,  Y. A. Bernard,  E. Berquist,  
 K. Brandhorst,  K. B. Bravaya,  S. T. Brown,  D. Casanova,  C.-M. Chang,  
 Y. Chen,  S. H. Chien,  K. D. Closser,  M. P. Coons,  D. L. Crittenden,  
 S. Dasgupta,  M. Diedenhofen,  R. A. DiStasio Jr.,  H. Do,  A. D. Dutoi,  
 R. G. Edgar,  P.-T. Fang,  S. Fatehi,  Q. Feng,  L. Fusti-Molnar,  
 A. Ghysels,  A. Golubeva-Zadorozhnaya,  J. Gomes,  A. Gunina,  
 M. W. D. Hanson-Heine,  P. H. P. Harbach,  A. W. Hauser,  J. E. Herr,  
 E. G. Hohenstein,  Z. C. Holden,  K. Hui,  T.-C. Jagau,  H. Ji,  B. Kaduk,  
 K. Khistyaev,  Jaehoon Kim,  Jihan Kim,  R. A. King,  P. Klunzinger,  
 K. Koh,  D. Kosenkov,  T. Kowalczyk,  C. M. Krauter,  A. Kunitsa,  
 K. U. Lao,  A. Laurent,  K. V. Lawler,  J. Lee,  D. Lefrancois,  S. Lehtola,  
 S. V. Levchenko,  C. Y. Lin,  Y.-S. Lin,  F. Liu,  E. Livshits,  
 R. C. Lochan,  A. Luenser,  P. Manohar,  S. F. Manzer,  S.-P. Mao,  Y. Mao,  
 N. Mardirossian,  A. V. Marenich,  L. A. Martinez-Martinez,  S. A. Maurer,  
 N. J. Mayhall,  J.-M. Mewes,  A. F. Morrison,  K. Nanda,  T. S. Nguyen-Beck,  
 C. M. Oana,  R. Olivares-Amaya,  D. P. O'Neill,  J. A. Parkhill,  
 T. M. Perrine,  R. Peverati,  P. A. Pieniazek,  F. Plasser,  A. Prociuk,  
 D. R. Rehn,  E. Rosta,  N. J. Russ,  N. Sergueev,  S. M. Sharada,  
 S. Sharma,  D. W. Small,  A. Sodt,  T. Stauch,  T. Stein,  D. Stuck,  
 Y.-C. Su,  A. J. W. Thom,  T. Tsuchimochi,  L. Vogt,  O. Vydrov,  T. Wang,  
 M. A. Watson,  J. Wenzel,  A. White,  C. F. Williams,  V. Vanovschi,  
 K. Yao,  S. Yeganeh,  S. R. Yost,  Z.-Q. You,  I. Y. Zhang,  X. Zhang,  
 Y. Zhao,  B. R. Brooks,  G. K. L. Chan,  D. M. Chipman,  C. J. Cramer,  
 W. A. Goddard III,  M. S. Gordon,  W. J. Hehre,  A. Klamt,  
 H. F. Schaefer III,  M. W. Schmidt,  C. D. Sherrill,  D. G. Truhlar,  
 A. Warshel,  X. Xu,  A. Aspuru-Guzik,  R. Baer,  A. T. Bell,  N. A. Besley,  
 J.-D. Chai,  A. Dreuw,  B. D. Dunietz,  T. R. Furlani,  S. R. Gwaltney,  
 C.-P. Hsu,  Y. Jung,  J. Kong,  D. S. Lambrecht,  W. Liang,  C. Ochsenfeld,  
 V. A. Rassolov,  L. V. Slipchenko,  J. E. Subotnik,  T. Van Voorhis,  
 J. M. Herbert,  A. I. Krylov,  P. M. W. Gill,  M. Head-Gordon

 Contributors to earlier versions of Q-Chem not listed above: 
 R. D. Adamson,  J. Baker,  E. F. C. Byrd,  A. K. Chakraborty,  C.-L. Cheng,  
 H. Dachsel,  R. J. Doerksen,  G. Hawkins,  A. Heyden,  S. Hirata,  
 G. Kedziora,  F. J. Keil,  C. Kelley,  P. P. Korambath,  W. Kurlancheek,  
 A. M. Lee,  M. S. Lee,  D. Liotard,  I. Lotan,  P. E. Maslen,  N. Nair,  
 D. Neuhauser,  R. Olson,  B. Peters,  J. Ritchie,  N. E. Schultz,  
 N. Shenvi,  A. C. Simmonett,  K. S. Thanthiriwatte,  Q. Wu,  W. Zhang

 Please cite Q-Chem as follows:
 Y. Shao et al., Mol. Phys. 113, 184-215 (2015)
 DOI: 10.1080/00268976.2014.952696

 Q-Chem 4.4.2 for Intel X86 Linux

 Parts of Q-Chem use Armadillo 5.200.1 (Boston Tea Smuggler).
 http://arma.sourceforge.net/

 Q-Chem begins on Mon Oct  8 00:22:32 2018  

Host: 
0

     Scratch files written to /tmpu/cab_g/afmv_a/scratch_qchem/qchem19791//
 Dec716 11556_ 22328  22283 4050   
Processing $rem in /tmpu/appuserlic/qchem4.4/serial-multicore/config/preferences.
 MEM_TOTAL  2000 
FILE_GEOM_ORG=        593

Checking the input file for inconsistencies... 	...done.

--------------------------------------------------------------
User input:
--------------------------------------------------------------
$comment
SP
$end

$rem
MEM_STATIC 5000
MEM_TOTAL 20000
JOBTYPE SP
EXCHANGE B3LYP
BASIS 6-31g(d,p)
$end

$molecule
0 1
O          -4.457000      6.272000    -12.995000
C          -3.364000      7.198000    -12.896000
H          -2.882000      7.458000    -13.846000
H          -2.544000      6.733000    -12.336000
H          -3.554000      8.193000    -12.475000
O          -5.785000      7.667000    -14.301000
C          -5.490000      6.551000    -13.873000
C          -6.415000      5.309000    -14.086000
H          -5.900000      4.341000    -14.127000
H          -6.754000      5.463000    -15.118000
C          -7.553000      5.260000    -13.105000
H          -8.021000      6.253000    -13.108000
H          -8.383000      4.596000    -13.377000
C          -7.082000      4.988000    -11.621000
H          -6.629000      3.989000    -11.596000
H          -6.356000      5.724000    -11.254000
C          -8.173000      5.082000    -10.513000
C          -8.589000      6.482000    -10.356000
C          -9.658000      6.937000    -11.112000
H         -10.345000      6.206000    -11.527000
C         -10.038000      8.307000    -11.169000
H         -10.949000      8.532000    -11.716000
C          -9.259000      9.209000    -10.389000
H          -9.462000     10.276000    -10.385000
C          -8.178000      8.720000     -9.624000
H          -7.558000      9.503000     -9.198000
C          -7.838000      7.377000     -9.613000
H          -7.047000      7.006000     -8.968000
C          -8.935000      3.759000     -5.390000
C         -11.261000      3.958000     -6.166000
C         -12.028000     -0.585000     -6.052000
C          -6.144000      0.635000     -8.180000
C         -11.415000     -1.029000     -9.554000
C          -9.925000      4.423000     -6.185000
C          -7.800000     -1.330000     -9.182000
C         -10.855000      0.850000     -4.459000
C         -11.378000      2.991000    -10.101000
C          -6.628000      0.717000     -9.515000
C          -9.193000      3.936000    -10.306000
C         -10.548000      2.126000    -10.865000
C          -8.463000      0.328000    -10.883000
C          -9.126000     -1.756000     -9.141000
C         -10.681000      4.475000     -8.340000
C         -10.762000     -1.961000     -7.405000
C          -8.041000      4.150000     -9.325000
C          -7.060000      3.094000     -9.194000
C         -11.764000     -1.385000     -8.211000
C          -7.682000     -0.452000     -5.203000
C          -9.779000     -1.140000     -5.309000
C          -9.783000     -0.045000     -4.494000
C         -10.603000      2.231000     -4.630000
C          -6.554000      2.955000     -7.927000
C         -10.540000      4.046000     -9.666000
C         -11.588000      2.842000     -5.396000
C          -7.466000     -0.303000    -10.079000
C         -11.757000      3.966000     -7.532000
C         -10.873000      0.754000    -10.941000
C          -6.343000      1.433000     -6.038000
C         -12.026000      0.614000     -5.252000
C          -9.226000      2.606000    -10.964000
C          -8.244000      1.836000     -4.486000
C          -9.778000     -0.158000    -10.939000
C         -12.324000      2.428000     -9.238000
C          -8.341000     -1.980000     -7.047000
C          -7.333000     -1.374000     -7.875000
C         -12.708000      1.056000     -9.267000
C          -6.035000      1.776000     -7.376000
C          -7.103000      1.945000     -9.976000
C          -6.675000      0.081000     -6.069000
C          -8.205000      4.577000     -7.940000
C         -12.949000      1.857000     -7.149000
C          -8.205000      1.707000    -10.820000
C         -11.869000      0.178000    -10.110000
C          -7.219000      2.293000     -5.266000
C         -12.514000     -0.552000     -7.387000
C          -9.276000      2.686000     -4.597000
C         -10.909000     -1.362000     -6.141000
C         -12.579000      2.916000     -7.983000
C         -12.976000      0.687000     -7.900000
C          -9.550000      4.770000     -7.498000
C          -7.285000      3.862000     -7.162000
C          -8.503000     -1.424000     -5.758000
C         -12.454000      1.798000     -5.837000
C         -10.118000     -1.238000    -10.026000
C          -6.579000     -0.347000     -7.397000
C          -9.423000     -2.213000     -7.855000
C          -7.640000      3.491000     -5.814000
C          -8.484000      0.453000     -4.487000
O         -13.800000     -2.268000      5.677000
C         -14.965000     -1.792000      6.366000
H         -15.552000     -2.682000      6.624000
H         -15.498000     -1.012000      5.809000
H         -14.636000     -1.423000      7.345000
O         -14.955000     -2.324000      3.692000
C         -13.906000     -2.422000      4.329000
C         -12.520000     -2.787000      3.731000
H         -11.863000     -2.247000      4.423000
H         -12.384000     -2.357000      2.731000
C         -12.086000     -4.329000      3.682000
H         -11.010000     -4.305000      3.468000
H         -12.126000     -4.838000      4.653000
C         -12.895000     -5.089000      2.576000
H         -13.898000     -5.309000      2.963000
H         -13.120000     -4.390000      1.761000
C         -12.260000     -6.412000      2.074000
C         -12.207000     -7.368000      3.213000
C         -13.380000     -8.093000      3.623000
H         -14.298000     -7.845000      3.099000
C         -13.460000     -8.911000      4.769000
H         -14.406000     -9.309000      5.124000
C         -12.269000     -9.205000      5.412000
H         -12.280000     -9.860000      6.278000
C         -11.059000     -8.659000      4.938000
H         -10.155000     -8.798000      5.523000
C         -11.015000     -7.745000      3.866000
H         -10.086000     -7.229000      3.643000
C          -8.306000     -8.575000     -1.118000
C         -10.029000    -10.246000     -1.340000
C         -11.211000     -9.193000     -5.774000
C          -9.990000     -3.847000     -2.216000
C         -13.847000     -7.084000     -4.694000
C          -9.340000     -9.299000     -0.545000
C         -11.973000     -4.157000     -4.158000
C          -9.052000     -9.361000     -4.549000
C         -13.567000     -8.432000     -0.885000
C         -11.365000     -3.803000     -1.822000
C         -12.573000     -6.895000      0.658000
C         -13.962000     -7.154000     -1.220000
C         -13.400000     -4.642000     -2.188000
C         -12.671000     -5.006000     -4.989000
C         -11.477000     -9.135000      0.036000
C         -12.003000     -7.060000     -6.185000
C         -11.204000     -6.357000      0.946000
C         -10.815000     -5.123000      0.150000
C         -13.088000     -7.818000     -5.627000
C          -8.363000     -5.935000     -4.628000
C          -9.602000     -7.400000     -5.875000
C          -8.742000     -8.087000     -5.111000
C          -8.653000     -9.761000     -3.267000
C          -9.519000     -5.258000     -0.292000
C         -12.615000     -8.352000      0.174000
C          -9.736000    -10.433000     -2.733000
C         -12.405000     -3.953000     -2.775000
C         -11.402000    -10.083000     -1.004000
C         -14.354000     -6.832000     -2.518000
C          -8.197000     -5.252000     -2.327000
C         -10.327000     -9.915000     -4.928000
C         -13.445000     -6.186000     -0.291000
C          -7.626000     -7.597000     -3.001000
C         -14.047000     -5.574000     -3.026000
C         -13.478000     -9.316000     -1.910000
C         -10.493000     -5.170000     -5.602000
C         -10.624000     -4.162000     -4.573000
C         -13.870000     -9.001000     -3.245000
C          -9.132000     -4.617000     -1.415000
C         -11.802000     -4.425000     -0.656000
C          -8.550000     -4.921000     -3.620000
C         -10.070000     -7.243000      0.647000
C         -12.104000    -10.430000     -3.336000
C         -13.102000     -4.905000     -0.832000
C         -14.287000     -7.702000     -3.531000
C          -7.748000     -6.577000     -2.017000
C         -12.569000     -9.111000     -5.375000
C          -7.996000     -8.826000     -2.450000
C         -10.888000     -7.921000     -6.158000
C         -12.411000    -10.182000     -2.011000
C         -12.930000     -9.684000     -4.101000
C         -10.215000     -8.647000      0.301000
C          -9.037000     -6.553000      0.012000
C          -9.362000     -6.017000     -5.619000
C         -10.752000    -10.505000     -3.676000
C         -13.701000     -5.741000     -4.389000
C          -9.646000     -4.030000     -3.545000
C         -11.801000     -5.649000     -5.882000
C          -8.081000     -7.205000     -0.805000
C          -8.023000     -7.237000     -4.304000
$end

--------------------------------------------------------------
 ----------------------------------------------------------------
             Standard Nuclear Orientation (Angstroms)
    I     Atom           X                Y                Z
 ----------------------------------------------------------------
    1      O     -12.6346187947    -1.3473186975    -2.7648535900
    2      C     -13.4955630375    -0.9351097817    -3.8375999815
    3      H     -14.4029313511    -1.5367654540    -3.9684326814
    4      H     -12.9783981978    -1.0789003373    -4.7936804199
    5      H     -13.9142225134     0.0786127608    -3.8162259309
    6      O     -14.1993909236    -0.9531534775    -1.0881404470
    7      C     -13.1713262151    -1.4928737094    -1.4973470285
    8      C     -12.1888485490    -2.2414683786    -0.5392751852
    9      H     -11.6191533054    -3.0602237938    -0.9964588458
   10      H     -12.8874676212    -2.7580141380     0.1306299353
   11      C     -11.2700391235    -1.3048696716     0.1944673458
   12      H     -11.8967909521    -0.5116021796     0.6222416222
   13      H     -10.7711499381    -1.7265520378     1.0759851067
   14      C     -10.2246235529    -0.5920985556    -0.7527098397
   15      H      -9.5760169792    -1.3704212487    -1.1738491253
   16      H     -10.6922931805    -0.0292606885    -1.5699978274
   17      C      -9.3399794768     0.5165703967    -0.1084746243
   18      C     -10.1747860658     1.6823948162     0.2103613554
   19      C     -10.7545580986     1.7494341617     1.4676171433
   20      H     -10.3300299774     1.1468699638     2.2646411465
   21      C     -11.7124896929     2.7385007103     1.8263139833
   22      H     -12.0247057171     2.7520465551     2.8665508142
   23      C     -12.0493085552     3.6839762975     0.8156340300
   24      H     -12.7851374014     4.4633876849     0.9910985511
   25      C     -11.4414768342     3.5969352689    -0.4555352972
   26      H     -11.8821832892     4.2597501035    -1.1940603920
   27      C     -10.5239146746     2.6049739900    -0.7612516760
   28      H     -10.0148540007     2.5909015132    -1.7204212103
   29      C      -4.9154476164     3.3372467277    -1.1299465292
   30      C      -5.0391529069     3.5435442407     1.3183572381
   31      C      -1.4577622502     0.7390227056     2.0589204857
   32      C      -5.0319948204    -1.4247100151    -2.7557822307
   33      C      -3.5124496333    -2.1278921125     2.6881805137
   34      C      -5.6913760621     3.4987518915     0.0637335491
   35      C      -3.8606705277    -3.0159970238    -0.8313680192
   36      C      -1.7531957023     2.5023602765     0.3927384168
   37      C      -6.8240211125     0.2139893565     2.7884976267
   38      C      -5.8394748195    -2.1606236976    -1.8449517838
   39      C      -8.1376821774     0.1463960001     0.7937543488
   40      C      -6.8636137266    -1.1135551195     2.2816652195
   41      C      -6.0202914860    -2.8876487121     0.3524808003
   42      C      -3.2252321428    -2.9322269752     0.4058197749
   43      C      -6.9414540401     2.2497191611     1.5113133526
   44      C      -1.5968148521    -1.4532482761     1.3508574118
   45      C      -7.9236906189     0.6662747140    -0.6272293723
   46      C      -7.2832641894    -0.2151053671    -1.5799523861
   47      C      -2.3124714695    -1.3558864587     2.5607219837
   48      C      -1.9824598864     0.2831502622    -2.3163599289
   49      C      -1.0765041742     0.2885334297    -0.3011169487
   50      C      -1.3577228264     1.5924947876    -0.5907146815
   51      C      -2.9334537542     3.2563040568     0.1966116542
   52      C      -6.4824012471     0.4296934894    -2.4874208331
   53      C      -7.5074597666     1.0108701303     1.8385572926
   54      C      -3.6529876899     3.4004790859     1.3763516579
   55      C      -5.2643999354    -3.0224000348    -0.8512866377
   56      C      -5.8094592838     2.7392426617     2.2520397623
   57      C      -5.8319188216    -2.0121447472     2.6308461236
   58      C      -4.2012314839     0.6402678831    -3.3127988897
   59      C      -1.8263238962     2.1016762577     1.7674713307
   60      C      -7.5749859607    -1.1995035835     1.0673969599
   61      C      -3.0780990078     2.4741806595    -2.0636986656
   62      C      -5.4053903054    -2.9140971339     1.6133352800
   63      C      -5.6461658573     0.6708834924     3.3889630682
   64      C      -1.8943787496    -1.8493399264    -1.0458764348
   65      C      -3.0952452497    -2.2691240956    -1.7171326453
   66      C      -4.5711744122    -0.1800768683     3.7774741458
   67      C      -5.3792967445    -0.1264663361    -3.1483669011
   68      C      -6.9307356149    -1.5208123730    -1.2568009993
   69      C      -3.1538300979    -0.2120121548    -2.9727134984
   70      C      -7.3132736203     1.9502857124    -0.9530465663
   71      C      -3.7486086589     1.8813604290     3.2680942769
   72      C      -7.0504884504    -1.9758300398     0.0706033028
   73      C      -4.6538471515    -1.5730643915     3.2894116719
   74      C      -4.1425629074     1.9818722670    -2.7654272836
   75      C      -2.2288033027    -0.0296151816     2.9722668020
   76      C      -3.5430024417     3.2427976100    -1.0672360318
   77      C      -1.1940648758    -0.1401063900     1.0482737977
   78      C      -5.1435198394     1.9306015984     3.1923637953
   79      C      -3.3643667856     0.5785491225     3.5658708415
   80      C      -6.8713302744     2.7344972633     0.1566093815
   81      C      -6.4951370209     1.7606906750    -2.0744810166
   82      C      -1.4406741055    -0.5442944199    -1.3423714969
   83      C      -2.9752175116     2.6142153664     2.3545080609
   84      C      -3.9511383349    -2.9310982899     1.6340998433
   85      C      -3.7117978541    -1.4398618933    -2.6025230033
   86      C      -1.9992061367    -2.2814260853     0.2503449083
   87      C      -5.2795966490     2.5275146561    -2.1978203299
   88      C      -2.0092597847     1.5975729221    -1.8199127145
   89      O       7.6895686247     8.1172056724    -0.2714588771
   90      C       8.0416854395     9.2163616896     0.5808273417
   91      H       8.9918783620     8.9423812833     1.0554863212
   92      H       7.2309429701     9.5013361026     1.2621673686
   93      H       8.3244190365    10.0539165505    -0.0683310120
   94      O       6.7168908090     7.0154113456     1.4941382254
   95      C       6.9626553460     7.1140061809     0.2917851779
   96      C       6.5379363011     6.0952517939    -0.8007248824
   97      H       6.4378908413     6.7663672633    -1.6619495527
   98      H       5.5509644744     5.6644978570    -0.5915989413
   99      C       7.5422245842     4.9026208980    -1.1716124539
  100      H       7.1470762126     4.4922118828    -2.1094664962
  101      H       8.5471946245     5.2349006735    -1.4599653086
  102      C       7.5725620592     3.8372736141    -0.0229472275
  103      H       8.2062166275     4.2146100825     0.7896271246
  104      H       6.5871925966     3.8099644946     0.4584592889
  105      C       8.0808258659     2.4297096039    -0.4303652681
  106      C       9.5009976928     2.5499926569    -0.8578111350
  107      C      10.5583099368     2.6446983599     0.1131552128
  108      H      10.2455005725     2.6914720250     1.1517920722
  109      C      11.9113165010     2.8979829274    -0.1935370843
  110      H      12.6424792571     3.1177531610     0.5787627723
  111      C      12.2731679889     2.8308200371    -1.5287968519
  112      H      13.3116231480     2.9843595669    -1.8065350293
  113      C      11.2980633030     2.5610789528    -2.5102766525
  114      H      11.5730214873     2.6338103231    -3.5580696401
  115      C       9.9299993483     2.4331300458    -2.1963561323
  116      H       9.2005372386     2.3885376165    -2.9994268301
  117      C       6.7409768137    -2.2587428897    -3.0235807881
  118      C       8.2110929189    -3.0971827593    -1.3071801292
  119      C       4.8606848071    -5.1223701917     1.3080962133
  120      C       2.9408186609     0.6321388820    -1.1269931693
  121      C       4.5924913883    -2.2643343075     3.3871537340
  122      C       7.8709391013    -2.0874796009    -2.2390330747
  123      C       2.3672570562    -0.3972440005     1.4050319031
  124      C       5.2866221066    -4.9557072901    -1.1374979669
  125      C       7.9606521748    -0.6343304463     1.8371326603
  126      C       3.4681546380     1.2900755242     0.0292218376
  127      C       7.5982520053     1.2103724305     0.3549075042
  128      C       6.8955239180     0.1051918230     2.3063262342
  129      C       4.3045809179     0.9982428244     2.0772273927
  130      C       2.6143709168    -1.3628572556     2.3563950206
  131      C       8.6001964057    -1.0215961452    -0.4325718260
  132      C       3.2075334631    -3.7518200061     2.1651591179
  133      C       7.0817414277     1.4174828909    -1.0368076536
  134      C       5.5783900305     1.6066260288    -1.1456766117
  135      C       4.3642533101    -3.6006766216     3.0031972273
  136      C       2.5655571969    -2.8646914862    -1.8022510529
  137      C       3.1194676064    -4.3934786652    -0.1921740300
  138      C       3.9214722700    -4.5581036182    -1.2528116422
  139      C       6.3127152738    -4.4498680173    -1.9461910127
  140      C       5.1047914519     0.8744991985    -2.2100542188
  141      C       8.3677329807    -0.0997884752     0.5790646579
  142      C       7.3904407662    -4.2573892237    -1.1029302718
  143      C       3.2000703993     0.8037496237     1.3345673702
  144      C       8.6134098900    -2.3988847148    -0.1345271985
  145      C       5.9149085520    -0.4663799593     3.1149368956
  146      C       3.5011201112    -0.8633401484    -2.7551208530
  147      C       5.7355764612    -5.2606326385     0.1972838577
  148      C       6.6642322631     1.2659207561     1.4898909863
  149      C       4.6641685102    -3.0658340593    -3.0302226410
  150      C       4.5967813239    -0.0417461445     2.9841556519
  151      C       7.9333387222    -1.9615296562     2.1160560058
  152      C       1.8554497246    -2.4613848032     0.5223762500
  153      C       1.8036277827    -1.0363939315     0.2799272822
  154      C       6.9341578013    -2.5632748197     2.9374293955
  155      C       3.8279436673     0.4371467072    -2.1973446418
  156      C       4.7697690959     1.7828602167     0.0485104319
  157      C       2.5083841903    -1.4355059605    -1.9849775710
  158      C       7.2875966873     0.3162047665    -1.9882082552
  159      C       7.5309351715    -4.0542767112     1.3281288861
  160      C       5.3000232658     1.6741271169     1.3362928780
  161      C       5.8899157683    -1.7701175698     3.4102360723
  162      C       4.5726881970    -1.6659622012    -3.2658709658
  163      C       5.3595140586    -4.4396349484     2.4461344224
  164      C       6.0026215670    -3.4248725934    -2.8553605644
  165      C       3.6081508113    -4.6071908007     1.1196345873
  166      C       8.2663385894    -2.8957720202     1.1595267099
  167      C       6.6773560015    -3.8591467424     2.3564011729
  168      C       8.1295816287    -0.8364039663    -1.7152403680
  169      C       6.1431062147     0.0795313317    -2.7501408268
  170      C       2.2140164213    -3.3416498142    -0.5232921652
  171      C       7.0661082282    -4.6901621074     0.1754300201
  172      C       3.7688192872    -1.1815436459     3.1280810546
  173      C       2.1468410629    -0.4946312007    -0.9926251873
  174      C       2.3201200456    -2.6388230492     1.8532790118
  175      C       5.8849479118    -1.1726684241    -3.3599597032
  176      C       3.6535543226    -3.6137610391    -2.2156964052
 ----------------------------------------------------------------
 Molecular Point Group                 C1    NOp =  1
 Largest Abelian Subgroup              C1    NOp =  1
 Nuclear Repulsion Energy = 33423.2703095641 hartrees
 There are      462 alpha and      462 beta electrons
 Requested basis set is 6-31G(d,p)
 There are 676 shells and 2360 basis functions

 Total QAlloc Memory Limit  20000 MB
 Mega-Array Size      4888 MB
 MEM_STATIC part      5000 MB
 A cutoff of  1.0D-08 yielded  36538 shell pairs
 There are    517869 function pairs
 
 -------------------------------------------------------
 OpenMP Integral Computing Module                       
 Release: version 1.0, May 2013, Q-Chem Inc. Pittsburgh 
 -------------------------------------------------------
 Integral Job Info:
 Integral job number is                      11
 Integral operator is                         1
 short-range coefficients                     0
 long-range coefficients              100000000
 Omega coefficients                           0
 if combine SR and LR in K                    0
 Integral screening is                        0
 Integral computing path is                   2
 max size of driver memory is            800000
 size of driver memory is                593474
 size of scratch memory is              2260544
 max col of scratch BK array               1296
 max len of scratch array in speh3          155
 max len of scratch index in speh4           18
 max int batch size is                      520
 min int batch size is                       52
 fixed nKL is                                52
 max L of basis functions is                  2
 order of int derivative is                   0
 number of shells is                        676
 number of basis is                        2360
 number of cartesian basis is              2360
 number of contracted shell pairs         36538
 number of primitive shell pairs         111560
 maxK2 (contraction) of shell pair           36
 max number of K2 of shell pair               1
 max number of CS2 of shell pair           7061
 max number of PS2 of shell pair          34182
 mem total for path MDJ                 1474920
 -------------------------------------------------------
 Smallest overlap matrix eigenvalue = 2.56E-04

 Scale SEOQF with 1.000000e-02/1.000000e-02/1.000000e-01

 Standard Electronic Orientation quadrupole field applied
 Nucleus-field energy     =    -0.0000001576 hartrees
 Guess from superposition of atomic densities
 Warning:  Energy on first SCF cycle will be non-variational
 A restricted hybrid HF-DFT SCF calculation will be
 performed using Pulay DIIS extrapolation
 Exchange:     0.2000 Hartree-Fock + 0.0800 Slater + 0.7200 B88
 Correlation:  0.1900 VWN1RPA + 0.8100 LYP
 Using SG-1 standard quadrature grid
 SCF converges when DIIS error is below 1.0E-05
 using 16 threads for integral computing 
 -------------------------------------------------------
 OpenMP BLAS3 based DFT computing Module                
 Release: version 1.0, May 2013, Q-Chem Inc. Pittsburgh 
 -------------------------------------------------------
 ---------------------------------------
  Cycle       Energy         DIIS Error
 ---------------------------------------
    1   -5858.2777640285      1.83E-02
    2   -5803.0826564736      1.29E-03
    3   -5802.2269570250      1.82E-03
    4   -5803.9377061786      6.48E-04
    5   -5804.1591671335      3.10E-04
    6   -5804.2188284926      1.55E-04
    7   -5804.2354590645      5.47E-05
    8   -5804.2368034742      3.63E-05
    9   -5804.2377792081      8.90E-06 Convergence criterion met
 ---------------------------------------
 SCF time:  CPU 7129.38 s  wall 827.63 s
 SCF   energy in the final basis set = -5804.2377792081
 Total energy in the final basis set = -5804.2377792081
 
 --------------------------------------------------------------
 
                    Orbital Energies (a.u.)
 --------------------------------------------------------------
 
 Alpha MOs
 -- Occupied --
-19.202 -19.197 -19.146 -19.136 -10.327 -10.320 -10.247 -10.246
-10.243 -10.242 -10.241 -10.239 -10.234 -10.230 -10.229 -10.228
-10.227 -10.225 -10.225 -10.225 -10.223 -10.223 -10.222 -10.220
-10.220 -10.220 -10.220 -10.220 -10.220 -10.219 -10.219 -10.219
-10.219 -10.219 -10.218 -10.218 -10.218 -10.217 -10.217 -10.217
-10.217 -10.217 -10.217 -10.217 -10.217 -10.217 -10.217 -10.217
-10.216 -10.216 -10.216 -10.216 -10.216 -10.216 -10.216 -10.215
-10.215 -10.215 -10.215 -10.215 -10.215 -10.215 -10.214 -10.214
-10.214 -10.214 -10.214 -10.214 -10.214 -10.214 -10.214 -10.214
-10.213 -10.213 -10.213 -10.213 -10.213 -10.213 -10.213 -10.213
-10.213 -10.213 -10.213 -10.212 -10.212 -10.212 -10.212 -10.212
-10.211 -10.211 -10.211 -10.211 -10.211 -10.211 -10.211 -10.211
-10.211 -10.211 -10.210 -10.210 -10.210 -10.210 -10.210 -10.210
-10.210 -10.210 -10.209 -10.209 -10.209 -10.209 -10.209 -10.208
-10.208 -10.208 -10.208 -10.207 -10.207 -10.207 -10.207 -10.207
-10.207 -10.206 -10.206 -10.205 -10.205 -10.205 -10.204 -10.203
-10.203 -10.202 -10.202 -10.202 -10.202 -10.202 -10.201 -10.201
-10.201 -10.201 -10.201 -10.200 -10.200 -10.199 -10.199 -10.199
-10.198 -10.196 -10.196 -10.194  -1.096  -1.091  -1.013  -1.007
 -0.984  -0.981  -0.966  -0.963  -0.962  -0.961  -0.961  -0.959
 -0.934  -0.932  -0.928  -0.925  -0.923  -0.923  -0.922  -0.920
 -0.920  -0.919  -0.897  -0.893  -0.890  -0.889  -0.889  -0.886
 -0.873  -0.872  -0.852  -0.851  -0.841  -0.838  -0.837  -0.836
 -0.833  -0.832  -0.817  -0.817  -0.803  -0.799  -0.797  -0.797
 -0.794  -0.793  -0.792  -0.792  -0.792  -0.788  -0.782  -0.781
 -0.769  -0.769  -0.768  -0.767  -0.765  -0.765  -0.763  -0.761
 -0.749  -0.749  -0.741  -0.737  -0.732  -0.729  -0.716  -0.715
 -0.713  -0.713  -0.711  -0.711  -0.711  -0.709  -0.708  -0.707
 -0.706  -0.704  -0.704  -0.702  -0.701  -0.701  -0.673  -0.669
 -0.658  -0.657  -0.656  -0.654  -0.645  -0.643  -0.632  -0.631
 -0.629  -0.625  -0.624  -0.623  -0.621  -0.619  -0.618  -0.617
 -0.613  -0.613  -0.613  -0.611  -0.611  -0.608  -0.607  -0.606
 -0.604  -0.604  -0.601  -0.600  -0.573  -0.564  -0.564  -0.563
 -0.560  -0.560  -0.558  -0.558  -0.554  -0.554  -0.552  -0.552
 -0.535  -0.534  -0.533  -0.529  -0.528  -0.526  -0.526  -0.525
 -0.523  -0.520  -0.518  -0.517  -0.514  -0.513  -0.513  -0.512
 -0.504  -0.504  -0.502  -0.498  -0.491  -0.489  -0.486  -0.483
 -0.482  -0.482  -0.479  -0.479  -0.478  -0.476  -0.475  -0.474
 -0.471  -0.470  -0.470  -0.469  -0.469  -0.466  -0.465  -0.465
 -0.464  -0.463  -0.462  -0.461  -0.460  -0.459  -0.457  -0.456
 -0.455  -0.453  -0.451  -0.449  -0.447  -0.445  -0.443  -0.440
 -0.440  -0.440  -0.439  -0.437  -0.436  -0.435  -0.432  -0.431
 -0.428  -0.427  -0.427  -0.427  -0.426  -0.424  -0.422  -0.422
 -0.421  -0.420  -0.419  -0.418  -0.418  -0.418  -0.417  -0.417
 -0.416  -0.416  -0.414  -0.414  -0.414  -0.412  -0.411  -0.411
 -0.410  -0.409  -0.409  -0.408  -0.401  -0.399  -0.396  -0.394
 -0.392  -0.392  -0.390  -0.389  -0.387  -0.386  -0.384  -0.383
 -0.378  -0.375  -0.374  -0.371  -0.368  -0.367  -0.367  -0.366
 -0.364  -0.363  -0.362  -0.362  -0.360  -0.359  -0.358  -0.357
 -0.356  -0.356  -0.354  -0.353  -0.353  -0.352  -0.351  -0.351
 -0.351  -0.349  -0.348  -0.347  -0.345  -0.345  -0.344  -0.344
 -0.343  -0.341  -0.340  -0.338  -0.338  -0.335  -0.334  -0.331
 -0.331  -0.330  -0.330  -0.328  -0.327  -0.326  -0.324  -0.323
 -0.310  -0.305  -0.302  -0.300  -0.285  -0.281  -0.275  -0.270
 -0.269  -0.267  -0.266  -0.266  -0.264  -0.263  -0.261  -0.261
 -0.260  -0.259  -0.258  -0.257  -0.257  -0.256  -0.254  -0.252
 -0.247  -0.246  -0.243  -0.242  -0.220  -0.215  -0.211  -0.210
 -0.210  -0.206  -0.205  -0.201  -0.198  -0.197
 -- Virtual --
 -0.125  -0.124  -0.119  -0.118  -0.108  -0.105  -0.080  -0.077
 -0.075  -0.073  -0.060  -0.057  -0.051  -0.046  -0.023  -0.022
 -0.020  -0.019  -0.018  -0.016  -0.014  -0.013  -0.013  -0.012
 -0.011  -0.009  -0.008  -0.007  -0.007  -0.006  -0.003   0.001
  0.006   0.008   0.037   0.038   0.041   0.043   0.044   0.047
  0.048   0.050   0.056   0.058   0.063   0.064   0.067   0.068
  0.070   0.072   0.085   0.086   0.088   0.092   0.093   0.094
  0.097   0.098   0.100   0.100   0.102   0.105   0.107   0.110
  0.113   0.113   0.114   0.116   0.117   0.119   0.119   0.123
  0.125   0.127   0.128   0.130   0.132   0.132   0.135   0.138
  0.140   0.142   0.144   0.147   0.147   0.150   0.151   0.155
  0.156   0.162   0.162   0.163   0.163   0.164   0.168   0.169
  0.169   0.170   0.173   0.177   0.178   0.179   0.181   0.181
  0.184   0.185   0.186   0.187   0.189   0.189   0.191   0.194
  0.196   0.197   0.198   0.199   0.200   0.202   0.203   0.204
  0.210   0.211   0.212   0.213   0.214   0.215   0.216   0.219
  0.221   0.221   0.222   0.224   0.224   0.226   0.228   0.229
  0.230   0.230   0.231   0.232   0.236   0.238   0.239   0.240
  0.242   0.243   0.244   0.247   0.248   0.249   0.253   0.256
  0.261   0.264   0.270   0.271   0.276   0.277   0.278   0.279
  0.282   0.285   0.287   0.291   0.294   0.295   0.296   0.300
  0.305   0.306   0.309   0.312   0.312   0.315   0.315   0.319
  0.320   0.322   0.322   0.324   0.328   0.329   0.330   0.331
  0.334   0.337   0.337   0.343   0.345   0.346   0.347   0.349
  0.349   0.350   0.354   0.356   0.369   0.374   0.385   0.389
  0.394   0.395   0.400   0.400   0.403   0.404   0.405   0.409
  0.411   0.413   0.416   0.419   0.420   0.421   0.423   0.424
  0.426   0.428   0.432   0.433   0.436   0.438   0.443   0.448
  0.450   0.452   0.454   0.455   0.459   0.459   0.461   0.462
  0.467   0.469   0.470   0.471   0.472   0.473   0.476   0.476
  0.478   0.479   0.481   0.481   0.482   0.485   0.486   0.486
  0.488   0.489   0.490   0.491   0.493   0.493   0.494   0.495
  0.496   0.497   0.497   0.498   0.500   0.500   0.501   0.502
  0.505   0.506   0.507   0.508   0.509   0.510   0.510   0.512
  0.513   0.513   0.514   0.516   0.518   0.518   0.519   0.520
  0.520   0.521   0.522   0.523   0.524   0.524   0.525   0.526
  0.527   0.528   0.528   0.529   0.530   0.532   0.532   0.533
  0.533   0.534   0.535   0.535   0.536   0.536   0.537   0.539
  0.539   0.539   0.542   0.543   0.544   0.544   0.544   0.545
  0.546   0.546   0.547   0.547   0.549   0.550   0.550   0.551
  0.551   0.552   0.552   0.553   0.554   0.555   0.556   0.557
  0.557   0.558   0.559   0.560   0.561   0.562   0.564   0.565
  0.565   0.566   0.567   0.567   0.569   0.570   0.571   0.571
  0.572   0.573   0.574   0.574   0.575   0.576   0.578   0.578
  0.579   0.580   0.581   0.581   0.582   0.583   0.584   0.585
  0.585   0.586   0.586   0.588   0.589   0.590   0.591   0.592
  0.593   0.594   0.595   0.595   0.597   0.597   0.598   0.600
  0.600   0.601   0.603   0.603   0.605   0.605   0.607   0.608
  0.608   0.611   0.611   0.612   0.614   0.615   0.616   0.617
  0.618   0.618   0.619   0.620   0.621   0.622   0.623   0.625
  0.625   0.626   0.627   0.628   0.629   0.631   0.632   0.633
  0.633   0.634   0.635   0.636   0.636   0.637   0.638   0.640
  0.642   0.643   0.643   0.644   0.645   0.647   0.648   0.649
  0.650   0.652   0.652   0.653   0.654   0.655   0.655   0.656
  0.657   0.658   0.659   0.660   0.661   0.662   0.663   0.664
  0.664   0.666   0.666   0.666   0.668   0.669   0.669   0.670
  0.671   0.673   0.673   0.673   0.675   0.676   0.677   0.678
  0.679   0.680   0.682   0.683   0.684   0.686   0.687   0.688
  0.689   0.690   0.691   0.692   0.693   0.694   0.695   0.697
  0.697   0.698   0.699   0.700   0.702   0.703   0.704   0.704
  0.706   0.708   0.709   0.710   0.711   0.713   0.714   0.715
  0.716   0.718   0.719   0.720   0.722   0.723   0.725   0.725
  0.725   0.726   0.728   0.728   0.730   0.731   0.732   0.734
  0.735   0.737   0.738   0.741   0.741   0.743   0.744   0.745
  0.746   0.748   0.751   0.752   0.753   0.755   0.757   0.757
  0.759   0.761   0.761   0.764   0.765   0.766   0.767   0.768
  0.769   0.770   0.772   0.775   0.775   0.776   0.778   0.778
  0.779   0.781   0.783   0.784   0.787   0.787   0.788   0.789
  0.790   0.791   0.792   0.795   0.795   0.796   0.798   0.799
  0.800   0.801   0.801   0.802   0.804   0.804   0.805   0.806
  0.807   0.807   0.808   0.810   0.810   0.811   0.812   0.812
  0.813   0.814   0.814   0.816   0.817   0.817   0.819   0.819
  0.819   0.820   0.821   0.821   0.822   0.823   0.824   0.826
  0.827   0.827   0.828   0.829   0.831   0.831   0.833   0.833
  0.836   0.837   0.838   0.840   0.841   0.842   0.844   0.846
  0.849   0.851   0.853   0.856   0.857   0.858   0.861   0.862
  0.868   0.871   0.873   0.875   0.877   0.879   0.882   0.884
  0.886   0.888   0.890   0.893   0.896   0.900   0.902   0.903
  0.905   0.907   0.908   0.912   0.913   0.918   0.919   0.923
  0.925   0.926   0.927   0.929   0.930   0.932   0.933   0.935
  0.937   0.939   0.943   0.943   0.944   0.947   0.947   0.948
  0.949   0.952   0.954   0.955   0.959   0.960   0.965   0.967
  0.973   0.974   0.977   0.978   0.984   0.986   0.988   0.989
  0.990   0.992   0.995   0.996   1.000   1.002   1.004   1.005
  1.006   1.008   1.010   1.012   1.012   1.013   1.014   1.016
  1.018   1.018   1.020   1.022   1.023   1.025   1.026   1.028
  1.031   1.032   1.033   1.034   1.036   1.037   1.039   1.041
  1.043   1.044   1.046   1.049   1.052   1.055   1.057   1.058
  1.061   1.063   1.064   1.068   1.069   1.070   1.071   1.072
  1.072   1.075   1.077   1.078   1.080   1.081   1.084   1.085
  1.087   1.088   1.088   1.089   1.092   1.093   1.094   1.096
  1.096   1.100   1.101   1.101   1.103   1.104   1.105   1.106
  1.110   1.111   1.114   1.116   1.119   1.120   1.123   1.124
  1.127   1.131   1.132   1.135   1.137   1.139   1.142   1.144
  1.145   1.146   1.148   1.149   1.152   1.154   1.156   1.157
  1.161   1.163   1.164   1.165   1.167   1.168   1.169   1.172
  1.172   1.173   1.176   1.178   1.179   1.180   1.183   1.185
  1.185   1.185   1.187   1.188   1.191   1.193   1.195   1.196
  1.197   1.199   1.202   1.205   1.207   1.210   1.211   1.214
  1.214   1.217   1.220   1.221   1.224   1.230   1.234   1.238
  1.238   1.245   1.250   1.252   1.252   1.254   1.257   1.261
  1.262   1.264   1.266   1.267   1.268   1.270   1.272   1.273
  1.275   1.277   1.279   1.281   1.283   1.285   1.286   1.290
  1.292   1.295   1.296   1.298   1.303   1.304   1.307   1.310
  1.312   1.317   1.319   1.320   1.324   1.326   1.327   1.329
  1.331   1.335   1.335   1.337   1.340   1.341   1.343   1.344
  1.346   1.347   1.351   1.353   1.354   1.358   1.358   1.361
  1.365   1.366   1.369   1.373   1.375   1.377   1.380   1.382
  1.385   1.386   1.392   1.393   1.398   1.398   1.402   1.404
  1.406   1.408   1.409   1.409   1.417   1.419   1.422   1.427
  1.428   1.430   1.435   1.437   1.439   1.441   1.443   1.444
  1.446   1.451   1.453   1.455   1.455   1.458   1.459   1.464
  1.464   1.467   1.469   1.470   1.471   1.474   1.475   1.477
  1.479   1.480   1.481   1.483   1.484   1.488   1.490   1.492
  1.494   1.495   1.500   1.502   1.506   1.509   1.512   1.514
  1.518   1.520   1.521   1.525   1.528   1.532   1.535   1.538
  1.540   1.541   1.544   1.545   1.549   1.551   1.555   1.556
  1.557   1.560   1.562   1.565   1.566   1.569   1.573   1.574
  1.575   1.577   1.579   1.582   1.584   1.586   1.590   1.592
  1.593   1.595   1.597   1.598   1.602   1.603   1.613   1.615
  1.616   1.618   1.619   1.623   1.627   1.632   1.635   1.636
  1.640   1.644   1.647   1.654   1.658   1.660   1.664   1.667
  1.676   1.682   1.684   1.686   1.689   1.696   1.697   1.704
  1.705   1.707   1.709   1.710   1.714   1.715   1.717   1.719
  1.720   1.721   1.724   1.729   1.730   1.732   1.734   1.735
  1.738   1.739   1.739   1.740   1.742   1.744   1.746   1.747
  1.751   1.753   1.755   1.756   1.758   1.760   1.760   1.762
  1.762   1.763   1.765   1.766   1.768   1.768   1.770   1.771
  1.772   1.773   1.774   1.775   1.776   1.777   1.778   1.781
  1.781   1.782   1.783   1.785   1.786   1.786   1.789   1.791
  1.791   1.791   1.794   1.795   1.797   1.798   1.800   1.801
  1.803   1.803   1.804   1.806   1.808   1.810   1.810   1.811
  1.813   1.814   1.815   1.818   1.820   1.821   1.822   1.824
  1.825   1.826   1.828   1.830   1.831   1.833   1.835   1.839
  1.839   1.844   1.845   1.848   1.849   1.851   1.852   1.855
  1.857   1.859   1.861   1.861   1.862   1.866   1.867   1.868
  1.871   1.873   1.874   1.876   1.877   1.878   1.880   1.882
  1.885   1.888   1.889   1.893   1.894   1.896   1.897   1.900
  1.902   1.903   1.906   1.909   1.910   1.913   1.916   1.919
  1.919   1.922   1.924   1.926   1.927   1.931   1.934   1.935
  1.936   1.937   1.940   1.940   1.942   1.949   1.950   1.952
  1.953   1.954   1.958   1.959   1.961   1.962   1.962   1.964
  1.965   1.967   1.971   1.975   1.976   1.977   1.979   1.980
  1.982   1.983   1.986   1.988   1.991   1.991   1.992   1.993
  1.995   1.996   1.999   1.999   2.000   2.002   2.005   2.006
  2.008   2.009   2.010   2.012   2.012   2.013   2.015   2.018
  2.019   2.020   2.021   2.022   2.024   2.024   2.027   2.027
  2.028   2.029   2.031   2.031   2.033   2.034   2.035   2.036
  2.038   2.039   2.040   2.042   2.044   2.046   2.047   2.047
  2.049   2.050   2.051   2.051   2.052   2.053   2.054   2.055
  2.058   2.059   2.061   2.061   2.062   2.063   2.065   2.067
  2.067   2.068   2.069   2.069   2.073   2.074   2.076   2.078
  2.079   2.081   2.082   2.086   2.087   2.091   2.091   2.092
  2.095   2.097   2.098   2.100   2.102   2.104   2.105   2.108
  2.110   2.112   2.115   2.116   2.121   2.122   2.124   2.127
  2.127   2.129   2.131   2.133   2.135   2.138   2.140   2.145
  2.149   2.150   2.153   2.156   2.158   2.159   2.161   2.163
  2.167   2.171   2.180   2.187   2.188   2.191   2.192   2.196
  2.201   2.201   2.207   2.209   2.213   2.215   2.219   2.223
  2.226   2.227   2.231   2.235   2.237   2.237   2.238   2.239
  2.245   2.247   2.248   2.252   2.255   2.256   2.260   2.260
  2.263   2.266   2.268   2.270   2.272   2.276   2.280   2.283
  2.284   2.285   2.286   2.287   2.287   2.291   2.296   2.297
  2.300   2.301   2.304   2.305   2.308   2.312   2.315   2.315
  2.319   2.322   2.324   2.324   2.326   2.327   2.332   2.336
  2.338   2.342   2.343   2.346   2.347   2.349   2.353   2.354
  2.355   2.356   2.359   2.359   2.361   2.363   2.364   2.366
  2.367   2.369   2.371   2.373   2.375   2.376   2.379   2.379
  2.382   2.384   2.385   2.387   2.390   2.391   2.392   2.394
  2.396   2.397   2.399   2.401   2.402   2.404   2.407   2.407
  2.409   2.411   2.412   2.416   2.417   2.419   2.420   2.420
  2.422   2.424   2.425   2.427   2.430   2.433   2.436   2.438
  2.441   2.443   2.446   2.448   2.452   2.454   2.454   2.457
  2.461   2.464   2.465   2.467   2.470   2.472   2.472   2.477
  2.479   2.481   2.483   2.485   2.486   2.488   2.491   2.492
  2.494   2.495   2.497   2.498   2.499   2.502   2.502   2.504
  2.507   2.508   2.510   2.512   2.512   2.516   2.519   2.520
  2.522   2.524   2.525   2.528   2.529   2.533   2.536   2.537
  2.540   2.545   2.546   2.548   2.552   2.555   2.558   2.559
  2.567   2.571   2.572   2.574   2.578   2.580   2.582   2.583
  2.587   2.589   2.595   2.596   2.598   2.599   2.601   2.602
  2.604   2.607   2.609   2.611   2.614   2.615   2.615   2.618
  2.619   2.621   2.623   2.625   2.626   2.629   2.631   2.631
  2.632   2.634   2.636   2.639   2.641   2.642   2.645   2.646
  2.648   2.649   2.653   2.653   2.655   2.657   2.658   2.660
  2.660   2.663   2.664   2.665   2.666   2.670   2.673   2.675
  2.675   2.676   2.678   2.680   2.683   2.685   2.686   2.690
  2.693   2.693   2.695   2.697   2.700   2.705   2.708   2.708
  2.711   2.712   2.714   2.718   2.719   2.721   2.724   2.727
  2.729   2.731   2.733   2.736   2.739   2.739   2.743   2.746
  2.747   2.747   2.749   2.752   2.754   2.756   2.758   2.760
  2.763   2.764   2.768   2.769   2.770   2.772   2.773   2.776
  2.779   2.781   2.782   2.784   2.787   2.788   2.789   2.791
  2.792   2.795   2.799   2.803   2.805   2.810   2.816   2.819
  2.820   2.823   2.826   2.830   2.832   2.833   2.834   2.837
  2.838   2.842   2.845   2.846   2.849   2.850   2.854   2.855
  2.856   2.858   2.862   2.862   2.865   2.866   2.869   2.870
  2.873   2.877   2.880   2.882   2.883   2.885   2.886   2.887
  2.891   2.892   2.895   2.896   2.898   2.900   2.903   2.903
  2.906   2.907   2.908   2.911   2.913   2.913   2.914   2.915
  2.916   2.917   2.919   2.924   2.924   2.926   2.927   2.930
  2.931   2.935   2.939   2.941   2.944   2.948   2.950   2.951
  2.954   2.957   2.958   2.961   2.965   2.972   2.973   2.980
  2.983   2.987   2.988   2.992   2.997   3.002   3.003   3.005
  3.006   3.008   3.010   3.011   3.014   3.018   3.021   3.023
  3.024   3.027   3.029   3.033   3.035   3.037   3.042   3.044
  3.046   3.049   3.050   3.051   3.054   3.056   3.056   3.061
  3.063   3.068   3.070   3.074   3.078   3.088   3.093   3.099
  3.100   3.101   3.104   3.112   3.116   3.123   3.124   3.142
  3.144   3.154   3.155   3.157   3.171   3.177   3.179   3.180
  3.191   3.198   3.204   3.207   3.210   3.225   3.229   3.234
  3.236   3.239   3.254   3.259   3.263   3.268   3.270   3.278
  3.284   3.286   3.301   3.314   3.316   3.317   3.320   3.321
  3.324   3.342   3.346   3.348   3.350   3.358   3.368   3.388
  3.389   3.412   3.420   3.424   3.426   3.433   3.437   3.444
  3.448   3.457   3.459   3.467   3.469   3.473   3.489   3.490
  3.495   3.500   3.507   3.509   3.516   3.522   3.525   3.527
  3.555   3.557   3.559   3.568   3.574   3.579   3.584   3.598
  3.610   3.613   3.679   3.681   3.841   3.864   3.984   3.991
  4.065   4.077   4.077   4.080   4.083   4.089   4.094   4.097
  4.101   4.104   4.105   4.111   4.116   4.121   4.126   4.126
  4.128   4.131   4.134   4.137   4.139   4.146   4.147   4.148
  4.151   4.158   4.160   4.164   4.169   4.172   4.176   4.178
  4.182   4.186   4.195   4.199   4.201   4.208   4.221   4.228
  4.240   4.241   4.244   4.246   4.250   4.253   4.256   4.257
  4.267   4.271   4.275   4.280   4.283   4.285   4.288   4.292
  4.298   4.305   4.313   4.328   4.362   4.379   4.389   4.394
  4.394   4.400   4.402   4.408   4.409   4.411   4.414   4.415
  4.420   4.423   4.423   4.427   4.440   4.441   4.448   4.467
  4.469   4.482   4.506   4.513   4.530   4.541   4.548   4.560
  4.561   4.566   4.615   4.623   4.629   4.631   4.638   4.641
  4.643   4.649   4.669   4.684   4.690   4.697   4.699   4.700
  4.701   4.704   4.707   4.715   4.746   4.759   4.771   4.820
  4.832   4.856   4.865   4.866   4.868   4.873   4.876   4.892
  4.897   4.930   4.951   4.957   4.961   4.970   4.979   4.985
  4.987   4.989   4.994   4.996   5.147   5.161   5.175   5.191
  5.197   5.198   5.200   5.221   5.304   5.320   5.327   5.339
  5.351   5.365
 --------------------------------------------------------------
 
          Ground-State Mulliken Net Atomic Charges

     Atom                 Charge (a.u.)
  ----------------------------------------
      1 O                    -0.451587
      2 C                    -0.095618
      3 H                     0.122795
      4 H                     0.122929
      5 H                     0.130055
      6 O                    -0.455685
      7 C                     0.581933
      8 C                    -0.229474
      9 H                     0.114889
     10 H                     0.130529
     11 C                    -0.199962
     12 H                     0.128788
     13 H                     0.108177
     14 C                    -0.163737
     15 H                     0.101914
     16 H                     0.121201
     17 C                    -0.015857
     18 C                     0.122836
     19 C                    -0.120365
     20 H                     0.089757
     21 C                    -0.085477
     22 H                     0.096769
     23 C                    -0.090162
     24 H                     0.091017
     25 C                    -0.091845
     26 H                     0.090691
     27 C                    -0.102046
     28 H                     0.092135
     29 C                    -0.000674
     30 C                    -0.025016
     31 C                    -0.017005
     32 C                    -0.007236
     33 C                     0.019252
     34 C                    -0.006498
     35 C                     0.000536
     36 C                    -0.022066
     37 C                     0.002726
     38 C                    -0.026570
     39 C                    -0.088882
     40 C                     0.001794
     41 C                     0.015723
     42 C                     0.020181
     43 C                     0.015737
     44 C                    -0.018299
     45 C                    -0.095017
     46 C                     0.067857
     47 C                     0.003785
     48 C                    -0.027939
     49 C                     0.025340
     50 C                     0.000065
     51 C                     0.005665
     52 C                     0.026929
     53 C                     0.014922
     54 C                     0.020136
     55 C                    -0.027793
     56 C                    -0.028518
     57 C                    -0.003199
     58 C                    -0.023526
     59 C                    -0.023831
     60 C                     0.039452
     61 C                     0.003959
     62 C                    -0.035737
     63 C                     0.026174
     64 C                    -0.012221
     65 C                    -0.022430
     66 C                    -0.044004
     67 C                    -0.019018
     68 C                    -0.010373
     69 C                    -0.013360
     70 C                     0.013785
     71 C                     0.003125
     72 C                     0.006458
     73 C                    -0.020507
     74 C                     0.011926
     75 C                    -0.000288
     76 C                     0.016152
     77 C                     0.026023
     78 C                     0.020351
     79 C                    -0.003368
     80 C                     0.009950
     81 C                    -0.024821
     82 C                     0.017432
     83 C                     0.013219
     84 C                     0.000723
     85 C                     0.072487
     86 C                     0.001606
     87 C                    -0.020050
     88 C                     0.002994
     89 O                    -0.453084
     90 C                    -0.086095
     91 H                     0.125615
     92 H                     0.140983
     93 H                     0.120813
     94 O                    -0.475967
     95 C                     0.585227
     96 C                    -0.259542
     97 H                     0.122604
     98 H                     0.133483
     99 C                    -0.190580
    100 H                     0.111100
    101 H                     0.123647
    102 C                    -0.183993
    103 H                     0.123542
    104 H                     0.117501
    105 C                     0.007070
    106 C                     0.097886
    107 C                    -0.120220
    108 H                     0.084666
    109 C                    -0.075853
    110 H                     0.097915
    111 C                    -0.084546
    112 H                     0.090085
    113 C                    -0.088808
    114 H                     0.089076
    115 C                    -0.121897
    116 H                     0.091567
    117 C                     0.005785
    118 C                    -0.022161
    119 C                    -0.011787
    120 C                     0.013891
    121 C                     0.037823
    122 C                    -0.007821
    123 C                     0.019089
    124 C                    -0.018026
    125 C                     0.011682
    126 C                    -0.034695
    127 C                    -0.092773
    128 C                     0.014994
    129 C                     0.001424
    130 C                    -0.021195
    131 C                     0.018600
    132 C                    -0.022412
    133 C                    -0.092883
    134 C                     0.017998
    135 C                    -0.020234
    136 C                    -0.004518
    137 C                     0.007507
    138 C                     0.018583
    139 C                    -0.006384
    140 C                     0.035040
    141 C                     0.020225
    142 C                     0.016205
    143 C                     0.016280
    144 C                    -0.007387
    145 C                     0.024399
    146 C                    -0.009547
    147 C                    -0.016668
    148 C                     0.047072
    149 C                    -0.010123
    150 C                    -0.025371
    151 C                    -0.000152
    152 C                     0.010521
    153 C                    -0.023219
    154 C                    -0.023154
    155 C                    -0.022839
    156 C                     0.010382
    157 C                     0.002491
    158 C                     0.035423
    159 C                    -0.005758
    160 C                    -0.028577
    161 C                    -0.022674
    162 C                     0.000853
    163 C                    -0.009156
    164 C                     0.017808
    165 C                     0.041663
    166 C                     0.000204
    167 C                     0.015805
    168 C                     0.001994
    169 C                     0.005548
    170 C                    -0.033178
    171 C                     0.008139
    172 C                     0.007465
    173 C                    -0.000053
    174 C                     0.001358
    175 C                    -0.026686
    176 C                     0.008167
  ----------------------------------------
  Sum of atomic charges =     0.000000

 -----------------------------------------------------------------
                    Cartesian Multipole Moments
 -----------------------------------------------------------------
    Charge (ESU x 10^10)
                 0.0000
    Dipole Moment (Debye)
         X       1.1441      Y       3.0745      Z      -3.2205
       Tot       4.5970
    Quadrupole Moments (Debye-Ang)
        XX    -749.4074     XY      31.9810     YY    -785.3615
        XZ       7.6380     YZ      -8.3434     ZZ    -800.7174
    Octopole Moments (Debye-Ang^2)
       XXX     519.8025    XXY     438.7445    XYY      99.2380
       YYY     435.0630    XXZ    -348.3611    XYZ     -68.7289
       YYZ     -60.8026    XZZ    -190.2085    YZZ      47.1529
       ZZZ    -101.9814
    Hexadecapole Moments (Debye-Ang^3)
      XXXX -213184.2547   XXXY    4608.5208   XXYY  -39107.6290
      XYYY    3721.7272   YYYY  -35012.5436   XXXZ    3355.9326
      XXYZ      25.1799   XYYZ      34.4108   YYYZ     -17.8088
      XXZZ  -36657.4699   XYZZ     416.7748   YYZZ   -9630.1265
      XZZZ     793.0003   YZZZ      28.7208   ZZZZ  -18443.6531
 -----------------------------------------------------------------
Archival summary:
1\1\mn366\SP\ProcedureUnspecified\6-31G**\428\afmv_a\MonOct800:36:362018MonOct800:36:362018\0\\#,ProcedureUnspecified,6-31G**,\\0,1\C\C,1,1.4114\C,2,1.37788,1,107.738\C,3,1.4004,2,115.95,1,-144.105,0\C,4,1.38492,3,119.482,2,136.564,0\C,5,1.38856,4,106.293,3,-145.359,0\C,6,1.337,5,111.153,4,3.12445,0\C,7,1.391,6,107.502,5,-4.37884,0\C,7,1.39361,6,122.768,5,139.745,0\C,9,1.37896,7,121.398,6,4.68898,0\C,10,1.35647,9,116.053,7,-5.28195,0\C,11,1.37791,10,121.049,9,-136.679,0\C,12,1.38253,11,110.79,10,147.115,0\C,13,1.35056,12,107.937,11,-2.59196,0\C,6,1.39395,5,119.459,4,145.528,0\C,13,1.39611,12,117.263,11,-140.248,0\C,16,1.38805,13,122.724,12,-4.51474,0\C,17,1.38189,16,109.654,13,144.513,0\C,18,1.40097,17,105.62,16,-2.78421,0\C,3,1.40278,2,110.621,1,-4.34204,0\C,18,1.40476,17,117.74,16,-137.591,0\C,21,1.39044,18,124.962,17,-3.67765,0\C,22,1.38624,21,117.904,18,-0.0528253,0\C,23,1.38074,22,118.642,21,139.432,0\C,24,1.37877,23,107.166,22,-140.46,0\C,25,1.38823,24,122.113,23,148.476,0\C,21,1.39676,18,118.693,17,136.637,0\C,27,1.40891,21,120.999,18,-6.65681,0\C,28,1.37503,27,122.152,21,2.57396,0\C,29,1.33987,28,110.69,27,-145.303,0\C,28,1.38412,27,121.74,21,-143.241,0\C,5,1.40902,4,126.456,3,3.41141,0\C,25,1.40923,24,109.343,23,1.18127,0\C,31,1.40954,28,106.496,27,147.233,0\C,8,1.41049,7,118.806,6,148.458,0\C,35,1.34511,8,114.74,7,-137.232,0\C,35,1.41305,8,122.949,7,2.99052,0\C,37,1.39692,35,104.668,8,-136.726,0\C,38,1.39191,37,109.888,35,-4.44556,0\C,34,1.4131,31,121.596,28,-138.202,0\C,23,1.41547,22,118.708,21,0.331273,0\C,32,1.41588,5,123.733,4,-135.582,0\C,30,1.4161,29,120.544,28,142.597,0\C,43,1.36739,30,120.042,29,7.05243,0\C,43,1.409,30,119.845,29,-140.844,0\C,44,1.42072,43,119.537,30,-8.99368,0\C,27,1.42251,21,109.592,18,-145.181,0\C,47,1.40507,27,107.249,21,-5.38432,0\C,48,1.41652,47,116.855,27,140.026,0\C,49,1.39514,48,122.316,47,-136.582,0\C,49,1.41484,48,121.822,47,7.30593,0\C,51,1.34973,49,121.049,48,-3.27541,0\C,51,1.37594,49,109.978,48,-149.206,0\C,52,1.4038,51,124.055,49,-140.039,0\C,54,1.38494,52,108.86,51,142.965,0\C,55,1.41447,54,109.061,52,0.294293,0\C,56,1.38059,55,107.427,54,1.79846,0\C,37,1.43223,35,118.584,8,-1.4323,0\C,50,1.46981,49,111.452,48,156.254,0\C,58,1.47094,37,122.197,35,-141.176,0\C,60,1.5285,58,124.525,37,-65.9854,0\C,61,1.48797,60,120.891,58,-139.011,0\C,62,1.41046,61,123.795,60,-108.978,0\H,63,1.08583,62,120.063,61,-8.84469,0\C,63,1.40944,62,119.939,61,179.985,0\H,65,1.08571,63,117.83,62,169.858,0\C,65,1.40957,63,122.259,62,1.22963,0\H,67,1.08586,65,120.699,63,176.248,0\C,67,1.38505,65,119.988,63,-3.96405,0\H,69,1.08598,67,121.299,65,179.157,0\C,69,1.41026,67,116.846,65,-1.92915,0\H,71,1.08573,69,118.471,67,179.932,0\C,61,1.55099,60,119.049,58,-0.24645,0\H,73,1.09702,61,112.77,60,27.2186,0\H,73,1.09735,61,108.503,60,-84.6082,0\C,73,1.56695,61,115.518,60,153.121,0\H,76,1.09705,73,112.388,61,71.9572,0\H,76,1.09734,73,112.285,61,-43.1435,0\C,76,1.60266,73,110.391,61,-159.318,0\H,79,1.09641,76,109.323,73,173.277,0\H,79,1.09699,76,108.403,73,55.8481,0\C,79,1.55301,76,118.658,73,-72.8824,0\O,82,1.23117,79,125.443,76,91.0734,0\O,82,1.3609,79,109.785,76,-86.9269,0\C,84,1.43476,82,116.741,79,-173.695,0\H,85,1.09669,84,112.749,82,39.6144,0\H,85,1.09674,84,107.26,82,162.223,0\H,85,1.09692,84,106.158,82,-88.2802,0\C,1,3.22178,2,93.1801,3,-100.927,0\C,89,1.36521,1,122.372,2,-8.37423,0\C,89,1.40645,1,93.3256,2,111.322,0\C,91,1.40905,89,105.406,1,-135.051,0\C,92,1.39117,91,106.818,89,4.03945,0\C,93,1.41836,92,118.975,91,-141.51,0\C,94,1.39055,93,122.231,92,138.572,0\C,95,1.39783,94,108.684,93,-140.748,0\C,96,1.37047,95,109.017,94,2.18145,0\C,97,1.3988,96,123.195,95,148.372,0\C,95,1.40351,94,118.446,93,0.418447,0\C,99,1.38826,95,122.582,94,1.76928,0\C,96,1.40769,95,121.905,94,143.048,0\C,98,1.4158,97,120.707,96,-5.52255,0\C,102,1.40078,98,117.353,97,-1.30083,0\C,89,1.42071,1,77.3161,2,-127.995,0\C,104,1.36502,89,118.208,1,126.437,0\C,104,1.38218,89,120.792,1,-90.702,0\C,106,1.38811,104,105.798,89,-144.702,0\C,105,1.39121,104,106.704,89,142.062,0\C,105,1.39694,104,122.084,89,0.0343472,0\C,108,1.40367,105,120.82,104,-141.423,0\C,110,1.34158,108,119.516,105,5.16764,0\C,110,1.3667,108,117.212,105,139.739,0\C,111,1.37712,110,110.538,108,141.39,0\C,112,1.38302,110,106.708,108,-141.832,0\C,111,1.40323,110,121.598,108,-4.08009,0\C,115,1.38935,111,122.739,110,144.913,0\C,116,1.39473,115,119.344,111,0.234138,0\C,106,1.41312,104,118.881,89,1.96119,0\C,118,1.37036,106,120.945,104,-1.24872,0\C,119,1.39673,118,108.624,106,-134.66,0\C,120,1.39335,119,109.238,118,-5.03463,0\C,121,1.38862,120,106.419,119,7.16032,0\C,122,1.36078,121,119.541,120,136.801,0\C,123,1.32915,122,122.141,121,7.64137,0\C,123,1.39856,122,121.768,121,-144.393,0\C,125,1.39251,123,107.572,122,151.714,0\C,124,1.40006,123,106.816,122,-150.581,0\C,127,1.40107,124,115.538,123,134.691,0\C,128,1.37137,127,125.825,124,4.80948,0\C,129,1.39053,128,116.566,127,-2.54505,0\C,128,1.39364,127,121.741,124,-138.87,0\C,130,1.39504,129,122.073,128,1.51606,0\C,131,1.40104,128,111.823,127,151.758,0\C,121,1.40389,120,117.961,119,150.21,0\C,130,1.40833,129,120.057,128,-140.959,0\C,135,1.36798,130,122.414,129,-3.59864,0\C,135,1.40434,130,109.669,129,145.753,0\C,137,1.40305,135,120.938,130,-142.736,0\C,136,1.40992,135,117.949,130,131.888,0\C,139,1.41201,136,122.877,135,15.322,0\C,117,1.41474,116,119.46,115,-1.90225,0\C,141,1.4089,117,110.171,116,-137.688,0\C,140,1.41928,139,121.624,136,-140.606,0\C,143,1.40432,140,110.717,139,134.067,0\C,144,1.39595,143,107.169,140,-0.00222359,0\C,97,1.42502,96,108.139,95,-7.8363,0\C,129,1.44729,128,114.059,127,-153.408,0\C,136,1.48423,135,121.71,130,-4.17299,0\C,147,1.51572,129,125.354,128,-141.483,0\C,149,1.46891,147,121.799,129,145.724,0\C,150,1.38458,149,121.32,147,-61.6939,0\H,151,1.08598,150,119.535,149,12.8487,0\C,151,1.38541,150,119.291,149,-172.247,0\H,153,1.0858,151,123.766,150,170.209,0\C,150,1.38612,149,118.227,147,126.675,0\H,155,1.08561,150,118.392,149,-20.0096,0\C,153,1.4117,151,121.871,150,0.986672,0\H,157,1.08615,153,118.777,151,178.107,0\C,155,1.42287,150,122.948,149,171.788,0\H,159,1.08617,155,116.335,150,174.212,0\C,149,1.55781,147,117.347,129,6.23728,0\H,161,1.09702,149,100.664,147,90.5042,0\H,161,1.09719,149,109.14,147,-24.3816,0\C,161,1.58053,149,116.662,147,-146.45,0\H,164,1.09717,161,110.736,149,55.2969,0\H,164,1.09776,161,106.576,149,-55.9793,0\C,164,1.50327,161,113.125,149,-173.224,0\H,167,1.09711,164,112.613,161,-177.984,0\H,167,1.09724,164,110.545,161,-62.7397,0\C,167,1.56319,164,112.64,161,67.9445,0\O,170,1.23112,167,122.078,164,80.4752,0\O,170,1.38413,167,111.587,164,-90.1891,0\C,172,1.43594,170,118.805,167,-167.313,0\H,173,1.09646,172,109.328,170,167.775,0\H,173,1.09655,172,115.325,170,53.1148,0\H,173,1.09698,172,118.656,170,-67.0601,0\\\@

 Total job time:  844.44s(wall), 7156.21s(cpu) 
 Mon Oct  8 00:36:36 2018

        *************************************************************
        *                                                           *
        *  Thank you very much for using Q-Chem.  Have a nice day.  *
        *                                                           *
        *************************************************************


