
Running Job 1 of 1 ./10/2.qcin
qchem ./10/2.qcin_22280.0 /tmpu/cab_g/afmv_a/scratch_qchem/qchem22280/ 1
/tmpu/appuserlic/qchem4.4/serial-multicore/exe/qcprog.exe_s ./10/2.qcin_22280.0 /tmpu/cab_g/afmv_a/scratch_qchem/qchem22280/
Check license passed

                  Welcome to Q-Chem
     A Quantum Leap Into The Future Of Chemistry


 Q-Chem 4.4, Q-Chem, Inc., Pleasanton, CA (2016)

 Y. Shao,  Z. Gan,  E. Epifanovsky,  A. T. B. Gilbert,  M. Wormit,  
 J. Kussmann,  A. W. Lange,  A. Behn,  J. Deng,  X. Feng,  D. Ghosh,  
 M. Goldey,  P. R. Horn,  L. D. Jacobson,  I. Kaliman,  F. Rob,  
 R. Z. Khaliullin,  T. Kus,  A. Landau,  J. Liu,  E. I. Proynov,  Y. M. Rhee,  
 R. M. Richard,  M. A. Rohrdanz,  R. P. Steele,  E. J. Sundstrom,  
 H. L. Woodcock III,  P. M. Zimmerman,  D. Zuev,  B. Albrecht,  E. Alguire,  
 B. Austin,  S. A. Baeppler,  G. J. O. Beran,  Y. A. Bernard,  E. Berquist,  
 K. Brandhorst,  K. B. Bravaya,  S. T. Brown,  D. Casanova,  C.-M. Chang,  
 Y. Chen,  S. H. Chien,  K. D. Closser,  M. P. Coons,  D. L. Crittenden,  
 S. Dasgupta,  M. Diedenhofen,  R. A. DiStasio Jr.,  H. Do,  A. D. Dutoi,  
 R. G. Edgar,  P.-T. Fang,  S. Fatehi,  Q. Feng,  L. Fusti-Molnar,  
 A. Ghysels,  A. Golubeva-Zadorozhnaya,  J. Gomes,  A. Gunina,  
 M. W. D. Hanson-Heine,  P. H. P. Harbach,  A. W. Hauser,  J. E. Herr,  
 E. G. Hohenstein,  Z. C. Holden,  K. Hui,  T.-C. Jagau,  H. Ji,  B. Kaduk,  
 K. Khistyaev,  Jaehoon Kim,  Jihan Kim,  R. A. King,  P. Klunzinger,  
 K. Koh,  D. Kosenkov,  T. Kowalczyk,  C. M. Krauter,  A. Kunitsa,  
 K. U. Lao,  A. Laurent,  K. V. Lawler,  J. Lee,  D. Lefrancois,  S. Lehtola,  
 S. V. Levchenko,  C. Y. Lin,  Y.-S. Lin,  F. Liu,  E. Livshits,  
 R. C. Lochan,  A. Luenser,  P. Manohar,  S. F. Manzer,  S.-P. Mao,  Y. Mao,  
 N. Mardirossian,  A. V. Marenich,  L. A. Martinez-Martinez,  S. A. Maurer,  
 N. J. Mayhall,  J.-M. Mewes,  A. F. Morrison,  K. Nanda,  T. S. Nguyen-Beck,  
 C. M. Oana,  R. Olivares-Amaya,  D. P. O'Neill,  J. A. Parkhill,  
 T. M. Perrine,  R. Peverati,  P. A. Pieniazek,  F. Plasser,  A. Prociuk,  
 D. R. Rehn,  E. Rosta,  N. J. Russ,  N. Sergueev,  S. M. Sharada,  
 S. Sharma,  D. W. Small,  A. Sodt,  T. Stauch,  T. Stein,  D. Stuck,  
 Y.-C. Su,  A. J. W. Thom,  T. Tsuchimochi,  L. Vogt,  O. Vydrov,  T. Wang,  
 M. A. Watson,  J. Wenzel,  A. White,  C. F. Williams,  V. Vanovschi,  
 K. Yao,  S. Yeganeh,  S. R. Yost,  Z.-Q. You,  I. Y. Zhang,  X. Zhang,  
 Y. Zhao,  B. R. Brooks,  G. K. L. Chan,  D. M. Chipman,  C. J. Cramer,  
 W. A. Goddard III,  M. S. Gordon,  W. J. Hehre,  A. Klamt,  
 H. F. Schaefer III,  M. W. Schmidt,  C. D. Sherrill,  D. G. Truhlar,  
 A. Warshel,  X. Xu,  A. Aspuru-Guzik,  R. Baer,  A. T. Bell,  N. A. Besley,  
 J.-D. Chai,  A. Dreuw,  B. D. Dunietz,  T. R. Furlani,  S. R. Gwaltney,  
 C.-P. Hsu,  Y. Jung,  J. Kong,  D. S. Lambrecht,  W. Liang,  C. Ochsenfeld,  
 V. A. Rassolov,  L. V. Slipchenko,  J. E. Subotnik,  T. Van Voorhis,  
 J. M. Herbert,  A. I. Krylov,  P. M. W. Gill,  M. Head-Gordon

 Contributors to earlier versions of Q-Chem not listed above: 
 R. D. Adamson,  J. Baker,  E. F. C. Byrd,  A. K. Chakraborty,  C.-L. Cheng,  
 H. Dachsel,  R. J. Doerksen,  G. Hawkins,  A. Heyden,  S. Hirata,  
 G. Kedziora,  F. J. Keil,  C. Kelley,  P. P. Korambath,  W. Kurlancheek,  
 A. M. Lee,  M. S. Lee,  D. Liotard,  I. Lotan,  P. E. Maslen,  N. Nair,  
 D. Neuhauser,  R. Olson,  B. Peters,  J. Ritchie,  N. E. Schultz,  
 N. Shenvi,  A. C. Simmonett,  K. S. Thanthiriwatte,  Q. Wu,  W. Zhang

 Please cite Q-Chem as follows:
 Y. Shao et al., Mol. Phys. 113, 184-215 (2015)
 DOI: 10.1080/00268976.2014.952696

 Q-Chem 4.4.2 for Intel X86 Linux

 Parts of Q-Chem use Armadillo 5.200.1 (Boston Tea Smuggler).
 http://arma.sourceforge.net/

 Q-Chem begins on Mon Oct  8 03:30:44 2018  

Host: 
0

     Scratch files written to /tmpu/cab_g/afmv_a/scratch_qchem/qchem22280//
 Dec716 11556_ 22328  22283 4050   
Processing $rem in /tmpu/appuserlic/qchem4.4/serial-multicore/config/preferences.
 MEM_TOTAL  2000 
FILE_GEOM_ORG=        593

Checking the input file for inconsistencies... 	...done.

--------------------------------------------------------------
User input:
--------------------------------------------------------------
$comment
SP
$end

$rem
MEM_STATIC 5000
MEM_TOTAL 20000
JOBTYPE SP
EXCHANGE B3LYP
BASIS 6-31g(d,p)
$end

$molecule
0 1
O         -19.362000     -2.182000     -6.943000
C         -19.245000     -3.620000     -7.114000
H         -19.209000     -3.856000     -8.184000
H         -20.103000     -4.132000     -6.661000
H         -18.294000     -3.877000     -6.633000
O         -21.361000     -2.117000     -8.248000
C         -20.439000     -1.551000     -7.614000
C         -20.311000     -0.063000     -7.442000
H         -19.617000      0.118000     -6.613000
H         -21.248000      0.468000     -7.234000
C         -19.687000      0.530000     -8.696000
H         -18.621000      0.285000     -8.775000
H         -20.172000      0.113000     -9.588000
C         -19.705000      2.106000     -8.725000
H         -20.770000      2.359000     -8.788000
H         -19.309000      2.490000     -7.777000
C         -19.004000      2.734000     -9.890000
C         -19.279000      1.955000    -11.154000
C         -20.575000      1.668000    -11.587000
H         -21.431000      2.169000    -11.146000
C         -20.829000      0.879000    -12.709000
H         -21.832000      0.755000    -13.107000
C         -19.817000      0.280000    -13.410000
H         -20.074000     -0.396000    -14.220000
C         -18.522000      0.459000    -12.895000
H         -17.718000     -0.097000    -13.366000
C         -18.246000      1.258000    -11.815000
H         -17.231000      1.371000    -11.445000
C         -14.726000      5.604000    -11.917000
C         -16.624000      6.454000    -13.204000
C         -16.785000     10.513000    -11.409000
C         -15.721000      6.159000     -6.968000
C         -19.466000      9.760000     -9.252000
C         -15.984000      5.389000    -12.521000
C         -17.380000      8.445000     -6.598000
C         -14.883000      9.220000    -11.998000
C         -20.022000      6.258000    -11.220000
C         -17.103000      5.982000     -6.806000
C         -19.117000      4.300000    -10.080000
C         -20.238000      6.400000     -9.837000
C         -19.083000      6.832000     -7.276000
C         -17.998000      9.448000     -7.360000
C         -18.185000      5.111000    -12.266000
C         -17.280000     10.877000     -9.232000
C         -17.784000      3.743000     -9.732000
C         -17.117000      4.159000     -8.463000
C         -18.486000     10.573000     -9.857000
C         -13.946000      8.609000     -8.678000
C         -14.991000     10.263000     -9.801000
C         -14.332000      9.506000    -10.741000
C         -14.836000      7.955000    -12.547000
C         -15.740000      4.351000     -8.653000
C         -19.289000      5.036000    -11.355000
C         -15.977000      7.711000    -13.301000
C         -17.953000      7.112000     -6.612000
C         -17.983000      6.279000    -13.052000
C         -20.337000      7.697000     -9.263000
C         -14.030000      6.056000     -8.464000
C         -16.126000      9.749000    -12.384000
C         -19.659000      5.287000     -9.134000
C         -13.597000      7.105000    -10.621000
C         -19.753000      7.903000     -7.985000
C         -19.864000      7.408000    -12.022000
C         -15.812000      9.712000     -7.607000
C         -16.015000      8.609000     -6.825000
C         -19.869000      8.674000    -11.423000
C         -15.040000      5.245000     -7.834000
C         -17.785000      5.034000     -7.534000
C         -14.168000      7.410000     -7.959000
C         -16.739000      3.912000    -10.697000
C         -18.217000      8.683000    -13.064000
C         -18.963000      5.602000     -7.940000
C         -20.174000      8.837000    -10.036000
C         -13.812000      5.968000     -9.868000
C         -18.196000     10.400000    -11.223000
C         -14.176000      6.884000    -11.904000
C         -16.255000     10.782000    -10.135000
C         -18.799000      7.435000    -12.990000
C         -18.838000      9.444000    -12.009000
C         -16.952000      4.510000    -11.945000
C         -15.563000      4.244000    -10.033000
C         -14.786000      9.725000     -8.546000
C         -16.823000      8.847000    -13.177000
C         -19.229000      9.185000     -7.991000
C         -15.209000      7.438000     -7.031000
C         -17.038000     10.262000     -7.948000
C         -14.564000      5.054000    -10.641000
C         -13.714000      8.405000    -10.052000
O         -10.786000     11.730000     -7.193000
C         -11.604000     10.981000     -8.084000
H         -12.543000     11.517000     -8.268000
H         -11.905000     10.035000     -7.617000
H         -11.142000     10.843000     -9.070000
O         -11.948000     11.076000     -5.372000
C         -11.142000     11.843000     -5.891000
C         -10.207000     12.782000     -5.101000
H          -9.161000     12.803000     -5.432000
H         -10.216000     12.401000     -4.072000
C         -10.610000     14.272000     -4.946000
H         -11.589000     14.121000     -4.474000
H         -10.047000     14.875000     -4.223000
C         -10.726000     14.966000     -6.336000
H          -9.680000     14.974000     -6.665000
H         -11.186000     14.275000     -7.054000
C         -11.484000     16.258000     -6.298000
C         -10.871000     17.311000     -5.454000
C          -9.813000     18.009000     -5.988000
H          -9.518000     17.912000     -7.029000
C          -9.318000     19.156000     -5.402000
H          -8.636000     19.839000     -5.898000
C          -9.791000     19.525000     -4.150000
H          -9.437000     20.428000     -3.662000
C         -10.883000     18.773000     -3.564000
H         -11.234000     18.996000     -2.561000
C         -11.385000     17.647000     -4.202000
H         -12.174000     17.122000     -3.672000
C         -16.484000     18.520000     -6.236000
C         -15.127000     20.105000     -7.556000
C         -16.967000     19.131000    -11.593000
C         -15.987000     13.794000     -8.183000
C         -14.358000     17.013000    -12.668000
C         -15.235000     19.269000     -6.442000
C         -15.569000     13.961000    -10.998000
C         -18.014000     19.466000     -9.394000
C         -12.155000     18.224000     -9.437000
C         -14.720000     13.636000     -8.764000
C         -11.994000     16.741000     -7.574000
C         -12.058000     16.947000     -9.962000
C         -13.305000     14.479000    -10.324000
C         -15.479000     14.888000    -12.067000
C         -13.184000     18.995000     -7.403000
C         -16.775000     17.015000    -12.433000
C         -12.986000     16.234000     -6.543000
C         -13.811000     15.049000     -6.968000
C         -15.580000     17.691000    -12.659000
C         -18.625000     15.965000     -9.047000
C         -18.443000     17.413000    -10.766000
C         -18.714000     18.222000     -9.603000
C         -17.414000     19.625000     -8.154000
C         -15.132000     15.182000     -6.399000
C         -12.232000     18.156000     -8.023000
C         -16.265000     20.357000     -8.368000
C         -14.483000     13.812000    -10.144000
C         -13.845000     20.024000     -8.093000
C         -12.618000     16.645000    -11.210000
C         -17.423000     15.245000     -7.112000
C         -17.089000     19.828000    -10.372000
C         -12.018000     16.009000     -8.887000
C         -18.303000     17.580000     -7.264000
C         -13.214000     15.390000    -11.396000
C         -12.802000     19.264000    -10.164000
C         -17.528000     15.154000    -11.092000
C         -16.870000     14.175000    -10.385000
C         -13.429000     18.924000    -11.395000
C         -16.199000     14.526000     -7.027000
C         -13.631000     14.246000     -8.153000
C         -17.991000     14.962000     -8.310000
C         -14.007000     17.182000     -5.958000
C         -14.739000     20.479000    -10.320000
C         -12.726000     14.773000     -9.099000
C         -13.338000     17.623000    -11.935000
C         -17.569000     16.536000     -6.560000
C         -15.652000     18.995000    -12.114000
C         -17.630000     18.780000     -7.069000
C         -17.643000     17.906000    -11.807000
C         -13.606000     20.277000     -9.444000
C         -14.589000     19.683000    -11.515000
C         -14.033000     18.535000     -6.381000
C         -15.254000     16.507000     -5.849000
C         -18.453000     16.029000    -10.446000
C         -16.010000     20.479000     -9.732000
C         -14.307000     15.608000    -12.304000
C         -17.061000     14.135000     -8.962000
C         -16.701000     15.628000    -12.120000
C         -16.484000     17.166000     -5.926000
C         -18.823000     17.312000     -8.550000
$end

--------------------------------------------------------------
 ----------------------------------------------------------------
             Standard Nuclear Orientation (Angstroms)
    I     Atom           X                Y                Z
 ----------------------------------------------------------------
    1      O     -13.4982858076    -2.8893553564     2.2921922326
    2      C     -14.8528946934    -3.2559631096     1.9161503174
    3      H     -15.1777102349    -2.6306079462     1.0763183202
    4      H     -15.5387562352    -3.1103490693     2.7598964266
    5      H     -14.7771705756    -4.3046635008     1.6058208996
    6      O     -14.1405839111    -0.6206481091     2.6712325630
    7      C     -13.2730873929    -1.5225761120     2.5914098304
    8      C     -11.8008845942    -1.3115451991     2.8109476932
    9      H     -11.3451943251    -2.2940185950     2.9804481503
   10      H     -11.5405593852    -0.6571700319     3.6519101931
   11      C     -11.1870211581    -0.7374551670     1.5432200738
   12      H     -11.1247423749    -1.4873981770     0.7455178518
   13      H     -11.8145164903     0.0774352876     1.1598388600
   14      C      -9.6932761129    -0.2668362503     1.7226206734
   15      H      -9.7622681720     0.5796488875     2.4160945427
   16      H      -9.1168335261    -1.0670514039     2.2025640575
   17      C      -9.0149439639     0.2043936791     0.4732937148
   18      C      -9.9658503867     1.0226628463    -0.3671671975
   19      C     -10.6533916321     2.1255204099     0.1431917257
   20      H     -10.3745717557     2.5598389924     1.0980973993
   21      C     -11.5932190780     2.8315303775    -0.6079376223
   22      H     -12.0382975265     3.7544500284    -0.2475024789
   23      C     -11.9477301202     2.4363761144    -1.8698889008
   24      H     -12.7486012300     2.9671758569    -2.3758356360
   25      C     -11.3549497635     1.2492753924    -2.3321597357
   26      H     -11.7040953386     0.8555473280    -3.2810899642
   27      C     -10.4036459370     0.5589892692    -1.6254044049
   28      H      -9.9685123639    -0.3565292298    -2.0157614868
   29      C      -5.2691326857    -0.5883242317    -3.5251321232
   30      C      -5.1327124642     1.8173123405    -3.1061151713
   31      C      -1.1257162024     1.8574958309    -1.1914890342
   32      C      -4.5142807127    -3.0592198374     0.8469982963
   33      C      -2.3854655932     2.0521916428     2.0921893930
   34      C      -5.8948363303     0.6228007444    -3.1573329366
   35      C      -2.7706550209    -1.5270462080     2.4984190229
   36      C      -1.8763321165     0.5808763055    -3.0470731301
   37      C      -6.0838758607     2.7769250227     0.5946290367
   38      C      -5.0602445387    -2.2645509541     1.8657828008
   39      C      -7.5743889741     0.8454082819     0.5962839593
   40      C      -5.8677214319     2.0400253519     1.7735120411
   41      C      -4.8630722624    -0.3490142604     2.9407908326
   42      C      -2.0694777466    -0.3121035607     2.4694053412
   43      C      -6.7609477999     1.8914999664    -1.5365420167
   44      C      -0.6957807798     0.8434494200     0.7842931929
   45      C      -7.6893495760    -0.4610763516    -0.1023747288
   46      C      -6.9721033920    -1.6538897317     0.4371251803
   47      C      -1.3936363155     2.0080103601     1.0913314120
   48      C      -1.8496089555    -2.4561485141    -1.3008039305
   49      C      -0.6869549908    -0.5241755650    -1.2330818357
   50      C      -1.3172747282    -0.5601694731    -2.4546920301
   51      C      -3.1249577319     0.5635720569    -3.6339884863
   52      C      -6.4161537713    -2.4222034613    -0.5971412419
   53      C      -7.0533334251     2.0218880110    -0.1394480313
   54      C      -3.7603893609     1.7863537900    -3.4580212218
   55      C      -4.2057374130    -1.4939786012     2.7102186013
   56      C      -5.6712434013     2.6033791952    -2.1097752044
   57      C      -4.6008506706     2.0853467018     2.4173058351
   58      C      -4.2844221201    -3.2522823215    -1.3930905199
   59      C      -1.7663106674     1.8429692980    -2.4396996379
   60      C      -6.6909173517     0.8608031922     1.7719071511
   61      C      -3.3834423389    -1.8154644138    -3.1436129374
   62      C      -4.1064601224     0.8852360001     2.9935768559
   63      C      -5.0255155017     3.5248174819     0.0367776050
   64      C      -1.2201600231    -1.5797166895     0.8628197193
   65      C      -2.2486190822    -2.2701324066     1.4415598175
   66      C      -3.7588152414     3.4800059350     0.6326336076
   67      C      -5.2803233882    -3.2035971784    -0.3536043868
   68      C      -6.2330329080    -1.5714791934     1.6707674797
   69      C      -2.9814556584    -3.1180514997    -0.7672746634
   70      C      -7.3297656786    -0.4885064489    -1.4886495970
   71      C      -3.4482741008     3.4420139041    -1.6747863380
   72      C      -6.0693757374    -0.3299379492     2.2247852317
   73      C      -3.5476083419     2.8076071398     1.8762712180
   74      C      -4.4507090552    -2.4876755316    -2.5822957638
   75      C      -1.6164864918     2.6739114606    -0.1280530735
   76      C      -3.8912167562    -0.6196305293    -3.7286919592
   77      C      -0.5870951293     0.7148140780    -0.5746399836
   78      C      -4.7958591526     3.4460747896    -1.3820372349
   79      C      -2.7914679605     3.3759960885    -0.3933674595
   80      C      -6.9491261714     0.6597383160    -2.1937201790
   81      C      -6.6097636057    -1.6506907959    -1.7436408883
   82      C      -1.0119767741    -1.6548847360    -0.5103428711
   83      C      -2.9062322268     2.6026731850    -2.6670558397
   84      C      -2.7360066550     0.8851149444     2.7935936587
   85      C      -3.1559764046    -3.0137716869     0.6126953471
   86      C      -1.0806464580    -0.3535980948     1.4945048917
   87      C      -5.6156857220    -1.7067931632    -2.7597248836
   88      C      -2.1193588855    -1.7535587554    -2.4911478330
   89      O       2.1783201785    -4.7582356374    -1.9392769272
   90      C       1.1396161160    -3.8069841718    -2.1398274686
   91      H       1.3637709649    -2.8875747554    -1.5854684436
   92      H       0.2003981655    -4.1754060862    -1.7088507472
   93      H       1.0382814770    -3.5040984713    -3.1899110574
   94      O       1.4113418080    -5.3579202780     0.0969262824
   95      C       2.3185877878    -5.3525436142    -0.7302144696
   96      C       3.5613073975    -6.2639441284    -0.6591998622
   97      H       3.8454227321    -6.7574433246    -1.5972057363
   98      H       3.3016226959    -7.0522684869     0.0585685974
   99      C       4.8822915402    -5.6750704926    -0.0981626658
  100      H       4.5079105764    -5.3582722140     0.8834196000
  101      H       5.6918706248    -6.3788540754     0.1311349013
  102      C       5.3674451770    -4.4719349663    -0.9608809595
  103      H       5.6393779954    -4.9703918934    -1.8989716983
  104      H       4.5038831811    -3.8669761440    -1.2656603920
  105      C       6.3864947167    -3.6152831006    -0.2731618188
  106      C       7.6516183980    -4.3091800171     0.0657823364
  107      C       8.5634041959    -4.4866329646    -0.9485554329
  108      H       8.4478701158    -4.0204544971    -1.9229498668
  109      C       9.8579005324    -4.9004307646    -0.7096399339
  110      H      10.6521172363    -4.8483821240    -1.4472982330
  111      C      10.2036233093    -5.3093827427     0.5712300989
  112      H      11.2153111575    -5.6283895004     0.8027282334
  113      C       9.2360397949    -5.1583259658     1.6400275507
  114      H       9.4517695903    -5.5254085269     2.6388518840
  115      C       7.9542055301    -4.6990672322     1.3700158228
  116      H       7.2835544428    -4.6561368688     2.2229109528
  117      C       7.1231033466     0.4185560824     3.3745823022
  118      C       8.8844643452     0.8078995273     1.6887314444
  119      C       7.0160497060     4.5055649449    -0.1735097311
  120      C       2.5606167551     0.0628132241     1.0443340062
  121      C       5.6307456745     2.8371967653    -2.9566572941
  122      C       8.1717138732    -0.0957601076     2.4805281538
  123      C       2.5490555142     1.7046169596    -1.2861562495
  124      C       7.2632541216     3.8491083071     2.1827563107
  125      C       7.7454977736    -0.5053763521    -1.9011386944
  126      C       2.7114107871    -0.4655567688    -0.2463636000
  127      C       6.5699939433    -2.2756624450    -0.8147424065
  128      C       6.5021616603    -0.5765337941    -2.5051378068
  129      C       3.7574975944    -0.1622098891    -2.2363779371
  130      C       3.3480276215     2.6159111234    -2.0219391787
  131      C       8.3963330356    -0.9424476211     0.3739041992
  132      C       4.9678272540     4.3460841137    -1.1731449904
  133      C       5.9102151279    -2.4230222242     0.5443201419
  134      C       4.5020105856    -1.9001174192     0.6392176225
  135      C       5.9294184018     3.8620344141    -2.0546864545
  136      C       3.7884978375     3.0631918709     2.4259334501
  137      C       5.0432563066     4.4910295785     1.2128177650
  138      C       5.8567011635     4.1249352070     2.3462962059
  139      C       7.7135038640     2.6503091159     2.7147682172
  140      C       4.3107629572    -1.3334683989     1.9540652306
  141      C       7.8043482753    -1.4172724629    -0.8171963059
  142      C       8.7165829669     2.2055218739     1.8794134288
  143      C       2.8045926133     0.3434068829    -1.3989432968
  144      C       9.1174430487     0.2611947152     0.4296489323
  145      C       5.9262180221     0.5602375674    -3.0868145187
  146      C       3.6442768588     0.7398272391     2.9631541653
  147      C       7.7712115445     3.9668056301     0.8899765164
  148      C       5.7303844017    -1.5844879975    -1.8528670141
  149      C       5.6029184444     2.0980743096     3.7172211615
  150      C       4.5411985238     0.7459473423    -2.9769515636
  151      C       8.4772713971     0.7164358617    -1.8806380098
  152      C       3.1177965457     3.4496263928     0.0926989703
  153      C       2.4452297590     2.2505993987     0.0574543298
  154      C       7.8477659330     1.8774227279    -2.4097149107
  155      C       3.3167823447    -0.3606942358     2.1241298352
  156      C       3.6660764044    -1.4549254379    -0.4491077628
  157      C       3.0893074410     1.8539496342     2.4258858580
  158      C       6.5827982693    -1.8468836843     1.7686837728
  159      C       9.0668648719     2.4938911645    -0.5594407570
  160      C       4.3288656072    -1.2989136984    -1.6852472411
  161      C       6.5783037957     1.8137530636    -3.0236318887
  162      C       4.8897660300     0.8305845782     3.6213492958
  163      C       7.2076706714     3.9101012774    -1.4493884190
  164      C       6.9584026368     1.8379685573     3.5560951178
  165      C       5.6339298641     4.7734889018    -0.0273642697
  166      C       9.2875590111     1.0708174569    -0.6936954385
  167      C       8.2280194743     2.9683955967    -1.6343011864
  168      C       7.8211820372    -1.1692409269     1.6366991649
  169      C       5.5952885376    -1.2484446052     2.5988706181
  170      C       3.7544620674     3.8984741242     1.2892601796
  171      C       8.7650839105     2.9763416066     0.7201509054
  172      C       4.3438595592     2.1673212948    -2.8909840092
  173      C       2.4991914620     1.4190355064     1.2273259585
  174      C       3.6993995131     3.6994922288    -1.1581783427
  175      C       5.8647188776    -0.1658469299     3.4405947804
  176      C       5.0668654018     3.2421719818     3.0849967933
 ----------------------------------------------------------------
 Molecular Point Group                 C1    NOp =  1
 Largest Abelian Subgroup              C1    NOp =  1
 Nuclear Repulsion Energy = 34103.3075972225 hartrees
 There are      462 alpha and      462 beta electrons
 Requested basis set is 6-31G(d,p)
 There are 676 shells and 2360 basis functions

 Total QAlloc Memory Limit  20000 MB
 Mega-Array Size      4888 MB
 MEM_STATIC part      5000 MB
 A cutoff of  1.0D-08 yielded  37536 shell pairs
 There are    528381 function pairs
 
 -------------------------------------------------------
 OpenMP Integral Computing Module                       
 Release: version 1.0, May 2013, Q-Chem Inc. Pittsburgh 
 -------------------------------------------------------
 Integral Job Info:
 Integral job number is                      11
 Integral operator is                         1
 short-range coefficients                     0
 long-range coefficients              100000000
 Omega coefficients                           0
 if combine SR and LR in K                    0
 Integral screening is                        0
 Integral computing path is                   2
 max size of driver memory is            800000
 size of driver memory is                593474
 size of scratch memory is              2260544
 max col of scratch BK array               1296
 max len of scratch array in speh3          155
 max len of scratch index in speh4           18
 max int batch size is                      520
 min int batch size is                       52
 fixed nKL is                                52
 max L of basis functions is                  2
 order of int derivative is                   0
 number of shells is                        676
 number of basis is                        2360
 number of cartesian basis is              2360
 number of contracted shell pairs         37536
 number of primitive shell pairs         113654
 maxK2 (contraction) of shell pair           36
 max number of K2 of shell pair               1
 max number of CS2 of shell pair           7212
 max number of PS2 of shell pair          34494
 mem total for path MDJ                 1506328
 -------------------------------------------------------
 Smallest overlap matrix eigenvalue = 2.64E-04

 Scale SEOQF with 1.000000e-02/1.000000e-02/1.000000e-01

 Standard Electronic Orientation quadrupole field applied
 Nucleus-field energy     =    -0.0000001884 hartrees
 Guess from superposition of atomic densities
 Warning:  Energy on first SCF cycle will be non-variational
 A restricted hybrid HF-DFT SCF calculation will be
 performed using Pulay DIIS extrapolation
 Exchange:     0.2000 Hartree-Fock + 0.0800 Slater + 0.7200 B88
 Correlation:  0.1900 VWN1RPA + 0.8100 LYP
 Using SG-1 standard quadrature grid
 SCF converges when DIIS error is below 1.0E-05
 using 16 threads for integral computing 
 -------------------------------------------------------
 OpenMP BLAS3 based DFT computing Module                
 Release: version 1.0, May 2013, Q-Chem Inc. Pittsburgh 
 -------------------------------------------------------
 ---------------------------------------
  Cycle       Energy         DIIS Error
 ---------------------------------------
    1   -5857.8593213822      1.82E-02
    2   -5803.1365205923      1.29E-03
    3   -5802.2059530148      1.85E-03
    4   -5803.9136621001      7.15E-04
    5   -5804.1954378825      3.34E-04
    6   -5804.2660626486      1.67E-04
    7   -5804.2850138967      5.80E-05
    8   -5804.2864872132      3.91E-05
    9   -5804.2876300541      9.90E-06 Convergence criterion met
 ---------------------------------------
 SCF time:  CPU 7343.07 s  wall 849.98 s
 SCF   energy in the final basis set = -5804.2876300541
 Total energy in the final basis set = -5804.2876300541
 
 --------------------------------------------------------------
 
                    Orbital Energies (a.u.)
 --------------------------------------------------------------
 
 Alpha MOs
 -- Occupied --
-19.194 -19.193 -19.144 -19.136 -10.325 -10.322 -10.247 -10.245
-10.244 -10.244 -10.239 -10.238 -10.237 -10.235 -10.234 -10.232
-10.232 -10.231 -10.229 -10.228 -10.226 -10.226 -10.225 -10.225
-10.224 -10.223 -10.223 -10.223 -10.222 -10.222 -10.222 -10.222
-10.221 -10.221 -10.221 -10.220 -10.220 -10.220 -10.220 -10.220
-10.220 -10.220 -10.220 -10.220 -10.219 -10.219 -10.219 -10.219
-10.219 -10.218 -10.218 -10.218 -10.218 -10.217 -10.217 -10.217
-10.217 -10.217 -10.217 -10.217 -10.217 -10.217 -10.216 -10.216
-10.216 -10.216 -10.216 -10.216 -10.216 -10.215 -10.215 -10.215
-10.215 -10.215 -10.215 -10.215 -10.215 -10.214 -10.214 -10.214
-10.214 -10.214 -10.214 -10.214 -10.214 -10.214 -10.214 -10.214
-10.214 -10.214 -10.214 -10.214 -10.214 -10.214 -10.213 -10.213
-10.213 -10.213 -10.213 -10.213 -10.213 -10.213 -10.213 -10.213
-10.213 -10.213 -10.213 -10.212 -10.212 -10.212 -10.212 -10.212
-10.212 -10.212 -10.211 -10.211 -10.211 -10.211 -10.211 -10.211
-10.211 -10.210 -10.210 -10.210 -10.210 -10.209 -10.209 -10.209
-10.209 -10.207 -10.207 -10.207 -10.206 -10.205 -10.204 -10.202
-10.201 -10.200 -10.199 -10.199 -10.198 -10.198 -10.198 -10.196
-10.196 -10.196 -10.195 -10.194  -1.098  -1.073  -1.006  -1.001
 -0.983  -0.980  -0.968  -0.964  -0.963  -0.962  -0.958  -0.958
 -0.936  -0.935  -0.928  -0.928  -0.925  -0.921  -0.921  -0.920
 -0.919  -0.915  -0.899  -0.899  -0.890  -0.886  -0.886  -0.877
 -0.876  -0.876  -0.858  -0.857  -0.841  -0.840  -0.836  -0.836
 -0.834  -0.834  -0.824  -0.819  -0.809  -0.805  -0.799  -0.796
 -0.795  -0.794  -0.793  -0.791  -0.790  -0.788  -0.785  -0.783
 -0.769  -0.769  -0.768  -0.768  -0.768  -0.767  -0.765  -0.762
 -0.758  -0.753  -0.743  -0.741  -0.732  -0.732  -0.719  -0.716
 -0.714  -0.714  -0.713  -0.712  -0.712  -0.708  -0.708  -0.707
 -0.706  -0.705  -0.704  -0.703  -0.703  -0.702  -0.672  -0.671
 -0.659  -0.657  -0.656  -0.655  -0.647  -0.646  -0.633  -0.630
 -0.629  -0.627  -0.625  -0.625  -0.623  -0.621  -0.618  -0.618
 -0.616  -0.615  -0.614  -0.610  -0.610  -0.610  -0.608  -0.608
 -0.607  -0.607  -0.602  -0.601  -0.569  -0.567  -0.564  -0.564
 -0.561  -0.560  -0.559  -0.557  -0.557  -0.555  -0.553  -0.552
 -0.539  -0.538  -0.536  -0.532  -0.528  -0.527  -0.526  -0.524
 -0.522  -0.522  -0.520  -0.517  -0.517  -0.516  -0.515  -0.513
 -0.510  -0.507  -0.502  -0.501  -0.491  -0.491  -0.488  -0.487
 -0.486  -0.483  -0.480  -0.479  -0.477  -0.477  -0.475  -0.474
 -0.474  -0.471  -0.470  -0.470  -0.468  -0.467  -0.466  -0.465
 -0.464  -0.463  -0.463  -0.462  -0.461  -0.461  -0.459  -0.458
 -0.455  -0.455  -0.455  -0.451  -0.451  -0.450  -0.445  -0.444
 -0.444  -0.442  -0.440  -0.440  -0.438  -0.436  -0.434  -0.433
 -0.432  -0.431  -0.427  -0.426  -0.426  -0.425  -0.425  -0.424
 -0.423  -0.422  -0.422  -0.420  -0.419  -0.419  -0.418  -0.418
 -0.417  -0.416  -0.415  -0.415  -0.414  -0.413  -0.413  -0.412
 -0.411  -0.411  -0.409  -0.407  -0.406  -0.402  -0.400  -0.397
 -0.396  -0.392  -0.392  -0.391  -0.388  -0.387  -0.386  -0.386
 -0.380  -0.377  -0.373  -0.372  -0.372  -0.370  -0.367  -0.367
 -0.366  -0.364  -0.363  -0.361  -0.360  -0.359  -0.359  -0.358
 -0.356  -0.356  -0.355  -0.354  -0.353  -0.353  -0.352  -0.352
 -0.351  -0.349  -0.347  -0.346  -0.346  -0.345  -0.345  -0.343
 -0.342  -0.341  -0.340  -0.340  -0.339  -0.339  -0.337  -0.336
 -0.333  -0.331  -0.330  -0.329  -0.327  -0.325  -0.325  -0.324
 -0.312  -0.302  -0.299  -0.295  -0.289  -0.284  -0.272  -0.272
 -0.271  -0.270  -0.270  -0.268  -0.266  -0.265  -0.265  -0.264
 -0.262  -0.261  -0.260  -0.259  -0.258  -0.256  -0.255  -0.255
 -0.252  -0.248  -0.243  -0.242  -0.222  -0.220  -0.214  -0.213
 -0.211  -0.208  -0.207  -0.203  -0.198  -0.197
 -- Virtual --
 -0.124  -0.122  -0.122  -0.119  -0.110  -0.106  -0.081  -0.080
 -0.074  -0.074  -0.061  -0.061  -0.059  -0.055  -0.028  -0.024
 -0.023  -0.021  -0.019  -0.018  -0.017  -0.016  -0.014  -0.014
 -0.012  -0.010  -0.010  -0.009  -0.008  -0.006  -0.004  -0.004
  0.003   0.004   0.028   0.030   0.037   0.042   0.046   0.047
  0.048   0.052   0.053   0.055   0.059   0.063   0.065   0.067
  0.069   0.071   0.072   0.076   0.083   0.084   0.093   0.093
  0.094   0.095   0.095   0.098   0.101   0.101   0.105   0.106
  0.110   0.112   0.112   0.114   0.116   0.117   0.118   0.120
  0.121   0.122   0.124   0.125   0.129   0.133   0.134   0.139
  0.141   0.143   0.146   0.147   0.149   0.149   0.153   0.153
  0.157   0.159   0.161   0.164   0.167   0.167   0.167   0.170
  0.172   0.172   0.172   0.173   0.175   0.176   0.179   0.179
  0.181   0.181   0.183   0.184   0.185   0.187   0.188   0.189
  0.191   0.192   0.195   0.198   0.199   0.199   0.203   0.204
  0.206   0.208   0.209   0.210   0.211   0.212   0.215   0.217
  0.218   0.219   0.221   0.222   0.223   0.226   0.226   0.228
  0.229   0.230   0.231   0.232   0.234   0.235   0.236   0.238
  0.238   0.239   0.240   0.242   0.244   0.247   0.251   0.255
  0.261   0.264   0.266   0.269   0.273   0.276   0.277   0.278
  0.285   0.288   0.288   0.289   0.296   0.296   0.302   0.303
  0.305   0.306   0.307   0.310   0.313   0.314   0.317   0.319
  0.321   0.321   0.322   0.324   0.326   0.327   0.327   0.331
  0.334   0.338   0.340   0.342   0.343   0.344   0.346   0.347
  0.350   0.352   0.356   0.357   0.366   0.367   0.380   0.387
  0.389   0.394   0.394   0.398   0.399   0.401   0.404   0.405
  0.405   0.407   0.409   0.410   0.413   0.413   0.417   0.419
  0.427   0.428   0.429   0.430   0.433   0.437   0.437   0.438
  0.445   0.447   0.450   0.451   0.453   0.454   0.454   0.457
  0.459   0.460   0.461   0.463   0.466   0.468   0.470   0.471
  0.474   0.475   0.475   0.477   0.479   0.480   0.481   0.481
  0.484   0.485   0.487   0.488   0.488   0.490   0.492   0.493
  0.494   0.496   0.497   0.497   0.499   0.500   0.501   0.502
  0.503   0.503   0.505   0.505   0.506   0.507   0.507   0.508
  0.510   0.511   0.512   0.512   0.513   0.514   0.517   0.517
  0.518   0.519   0.519   0.520   0.520   0.522   0.523   0.525
  0.525   0.526   0.527   0.527   0.528   0.529   0.530   0.532
  0.532   0.533   0.534   0.534   0.535   0.535   0.536   0.537
  0.537   0.539   0.540   0.541   0.541   0.542   0.543   0.544
  0.545   0.546   0.546   0.547   0.548   0.548   0.550   0.550
  0.551   0.552   0.554   0.554   0.554   0.555   0.556   0.557
  0.558   0.559   0.560   0.560   0.561   0.562   0.563   0.564
  0.565   0.566   0.567   0.567   0.568   0.569   0.570   0.570
  0.572   0.573   0.573   0.574   0.575   0.576   0.577   0.579
  0.579   0.580   0.581   0.582   0.584   0.584   0.584   0.585
  0.586   0.586   0.587   0.588   0.589   0.590   0.591   0.591
  0.592   0.592   0.593   0.595   0.596   0.596   0.597   0.597
  0.599   0.601   0.601   0.602   0.602   0.604   0.605   0.607
  0.607   0.609   0.609   0.610   0.610   0.613   0.613   0.614
  0.616   0.616   0.617   0.618   0.618   0.619   0.622   0.622
  0.624   0.625   0.626   0.627   0.628   0.629   0.629   0.630
  0.631   0.632   0.633   0.634   0.635   0.636   0.637   0.638
  0.639   0.640   0.642   0.643   0.643   0.644   0.647   0.647
  0.649   0.649   0.650   0.651   0.653   0.654   0.655   0.656
  0.656   0.658   0.658   0.659   0.660   0.661   0.662   0.662
  0.664   0.664   0.665   0.665   0.667   0.667   0.668   0.668
  0.669   0.670   0.671   0.671   0.674   0.675   0.676   0.677
  0.678   0.678   0.680   0.680   0.681   0.683   0.685   0.687
  0.687   0.689   0.691   0.691   0.692   0.693   0.694   0.695
  0.697   0.698   0.698   0.700   0.701   0.702   0.702   0.704
  0.705   0.706   0.708   0.708   0.710   0.712   0.713   0.713
  0.715   0.718   0.718   0.718   0.720   0.720   0.721   0.722
  0.724   0.725   0.726   0.727   0.729   0.730   0.732   0.733
  0.733   0.735   0.737   0.738   0.739   0.740   0.745   0.745
  0.748   0.748   0.750   0.751   0.751   0.754   0.755   0.755
  0.757   0.759   0.760   0.762   0.764   0.765   0.766   0.767
  0.769   0.770   0.771   0.772   0.774   0.776   0.778   0.779
  0.780   0.782   0.782   0.783   0.785   0.785   0.786   0.788
  0.790   0.791   0.792   0.793   0.794   0.794   0.795   0.798
  0.798   0.799   0.800   0.801   0.801   0.803   0.803   0.803
  0.805   0.805   0.806   0.807   0.808   0.809   0.811   0.811
  0.811   0.812   0.813   0.814   0.814   0.815   0.815   0.816
  0.818   0.818   0.819   0.820   0.820   0.821   0.822   0.823
  0.824   0.825   0.826   0.827   0.828   0.828   0.829   0.832
  0.835   0.836   0.838   0.840   0.843   0.845   0.845   0.846
  0.851   0.853   0.855   0.858   0.862   0.866   0.869   0.869
  0.871   0.873   0.875   0.878   0.880   0.882   0.885   0.889
  0.890   0.893   0.898   0.900   0.901   0.904   0.904   0.907
  0.909   0.911   0.913   0.916   0.918   0.921   0.922   0.927
  0.928   0.929   0.930   0.931   0.932   0.934   0.935   0.939
  0.939   0.940   0.941   0.944   0.945   0.948   0.949   0.952
  0.954   0.957   0.960   0.962   0.965   0.968   0.969   0.972
  0.975   0.976   0.977   0.978   0.983   0.985   0.988   0.992
  0.992   0.994   0.996   0.999   1.001   1.003   1.004   1.005
  1.006   1.010   1.012   1.013   1.013   1.016   1.017   1.017
  1.022   1.023   1.024   1.025   1.027   1.027   1.029   1.031
  1.033   1.035   1.038   1.039   1.039   1.041   1.043   1.044
  1.046   1.047   1.048   1.051   1.053   1.053   1.057   1.058
  1.059   1.062   1.064   1.065   1.068   1.070   1.072   1.074
  1.076   1.077   1.078   1.080   1.081   1.082   1.084   1.085
  1.087   1.089   1.090   1.091   1.092   1.093   1.094   1.096
  1.097   1.101   1.103   1.105   1.106   1.106   1.110   1.111
  1.113   1.114   1.119   1.120   1.121   1.125   1.128   1.130
  1.131   1.134   1.135   1.136   1.138   1.140   1.141   1.144
  1.145   1.147   1.148   1.150   1.155   1.157   1.160   1.161
  1.162   1.162   1.163   1.165   1.167   1.167   1.170   1.173
  1.173   1.174   1.177   1.177   1.179   1.180   1.183   1.185
  1.186   1.187   1.190   1.194   1.195   1.197   1.199   1.200
  1.203   1.204   1.208   1.210   1.213   1.215   1.218   1.220
  1.223   1.226   1.229   1.231   1.235   1.240   1.242   1.244
  1.246   1.250   1.252   1.256   1.258   1.258   1.259   1.261
  1.264   1.267   1.267   1.269   1.270   1.271   1.273   1.275
  1.277   1.279   1.280   1.280   1.284   1.288   1.291   1.292
  1.294   1.295   1.297   1.298   1.300   1.303   1.307   1.311
  1.312   1.313   1.316   1.321   1.323   1.325   1.327   1.328
  1.329   1.331   1.335   1.337   1.338   1.340   1.343   1.347
  1.348   1.350   1.354   1.355   1.359   1.360   1.362   1.365
  1.368   1.371   1.372   1.374   1.377   1.379   1.381   1.382
  1.385   1.388   1.388   1.390   1.392   1.395   1.396   1.399
  1.403   1.404   1.407   1.412   1.413   1.417   1.421   1.424
  1.427   1.428   1.430   1.432   1.437   1.440   1.441   1.443
  1.449   1.450   1.453   1.455   1.455   1.458   1.459   1.463
  1.465   1.466   1.468   1.469   1.470   1.470   1.472   1.475
  1.475   1.478   1.482   1.484   1.488   1.489   1.490   1.493
  1.495   1.497   1.499   1.504   1.506   1.508   1.511   1.514
  1.518   1.525   1.527   1.530   1.531   1.534   1.535   1.537
  1.539   1.541   1.543   1.547   1.548   1.550   1.550   1.557
  1.558   1.559   1.561   1.566   1.568   1.569   1.571   1.576
  1.576   1.579   1.580   1.581   1.586   1.588   1.590   1.593
  1.594   1.595   1.599   1.599   1.604   1.613   1.617   1.619
  1.621   1.624   1.628   1.629   1.632   1.637   1.639   1.642
  1.644   1.646   1.648   1.650   1.656   1.657   1.662   1.666
  1.667   1.673   1.675   1.682   1.685   1.691   1.692   1.694
  1.700   1.701   1.702   1.704   1.705   1.708   1.712   1.715
  1.717   1.718   1.722   1.724   1.728   1.729   1.731   1.733
  1.735   1.736   1.738   1.739   1.741   1.742   1.743   1.745
  1.746   1.747   1.748   1.749   1.751   1.752   1.756   1.756
  1.757   1.759   1.762   1.763   1.765   1.765   1.766   1.767
  1.768   1.770   1.771   1.772   1.774   1.775   1.776   1.778
  1.779   1.780   1.781   1.782   1.784   1.785   1.787   1.788
  1.789   1.791   1.793   1.794   1.795   1.796   1.797   1.798
  1.799   1.800   1.801   1.802   1.805   1.806   1.806   1.809
  1.811   1.812   1.813   1.815   1.818   1.819   1.821   1.823
  1.823   1.827   1.829   1.832   1.833   1.836   1.837   1.839
  1.840   1.844   1.846   1.848   1.851   1.853   1.854   1.855
  1.857   1.859   1.860   1.863   1.863   1.865   1.868   1.869
  1.870   1.873   1.874   1.875   1.876   1.879   1.881   1.883
  1.886   1.887   1.889   1.890   1.891   1.897   1.900   1.902
  1.906   1.909   1.913   1.915   1.916   1.916   1.920   1.922
  1.924   1.925   1.926   1.928   1.928   1.933   1.934   1.937
  1.938   1.940   1.942   1.943   1.945   1.947   1.947   1.951
  1.954   1.955   1.956   1.959   1.959   1.960   1.965   1.968
  1.969   1.974   1.975   1.975   1.976   1.980   1.982   1.982
  1.984   1.986   1.986   1.987   1.990   1.993   1.993   1.996
  1.997   1.999   2.001   2.001   2.003   2.004   2.005   2.005
  2.007   2.008   2.009   2.011   2.011   2.012   2.015   2.015
  2.016   2.019   2.019   2.019   2.021   2.022   2.023   2.024
  2.026   2.028   2.030   2.030   2.032   2.034   2.034   2.035
  2.036   2.037   2.038   2.039   2.040   2.041   2.043   2.045
  2.047   2.048   2.048   2.051   2.052   2.054   2.055   2.056
  2.056   2.057   2.059   2.059   2.061   2.062   2.064   2.067
  2.068   2.069   2.070   2.071   2.071   2.073   2.073   2.074
  2.077   2.078   2.080   2.083   2.084   2.085   2.087   2.088
  2.089   2.092   2.094   2.096   2.099   2.101   2.102   2.103
  2.105   2.106   2.109   2.111   2.115   2.118   2.122   2.125
  2.125   2.126   2.129   2.132   2.134   2.135   2.140   2.143
  2.148   2.151   2.154   2.157   2.157   2.160   2.162   2.170
  2.171   2.175   2.176   2.180   2.185   2.187   2.191   2.192
  2.197   2.200   2.203   2.209   2.210   2.213   2.216   2.218
  2.219   2.222   2.225   2.228   2.230   2.235   2.238   2.240
  2.245   2.247   2.248   2.249   2.249   2.253   2.255   2.256
  2.259   2.260   2.263   2.268   2.272   2.272   2.279   2.280
  2.282   2.283   2.287   2.287   2.290   2.292   2.294   2.296
  2.297   2.300   2.304   2.305   2.306   2.308   2.312   2.315
  2.318   2.321   2.324   2.327   2.330   2.332   2.332   2.335
  2.337   2.339   2.341   2.343   2.345   2.348   2.348   2.349
  2.351   2.354   2.355   2.356   2.357   2.359   2.361   2.363
  2.365   2.370   2.370   2.373   2.375   2.376   2.379   2.380
  2.381   2.384   2.384   2.386   2.387   2.389   2.389   2.392
  2.394   2.395   2.395   2.400   2.400   2.405   2.406   2.406
  2.407   2.407   2.409   2.411   2.414   2.415   2.416   2.421
  2.423   2.424   2.425   2.427   2.429   2.431   2.434   2.435
  2.439   2.444   2.448   2.449   2.451   2.453   2.455   2.458
  2.459   2.460   2.461   2.464   2.467   2.469   2.470   2.471
  2.474   2.476   2.478   2.482   2.483   2.485   2.485   2.490
  2.491   2.494   2.496   2.497   2.499   2.502   2.503   2.505
  2.505   2.506   2.509   2.511   2.514   2.514   2.517   2.518
  2.522   2.525   2.525   2.528   2.531   2.534   2.536   2.540
  2.541   2.547   2.548   2.549   2.553   2.555   2.556   2.561
  2.564   2.568   2.570   2.573   2.576   2.577   2.579   2.581
  2.586   2.589   2.589   2.594   2.595   2.596   2.598   2.599
  2.602   2.604   2.605   2.607   2.609   2.611   2.613   2.614
  2.615   2.619   2.620   2.623   2.624   2.627   2.628   2.631
  2.632   2.636   2.637   2.637   2.639   2.640   2.642   2.644
  2.646   2.647   2.649   2.653   2.654   2.655   2.658   2.659
  2.660   2.662   2.664   2.665   2.666   2.667   2.668   2.670
  2.674   2.674   2.675   2.678   2.680   2.683   2.684   2.686
  2.689   2.690   2.692   2.696   2.697   2.699   2.701   2.705
  2.706   2.711   2.713   2.714   2.717   2.720   2.722   2.724
  2.726   2.730   2.732   2.734   2.735   2.739   2.741   2.742
  2.742   2.746   2.747   2.751   2.752   2.754   2.756   2.761
  2.761   2.763   2.764   2.767   2.768   2.773   2.774   2.775
  2.778   2.779   2.783   2.786   2.787   2.790   2.791   2.795
  2.795   2.800   2.801   2.803   2.808   2.813   2.814   2.819
  2.820   2.822   2.824   2.826   2.830   2.832   2.835   2.837
  2.838   2.841   2.844   2.845   2.847   2.853   2.854   2.856
  2.859   2.862   2.862   2.864   2.865   2.867   2.869   2.872
  2.872   2.875   2.878   2.881   2.882   2.884   2.885   2.888
  2.889   2.892   2.894   2.896   2.897   2.899   2.900   2.901
  2.903   2.905   2.905   2.907   2.908   2.909   2.911   2.912
  2.915   2.917   2.917   2.921   2.921   2.923   2.924   2.929
  2.932   2.933   2.934   2.935   2.941   2.941   2.944   2.946
  2.949   2.952   2.957   2.961   2.964   2.968   2.973   2.975
  2.979   2.980   2.983   2.987   2.988   2.990   2.992   2.996
  2.998   3.002   3.004   3.007   3.010   3.014   3.017   3.018
  3.022   3.023   3.026   3.027   3.028   3.031   3.035   3.036
  3.041   3.045   3.048   3.053   3.054   3.057   3.059   3.063
  3.066   3.069   3.073   3.075   3.083   3.085   3.089   3.090
  3.099   3.104   3.109   3.114   3.121   3.131   3.135   3.143
  3.152   3.159   3.161   3.168   3.171   3.182   3.185   3.187
  3.190   3.199   3.206   3.208   3.217   3.222   3.234   3.237
  3.242   3.244   3.245   3.245   3.247   3.259   3.262   3.272
  3.285   3.294   3.297   3.305   3.309   3.311   3.314   3.323
  3.327   3.330   3.332   3.334   3.337   3.359   3.378   3.386
  3.393   3.400   3.417   3.423   3.431   3.432   3.433   3.445
  3.449   3.450   3.452   3.455   3.461   3.463   3.470   3.476
  3.493   3.495   3.497   3.510   3.516   3.524   3.526   3.530
  3.536   3.538   3.549   3.565   3.566   3.570   3.576   3.603
  3.606   3.609   3.661   3.675   3.863   3.881   3.979   4.024
  4.072   4.075   4.077   4.079   4.083   4.089   4.092   4.094
  4.097   4.098   4.103   4.105   4.111   4.113   4.120   4.123
  4.127   4.132   4.136   4.140   4.142   4.143   4.148   4.149
  4.153   4.154   4.160   4.160   4.169   4.175   4.177   4.179
  4.181   4.187   4.194   4.196   4.210   4.224   4.235   4.239
  4.241   4.246   4.248   4.251   4.256   4.259   4.263   4.265
  4.266   4.270   4.271   4.277   4.283   4.288   4.293   4.299
  4.312   4.316   4.322   4.326   4.376   4.381   4.386   4.389
  4.394   4.398   4.400   4.403   4.409   4.409   4.410   4.414
  4.419   4.422   4.423   4.428   4.434   4.446   4.458   4.470
  4.477   4.512   4.519   4.521   4.532   4.535   4.542   4.545
  4.553   4.563   4.591   4.612   4.619   4.622   4.625   4.634
  4.641   4.663   4.676   4.685   4.687   4.692   4.693   4.698
  4.699   4.702   4.703   4.705   4.746   4.751   4.792   4.814
  4.843   4.846   4.853   4.863   4.869   4.871   4.882   4.887
  4.892   4.901   4.949   4.950   4.956   4.962   4.966   4.972
  4.980   4.988   4.992   4.997   5.140   5.143   5.159   5.181
  5.186   5.193   5.200   5.216   5.297   5.315   5.325   5.335
  5.343   5.349
 --------------------------------------------------------------
 
          Ground-State Mulliken Net Atomic Charges

     Atom                 Charge (a.u.)
  ----------------------------------------
      1 O                    -0.481010
      2 C                    -0.081132
      3 H                     0.129912
      4 H                     0.132295
      5 H                     0.124588
      6 O                    -0.482001
      7 C                     0.599017
      8 C                    -0.232078
      9 H                     0.127657
     10 H                     0.128603
     11 C                    -0.203239
     12 H                     0.111322
     13 H                     0.139132
     14 C                    -0.192384
     15 H                     0.113921
     16 H                     0.108664
     17 C                     0.012321
     18 C                     0.086479
     19 C                    -0.116486
     20 H                     0.088452
     21 C                    -0.082541
     22 H                     0.090934
     23 C                    -0.073094
     24 H                     0.095118
     25 C                    -0.097939
     26 H                     0.085487
     27 C                    -0.094923
     28 H                     0.090226
     29 C                    -0.019597
     30 C                     0.016725
     31 C                    -0.009523
     32 C                    -0.000422
     33 C                    -0.003163
     34 C                    -0.017175
     35 C                    -0.021782
     36 C                     0.002656
     37 C                     0.024106
     38 C                    -0.023473
     39 C                    -0.074474
     40 C                    -0.011341
     41 C                    -0.000392
     42 C                     0.005190
     43 C                    -0.016047
     44 C                    -0.014150
     45 C                    -0.070997
     46 C                    -0.009330
     47 C                     0.006302
     48 C                    -0.030529
     49 C                     0.018827
     50 C                    -0.015625
     51 C                     0.030362
     52 C                     0.032261
     53 C                     0.019741
     54 C                    -0.027390
     55 C                     0.008772
     56 C                     0.020885
     57 C                     0.002722
     58 C                    -0.028614
     59 C                     0.006531
     60 C                     0.028976
     61 C                     0.011036
     62 C                    -0.022616
     63 C                    -0.017654
     64 C                     0.013554
     65 C                     0.011708
     66 C                     0.006173
     67 C                    -0.021205
     68 C                    -0.011732
     69 C                    -0.005618
     70 C                     0.034118
     71 C                     0.012678
     72 C                     0.022593
     73 C                    -0.007993
     74 C                     0.008780
     75 C                    -0.014229
     76 C                    -0.018141
     77 C                     0.023356
     78 C                    -0.018504
     79 C                    -0.001076
     80 C                     0.012420
     81 C                     0.010232
     82 C                     0.008278
     83 C                    -0.007012
     84 C                     0.003446
     85 C                     0.033501
     86 C                    -0.002076
     87 C                    -0.002104
     88 C                    -0.012343
     89 O                    -0.452469
     90 C                    -0.099004
     91 H                     0.119995
     92 H                     0.138608
     93 H                     0.124482
     94 O                    -0.472602
     95 C                     0.598753
     96 C                    -0.258064
     97 H                     0.123517
     98 H                     0.132915
     99 C                    -0.205864
    100 H                     0.109858
    101 H                     0.117843
    102 C                    -0.183562
    103 H                     0.110856
    104 H                     0.116500
    105 C                     0.045199
    106 C                     0.082184
    107 C                    -0.110909
    108 H                     0.092760
    109 C                    -0.081100
    110 H                     0.095526
    111 C                    -0.086191
    112 H                     0.089462
    113 C                    -0.098796
    114 H                     0.090342
    115 C                    -0.099415
    116 H                     0.099567
    117 C                    -0.024898
    118 C                    -0.005320
    119 C                    -0.019641
    120 C                     0.029334
    121 C                    -0.032976
    122 C                    -0.025223
    123 C                    -0.020679
    124 C                    -0.043690
    125 C                     0.000951
    126 C                    -0.008938
    127 C                    -0.100883
    128 C                     0.012920
    129 C                     0.007532
    130 C                    -0.012936
    131 C                     0.025409
    132 C                     0.013662
    133 C                    -0.094790
    134 C                     0.048022
    135 C                     0.015074
    136 C                    -0.006913
    137 C                     0.000860
    138 C                    -0.010014
    139 C                     0.053270
    140 C                    -0.006436
    141 C                     0.024386
    142 C                    -0.012396
    143 C                     0.027664
    144 C                     0.040240
    145 C                    -0.008841
    146 C                     0.006869
    147 C                     0.022042
    148 C                     0.045584
    149 C                    -0.022748
    150 C                    -0.015755
    151 C                    -0.019172
    152 C                    -0.002917
    153 C                    -0.004555
    154 C                     0.016212
    155 C                    -0.023135
    156 C                    -0.033278
    157 C                     0.001002
    158 C                     0.014815
    159 C                    -0.023024
    160 C                    -0.009741
    161 C                     0.027743
    162 C                     0.005865
    163 C                     0.008959
    164 C                     0.003053
    165 C                    -0.015499
    166 C                    -0.049908
    167 C                    -0.001581
    168 C                     0.008949
    169 C                    -0.002327
    170 C                     0.004875
    171 C                     0.024646
    172 C                    -0.013846
    173 C                    -0.000724
    174 C                     0.006794
    175 C                     0.014209
    176 C                     0.014542
  ----------------------------------------
  Sum of atomic charges =     0.000000

 -----------------------------------------------------------------
                    Cartesian Multipole Moments
 -----------------------------------------------------------------
    Charge (ESU x 10^10)
                 0.0000
    Dipole Moment (Debye)
         X      -0.2143      Y      -2.9025      Z      -1.2380
       Tot       3.1628
    Quadrupole Moments (Debye-Ang)
        XX    -757.9985     XY     -10.4724     YY    -800.7278
        XZ      13.0396     YZ       1.0390     ZZ    -808.5523
    Octopole Moments (Debye-Ang^2)
       XXX    -302.5653    XXY    -552.8944    XYY     -72.8418
       YYY    -190.0322    XXZ    -209.9683    XYZ      35.5835
       YYZ       7.3891    XZZ     -59.0117    YZZ     -79.3356
       ZZZ      21.4503
    Hexadecapole Moments (Debye-Ang^3)
      XXXX -196269.0062   XXXY    1748.4519   XXYY  -36356.1085
      XYYY    -778.6289   YYYY  -33350.0708   XXXZ    3061.6847
      XXYZ    -762.6702   XYYZ    -190.1012   YYYZ     -24.5453
      XXZZ  -36862.9216   XYZZ    -192.9298   YYZZ   -8700.1941
      XZZZ    -374.9495   YZZZ     -64.6381   ZZZZ  -19234.6819
 -----------------------------------------------------------------
Archival summary:
1\1\mn366\SP\ProcedureUnspecified\6-31G**\428\afmv_a\MonOct803:45:112018MonOct803:45:112018\0\\#,ProcedureUnspecified,6-31G**,\\0,1\O\C,1,1.35451\O,2,1.22772,1,121.788\C,1,1.42268,2,119.657,3,-18.0569,0\H,4,1.09676,1,109.88,2,-70.5006,0\H,4,1.09709,1,110.19,2,44.6621,0\H,4,1.09758,1,112.755,2,171.835,0\C,2,1.54274,1,112.564,3,-166.669,0\H,8,1.09731,2,105.301,1,150.25,0\H,8,1.09732,2,115.779,1,31.9261,0\C,8,1.5513,2,118.576,1,-94.3074,0\H,11,1.09695,8,117.42,2,-168.137,0\H,11,1.09728,8,98.1974,2,-57.0772,0\C,11,1.55794,8,110.981,2,60.631,0\H,14,1.09655,11,101.532,8,68.0238,0\H,14,1.09754,11,109.537,8,-39.3003,0\C,14,1.49842,11,113.524,8,-163.117,0\C,17,1.45656,14,116.157,11,161.276,0\C,17,1.4822,14,114.695,11,-62.1532,0\C,19,1.3754,17,117.232,14,-79.1135,0\H,20,1.08633,19,122.386,17,-8.8664,0\C,20,1.37987,19,122.202,17,-168.344,0\H,22,1.08519,20,123.677,19,166.529,0\C,22,1.38831,20,118.796,19,-8.15829,0\H,24,1.08576,22,121.017,20,179.112,0\C,19,1.39449,17,122.004,14,104.704,0\H,26,1.08584,19,126.126,17,-7.86141,0\C,26,1.38814,19,118.346,17,170.417,0\H,28,1.08579,26,118.311,19,175.887,0\C,18,1.50345,17,127.532,14,-9.30698,0\C,30,1.42726,18,109.77,17,155.953,0\C,31,1.38411,30,108.821,18,4.0938,0\C,31,1.40082,30,122.72,18,153.179,0\C,33,1.40173,31,118.765,30,-2.72806,0\C,34,1.40975,33,120.339,31,-3.15186,0\C,35,1.36564,34,118.134,33,-136.099,0\C,35,1.38647,34,120.522,33,4.47805,0\C,36,1.38957,35,122.736,34,-2.32457,0\C,36,1.41122,35,109.552,34,144.583,0\C,39,1.38973,36,104.098,35,-0.651362,0\C,39,1.40279,36,122.864,35,-138.967,0\C,41,1.36989,39,120.041,36,0.0694762,0\C,41,1.3846,39,122.931,36,133.045,0\C,43,1.40115,41,120.34,39,-1.73571,0\C,42,1.40497,41,113.678,39,145.751,0\C,45,1.3557,42,104.811,41,-5.24694,0\C,45,1.39683,42,118.572,41,-143.027,0\C,47,1.41099,45,120.025,42,-7.7469,0\C,46,1.41163,45,119.546,42,-141.938,0\C,49,1.40573,46,120.424,45,138.954,0\C,50,1.38903,49,109.646,46,-141.318,0\C,50,1.39754,49,119.527,46,-0.230635,0\C,33,1.41439,31,120.737,30,-143.13,0\C,53,1.39635,33,109.807,31,147.323,0\C,54,1.39752,53,115.05,33,-138.039,0\C,55,1.39143,54,121.085,53,133.669,0\C,56,1.39254,55,107.307,54,-149.536,0\C,57,1.4024,56,117.667,55,139.518,0\C,53,1.41155,33,118.296,31,-2.6175,0\C,59,1.39143,53,121.568,33,142.806,0\C,60,1.40075,59,113.679,53,-4.74284,0\C,57,1.41541,56,108.907,55,2.30286,0\C,62,1.41122,57,121.13,56,136.903,0\C,63,1.39397,62,122.421,57,9.4508,0\C,64,1.38668,63,108.088,62,-141.326,0\C,65,1.37907,64,106.416,63,-13.3126,0\C,65,1.39209,64,124.071,63,143.564,0\C,67,1.38959,65,119.338,64,-11.1178,0\C,66,1.39298,65,110.546,64,9.63639,0\C,69,1.40042,66,125.259,65,144.019,0\C,68,1.41281,67,118.022,65,4.30137,0\C,71,1.39599,68,122.29,67,1.83948,0\C,32,1.41773,31,109.747,30,2.19849,0\C,73,1.41231,32,116.485,31,136.51,0\C,74,1.40423,73,122.473,32,11.8163,0\C,75,1.39228,74,106.651,73,-146.08,0\C,75,1.39511,74,121.876,73,-0.390298,0\C,76,1.39698,75,110.117,74,-7.20006,0\C,74,1.40602,73,122.125,32,-135.033,0\C,38,1.41781,36,118.939,35,2.9797,0\C,80,1.39576,38,121.238,36,-2.55446,0\C,79,1.41782,74,121.198,73,2.47135,0\C,59,1.42271,53,121.524,33,-0.903346,0\C,56,1.4238,55,117.668,54,-4.25514,0\C,84,1.40192,56,117.381,55,-137.136,0\C,85,1.37523,84,109.598,56,144.039,0\C,40,1.44272,39,120.508,36,-139.045,0\C,87,1.50515,40,126.995,39,149.638,0\C,6,2.70645,4,119.627,1,-164.427,0\C,89,1.40303,6,89.7431,4,56.5332,0\C,90,1.38076,89,108.259,6,-106.165,0\C,91,1.37511,90,109.613,89,-1.40629,0\C,90,1.39089,89,119.849,6,110.15,0\C,93,1.36724,90,120.212,89,0.85255,0\C,93,1.38631,90,118.855,89,139.974,0\C,95,1.38922,93,105.935,90,-142.536,0\C,94,1.39343,93,109.486,90,144.816,0\C,92,1.40194,91,122.47,90,-140.543,0\C,98,1.3798,92,122.032,91,135.287,0\C,99,1.38922,98,110.426,92,-146.198,0\C,98,1.40495,92,121.148,91,-2.85303,0\C,101,1.38862,98,110.879,92,145.307,0\C,101,1.40307,98,115.445,92,2.96673,0\C,103,1.40582,101,123.839,98,-1.60918,0\C,104,1.36933,103,109.189,101,147.907,0\C,105,1.39193,104,109.712,103,-4.61515,0\C,106,1.40712,105,106.51,104,5.22696,0\C,107,1.39424,106,122.458,105,-143.382,0\C,96,1.40808,95,121.594,93,144.336,0\C,109,1.38497,96,120.114,95,-137.451,0\C,109,1.40603,96,118.222,95,-0.618774,0\C,111,1.4028,109,108.495,96,-142.684,0\C,112,1.38697,111,106.777,109,1.36055,0\C,102,1.40816,101,121.784,98,-141.575,0\C,114,1.37902,102,121.837,101,132.858,0\C,89,1.4083,6,109.546,4,-52.2957,0\C,99,1.41283,98,121.993,92,2.96867,0\C,117,1.39322,99,120.517,98,-140.47,0\C,118,1.3989,117,107.878,99,138.219,0\C,118,1.41195,117,119.71,99,3.10565,0\C,119,1.41366,118,107.829,117,4.59463,0\C,121,1.38058,119,108.486,118,-4.27014,0\C,108,1.41395,107,118.393,106,-3.56,0\C,123,1.40056,108,108.204,107,148.262,0\C,124,1.41091,123,119.555,108,-137.271,0\C,125,1.40695,124,119.583,123,-2.62656,0\C,89,1.41557,6,111.434,4,-178.729,0\C,127,1.39487,89,115.974,6,-99.0325,0\C,128,1.37911,127,106.789,89,-149.351,0\C,129,1.40267,128,119.215,127,143.148,0\C,130,1.37616,129,120.938,128,-137.028,0\C,131,1.36936,130,107.304,129,137.949,0\C,132,1.40292,131,107.273,130,9.07806,0\C,133,1.34022,132,110.215,131,-7.62913,0\C,115,1.41635,114,119.547,102,1.12739,0\C,135,1.37863,115,117.979,114,0.869574,0\C,132,1.41749,131,125.448,130,-149.408,0\C,135,1.42226,115,124.351,114,-140.542,0\C,138,1.40873,135,110.608,115,146.431,0\C,139,1.40017,138,121.229,135,-143.002,0\C,140,1.39072,139,116.888,138,132.231,0\C,141,1.39541,140,112.533,139,-142.793,0\C,142,1.4,141,124.339,140,146.828,0\C,142,1.40324,141,104.352,140,3.85485,0\C,121,1.42355,119,119.855,118,-148.659,0\C,125,1.43136,124,125.796,123,138.125,0\C,140,1.43241,139,122.675,138,-6.88275,0\C,137,1.47066,132,120.665,131,1.50578,0\C,148,1.58153,137,127.85,132,-70.2805,0\C,149,1.49767,148,118.373,137,-10.5439,0\H,150,1.09645,149,108.251,148,-57.122,0\H,150,1.0968,149,110.888,148,61.9572,0\C,149,1.51002,148,113.406,137,-142.358,0\C,153,1.39624,149,122.322,148,81.6634,0\H,154,1.08546,153,120.739,149,-12.9472,0\C,154,1.39496,153,122.324,149,175.962,0\H,156,1.08618,154,121.832,153,172.753,0\C,156,1.36907,154,121.649,153,-3.57392,0\H,158,1.08588,156,118.644,154,-174.499,0\C,158,1.40509,156,115.968,154,-2.80086,0\H,160,1.08508,158,117.292,156,-173.226,0\C,160,1.37149,158,123.251,156,4.59358,0\H,162,1.08623,160,121.123,158,-179.956,0\C,150,1.57637,149,115.352,148,-173.175,0\H,164,1.09664,150,103.482,149,-53.9497,0\H,164,1.09762,150,111.09,149,60.1159,0\C,164,1.52103,150,113.594,149,-175.357,0\H,167,1.09619,164,107.421,150,72.4423,0\H,167,1.0969,164,108.545,150,-44.7011,0\C,167,1.50337,164,109.056,150,-171.115,0\O,170,1.25395,167,124.556,164,80.8041,0\O,170,1.41716,167,108.774,164,-99.4608,0\C,172,1.45285,170,116.499,167,173.992,0\H,173,1.09627,172,104.492,170,-172.854,0\H,173,1.09631,172,109.304,170,-54.6382,0\H,173,1.09705,172,110.509,170,65.5173,0\\\@

 Total job time:  866.93s(wall), 7370.05s(cpu) 
 Mon Oct  8 03:45:11 2018

        *************************************************************
        *                                                           *
        *  Thank you very much for using Q-Chem.  Have a nice day.  *
        *                                                           *
        *************************************************************


