
Running Job 1 of 1 ./10/25.qcin
qchem ./10/25.qcin_21151.0 /tmpu/cab_g/afmv_a/scratch_qchem/qchem21151/ 1
/tmpu/appuserlic/qchem4.4/serial-multicore/exe/qcprog.exe_s ./10/25.qcin_21151.0 /tmpu/cab_g/afmv_a/scratch_qchem/qchem21151/
Check license passed

                  Welcome to Q-Chem
     A Quantum Leap Into The Future Of Chemistry


 Q-Chem 4.4, Q-Chem, Inc., Pleasanton, CA (2016)

 Y. Shao,  Z. Gan,  E. Epifanovsky,  A. T. B. Gilbert,  M. Wormit,  
 J. Kussmann,  A. W. Lange,  A. Behn,  J. Deng,  X. Feng,  D. Ghosh,  
 M. Goldey,  P. R. Horn,  L. D. Jacobson,  I. Kaliman,  F. Rob,  
 R. Z. Khaliullin,  T. Kus,  A. Landau,  J. Liu,  E. I. Proynov,  Y. M. Rhee,  
 R. M. Richard,  M. A. Rohrdanz,  R. P. Steele,  E. J. Sundstrom,  
 H. L. Woodcock III,  P. M. Zimmerman,  D. Zuev,  B. Albrecht,  E. Alguire,  
 B. Austin,  S. A. Baeppler,  G. J. O. Beran,  Y. A. Bernard,  E. Berquist,  
 K. Brandhorst,  K. B. Bravaya,  S. T. Brown,  D. Casanova,  C.-M. Chang,  
 Y. Chen,  S. H. Chien,  K. D. Closser,  M. P. Coons,  D. L. Crittenden,  
 S. Dasgupta,  M. Diedenhofen,  R. A. DiStasio Jr.,  H. Do,  A. D. Dutoi,  
 R. G. Edgar,  P.-T. Fang,  S. Fatehi,  Q. Feng,  L. Fusti-Molnar,  
 A. Ghysels,  A. Golubeva-Zadorozhnaya,  J. Gomes,  A. Gunina,  
 M. W. D. Hanson-Heine,  P. H. P. Harbach,  A. W. Hauser,  J. E. Herr,  
 E. G. Hohenstein,  Z. C. Holden,  K. Hui,  T.-C. Jagau,  H. Ji,  B. Kaduk,  
 K. Khistyaev,  Jaehoon Kim,  Jihan Kim,  R. A. King,  P. Klunzinger,  
 K. Koh,  D. Kosenkov,  T. Kowalczyk,  C. M. Krauter,  A. Kunitsa,  
 K. U. Lao,  A. Laurent,  K. V. Lawler,  J. Lee,  D. Lefrancois,  S. Lehtola,  
 S. V. Levchenko,  C. Y. Lin,  Y.-S. Lin,  F. Liu,  E. Livshits,  
 R. C. Lochan,  A. Luenser,  P. Manohar,  S. F. Manzer,  S.-P. Mao,  Y. Mao,  
 N. Mardirossian,  A. V. Marenich,  L. A. Martinez-Martinez,  S. A. Maurer,  
 N. J. Mayhall,  J.-M. Mewes,  A. F. Morrison,  K. Nanda,  T. S. Nguyen-Beck,  
 C. M. Oana,  R. Olivares-Amaya,  D. P. O'Neill,  J. A. Parkhill,  
 T. M. Perrine,  R. Peverati,  P. A. Pieniazek,  F. Plasser,  A. Prociuk,  
 D. R. Rehn,  E. Rosta,  N. J. Russ,  N. Sergueev,  S. M. Sharada,  
 S. Sharma,  D. W. Small,  A. Sodt,  T. Stauch,  T. Stein,  D. Stuck,  
 Y.-C. Su,  A. J. W. Thom,  T. Tsuchimochi,  L. Vogt,  O. Vydrov,  T. Wang,  
 M. A. Watson,  J. Wenzel,  A. White,  C. F. Williams,  V. Vanovschi,  
 K. Yao,  S. Yeganeh,  S. R. Yost,  Z.-Q. You,  I. Y. Zhang,  X. Zhang,  
 Y. Zhao,  B. R. Brooks,  G. K. L. Chan,  D. M. Chipman,  C. J. Cramer,  
 W. A. Goddard III,  M. S. Gordon,  W. J. Hehre,  A. Klamt,  
 H. F. Schaefer III,  M. W. Schmidt,  C. D. Sherrill,  D. G. Truhlar,  
 A. Warshel,  X. Xu,  A. Aspuru-Guzik,  R. Baer,  A. T. Bell,  N. A. Besley,  
 J.-D. Chai,  A. Dreuw,  B. D. Dunietz,  T. R. Furlani,  S. R. Gwaltney,  
 C.-P. Hsu,  Y. Jung,  J. Kong,  D. S. Lambrecht,  W. Liang,  C. Ochsenfeld,  
 V. A. Rassolov,  L. V. Slipchenko,  J. E. Subotnik,  T. Van Voorhis,  
 J. M. Herbert,  A. I. Krylov,  P. M. W. Gill,  M. Head-Gordon

 Contributors to earlier versions of Q-Chem not listed above: 
 R. D. Adamson,  J. Baker,  E. F. C. Byrd,  A. K. Chakraborty,  C.-L. Cheng,  
 H. Dachsel,  R. J. Doerksen,  G. Hawkins,  A. Heyden,  S. Hirata,  
 G. Kedziora,  F. J. Keil,  C. Kelley,  P. P. Korambath,  W. Kurlancheek,  
 A. M. Lee,  M. S. Lee,  D. Liotard,  I. Lotan,  P. E. Maslen,  N. Nair,  
 D. Neuhauser,  R. Olson,  B. Peters,  J. Ritchie,  N. E. Schultz,  
 N. Shenvi,  A. C. Simmonett,  K. S. Thanthiriwatte,  Q. Wu,  W. Zhang

 Please cite Q-Chem as follows:
 Y. Shao et al., Mol. Phys. 113, 184-215 (2015)
 DOI: 10.1080/00268976.2014.952696

 Q-Chem 4.4.2 for Intel X86 Linux

 Parts of Q-Chem use Armadillo 5.200.1 (Boston Tea Smuggler).
 http://arma.sourceforge.net/

 Q-Chem begins on Mon Oct  8 02:16:38 2018  

Host: 
0

     Scratch files written to /tmpu/cab_g/afmv_a/scratch_qchem/qchem21151//
 Dec716 11556_ 22328  22283 4050   
Processing $rem in /tmpu/appuserlic/qchem4.4/serial-multicore/config/preferences.
 MEM_TOTAL  2000 
FILE_GEOM_ORG=        593

Checking the input file for inconsistencies... 	...done.

--------------------------------------------------------------
User input:
--------------------------------------------------------------
$comment
SP
$end

$rem
MEM_STATIC 5000
MEM_TOTAL 20000
JOBTYPE SP
EXCHANGE B3LYP
BASIS 6-31g(d,p)
$end

$molecule
0 1
O          13.124000     -9.290000     -6.435000
C          11.774000     -9.066000     -5.969000
H          11.737000     -9.091000     -4.873000
H          11.094000     -9.845000     -6.335000
H          11.291000     -8.160000     -6.356000
O          13.913000     -7.450000     -5.424000
C          14.139000     -8.508000     -5.939000
C          15.488000     -9.052000     -6.222000
H          15.449000    -10.096000     -6.556000
H          15.859000     -9.265000     -5.211000
C          16.450000     -8.061000     -6.890000
H          16.108000     -7.869000     -7.914000
H          16.476000     -7.073000     -6.414000
C          17.848000     -8.670000     -6.981000
H          17.784000     -9.681000     -7.402000
H          18.515000     -8.031000     -7.573000
C          18.529000     -8.734000     -5.577000
C          18.623000     -7.397000     -4.949000
C          17.767000     -6.987000     -3.900000
H          16.891000     -7.543000     -3.578000
C          18.041000     -5.807000     -3.184000
H          17.515000     -5.530000     -2.275000
C          19.180000     -5.028000     -3.561000
H          19.421000     -4.108000     -3.037000
C          19.967000     -5.427000     -4.654000
H          20.856000     -4.840000     -4.866000
C          19.690000     -6.611000     -5.355000
H          20.339000     -6.920000     -6.169000
C          22.900000    -10.736000     -2.872000
C          21.200000    -10.785000     -1.179000
C          20.751000    -15.297000     -1.156000
C          21.368000    -13.172000     -7.095000
C          17.837000    -15.280000     -3.162000
C          21.832000    -10.133000     -2.246000
C          19.628000    -15.263000     -6.319000
C          22.785000    -13.979000     -1.204000
C          17.589000    -11.333000     -2.878000
C          19.937000    -13.018000     -7.215000
C          18.352000    -10.060000     -4.743000
C          17.173000    -11.943000     -4.023000
C          17.924000    -13.530000     -6.203000
C          19.093000    -15.840000     -5.197000
C          19.566000     -9.947000     -2.458000
C          20.004000    -16.418000     -2.984000
C          19.642000     -9.764000     -5.334000
C          20.109000    -10.725000     -6.405000
C          18.904000    -15.811000     -2.355000
C          23.281000    -14.807000     -4.599000
C          22.355000    -15.785000     -2.804000
C          23.211000    -14.776000     -2.337000
C          22.888000    -12.573000     -1.261000
C          21.471000    -10.967000     -6.198000
C          18.401000    -10.194000     -3.247000
C          21.750000    -11.977000     -0.690000
C          19.060000    -14.085000     -6.809000
C          19.787000    -10.654000     -1.301000
C          16.924000    -13.376000     -3.991000
C          23.081000    -12.734000     -5.697000
C          21.544000    -14.266000     -0.685000
C          17.669000    -11.322000     -5.171000
C          23.958000    -12.681000     -3.480000
C          17.348000    -14.143000     -5.086000
C          17.848000    -12.077000     -1.673000
C          21.323000    -16.148000     -5.015000
C          21.027000    -15.471000     -6.210000
C          17.644000    -13.436000     -1.616000
C          22.084000    -12.158000     -6.535000
C          19.317000    -11.796000     -6.878000
C          23.005000    -14.123000     -5.767000
C          20.866000     -9.635000     -4.461000
C          19.525000    -12.937000     -0.383000
C          18.110000    -12.103000     -6.234000
C          17.211000    -14.053000     -2.799000
C          23.580000    -12.011000     -4.608000
C          19.352000    -15.138000     -1.229000
C          23.471000    -11.917000     -2.369000
C          21.156000    -16.166000     -2.165000
C          19.012000    -11.744000     -0.926000
C          18.711000    -13.946000     -0.875000
C          20.761000     -9.602000     -3.055000
C          21.937000    -10.301000     -5.015000
C          22.463000    -15.824000     -4.223000
C          20.923000    -13.046000     -0.301000
C          17.972000    -15.318000     -4.554000
C          21.916000    -14.451000     -6.623000
C          20.090000    -16.412000     -4.365000
C          23.017000    -10.797000     -4.246000
C          23.747000    -14.113000     -3.473000
O          30.379000    -11.839000      7.965000
C          31.353000    -10.922000      8.567000
H          32.262000    -10.974000      7.956000
H          31.579000    -11.205000      9.603000
H          30.959000     -9.901000      8.643000
O          29.218000    -12.016000      9.825000
C          29.254000    -12.195000      8.617000
C          28.306000    -12.928000      7.739000
H          27.556000    -13.464000      8.335000
H          28.812000    -13.765000      7.244000
C          27.579000    -12.026000      6.738000
H          26.953000    -11.292000      7.260000
H          28.365000    -11.387000      6.318000
C          26.756000    -12.895000      5.742000
H          27.399000    -13.090000      4.875000
H          26.139000    -13.662000      6.226000
C          25.666000    -12.000000      5.049000
C          26.206000    -11.226000      3.900000
C          26.321000    -11.783000      2.594000
H          25.885000    -12.767000      2.446000
C          26.807000    -11.007000      1.509000
H          26.989000    -11.438000      0.529000
C          27.223000     -9.705000      1.708000
H          27.640000     -9.052000      0.948000
C          27.283000     -9.233000      2.960000
H          27.674000     -8.235000      3.138000
C          26.719000     -9.945000      4.070000
H          26.523000     -9.528000      5.053000
C          21.545000     -8.556000      5.779000
C          20.938000     -9.505000      3.648000
C          17.501000    -12.010000      5.366000
C          22.391000    -11.937000      9.265000
C          19.401000    -14.961000      5.668000
C          21.937000     -8.999000      4.467000
C          20.696000    -14.149000      8.850000
C          18.115000     -9.712000      5.747000
C          22.392000    -13.290000      3.526000
C          22.959000    -13.113000      8.781000
C          24.247000    -12.580000      4.833000
C          22.650000    -14.251000      4.541000
C          22.447000    -14.724000      7.266000
C          19.749000    -14.686000      7.998000
C          22.764000    -10.866000      3.534000
C          17.855000    -13.524000      6.974000
C          24.489000    -11.455000      5.832000
C          24.336000    -11.701000      7.287000
C          18.249000    -14.129000      5.756000
C          19.187000    -10.345000      9.018000
C          17.564000    -11.175000      7.593000
C          18.054000     -9.915000      7.137000
C          19.192000     -8.912000      5.241000
C          23.660000    -10.566000      7.818000
C          23.261000    -12.231000      3.703000
C          19.596000     -9.511000      3.982000
C          22.072000    -14.172000      8.501000
C          21.469000    -10.669000      3.024000
C          21.598000    -14.947000      5.038000
C          21.577000     -9.779000      8.928000
C          17.911000    -10.764000      4.856000
C          23.726000    -13.815000      5.342000
C          20.061000     -8.648000      7.504000
C          21.480000    -15.308000      6.397000
C          21.062000    -13.103000      2.989000
C          18.933000    -12.835000      9.007000
C          20.196000    -12.950000      9.481000
C          19.991000    -13.865000      3.461000
C          22.748000    -10.660000      8.845000
C          23.830000    -13.002000      7.707000
C          20.504000    -10.590000      9.430000
C          23.794000    -10.158000      5.631000
C          19.327000    -11.785000      3.166000
C          23.483000    -13.985000      6.728000
C          20.262000    -14.787000      4.577000
C          21.336000     -8.821000      7.961000
C          18.010000    -13.184000      4.756000
C          20.192000     -8.475000      6.101000
C          17.347000    -12.196000      6.715000
C          20.676000    -11.773000      2.733000
C          18.882000    -13.025000      3.638000
C          23.028000     -9.882000      4.484000
C          23.389000     -9.587000      6.853000
C          18.386000    -11.478000      8.719000
C          18.832000    -10.655000      3.801000
C          20.155000    -15.241000      6.769000
C          21.033000    -11.860000      9.581000
C          18.636000    -13.813000      8.091000
C          22.292000     -8.713000      6.933000
C          18.982000     -9.401000      8.030000
$end

--------------------------------------------------------------
 ----------------------------------------------------------------
             Standard Nuclear Orientation (Angstroms)
    I     Atom           X                Y                Z
 ----------------------------------------------------------------
    1      O       9.7967320616     5.2046154430     0.6956207186
    2      C       9.8367031350     6.6366703506     0.5020928006
    3      H       8.8215199708     7.0382000535     0.3953827223
    4      H      10.3871589542     6.8981402285    -0.4099537410
    5      H      10.4001511445     7.1945437901     1.2605106051
    6      O       8.6428295445     5.3687821920     2.6118149309
    7      C       9.0083050230     4.6886350015     1.6955767120
    8      C       8.7854710570     3.2290272074     1.5702127972
    9      H       9.0737971820     2.8521248191     0.5813621333
   10      H       7.7014784949     3.1826218612     1.4030671450
   11      C       9.1139197865     2.4212014473     2.8324679114
   12      H      10.1992628884     2.4312086850     2.9884621627
   13      H       8.6949809977     2.8424447709     3.7546611415
   14      C       8.6917712243     0.9649974156     2.6458495590
   15      H       9.0715121795     0.5900668960     1.6873706013
   16      H       9.0384846068     0.3470443345     3.4834639212
   17      C       7.1373585894     0.8181626089     2.6820973152
   18      C       6.5651510060     1.3300201383     3.9475495471
   19      C       5.8941471398     2.5725599381     4.0317258948
   20      H       5.8760278977     3.3087504127     3.2330449334
   21      C       5.1712603578     2.9087043889     5.1912834003
   22      H       4.5120708235     3.7699599141     5.2495421180
   23      C       5.1578179241     1.9817395316     6.2807082277
   24      H       4.6167974850     2.2075819327     7.1946825678
   25      C       5.8944032318     0.7890291199     6.1906917943
   26      H       5.8060602172     0.0877203356     7.0154314507
   27      C       6.6041275363     0.4595705390     5.0254731646
   28      H       7.1304335013    -0.4883650731     4.9646611061
   29      C       3.0122747629    -2.7383922063     1.8072994692
   30      C       2.0138375910    -0.6503518317     1.1733747042
   31      C       1.9829448108    -1.5257224680    -3.2755629089
   32      C       7.4123007181    -3.5076980098    -0.6751970916
   33      C       4.8746979727     0.4005439805    -3.9411320040
   34      C       2.8183151743    -1.3960193968     2.0450470626
   35      C       7.2123610931    -2.2796947664    -3.2156870406
   36      C       1.3703263278    -2.9876751955    -1.4414481860
   37      C       4.8390821952     1.8441529063    -0.2484779740
   38      C       8.0269837904    -2.2238506792    -0.9196919842
   39      C       6.3686696712     0.8846744870     1.3073775193
   40      C       6.0341437708     1.6505046671    -0.8733853190
   41      C       7.7584114691    -0.2208147145    -2.0395905654
   42      C       6.3254247101    -1.5806579158    -3.9920434884
   43      C       3.8101503986     0.6129512571     1.6039169238
   44      C       3.9142349944    -1.8026184712    -4.4373205558
   45      C       6.4856961601    -0.3883759203     1.9904913177
   46      C       7.2921407882    -1.4471519949     1.2712616703
   47      C       3.7287151095    -0.4294305033    -4.2048830865
   48      C       4.3494941040    -4.8308101979    -1.8716083011
   49      C       2.9528690629    -3.6653619849    -3.1858205966
   50      C       2.2551045494    -3.9842750321    -2.0109481985
   51      C       1.4394635864    -2.6989248208    -0.0621232567
   52      C       6.6166498481    -2.6644844739     1.4064305470
   53      C       4.9447959657     1.3152185382     1.0938629041
   54      C       1.3210821773    -1.3147235438     0.1529898920
   55      C       7.9117876153    -1.6035390736    -2.2136770510
   56      C       2.6233066798     0.6101443832     0.9120115049
   57      C       6.0381120776     1.4762036077    -2.3177250967
   58      C       5.5237583119    -4.4374909957     0.1307244822
   59      C       1.3040994053    -1.7805978944    -2.0974888737
   60      C       6.9605902507     0.9900070829    -0.0640640841
   61      C       3.1437151263    -4.4479059872     0.2800997234
   62      C       6.8890710204     0.5029596741    -2.8615588243
   63      C       3.5927144913     1.8132338658    -0.9683762721
   64      C       5.3697310279    -3.6024297056    -3.6758530143
   65      C       6.6171147569    -3.5540447729    -3.0311339041
   66      C       3.5603468329     1.6282910378    -2.3309086516
   67      C       6.6761481352    -3.6679874126     0.4591920312
   68      C       7.9710493459    -1.2052508482     0.0552842833
   69      C       5.5648907612    -4.7890851674    -1.2163785799
   70      C       5.2475371913    -1.1482930966     2.3984548615
   71      C       1.7703658914     0.5089375890    -1.4087009280
   72      C       7.7751488201     0.0085204280    -0.6186714075
   73      C       4.7966629778     1.4348479898    -2.9647612978
   74      C       4.3565099477    -4.3051483027     0.8907689993
   75      C       2.5426604906    -0.2529950062    -3.5094307470
   76      C       2.2995145155    -3.4136339303     0.8023952729
   77      C       2.7561694652    -2.4815443148    -3.9280927786
   78      C       2.5009237584     1.1219678060    -0.3734491925
   79      C       2.4769840172     0.7816844473    -2.5701831601
   80      C       3.9675604119    -0.5631491957     2.3078123795
   81      C       5.3706754959    -2.4866271892     2.0964419237
   82      C       4.2437680078    -4.2593549295    -3.0992278956
   83      C       1.2043930911    -0.7455687147    -1.1278135425
   84      C       6.1309610719    -0.2080846551    -3.8478195748
   85      C       6.7329863288    -4.2008854453    -1.7783526290
   86      C       5.1788041514    -2.3510779255    -4.3162830652
   87      C       4.2570738428    -3.3312904154     1.8723607048
   88      C       3.1579617381    -4.6645074063    -1.1510099368
   89      O      -9.7792900127    -6.0349990673     2.1249042475
   90      C     -10.6478848388    -6.4395012650     3.2357102612
   91      H     -10.3926376943    -7.4774412879     3.4803230247
   92      H     -11.7075498898    -6.3674691480     2.9593366845
   93      H     -10.5450093852    -5.7699081950     4.0985629495
   94      O     -11.1259602152    -4.4087366235     1.5079765128
   95      C     -10.0129370551    -4.9058542765     1.4264014908
   96      C      -8.8879786414    -4.5667841001     0.5173486965
   97      H      -9.2058676435    -3.8438160973    -0.2450657900
   98      H      -8.6303230965    -5.4277970095    -0.1102661457
   99      C      -7.6645982030    -4.0019871319     1.2443140929
  100      H      -7.9096839740    -3.0536325048     1.7379460065
  101      H      -7.5203689666    -4.6675414961     2.1038211118
  102      C      -6.4774127860    -3.8539923352     0.2477227394
  103      H      -5.8951834325    -4.7822438311     0.2979336973
  104      H      -6.7449510795    -3.3542660728    -0.6913890347
  105      C      -5.4169592237    -2.8606836601     0.8461791858
  106      C      -4.4992443703    -3.5173335592     1.8144184940
  107      C      -3.3356318833    -4.2264248703     1.3993215263
  108      H      -3.0816501289    -4.1670939506     0.3446987927
  109      C      -2.4590817154    -4.8122332171     2.3501555729
  110      H      -1.6196161684    -5.4337170314     2.0529343355
  111      C      -2.7422776016    -4.7456044473     3.7004228416
  112      H      -2.1508562580    -5.1933206323     4.4926784898
  113      C      -3.9191245747    -4.2358952112     4.0865778579
  114      H      -4.1850921468    -4.2406732159     5.1400518354
  115      C      -4.7896929695    -3.5534617849     3.1735963200
  116      H      -5.6276240670    -2.9224044395     3.4532963426
  117      C      -4.5449335504     2.0597521088     2.9451217930
  118      C      -2.3719767342     1.6026967674     2.0072678119
  119      C      -2.8809607575     4.5547685153    -1.4663075305
  120      C      -8.2291464194     1.5337373064    -0.2873628494
  121      C      -3.9313351577     2.1167009755    -3.7819381769
  122      C      -3.4676507248     1.1330940140     2.7170352106
  123      C      -7.3329945458     2.2789114162    -2.8524790973
  124      C      -3.3669706508     4.7902026549     0.8813138507
  125      C      -2.9007574764    -0.8189277097    -1.2038614005
  126      C      -8.0157231655     0.5244259361    -1.2230962903
  127      C      -4.7433411812    -1.8295477366    -0.0916984394
  128      C      -3.9766639231    -0.9758631142    -2.1193430206
  129      C      -6.4772441434     0.0048178250    -2.8092172534
  130      C      -6.2255747147     2.6818242788    -3.5752270084
  131      C      -2.9486219153    -0.4587560381     1.2214652502
  132      C      -4.5661480490     4.3575525283    -2.9238484895
  133      C      -5.7223476572    -1.3834564552     0.9875322535
  134      C      -7.0417994954    -0.8180231920     0.6129897706
  135      C      -3.5835802871     3.4151667709    -3.3127632328
  136      C      -6.8275406591     4.7709476331     0.3584386628
  137      C      -4.9592757129     5.4992584371    -0.7960324125
  138      C      -4.6558603920     5.2632503608     0.5779673440
  139      C      -3.2372376799     3.8805250266     1.9820504081
  140      C      -7.2632907202     0.2923999548     1.4761607110
  141      C      -3.3294318866    -1.2346005663     0.0417008526
  142      C      -2.2194976933     2.9168478838     1.6043869544
  143      C      -7.4842766968     0.9209219392    -2.4668830769
  144      C      -2.0140744977     0.5819588999     1.0819391162
  145      C      -4.1028314898    -0.0620265558    -3.1128788727
  146      C      -7.5518644389     2.7616938192     1.5745020548
  147      C      -2.4996903937     4.3678900938    -0.1245082291
  148      C      -5.0847522767    -1.5405063288    -1.4539174117
  149      C      -5.6498900500     3.9531352768     2.3282617494
  150      C      -5.3486727733     0.4064231625    -3.5814515542
  151      C      -1.9291274580     0.2410212920    -1.3609639821
  152      C      -6.8202292281     4.2853092880    -2.0969307475
  153      C      -7.7069333790     3.2842646317    -1.8854234313
  154      C      -2.0276888222     1.1445019696    -2.4213777328
  155      C      -7.9126919828     1.4339741511     1.0633709891
  156      C      -7.3074260476    -0.5917046040    -0.8023757056
  157      C      -7.6796395609     3.6632866416     0.4646111138
  158      C      -5.2453276681    -0.4606868531     2.0489384865
  159      C      -1.4446752043     2.2303443221    -0.5950802470
  160      C      -6.3055274657    -0.8964944828    -1.7762552471
  161      C      -3.2013304232     1.0216433038    -3.3025429504
  162      C      -6.5269500116     2.9190019296     2.4886894400
  163      C      -2.5289100456     3.5556744979    -2.4082886559
  164      C      -4.3742071158     3.4044207686     2.6232946966
  165      C      -4.0985323278     5.1018684858    -1.7766526507
  166      C      -1.5065867013     0.8777147960    -0.1779539691
  167      C      -1.7779687584     2.4372453414    -1.9384031326
  168      C      -3.8945039024    -0.0893122573     2.1750220442
  169      C      -6.2290712452     0.4832324476     2.4019468835
  170      C      -6.3108410244     5.0628639483    -0.9309400064
  171      C      -1.8266233087     3.2129375957     0.3070151494
  172      C      -5.2350325203     1.7391688013    -3.9121673765
  173      C      -8.0512084297     2.8796870177    -0.6140223759
  174      C      -5.8945387196     3.9587672494    -3.0562098411
  175      C      -5.8913681576     1.7416820822     2.9272526438
  176      C      -5.7959514921     4.8848437494     1.2706647670
 ----------------------------------------------------------------
 Molecular Point Group                 C1    NOp =  1
 Largest Abelian Subgroup              C1    NOp =  1
 Nuclear Repulsion Energy = 34146.4562178818 hartrees
 There are      462 alpha and      462 beta electrons
 Requested basis set is 6-31G(d,p)
 There are 676 shells and 2360 basis functions

 Total QAlloc Memory Limit  20000 MB
 Mega-Array Size      4888 MB
 MEM_STATIC part      5000 MB
 A cutoff of  1.0D-08 yielded  36876 shell pairs
 There are    520639 function pairs
 
 -------------------------------------------------------
 OpenMP Integral Computing Module                       
 Release: version 1.0, May 2013, Q-Chem Inc. Pittsburgh 
 -------------------------------------------------------
 Integral Job Info:
 Integral job number is                      11
 Integral operator is                         1
 short-range coefficients                     0
 long-range coefficients              100000000
 Omega coefficients                           0
 if combine SR and LR in K                    0
 Integral screening is                        0
 Integral computing path is                   2
 max size of driver memory is            800000
 size of driver memory is                593474
 size of scratch memory is              2260544
 max col of scratch BK array               1296
 max len of scratch array in speh3          155
 max len of scratch index in speh4           18
 max int batch size is                      520
 min int batch size is                       52
 fixed nKL is                                52
 max L of basis functions is                  2
 order of int derivative is                   0
 number of shells is                        676
 number of basis is                        2360
 number of cartesian basis is              2360
 number of contracted shell pairs         36876
 number of primitive shell pairs         112351
 maxK2 (contraction) of shell pair           36
 max number of K2 of shell pair               1
 max number of CS2 of shell pair           7089
 max number of PS2 of shell pair          34194
 mem total for path MDJ                 1480744
 -------------------------------------------------------
 Smallest overlap matrix eigenvalue = 2.49E-04

 Scale SEOQF with 1.000000e-02/1.000000e-02/1.000000e-02

 Standard Electronic Orientation quadrupole field applied
 Nucleus-field energy     =     0.0000001143 hartrees
 Guess from superposition of atomic densities
 Warning:  Energy on first SCF cycle will be non-variational
 A restricted hybrid HF-DFT SCF calculation will be
 performed using Pulay DIIS extrapolation
 Exchange:     0.2000 Hartree-Fock + 0.0800 Slater + 0.7200 B88
 Correlation:  0.1900 VWN1RPA + 0.8100 LYP
 Using SG-1 standard quadrature grid
 SCF converges when DIIS error is below 1.0E-05
 using 16 threads for integral computing 
 -------------------------------------------------------
 OpenMP BLAS3 based DFT computing Module                
 Release: version 1.0, May 2013, Q-Chem Inc. Pittsburgh 
 -------------------------------------------------------
 ---------------------------------------
  Cycle       Energy         DIIS Error
 ---------------------------------------
    1   -5858.4374240472      1.83E-02
    2   -5803.1390687729      1.29E-03
    3   -5802.4241877094      1.75E-03
    4   -5803.9777204644      6.47E-04
    5   -5804.2065487850      3.06E-04
    6   -5804.2682120577      1.30E-04
    7   -5804.2785684370      4.98E-05
    8   -5804.2795336246      3.45E-05
    9   -5804.2804869425      8.04E-06 Convergence criterion met
 ---------------------------------------
 SCF time:  CPU 7117.38 s  wall 824.31 s
 SCF   energy in the final basis set = -5804.2804869425
 Total energy in the final basis set = -5804.2804869425
 
 --------------------------------------------------------------
 
                    Orbital Energies (a.u.)
 --------------------------------------------------------------
 
 Alpha MOs
 -- Occupied --
-19.185 -19.184 -19.132 -19.127 -10.312 -10.312 -10.246 -10.242
-10.240 -10.240 -10.239 -10.239 -10.238 -10.236 -10.230 -10.230
-10.229 -10.227 -10.226 -10.225 -10.225 -10.225 -10.224 -10.224
-10.224 -10.223 -10.223 -10.223 -10.223 -10.223 -10.222 -10.221
-10.221 -10.221 -10.221 -10.220 -10.220 -10.220 -10.220 -10.220
-10.219 -10.219 -10.219 -10.219 -10.219 -10.219 -10.218 -10.218
-10.218 -10.218 -10.218 -10.218 -10.218 -10.218 -10.218 -10.218
-10.217 -10.217 -10.217 -10.217 -10.217 -10.217 -10.217 -10.216
-10.216 -10.216 -10.216 -10.216 -10.216 -10.216 -10.216 -10.216
-10.215 -10.215 -10.215 -10.215 -10.215 -10.215 -10.215 -10.215
-10.215 -10.215 -10.214 -10.214 -10.214 -10.214 -10.214 -10.214
-10.214 -10.214 -10.214 -10.214 -10.214 -10.214 -10.213 -10.213
-10.213 -10.213 -10.213 -10.213 -10.212 -10.212 -10.212 -10.212
-10.212 -10.212 -10.211 -10.211 -10.211 -10.211 -10.211 -10.211
-10.211 -10.211 -10.211 -10.210 -10.210 -10.210 -10.210 -10.210
-10.210 -10.210 -10.210 -10.210 -10.209 -10.209 -10.209 -10.209
-10.208 -10.208 -10.208 -10.208 -10.206 -10.206 -10.203 -10.203
-10.202 -10.201 -10.201 -10.201 -10.200 -10.200 -10.200 -10.199
-10.199 -10.197 -10.194 -10.190  -1.092  -1.092  -1.010  -0.995
 -0.983  -0.983  -0.965  -0.965  -0.964  -0.963  -0.962  -0.961
 -0.934  -0.934  -0.928  -0.927  -0.926  -0.924  -0.923  -0.922
 -0.922  -0.921  -0.898  -0.897  -0.891  -0.889  -0.885  -0.885
 -0.875  -0.874  -0.856  -0.852  -0.843  -0.840  -0.840  -0.839
 -0.837  -0.836  -0.825  -0.823  -0.812  -0.809  -0.801  -0.797
 -0.797  -0.796  -0.794  -0.794  -0.793  -0.790  -0.785  -0.783
 -0.772  -0.772  -0.772  -0.769  -0.768  -0.767  -0.766  -0.763
 -0.750  -0.748  -0.743  -0.742  -0.737  -0.735  -0.718  -0.716
 -0.715  -0.715  -0.712  -0.712  -0.711  -0.710  -0.709  -0.709
 -0.708  -0.707  -0.706  -0.705  -0.703  -0.703  -0.676  -0.674
 -0.660  -0.659  -0.657  -0.657  -0.651  -0.649  -0.635  -0.632
 -0.629  -0.628  -0.627  -0.626  -0.622  -0.621  -0.617  -0.617
 -0.616  -0.616  -0.615  -0.612  -0.612  -0.611  -0.610  -0.609
 -0.608  -0.607  -0.604  -0.602  -0.567  -0.566  -0.563  -0.563
 -0.561  -0.561  -0.560  -0.558  -0.556  -0.556  -0.555  -0.554
 -0.538  -0.536  -0.534  -0.531  -0.529  -0.528  -0.527  -0.524
 -0.523  -0.523  -0.522  -0.519  -0.516  -0.516  -0.515  -0.514
 -0.509  -0.506  -0.505  -0.502  -0.496  -0.491  -0.486  -0.485
 -0.485  -0.483  -0.482  -0.480  -0.480  -0.478  -0.476  -0.473
 -0.472  -0.471  -0.470  -0.470  -0.468  -0.467  -0.467  -0.466
 -0.465  -0.464  -0.464  -0.463  -0.463  -0.461  -0.459  -0.459
 -0.458  -0.456  -0.454  -0.453  -0.448  -0.447  -0.444  -0.443
 -0.441  -0.441  -0.440  -0.440  -0.438  -0.436  -0.435  -0.433
 -0.432  -0.430  -0.430  -0.429  -0.426  -0.426  -0.425  -0.424
 -0.423  -0.423  -0.421  -0.420  -0.420  -0.420  -0.419  -0.418
 -0.418  -0.417  -0.417  -0.416  -0.416  -0.415  -0.414  -0.413
 -0.413  -0.412  -0.411  -0.410  -0.406  -0.403  -0.401  -0.397
 -0.397  -0.394  -0.391  -0.391  -0.390  -0.389  -0.388  -0.384
 -0.381  -0.381  -0.375  -0.374  -0.373  -0.369  -0.368  -0.366
 -0.365  -0.364  -0.364  -0.363  -0.361  -0.361  -0.360  -0.359
 -0.358  -0.357  -0.357  -0.356  -0.354  -0.354  -0.353  -0.350
 -0.350  -0.350  -0.347  -0.346  -0.346  -0.346  -0.344  -0.344
 -0.343  -0.342  -0.341  -0.340  -0.339  -0.337  -0.337  -0.336
 -0.333  -0.332  -0.331  -0.330  -0.330  -0.328  -0.327  -0.326
 -0.309  -0.303  -0.296  -0.291  -0.291  -0.289  -0.273  -0.270
 -0.270  -0.269  -0.268  -0.267  -0.266  -0.265  -0.264  -0.263
 -0.261  -0.261  -0.260  -0.259  -0.259  -0.258  -0.255  -0.251
 -0.249  -0.248  -0.242  -0.242  -0.227  -0.225  -0.214  -0.213
 -0.211  -0.209  -0.207  -0.206  -0.199  -0.197
 -- Virtual --
 -0.125  -0.123  -0.122  -0.120  -0.109  -0.107  -0.080  -0.078
 -0.074  -0.073  -0.062  -0.060  -0.055  -0.054  -0.027  -0.025
 -0.021  -0.019  -0.018  -0.017  -0.016  -0.016  -0.014  -0.013
 -0.012  -0.012  -0.009  -0.008  -0.007  -0.005   0.001   0.004
  0.007   0.012   0.034   0.036   0.041   0.041   0.044   0.047
  0.048   0.051   0.051   0.058   0.061   0.063   0.064   0.064
  0.067   0.068   0.078   0.080   0.081   0.085   0.090   0.092
  0.094   0.096   0.099   0.100   0.102   0.103   0.105   0.107
  0.108   0.109   0.111   0.112   0.114   0.116   0.118   0.119
  0.120   0.122   0.124   0.128   0.129   0.130   0.131   0.133
  0.136   0.137   0.141   0.145   0.150   0.151   0.153   0.154
  0.156   0.158   0.160   0.160   0.162   0.167   0.169   0.169
  0.170   0.173   0.175   0.176   0.176   0.178   0.180   0.180
  0.183   0.183   0.184   0.185   0.190   0.190   0.190   0.191
  0.192   0.194   0.196   0.197   0.200   0.201   0.204   0.205
  0.207   0.209   0.209   0.213   0.214   0.217   0.218   0.218
  0.219   0.220   0.222   0.223   0.225   0.226   0.227   0.228
  0.231   0.232   0.232   0.232   0.234   0.235   0.238   0.241
  0.241   0.242   0.244   0.245   0.253   0.254   0.257   0.260
  0.260   0.265   0.266   0.271   0.274   0.276   0.278   0.279
  0.284   0.284   0.286   0.288   0.294   0.295   0.302   0.306
  0.308   0.308   0.308   0.312   0.313   0.315   0.317   0.321
  0.321   0.323   0.323   0.325   0.327   0.331   0.331   0.334
  0.336   0.337   0.342   0.342   0.345   0.347   0.348   0.349
  0.351   0.352   0.358   0.360   0.365   0.372   0.384   0.390
  0.395   0.398   0.398   0.400   0.401   0.402   0.405   0.407
  0.408   0.412   0.415   0.416   0.416   0.418   0.422   0.424
  0.426   0.429   0.432   0.432   0.436   0.440   0.440   0.444
  0.447   0.447   0.453   0.454   0.461   0.462   0.465   0.466
  0.468   0.468   0.470   0.471   0.471   0.473   0.474   0.478
  0.479   0.479   0.480   0.481   0.481   0.483   0.485   0.486
  0.488   0.488   0.489   0.490   0.491   0.493   0.494   0.496
  0.496   0.498   0.498   0.499   0.501   0.501   0.504   0.505
  0.505   0.506   0.508   0.508   0.509   0.511   0.511   0.512
  0.512   0.514   0.514   0.515   0.516   0.517   0.517   0.519
  0.519   0.521   0.522   0.523   0.524   0.525   0.525   0.526
  0.527   0.527   0.528   0.529   0.529   0.529   0.531   0.531
  0.533   0.534   0.534   0.535   0.537   0.537   0.538   0.538
  0.539   0.540   0.541   0.541   0.542   0.542   0.543   0.544
  0.544   0.545   0.546   0.547   0.547   0.549   0.549   0.551
  0.551   0.552   0.552   0.553   0.554   0.554   0.555   0.555
  0.556   0.557   0.558   0.558   0.559   0.561   0.561   0.561
  0.562   0.563   0.564   0.565   0.565   0.566   0.567   0.569
  0.570   0.571   0.572   0.574   0.575   0.575   0.576   0.576
  0.578   0.580   0.580   0.581   0.582   0.582   0.583   0.584
  0.584   0.585   0.586   0.586   0.588   0.588   0.589   0.591
  0.592   0.593   0.594   0.595   0.596   0.596   0.598   0.598
  0.599   0.600   0.601   0.603   0.604   0.604   0.606   0.607
  0.608   0.609   0.610   0.612   0.613   0.614   0.616   0.616
  0.617   0.618   0.620   0.620   0.621   0.622   0.624   0.625
  0.628   0.629   0.630   0.630   0.631   0.631   0.632   0.632
  0.634   0.635   0.636   0.636   0.638   0.639   0.639   0.640
  0.641   0.642   0.643   0.645   0.646   0.647   0.648   0.649
  0.649   0.650   0.651   0.653   0.653   0.654   0.655   0.656
  0.658   0.659   0.659   0.660   0.661   0.661   0.662   0.662
  0.663   0.664   0.665   0.665   0.666   0.667   0.668   0.668
  0.669   0.669   0.671   0.671   0.672   0.674   0.675   0.675
  0.676   0.678   0.679   0.681   0.683   0.684   0.684   0.686
  0.687   0.688   0.690   0.691   0.692   0.694   0.695   0.696
  0.696   0.697   0.700   0.700   0.701   0.702   0.702   0.704
  0.706   0.707   0.708   0.709   0.710   0.711   0.713   0.714
  0.715   0.716   0.717   0.719   0.720   0.721   0.724   0.726
  0.726   0.727   0.727   0.729   0.729   0.730   0.731   0.731
  0.733   0.734   0.735   0.736   0.738   0.739   0.742   0.744
  0.746   0.747   0.748   0.751   0.751   0.752   0.753   0.754
  0.755   0.757   0.759   0.761   0.761   0.763   0.764   0.764
  0.766   0.768   0.769   0.770   0.770   0.773   0.774   0.774
  0.775   0.778   0.779   0.780   0.780   0.783   0.783   0.785
  0.785   0.787   0.788   0.791   0.791   0.792   0.795   0.795
  0.797   0.797   0.799   0.800   0.801   0.802   0.803   0.804
  0.804   0.805   0.806   0.807   0.807   0.809   0.809   0.810
  0.812   0.812   0.813   0.814   0.815   0.815   0.817   0.818
  0.819   0.819   0.819   0.820   0.820   0.821   0.822   0.823
  0.823   0.824   0.826   0.826   0.827   0.829   0.830   0.831
  0.833   0.834   0.835   0.836   0.840   0.841   0.842   0.844
  0.845   0.848   0.850   0.851   0.853   0.854   0.859   0.860
  0.866   0.870   0.873   0.875   0.877   0.883   0.884   0.888
  0.889   0.892   0.893   0.895   0.899   0.901   0.905   0.908
  0.909   0.913   0.914   0.916   0.917   0.921   0.921   0.924
  0.925   0.927   0.928   0.930   0.931   0.933   0.935   0.937
  0.938   0.940   0.942   0.943   0.944   0.945   0.947   0.948
  0.952   0.953   0.955   0.957   0.959   0.962   0.963   0.967
  0.974   0.976   0.980   0.982   0.983   0.985   0.988   0.990
  0.990   0.995   0.997   0.999   1.002   1.003   1.004   1.005
  1.007   1.008   1.011   1.013   1.014   1.015   1.017   1.018
  1.021   1.022   1.023   1.026   1.028   1.029   1.030   1.031
  1.033   1.035   1.035   1.036   1.038   1.041   1.041   1.042
  1.048   1.049   1.050   1.051   1.053   1.053   1.055   1.056
  1.057   1.061   1.062   1.065   1.067   1.067   1.069   1.070
  1.072   1.073   1.074   1.076   1.078   1.080   1.082   1.083
  1.084   1.085   1.088   1.089   1.091   1.092   1.093   1.094
  1.096   1.099   1.100   1.101   1.102   1.104   1.107   1.108
  1.110   1.111   1.114   1.118   1.120   1.121   1.123   1.123
  1.126   1.127   1.130   1.131   1.135   1.139   1.142   1.143
  1.146   1.147   1.149   1.151   1.152   1.154   1.156   1.158
  1.158   1.161   1.162   1.164   1.165   1.165   1.168   1.169
  1.170   1.172   1.174   1.177   1.178   1.179   1.180   1.182
  1.184   1.187   1.188   1.190   1.191   1.193   1.195   1.197
  1.200   1.201   1.204   1.204   1.205   1.210   1.213   1.216
  1.223   1.223   1.226   1.228   1.232   1.236   1.239   1.243
  1.244   1.246   1.248   1.251   1.252   1.254   1.256   1.258
  1.259   1.262   1.264   1.265   1.267   1.269   1.271   1.274
  1.275   1.277   1.279   1.281   1.283   1.284   1.286   1.287
  1.289   1.290   1.296   1.298   1.300   1.302   1.303   1.305
  1.308   1.309   1.313   1.315   1.317   1.319   1.323   1.326
  1.327   1.329   1.332   1.335   1.336   1.339   1.341   1.347
  1.349   1.350   1.351   1.353   1.355   1.357   1.360   1.360
  1.361   1.364   1.365   1.368   1.372   1.375   1.377   1.378
  1.380   1.383   1.386   1.387   1.389   1.396   1.396   1.399
  1.401   1.404   1.405   1.409   1.412   1.414   1.419   1.422
  1.427   1.429   1.431   1.434   1.440   1.442   1.443   1.446
  1.447   1.448   1.453   1.456   1.458   1.459   1.460   1.462
  1.464   1.466   1.469   1.470   1.472   1.475   1.476   1.478
  1.480   1.482   1.483   1.485   1.486   1.488   1.491   1.497
  1.499   1.501   1.502   1.504   1.505   1.509   1.514   1.516
  1.517   1.526   1.528   1.530   1.534   1.536   1.536   1.540
  1.543   1.544   1.544   1.548   1.550   1.554   1.554   1.556
  1.559   1.561   1.562   1.564   1.565   1.567   1.568   1.571
  1.573   1.574   1.576   1.578   1.581   1.586   1.587   1.591
  1.591   1.594   1.598   1.599   1.604   1.608   1.611   1.616
  1.619   1.624   1.627   1.633   1.633   1.638   1.641   1.643
  1.650   1.652   1.656   1.657   1.660   1.663   1.667   1.669
  1.673   1.674   1.681   1.684   1.688   1.692   1.694   1.695
  1.698   1.700   1.702   1.705   1.708   1.711   1.712   1.714
  1.715   1.718   1.721   1.724   1.725   1.726   1.727   1.729
  1.731   1.734   1.737   1.738   1.741   1.743   1.746   1.746
  1.747   1.749   1.749   1.750   1.752   1.754   1.755   1.755
  1.759   1.762   1.763   1.763   1.765   1.766   1.768   1.769
  1.770   1.771   1.773   1.774   1.775   1.776   1.777   1.778
  1.779   1.781   1.782   1.782   1.783   1.785   1.786   1.787
  1.787   1.789   1.790   1.792   1.793   1.793   1.794   1.796
  1.799   1.801   1.802   1.803   1.804   1.806   1.807   1.808
  1.810   1.811   1.812   1.815   1.817   1.819   1.820   1.821
  1.822   1.825   1.826   1.830   1.832   1.837   1.838   1.843
  1.844   1.847   1.848   1.850   1.851   1.852   1.853   1.854
  1.855   1.859   1.859   1.862   1.864   1.867   1.868   1.868
  1.869   1.872   1.874   1.876   1.877   1.878   1.880   1.882
  1.883   1.885   1.886   1.890   1.892   1.894   1.899   1.901
  1.903   1.905   1.907   1.908   1.913   1.915   1.916   1.917
  1.921   1.923   1.924   1.927   1.928   1.930   1.932   1.934
  1.936   1.937   1.939   1.942   1.944   1.948   1.949   1.952
  1.954   1.957   1.958   1.961   1.961   1.966   1.966   1.969
  1.970   1.972   1.974   1.975   1.975   1.978   1.980   1.984
  1.985   1.987   1.989   1.991   1.993   1.994   1.994   1.996
  1.998   1.999   2.000   2.000   2.002   2.003   2.005   2.006
  2.006   2.007   2.009   2.010   2.011   2.012   2.013   2.013
  2.015   2.016   2.017   2.017   2.019   2.020   2.021   2.023
  2.024   2.025   2.026   2.028   2.029   2.031   2.031   2.033
  2.034   2.035   2.038   2.038   2.041   2.041   2.042   2.044
  2.045   2.047   2.048   2.049   2.050   2.051   2.055   2.055
  2.056   2.057   2.058   2.058   2.060   2.060   2.061   2.063
  2.065   2.066   2.067   2.068   2.070   2.071   2.072   2.073
  2.074   2.077   2.078   2.081   2.082   2.084   2.085   2.086
  2.087   2.091   2.091   2.094   2.095   2.098   2.099   2.102
  2.103   2.104   2.107   2.108   2.111   2.112   2.115   2.119
  2.120   2.121   2.125   2.129   2.131   2.132   2.135   2.138
  2.139   2.143   2.148   2.150   2.154   2.156   2.163   2.166
  2.168   2.169   2.179   2.181   2.186   2.188   2.191   2.194
  2.202   2.205   2.209   2.210   2.214   2.217   2.220   2.224
  2.228   2.230   2.230   2.235   2.238   2.241   2.243   2.247
  2.248   2.250   2.251   2.253   2.255   2.258   2.260   2.264
  2.265   2.266   2.271   2.272   2.277   2.280   2.281   2.282
  2.284   2.287   2.288   2.289   2.293   2.298   2.298   2.302
  2.305   2.307   2.308   2.312   2.314   2.316   2.318   2.319
  2.321   2.323   2.323   2.324   2.328   2.331   2.334   2.336
  2.339   2.340   2.343   2.343   2.344   2.347   2.352   2.356
  2.357   2.358   2.360   2.363   2.365   2.366   2.367   2.368
  2.369   2.371   2.371   2.373   2.377   2.377   2.378   2.381
  2.383   2.384   2.388   2.389   2.390   2.391   2.393   2.396
  2.396   2.399   2.400   2.401   2.403   2.404   2.407   2.408
  2.409   2.410   2.412   2.417   2.417   2.419   2.420   2.421
  2.424   2.428   2.429   2.432   2.432   2.437   2.438   2.440
  2.442   2.444   2.445   2.448   2.450   2.454   2.455   2.459
  2.461   2.463   2.466   2.468   2.468   2.472   2.475   2.476
  2.477   2.479   2.481   2.484   2.485   2.486   2.489   2.493
  2.493   2.494   2.497   2.499   2.502   2.503   2.505   2.506
  2.507   2.508   2.510   2.512   2.515   2.517   2.518   2.520
  2.521   2.524   2.526   2.527   2.530   2.532   2.533   2.535
  2.537   2.543   2.547   2.547   2.551   2.553   2.554   2.558
  2.565   2.566   2.569   2.574   2.575   2.577   2.583   2.585
  2.586   2.594   2.594   2.595   2.596   2.599   2.600   2.605
  2.606   2.608   2.609   2.610   2.612   2.613   2.615   2.617
  2.618   2.619   2.623   2.625   2.626   2.628   2.630   2.631
  2.634   2.635   2.635   2.636   2.638   2.640   2.643   2.644
  2.646   2.647   2.649   2.650   2.653   2.654   2.655   2.656
  2.658   2.661   2.662   2.664   2.666   2.667   2.670   2.672
  2.674   2.676   2.676   2.677   2.678   2.682   2.682   2.684
  2.687   2.687   2.688   2.693   2.694   2.696   2.698   2.702
  2.703   2.705   2.712   2.713   2.715   2.719   2.720   2.724
  2.725   2.728   2.731   2.732   2.734   2.735   2.740   2.742
  2.744   2.747   2.748   2.751   2.753   2.755   2.757   2.757
  2.760   2.761   2.763   2.764   2.768   2.771   2.772   2.775
  2.775   2.779   2.780   2.783   2.786   2.789   2.794   2.797
  2.799   2.802   2.804   2.805   2.806   2.810   2.810   2.812
  2.820   2.822   2.823   2.831   2.836   2.838   2.839   2.840
  2.841   2.844   2.846   2.848   2.851   2.854   2.856   2.859
  2.860   2.863   2.866   2.867   2.872   2.873   2.875   2.877
  2.878   2.879   2.881   2.885   2.887   2.888   2.889   2.891
  2.892   2.895   2.897   2.897   2.898   2.900   2.902   2.903
  2.904   2.907   2.908   2.910   2.911   2.915   2.917   2.919
  2.919   2.921   2.922   2.924   2.927   2.930   2.932   2.934
  2.936   2.938   2.940   2.944   2.947   2.950   2.952   2.954
  2.958   2.962   2.963   2.969   2.972   2.975   2.977   2.979
  2.980   2.981   2.981   2.984   2.991   2.992   2.998   2.999
  3.003   3.005   3.007   3.012   3.015   3.016   3.017   3.019
  3.023   3.027   3.028   3.029   3.035   3.036   3.039   3.042
  3.043   3.050   3.051   3.053   3.055   3.056   3.059   3.063
  3.065   3.068   3.070   3.076   3.078   3.082   3.092   3.096
  3.103   3.112   3.116   3.130   3.131   3.137   3.139   3.146
  3.153   3.157   3.161   3.166   3.178   3.182   3.184   3.185
  3.186   3.189   3.192   3.197   3.215   3.223   3.225   3.231
  3.237   3.240   3.247   3.255   3.268   3.274   3.276   3.285
  3.287   3.306   3.311   3.317   3.319   3.322   3.325   3.326
  3.336   3.337   3.346   3.351   3.354   3.365   3.371   3.397
  3.402   3.408   3.410   3.411   3.425   3.438   3.439   3.443
  3.445   3.455   3.455   3.457   3.464   3.466   3.476   3.485
  3.487   3.494   3.505   3.509   3.523   3.525   3.540   3.543
  3.551   3.552   3.561   3.566   3.566   3.574   3.582   3.603
  3.607   3.612   3.681   3.683   3.856   3.874   4.002   4.013
  4.066   4.069   4.080   4.084   4.088   4.090   4.090   4.093
  4.096   4.098   4.100   4.102   4.107   4.108   4.112   4.119
  4.123   4.125   4.128   4.133   4.136   4.143   4.145   4.148
  4.151   4.154   4.158   4.163   4.165   4.170   4.174   4.175
  4.181   4.184   4.184   4.196   4.215   4.220   4.234   4.236
  4.240   4.241   4.247   4.253   4.255   4.256   4.259   4.264
  4.265   4.268   4.279   4.282   4.286   4.288   4.291   4.293
  4.301   4.313   4.317   4.334   4.376   4.381   4.387   4.390
  4.394   4.396   4.397   4.402   4.406   4.409   4.411   4.415
  4.420   4.421   4.425   4.427   4.429   4.431   4.465   4.475
  4.479   4.487   4.502   4.523   4.529   4.532   4.541   4.549
  4.553   4.555   4.607   4.614   4.622   4.624   4.630   4.634
  4.637   4.639   4.683   4.686   4.688   4.693   4.695   4.700
  4.702   4.703   4.706   4.708   4.758   4.774   4.792   4.824
  4.845   4.853   4.857   4.862   4.865   4.870   4.876   4.886
  4.899   4.900   4.951   4.957   4.963   4.971   4.975   4.978
  4.980   4.984   4.997   5.001   5.157   5.166   5.181   5.186
  5.188   5.194   5.208   5.210   5.303   5.325   5.334   5.337
  5.357   5.365
 --------------------------------------------------------------
 
          Ground-State Mulliken Net Atomic Charges

     Atom                 Charge (a.u.)
  ----------------------------------------
      1 O                    -0.472377
      2 C                    -0.082040
      3 H                     0.122869
      4 H                     0.119196
      5 H                     0.125195
      6 O                    -0.461260
      7 C                     0.581655
      8 C                    -0.253312
      9 H                     0.126917
     10 H                     0.138915
     11 C                    -0.183958
     12 H                     0.109789
     13 H                     0.140101
     14 C                    -0.182979
     15 H                     0.107933
     16 H                     0.107225
     17 C                     0.004395
     18 C                     0.086048
     19 C                    -0.104968
     20 H                     0.104821
     21 C                    -0.093751
     22 H                     0.098892
     23 C                    -0.083461
     24 H                     0.090891
     25 C                    -0.090424
     26 H                     0.089031
     27 C                    -0.101324
     28 H                     0.094297
     29 C                     0.037123
     30 C                    -0.013286
     31 C                     0.025755
     32 C                    -0.019890
     33 C                    -0.006076
     34 C                    -0.022673
     35 C                     0.020371
     36 C                    -0.029669
     37 C                    -0.001308
     38 C                    -0.017344
     39 C                    -0.098890
     40 C                     0.006753
     41 C                     0.003260
     42 C                     0.006262
     43 C                     0.027182
     44 C                     0.003702
     45 C                    -0.106262
     46 C                     0.049283
     47 C                    -0.006507
     48 C                     0.007210
     49 C                     0.011873
     50 C                    -0.017009
     51 C                    -0.000106
     52 C                    -0.000241
     53 C                     0.020088
     54 C                     0.027147
     55 C                     0.001273
     56 C                     0.008600
     57 C                    -0.010840
     58 C                     0.022495
     59 C                     0.019339
     60 C                     0.047704
     61 C                    -0.039841
     62 C                    -0.016822
     63 C                    -0.009095
     64 C                    -0.003239
     65 C                    -0.004239
     66 C                     0.004790
     67 C                     0.011514
     68 C                    -0.008401
     69 C                     0.002744
     70 C                     0.045144
     71 C                     0.004262
     72 C                    -0.018464
     73 C                     0.002143
     74 C                     0.014709
     75 C                     0.000974
     76 C                    -0.015287
     77 C                    -0.035696
     78 C                    -0.005478
     79 C                     0.000810
     80 C                    -0.024275
     81 C                     0.006809
     82 C                     0.004528
     83 C                    -0.020222
     84 C                    -0.000882
     85 C                    -0.035027
     86 C                     0.002609
     87 C                    -0.008493
     88 C                     0.010358
     89 O                    -0.463954
     90 C                    -0.085287
     91 H                     0.125625
     92 H                     0.140619
     93 H                     0.124206
     94 O                    -0.480780
     95 C                     0.573457
     96 C                    -0.240327
     97 H                     0.131430
     98 H                     0.134074
     99 C                    -0.200936
    100 H                     0.117425
    101 H                     0.126671
    102 C                    -0.167211
    103 H                     0.128463
    104 H                     0.115753
    105 C                    -0.016429
    106 C                     0.103020
    107 C                    -0.117061
    108 H                     0.088656
    109 C                    -0.100339
    110 H                     0.093786
    111 C                    -0.061098
    112 H                     0.090900
    113 C                    -0.090716
    114 H                     0.085602
    115 C                    -0.118634
    116 H                     0.086297
    117 C                     0.014472
    118 C                     0.021335
    119 C                    -0.010216
    120 C                     0.037066
    121 C                     0.009209
    122 C                    -0.033475
    123 C                    -0.023242
    124 C                    -0.010677
    125 C                     0.005467
    126 C                    -0.027741
    127 C                    -0.095831
    128 C                    -0.004906
    129 C                    -0.008999
    130 C                     0.016871
    131 C                    -0.005743
    132 C                    -0.007509
    133 C                    -0.065691
    134 C                     0.004495
    135 C                    -0.006212
    136 C                    -0.015958
    137 C                    -0.027670
    138 C                     0.012264
    139 C                    -0.051930
    140 C                     0.003279
    141 C                     0.024248
    142 C                    -0.009500
    143 C                     0.005860
    144 C                    -0.004604
    145 C                     0.020130
    146 C                    -0.018203
    147 C                     0.017026
    148 C                     0.019491
    149 C                    -0.006545
    150 C                    -0.044383
    151 C                     0.013166
    152 C                     0.011755
    153 C                    -0.025079
    154 C                    -0.037199
    155 C                    -0.023890
    156 C                    -0.018322
    157 C                     0.002250
    158 C                     0.048486
    159 C                    -0.002694
    160 C                     0.034964
    161 C                    -0.009769
    162 C                     0.003151
    163 C                     0.006128
    164 C                     0.024380
    165 C                     0.021949
    166 C                     0.000968
    167 C                     0.009038
    168 C                     0.007967
    169 C                     0.004988
    170 C                    -0.014757
    171 C                     0.017696
    172 C                     0.015881
    173 C                     0.036083
    174 C                     0.003122
    175 C                    -0.013621
    176 C                     0.028408
  ----------------------------------------
  Sum of atomic charges =     0.000000

 -----------------------------------------------------------------
                    Cartesian Multipole Moments
 -----------------------------------------------------------------
    Charge (ESU x 10^10)
                 0.0000
    Dipole Moment (Debye)
         X       2.5563      Y      -2.2628      Z       2.3202
       Tot       4.1278
    Quadrupole Moments (Debye-Ang)
        XX    -825.5975     XY      13.9854     YY    -791.2080
        XZ      -8.4146     YZ     -20.3469     ZZ    -793.3835
    Octopole Moments (Debye-Ang^2)
       XXX     662.2128    XXY     -12.5397    XYY     -75.6304
       YYY     -73.4666    XXZ     108.9537    XYZ     -14.5703
       YYZ      56.4677    XZZ     -80.6727    YZZ    -118.6995
       ZZZ     269.2950
    Hexadecapole Moments (Debye-Ang^3)
      XXXX -164386.3017   XXXY    2513.4300   XXYY  -32199.5067
      XYYY    3858.4197   YYYY  -42737.4405   XXXZ    -773.8104
      XXYZ   -1755.0209   XYYZ   -1219.2797   YYYZ    -984.7204
      XXZZ  -30604.9755   XYZZ     830.5186   YYZZ  -11861.9526
      XZZZ    -138.1004   YZZZ    -539.2137   ZZZZ  -27651.5665
 -----------------------------------------------------------------
Archival summary:
1\1\mn366\SP\ProcedureUnspecified\6-31G**\428\afmv_a\MonOct802:30:392018MonOct802:30:392018\0\\#,ProcedureUnspecified,6-31G**,\\0,1\C\C,1,1.39009\C,2,1.40568,1,119.354\C,3,1.393,2,108.846,1,142.399,0\C,4,1.40366,3,106.786,2,5.49064,0\C,5,1.38737,4,109.718,3,-7.20764,0\C,6,1.38295,5,123.901,4,-135.827,0\C,7,1.38751,6,120.424,5,133.4,0\C,8,1.3875,7,122.327,6,6.49569,0\C,9,1.39943,8,116.99,7,-145.289,0\C,10,1.40243,9,103.692,8,146.297,0\C,11,1.39659,10,108.8,9,-3.93569,0\C,8,1.40469,7,109.088,6,-143.184,0\C,13,1.39363,8,109.004,7,2.16098,0\C,14,1.40607,13,121.111,8,139.317,0\C,15,1.38666,14,123.648,13,-134.913,0\C,16,1.38178,15,107.85,14,142.567,0\C,17,1.40152,16,117.971,15,-136.482,0\C,18,1.38403,17,123.48,16,133.051,0\C,19,1.37792,18,119.064,17,8.06803,0\C,20,1.35391,19,121.659,18,-12.0316,0\C,21,1.3725,20,112.024,19,-133.859,0\C,22,1.39326,21,120.568,20,142.178,0\C,19,1.39641,18,113.429,17,-146.424,0\C,24,1.39089,19,105.505,18,2.03745,0\C,25,1.3767,24,117.257,19,143.305,0\C,24,1.39279,19,121.453,18,151.102,0\C,27,1.38724,24,117.228,19,-135.674,0\C,26,1.40111,25,115.682,24,-138.646,0\C,29,1.40488,26,123.128,25,-2.31051,0\C,30,1.38361,29,116.402,26,133.374,0\C,31,1.39315,30,109.765,29,-141.242,0\C,32,1.38945,31,122.522,30,150.016,0\C,4,1.40661,3,121.38,2,-144.386,0\C,13,1.40738,8,122.132,7,146.738,0\C,35,1.37044,13,120.637,8,-139.31,0\C,36,1.36397,35,120.942,13,-1.14626,0\C,30,1.40797,29,121.604,26,3.98276,0\C,38,1.36543,30,112.33,29,138.473,0\C,38,1.38237,30,116.457,29,-3.68685,0\C,27,1.40949,24,116.538,19,-6.18787,0\C,41,1.40376,27,107.584,24,-135.83,0\C,42,1.38162,41,109.425,27,3.95194,0\C,23,1.4159,22,116.426,21,-140.159,0\C,44,1.39648,23,106.214,22,142.933,0\C,43,1.41737,42,124.994,41,149.873,0\C,46,1.41049,43,112.796,42,-12.1039,0\C,47,1.35578,46,122.85,43,9.77002,0\C,48,1.41107,47,123.317,46,0.34727,0\C,49,1.37786,48,109.147,47,-144.17,0\C,50,1.36349,49,108.89,48,-5.16607,0\C,51,1.40067,50,108.333,49,2.57527,0\C,50,1.4083,49,122.141,48,137.449,0\C,53,1.38242,50,119.567,49,-2.10188,0\C,17,1.4194,16,108.119,15,-0.9973,0\C,47,1.42138,46,109.573,43,-135.399,0\C,56,1.38129,47,108.219,46,2.0156,0\C,26,1.42378,25,122.569,24,6.76674,0\C,46,1.43379,43,120.848,42,-145.177,0\C,58,1.48356,26,106.412,25,-144.626,0\C,60,1.51507,58,121.825,26,-149.099,0\C,61,1.4869,60,119.62,58,147.221,0\C,62,1.39033,61,121.274,60,-60.6169,0\H,63,1.08563,62,113.453,61,10.1028,0\C,62,1.42447,61,122.293,60,124.209,0\H,65,1.0864,62,116.53,61,-7.04743,0\C,65,1.41972,62,120.97,61,-178.282,0\H,67,1.08595,65,122.013,62,-174.196,0\C,67,1.38125,65,120.545,62,-2.24185,0\H,69,1.08531,67,125.59,65,-177.692,0\C,69,1.33936,67,118.708,65,-6.46546,0\H,71,1.08654,69,119.535,67,-175.745,0\C,61,1.57142,60,121.053,58,-2.06772,0\H,73,1.09689,61,99.1657,60,-179.214,0\H,73,1.09692,61,101.693,60,-51.867,0\C,73,1.55708,61,109.321,60,68.8735,0\H,76,1.09659,73,117.327,61,79.3112,0\H,76,1.09687,73,112.1,61,-37.7217,0\C,76,1.53106,73,109.901,61,-161.325,0\H,79,1.09619,76,111.95,73,-46.6895,0\H,79,1.09773,76,108.555,73,63.722,0\C,79,1.48556,76,113.499,73,-172.535,0\O,82,1.22172,79,129.634,76,-114.404,0\O,82,1.34813,79,112.147,76,74.5807,0\C,84,1.46696,82,121.377,79,-169.851,0\H,85,1.0965,84,106.984,82,-167.34,0\H,85,1.09702,84,111.824,82,69.2344,0\H,85,1.09748,84,111.28,82,-47.0802,0\C,12,3.29343,11,108.342,10,88.7834,0\C,89,1.40464,12,95.8351,11,-39.0649,0\C,90,1.38663,89,123.265,12,111.945,0\C,91,1.39559,90,111.796,89,142.584,0\C,92,1.37541,91,105.645,90,-4.39705,0\C,91,1.39895,90,116.156,89,-3.42434,0\C,94,1.38619,91,118.109,90,141.958,0\C,92,1.40274,91,121.537,90,-140.008,0\C,96,1.40056,92,124.639,91,134.09,0\C,97,1.40253,96,109.766,92,-142.398,0\C,98,1.3983,97,120.561,96,141.64,0\C,99,1.40205,98,120.364,97,-136.828,0\C,100,1.39657,99,120.782,98,-0.638144,0\C,101,1.37042,100,118.923,99,2.85685,0\C,102,1.39376,101,122.277,100,-2.3,0\C,103,1.39905,102,123.148,101,140.835,0\C,95,1.40502,94,108.685,91,-145.569,0\C,105,1.38369,95,119.577,94,139.923,0\C,89,1.40642,12,105.345,11,-163.105,0\C,107,1.40089,89,120.826,12,107.164,0\C,108,1.40108,107,118.993,89,140.697,0\C,109,1.37699,108,119.491,107,-6.09446,0\C,110,1.38032,109,122.522,108,-134.135,0\C,111,1.38629,110,109.454,109,143.382,0\C,112,1.36535,111,109.052,110,6.256,0\C,112,1.39916,111,120.725,110,-137.458,0\C,114,1.39284,112,125.022,111,144.212,0\C,115,1.3814,114,116.129,112,-8.98554,0\C,116,1.35823,115,118.979,114,-134.684,0\C,116,1.40238,115,120.016,114,6.56795,0\C,110,1.40492,109,121.371,108,7.52524,0\C,107,1.40581,89,105.432,12,-108.426,0\C,90,1.40757,89,116.809,12,-114.597,0\C,121,1.38901,90,124.465,89,4.1765,0\C,122,1.3738,121,122.783,90,-137.774,0\C,123,1.37966,122,110.719,121,140.271,0\C,94,1.4099,91,122.524,90,2.95634,0\C,125,1.38335,94,120.159,91,-1.87141,0\C,126,1.37543,125,122.974,94,142.933,0\C,125,1.39186,94,108.76,91,147.835,0\C,124,1.4103,123,119.343,122,-141.971,0\C,129,1.3775,124,118.044,123,130.159,0\C,128,1.41106,125,114.014,94,-139.57,0\C,131,1.40318,128,124.181,125,-11.1719,0\C,101,1.41857,100,123.486,99,139.093,0\C,133,1.40498,101,110.107,100,-140.105,0\C,133,1.41467,101,119.445,100,0.543606,0\C,114,1.42409,112,119.913,111,-6.9435,0\C,136,1.36178,114,107.994,112,153.582,0\C,136,1.38124,114,121.057,112,8.45918,0\C,138,1.39873,136,123.04,114,140.925,0\C,139,1.41352,138,117.647,136,-5.3825,0\C,140,1.40208,139,119.64,138,-130.784,0\C,141,1.39083,140,120.07,139,-2.67492,0\C,142,1.39627,141,119.425,140,135.181,0\C,143,1.36242,142,112.544,141,-139.158,0\C,140,1.41112,139,119.332,138,4.73062,0\C,123,1.42855,122,120.488,121,-8.62047,0\C,142,1.49744,141,123.167,140,-6.32268,0\C,147,1.44948,142,117.483,141,9.87306,0\C,148,1.53581,147,63.6729,142,-119.713,0\C,149,1.48013,148,119.515,147,-111.549,0\C,150,1.38605,149,115.903,148,-63.7328,0\H,151,1.08595,150,121.217,149,-7.0248,0\C,151,1.40356,150,118.947,149,169.918,0\H,153,1.0862,151,121.327,150,-173.075,0\C,153,1.40471,151,121.175,150,0.347359,0\H,155,1.08584,153,119.459,151,-179.836,0\C,150,1.41465,149,122.547,148,109.969,0\H,157,1.08637,150,124.013,149,9.72219,0\C,157,1.40717,150,120.167,149,-168.99,0\H,159,1.08613,157,123.052,150,169.921,0\C,149,1.56175,148,119.06,147,104.961,0\H,161,1.09702,149,109.431,148,-34.8287,0\H,161,1.09712,149,104.114,148,84.3781,0\C,161,1.5276,149,111.213,148,-156.168,0\H,164,1.09654,161,107.434,149,-169.415,0\H,164,1.09699,161,111.298,149,-55.2621,0\C,164,1.53419,161,110.015,149,72.162,0\H,167,1.09682,164,120.301,161,48.4804,0\H,167,1.09778,164,108.325,161,-60.488,0\C,167,1.48183,164,114.636,161,-173.266,0\O,170,1.19819,167,125.307,164,47.0026,0\O,170,1.37396,167,113.243,164,-127.564,0\C,172,1.44563,170,119.033,167,-165.296,0\H,173,1.0969,172,111.181,170,171.967,0\H,173,1.09691,172,110.491,170,53.0177,0\H,173,1.09722,172,115.172,170,-73.5665,0\\\@

 Total job time:  840.81s(wall), 7144.76s(cpu) 
 Mon Oct  8 02:30:39 2018

        *************************************************************
        *                                                           *
        *  Thank you very much for using Q-Chem.  Have a nice day.  *
        *                                                           *
        *************************************************************


