
Running Job 1 of 1 ./10/32.qcin
qchem ./10/32.qcin_22794.0 /tmpu/cab_g/afmv_a/scratch_qchem/qchem22794/ 1
/tmpu/appuserlic/qchem4.4/serial-multicore/exe/qcprog.exe_s ./10/32.qcin_22794.0 /tmpu/cab_g/afmv_a/scratch_qchem/qchem22794/
Check license passed

                  Welcome to Q-Chem
     A Quantum Leap Into The Future Of Chemistry


 Q-Chem 4.4, Q-Chem, Inc., Pleasanton, CA (2016)

 Y. Shao,  Z. Gan,  E. Epifanovsky,  A. T. B. Gilbert,  M. Wormit,  
 J. Kussmann,  A. W. Lange,  A. Behn,  J. Deng,  X. Feng,  D. Ghosh,  
 M. Goldey,  P. R. Horn,  L. D. Jacobson,  I. Kaliman,  F. Rob,  
 R. Z. Khaliullin,  T. Kus,  A. Landau,  J. Liu,  E. I. Proynov,  Y. M. Rhee,  
 R. M. Richard,  M. A. Rohrdanz,  R. P. Steele,  E. J. Sundstrom,  
 H. L. Woodcock III,  P. M. Zimmerman,  D. Zuev,  B. Albrecht,  E. Alguire,  
 B. Austin,  S. A. Baeppler,  G. J. O. Beran,  Y. A. Bernard,  E. Berquist,  
 K. Brandhorst,  K. B. Bravaya,  S. T. Brown,  D. Casanova,  C.-M. Chang,  
 Y. Chen,  S. H. Chien,  K. D. Closser,  M. P. Coons,  D. L. Crittenden,  
 S. Dasgupta,  M. Diedenhofen,  R. A. DiStasio Jr.,  H. Do,  A. D. Dutoi,  
 R. G. Edgar,  P.-T. Fang,  S. Fatehi,  Q. Feng,  L. Fusti-Molnar,  
 A. Ghysels,  A. Golubeva-Zadorozhnaya,  J. Gomes,  A. Gunina,  
 M. W. D. Hanson-Heine,  P. H. P. Harbach,  A. W. Hauser,  J. E. Herr,  
 E. G. Hohenstein,  Z. C. Holden,  K. Hui,  T.-C. Jagau,  H. Ji,  B. Kaduk,  
 K. Khistyaev,  Jaehoon Kim,  Jihan Kim,  R. A. King,  P. Klunzinger,  
 K. Koh,  D. Kosenkov,  T. Kowalczyk,  C. M. Krauter,  A. Kunitsa,  
 K. U. Lao,  A. Laurent,  K. V. Lawler,  J. Lee,  D. Lefrancois,  S. Lehtola,  
 S. V. Levchenko,  C. Y. Lin,  Y.-S. Lin,  F. Liu,  E. Livshits,  
 R. C. Lochan,  A. Luenser,  P. Manohar,  S. F. Manzer,  S.-P. Mao,  Y. Mao,  
 N. Mardirossian,  A. V. Marenich,  L. A. Martinez-Martinez,  S. A. Maurer,  
 N. J. Mayhall,  J.-M. Mewes,  A. F. Morrison,  K. Nanda,  T. S. Nguyen-Beck,  
 C. M. Oana,  R. Olivares-Amaya,  D. P. O'Neill,  J. A. Parkhill,  
 T. M. Perrine,  R. Peverati,  P. A. Pieniazek,  F. Plasser,  A. Prociuk,  
 D. R. Rehn,  E. Rosta,  N. J. Russ,  N. Sergueev,  S. M. Sharada,  
 S. Sharma,  D. W. Small,  A. Sodt,  T. Stauch,  T. Stein,  D. Stuck,  
 Y.-C. Su,  A. J. W. Thom,  T. Tsuchimochi,  L. Vogt,  O. Vydrov,  T. Wang,  
 M. A. Watson,  J. Wenzel,  A. White,  C. F. Williams,  V. Vanovschi,  
 K. Yao,  S. Yeganeh,  S. R. Yost,  Z.-Q. You,  I. Y. Zhang,  X. Zhang,  
 Y. Zhao,  B. R. Brooks,  G. K. L. Chan,  D. M. Chipman,  C. J. Cramer,  
 W. A. Goddard III,  M. S. Gordon,  W. J. Hehre,  A. Klamt,  
 H. F. Schaefer III,  M. W. Schmidt,  C. D. Sherrill,  D. G. Truhlar,  
 A. Warshel,  X. Xu,  A. Aspuru-Guzik,  R. Baer,  A. T. Bell,  N. A. Besley,  
 J.-D. Chai,  A. Dreuw,  B. D. Dunietz,  T. R. Furlani,  S. R. Gwaltney,  
 C.-P. Hsu,  Y. Jung,  J. Kong,  D. S. Lambrecht,  W. Liang,  C. Ochsenfeld,  
 V. A. Rassolov,  L. V. Slipchenko,  J. E. Subotnik,  T. Van Voorhis,  
 J. M. Herbert,  A. I. Krylov,  P. M. W. Gill,  M. Head-Gordon

 Contributors to earlier versions of Q-Chem not listed above: 
 R. D. Adamson,  J. Baker,  E. F. C. Byrd,  A. K. Chakraborty,  C.-L. Cheng,  
 H. Dachsel,  R. J. Doerksen,  G. Hawkins,  A. Heyden,  S. Hirata,  
 G. Kedziora,  F. J. Keil,  C. Kelley,  P. P. Korambath,  W. Kurlancheek,  
 A. M. Lee,  M. S. Lee,  D. Liotard,  I. Lotan,  P. E. Maslen,  N. Nair,  
 D. Neuhauser,  R. Olson,  B. Peters,  J. Ritchie,  N. E. Schultz,  
 N. Shenvi,  A. C. Simmonett,  K. S. Thanthiriwatte,  Q. Wu,  W. Zhang

 Please cite Q-Chem as follows:
 Y. Shao et al., Mol. Phys. 113, 184-215 (2015)
 DOI: 10.1080/00268976.2014.952696

 Q-Chem 4.4.2 for Intel X86 Linux

 Parts of Q-Chem use Armadillo 5.200.1 (Boston Tea Smuggler).
 http://arma.sourceforge.net/

 Q-Chem begins on Mon Oct  8 04:14:15 2018  

Host: 
0

     Scratch files written to /tmpu/cab_g/afmv_a/scratch_qchem/qchem22794//
 Dec716 11556_ 22328  22283 4050   
Processing $rem in /tmpu/appuserlic/qchem4.4/serial-multicore/config/preferences.
 MEM_TOTAL  2000 
FILE_GEOM_ORG=        593

Checking the input file for inconsistencies... 	...done.

--------------------------------------------------------------
User input:
--------------------------------------------------------------
$comment
SP
$end

$rem
MEM_STATIC 5000
MEM_TOTAL 20000
JOBTYPE SP
EXCHANGE B3LYP
BASIS 6-31g(d,p)
$end

$molecule
0 1
O          11.773000      9.361000      7.158000
C          11.800000      9.509000      8.616000
H          11.075000      8.934000      9.205000
H          11.653000     10.578000      8.813000
H          12.833000      9.424000      8.975000
O           9.554000      9.301000      7.004000
C          10.623000      9.264000      6.492000
C          10.847000      9.002000      4.916000
H          11.870000      8.683000      4.682000
H          10.638000      9.998000      4.506000
C           9.848000      8.011000      4.332000
H           9.819000      7.006000      4.771000
H           8.873000      8.436000      4.600000
C           9.937000      7.814000      2.828000
H          10.017000      8.808000      2.371000
H          10.897000      7.381000      2.521000
C           8.651000      7.260000      2.073000
C           7.541000      8.243000      1.991000
C           7.572000      9.211000      1.002000
H           8.336000      9.106000      0.238000
C           6.533000     10.150000      0.915000
H           6.552000     11.012000      0.254000
C           5.626000     10.229000      1.962000
H           4.981000     11.099000      2.048000
C           5.547000      9.220000      2.891000
H           4.719000      9.230000      3.594000
C           6.474000      8.201000      2.927000
H           6.505000      7.394000      3.654000
C           5.176000      3.295000      1.238000
C           5.358000      4.445000     -0.920000
C           7.655000      1.185000     -3.230000
C           9.826000      1.976000      2.748000
C          10.721000      2.806000     -2.766000
C           5.318000      4.446000      0.462000
C          11.395000      1.451000      0.522000
C           5.807000      1.063000     -1.565000
C           8.874000      6.205000     -1.484000
C          10.694000      2.979000      2.276000
C           8.919000      6.431000      0.816000
C          10.175000      5.822000     -1.080000
C          11.601000      3.969000      0.441000
C          11.394000      1.481000     -0.900000
C           6.773000      6.036000     -0.304000
C           9.688000      0.656000     -2.413000
C           8.294000      5.805000      2.074000
C           9.079000      4.710000      2.728000
C           9.855000      1.793000     -3.211000
C           7.798000     -0.306000      1.019000
C           7.809000     -0.360000     -1.297000
C           6.507000      0.004000     -0.863000
C           5.115000      2.016000     -0.895000
C           8.136000      3.722000      3.196000
C           8.083000      6.441000     -0.386000
C           5.263000      3.228000     -1.575000
C          11.520000      2.734000      1.179000
C           6.149000      5.478000     -1.415000
C          10.884000      4.822000     -1.757000
C           7.681000      1.333000      2.795000
C           6.384000      1.627000     -2.750000
C          10.172000      5.938000      0.325000
C           5.854000      1.084000      1.200000
C          11.653000      3.879000     -0.978000
C           8.297000      5.553000     -2.614000
C           9.974000     -0.134000     -0.142000
C          10.540000      0.510000      0.973000
C           9.039000      4.516000     -3.217000
C           8.580000      2.367000      3.215000
C          10.268000      4.306000      2.214000
C           8.388000      0.257000      2.168000
C           6.947000      5.355000      2.085000
C           6.899000      3.931000     -3.229000
C          10.792000      4.910000      1.075000
C          10.315000      4.163000     -2.794000
C           6.412000      1.684000      2.360000
C           8.600000      2.133000     -3.684000
C           5.083000      2.041000      0.518000
C           8.352000      0.256000     -2.472000
C           6.983000      5.158000     -2.539000
C           8.186000      3.505000     -3.660000
C           6.190000      5.509000      0.833000
C           6.857000      4.053000      2.738000
C           8.606000     -0.478000     -0.120000
C           6.075000      2.979000     -2.629000
C          11.549000      2.627000     -1.647000
C           9.700000      0.728000      2.103000
C          10.530000      0.480000     -1.279000
C           6.006000      3.037000      2.328000
C           6.514000      0.009000      0.547000
O          22.317000      5.364000      4.498000
C          22.219000      5.443000      5.947000
H          23.143000      5.818000      6.405000
H          22.110000      4.447000      6.393000
H          21.272000      5.945000      6.183000
O          23.747000      3.637000      4.752000
C          23.074000      4.329000      4.029000
C          22.894000      4.073000      2.588000
H          23.250000      3.047000      2.433000
H          23.410000      4.781000      1.927000
C          21.399000      4.053000      2.262000
H          20.962000      5.028000      2.509000
H          21.252000      3.963000      1.178000
C          20.618000      2.822000      2.962000
H          20.938000      1.875000      2.511000
H          21.021000      2.774000      3.982000
C          19.103000      2.877000      2.772000
C          18.794000      2.595000      1.370000
C          18.653000      1.247000      0.970000
H          18.567000      0.420000      1.670000
C          18.589000      0.925000     -0.408000
H          18.481000     -0.152000     -0.497000
C          18.545000      1.985000     -1.351000
H          18.494000      1.725000     -2.404000
C          18.554000      3.306000     -0.953000
H          18.544000      4.148000     -1.638000
C          18.795000      3.649000      0.419000
H          18.788000      4.694000      0.716000
C          14.725000      5.943000      3.542000
C          13.787000      3.708000      3.292000
C          12.567000      3.322000      7.705000
C          18.265000      6.155000      7.141000
C          15.462000      1.444000      8.536000
C          14.735000      4.655000      2.940000
C          17.611000      4.316000      9.188000
C          12.363000      5.202000      6.206000
C          16.443000      1.031000      4.689000
C          18.863000      4.959000      7.190000
C          18.154000      2.483000      3.877000
C          17.435000      1.091000      5.668000
C          18.601000      2.733000      7.641000
C          16.628000      3.406000      9.520000
C          15.783000      2.677000      3.050000
C          14.133000      3.386000      9.289000
C          18.296000      3.911000      3.558000
C          18.796000      4.755000      4.688000
C          14.242000      2.104000      8.674000
C          14.900000      7.137000      7.796000
C          13.269000      5.539000      8.405000
C          12.916000      6.094000      7.160000
C          12.690000      5.343000      4.811000
C          18.164000      5.986000      4.689000
C          16.795000      1.911000      3.639000
C          12.783000      4.041000      4.236000
C          18.556000      4.016000      8.214000
C          14.376000      2.450000      3.336000
C          17.070000      0.967000      7.003000
C          16.640000      7.330000      6.089000
C          12.266000      3.844000      6.462000
C          18.468000      1.930000      5.251000
C          14.292000      7.153000      5.429000
C          17.652000      1.786000      8.009000
C          15.093000      0.898000      5.001000
C          15.500000      5.368000      9.407000
C          16.894000      5.554000      9.114000
C          14.737000      0.742000      6.356000
C          17.842000      6.695000      5.889000
C          19.079000      4.210000      5.989000
C          16.256000      7.217000      7.423000
C          17.192000      4.686000      3.013000
C          13.096000      1.908000      5.310000
C          18.931000      2.820000      6.265000
C          15.684000      0.743000      7.365000
C          15.659000      7.260000      5.115000
C          13.220000      2.054000      7.712000
C          13.703000      6.252000      4.459000
C          13.144000      4.129000      8.648000
C          14.025000      1.571000      4.327000
C          13.493000      1.363000      6.553000
C          15.975000      4.037000      2.689000
C          17.165000      5.956000      3.635000
C          14.514000      6.179000      8.786000
C          12.433000      3.143000      5.246000
C          16.674000      2.091000      8.983000
C          17.237000      6.440000      8.069000
C          15.356000      4.010000      9.616000
C          15.911000      6.580000      3.941000
C          13.917000      6.982000      6.793000
$end

--------------------------------------------------------------
 ----------------------------------------------------------------
             Standard Nuclear Orientation (Angstroms)
    I     Atom           X                Y                Z
 ----------------------------------------------------------------
    1      O       1.4224531896     6.3993755124    -1.6159155250
    2      C       2.1677940586     7.4634493891    -0.9372324076
    3      H       1.8133309837     7.7924771427     0.0472815161
    4      H       2.1629033039     8.3193217740    -1.6232626849
    5      H       3.2411920793     7.2403614941    -0.9724954214
    6      O      -0.5851705443     7.1438665982    -1.0105586334
    7      C       0.0916225018     6.3490869535    -1.5731868314
    8      C      -0.4962709075     5.0344405659    -2.3002921984
    9      H       0.2706180483     4.2701559659    -2.4757811717
   10      H      -0.8558962856     5.4604961908    -3.2452489127
   11      C      -1.6770402005     4.4235280991    -1.5561767272
   12      H      -1.5103822949     4.1064133481    -0.5192339239
   13      H      -2.3828528121     5.2574570761    -1.4588883992
   14      C      -2.3453230114     3.2516950809    -2.2554273704
   15      H      -2.4767504681     3.5294850392    -3.3084442566
   16      H      -1.6719657439     2.3924897894    -2.3635673601
   17      C      -3.8493915519     2.9116530173    -1.8644206945
   18      C      -4.8315252615     3.9103262321    -2.3575516979
   19      C      -5.2682907278     3.8328814429    -3.6687893697
   20      H      -4.9826103338     2.9476852759    -4.2284602180
   21      C      -6.1921923859     4.7725013367    -4.1507968194
   22      H      -6.4803837251     4.8550755517    -5.1950445156
   23      C      -6.4634829429     5.8893844154    -3.3735757297
   24      H      -6.9610930593     6.7454977338    -3.8205378735
   25      C      -6.0990253941     5.9200564810    -2.0493427745
   26      H      -6.4727347870     6.7306293353    -1.4303064770
   27      C      -5.2996175349     4.9410339042    -1.5003000906
   28      H      -4.9340830160     4.9171801949    -0.4772876195
   29      C      -7.3798301096     1.2713038267     1.7878844848
   30      C      -8.2567168735     0.4586673670    -0.3529750593
   31      C      -7.4756419807    -4.0414241149     0.2626609261
   32      C      -2.6229275762    -0.3863623569     2.3040066717
   33      C      -4.5406268532    -3.9447826162    -1.6398741253
   34      C      -7.6106657992     1.4068844593     0.4184051033
   35      C      -2.3674029832    -2.8394308210     1.0352969757
   36      C      -8.2659334218    -2.2573107798     1.8101078705
   37      C      -5.4333053110    -0.2308874527    -3.0605225287
   38      C      -2.0760471303    -0.4275790192     1.0073031726
   39      C      -4.2556145781     1.4420888855    -1.9847457352
   40      C      -4.1118359414    -0.7158106933    -2.9153531236
   41      C      -2.1670187062    -1.4112636538    -1.0406379183
   42      C      -3.0680731930    -3.7789825819     0.2295124229
   43      C      -6.6837494110     1.2980386118    -1.6698620230
   44      C      -5.3174912653    -4.6308172846     0.5372882753
   45      C      -4.1947518609     2.1504947006    -0.6211028454
   46      C      -3.2162643115     1.5975136687     0.3687153672
   47      C      -5.5377571624    -4.5287459508    -0.8405819571
   48      C      -5.2942100464    -2.1608505150     3.7270986368
   49      C      -6.4268958286    -3.7600609233     2.4916060270
   50      C      -7.3368672333    -2.7216361901     2.8227889313
   51      C      -8.5147157381    -0.9371686521     1.6331753363
   52      C      -3.8299936867     1.6752889242     1.6732092398
   53      C      -5.5747543911     0.9716588811    -2.4117887831
   54      C      -8.6915590903    -0.7013545744     0.2670252166
   55      C      -1.9038773560    -1.6490133038     0.3560230047
   56      C      -7.7874213187     0.4513220263    -1.6635103424
   57      C      -3.8528540833    -2.0766676924    -2.7103979450
   58      C      -4.4813032086     0.1017477919     3.4550372931
   59      C      -8.3340929709    -2.9358834638     0.5490989933
   60      C      -3.4194780394     0.3046192120    -2.2320864524
   61      C      -6.8624007200    -0.3990789480     3.3017329623
   62      C      -2.8230177575    -2.4445274820    -1.7661695207
   63      C      -6.5077326491    -1.1675926354    -3.0046450212
   64      C      -3.9690907838    -3.7050360547     2.3228084393
   65      C      -2.9118159407    -2.7790247323     2.2681281223
   66      C      -6.1844867815    -2.5147312758    -2.7395571251
   67      C      -3.4672727045     0.6687398594     2.6159788137
   68      C      -2.4449726060     0.5253966735     0.0575767265
   69      C      -4.2012731820    -1.2718405324     3.7475989097
   70      C      -5.3720019654     2.4158102609     0.1277094442
   71      C      -8.0661713090    -2.0323415005    -1.6678610657
   72      C      -2.5356050298    -0.0761536570    -1.1940765656
   73      C      -4.8746769376    -2.9582232693    -2.6001762633
   74      C      -5.7909839229     0.5331136465     3.3085896019
   75      C      -6.8542463452    -4.1354206651    -1.0033869058
   76      C      -7.8458515132     0.0436697904     2.4005048602
   77      C      -6.5184439621    -4.3860041351     1.2052374814
   78      C      -7.6234131001    -0.8381201558    -2.2732415645
   79      C      -7.1692746321    -3.1012915979    -1.9444980845
   80      C      -6.6435581122     1.9696443949    -0.4625023700
   81      C      -5.1601892159     2.0827106462     1.5326624704
   82      C      -5.1566180833    -3.3580431418     3.0007603780
   83      C      -8.5104815818    -1.8907004824    -0.3534006428
   84      C      -3.2734350830    -3.6321483716    -1.1238597391
   85      C      -3.0805623395    -1.5465381918     2.9627687347
   86      C      -4.0306586126    -4.3117940658     1.0551511045
   87      C      -6.1271015942     1.5144904437     2.3492181967
   88      C      -6.6360401381    -1.7708152692     3.5928246181
   89      O       9.1872685035    -2.0860706865    -3.0060201789
   90      C       9.8177644827    -1.0210615471    -2.2420330369
   91      H      10.8562746525    -0.8480114066    -2.5514118924
   92      H       9.9184974012    -1.2959360303    -1.1850988395
   93      H       9.1224127388    -0.1720221185    -2.2307635703
   94      O      10.5144526137    -3.5589167137    -1.9284061860
   95      C       9.5896245529    -3.3476208739    -2.6731001675
   96      C       8.7169440258    -4.4062969296    -3.2135173275
   97      H       8.9253772443    -5.2905423179    -2.5986167774
   98      H       8.8573554794    -4.6177878944    -4.2812238394
   99      C       7.2553630293    -4.0418397575    -2.9439751962
  100      H       7.0205533176    -3.0949460746    -3.4448342110
  101      H       6.5912874108    -4.7698535841    -3.4274671208
  102      C       6.8909531345    -4.0233518627    -1.3684798372
  103      H       6.9241664564    -5.0436688163    -0.9679050135
  104      H       7.7428457722    -3.5264200917    -0.8863483731
  105      C       5.4807922303    -3.5126187176    -1.0770216429
  106      C       4.5144769622    -4.5096801212    -1.5382291449
  107      C       4.1620634261    -5.5608623777    -0.6619839947
  108      H       4.4120335729    -5.5686533038     0.3957396115
  109      C       3.4197258265    -6.6643844869    -1.1496702081
  110      H       3.2558033450    -7.3506544711    -0.3240329217
  111      C       2.9426113108    -6.6237078000    -2.4858932981
  112      H       2.3731931940    -7.4747955012    -2.8470341754
  113      C       3.1785580842    -5.5379739754    -3.3038402292
  114      H       2.8528312450    -5.4724351666    -4.3372306156
  115      C       4.0724211742    -4.4960848652    -2.8871990664
  116      H       4.2379973658    -3.6435906852    -3.5399786600
  117      C       2.1260952250     0.6592767454    -1.7851432767
  118      C       1.1327494820    -0.5239946814     0.0991873644
  119      C       2.2361119247     2.6978821508     3.1836753281
  120      C       6.9836713886     1.8043873130    -0.9964604487
  121      C       5.1182830904     0.9354758503     4.2724743931
  122      C       1.8069794025    -0.5510499607    -1.1108122332
  123      C       7.3785682834     2.3023438870     1.7596131521
  124      C       1.3658022525     2.9372500734     0.9457564126
  125      C       4.0664626085    -2.3060593921     2.1943834550
  126      C       7.4989931155     0.8554223644    -0.2063148647
  127      C       5.1900634608    -2.6338531633     0.1146619909
  128      C       5.4131468784    -2.0047106204     2.3986758809
  129      C       7.4392540235    -0.1194880021     1.8608334169
  130      C       6.6649368931     2.3528813977     2.9397780553
  131      C       2.7248336921    -2.1245152128     0.1948058593
  132      C       4.3802589750     3.1804769216     3.5514302925
  133      C       5.1910826094    -2.0180396474    -1.2202094168
  134      C       6.2031859451    -0.9312723460    -1.4041106690
  135      C       4.1410042873     1.9256051767     4.1852158226
  136      C       4.4029675518     4.1992282618    -0.4296460729
  137      C       3.2454113231     4.2675064515     1.6294915297
  138      C       2.3384707646     3.9140532929     0.6120493014
  139      C       0.9664524916     1.9539842673    -0.0271480652
  140      C       5.6837686315     0.0867209901    -2.1842909186
  141      C       3.8767484397    -2.6074292445     0.8254463688
  142      C       0.7324996617     0.7200324343     0.6489487824
  143      C       7.7135156964     1.0821500728     1.1846015988
  144      C       1.6362747785    -1.5112725245     0.9377371461
  145      C       5.7502948268    -1.0361604086     3.3362620093
  146      C       5.0803419006     2.4740322857    -2.0245005601
  147      C       1.3745906892     2.3045140539     2.1781025057
  148      C       6.1266765665    -2.1766309006     1.2128353345
  149      C       2.7083891612     2.8561852455    -1.5686142614
  150      C       6.7720363788    -0.0812477307     3.0799282846
  151      C       3.0425768978    -1.6396153758     2.8614992056
  152      C       5.6756247358     3.9463077590     1.6682235396
  153      C       6.7484318368     3.3080522261     0.9573115908
  154      C       3.3966302901    -0.6810632761     3.8325404342
  155      C       6.0120256532     1.4648293378    -1.9857217621
  156      C       7.0770639059    -0.5059165679    -0.3433916810
  157      C       5.4007360339     3.4563279325    -1.0905713008
  158      C       3.9810316322    -1.4631538003    -1.8070180134
  159      C       1.4821199118    -0.0065817099     2.8194868185
  160      C       7.0505639469    -1.1247048734     0.9397991798
  161      C       4.7175168622    -0.3782012008     4.1125836930
  162      C       3.7454470715     2.1654488484    -2.2213991574
  163      C       2.7768405157     1.6539045212     3.9911437794
  164      C       1.6963038243     1.8773699557    -1.2262315817
  165      C       3.2221768026     3.6048626247     2.9035155938
  166      C       1.7978175921    -1.2494532384     2.2731313129
  167      C       2.4265932899     0.3341781291     3.8152457100
  168      C       2.7470072616    -1.5992328165    -1.1244256355
  169      C       4.2947752206    -0.2437474161    -2.4513207612
  170      C       4.5316547126     4.4252418295     0.9772005719
  171      C       0.9038114962     0.9824520134     2.0093870279
  172      C       6.4085036586     1.1552238827     3.6605890382
  173      C       6.5534973365     3.0173739536    -0.4109634847
  174      C       5.6203741146     3.3006457363     2.8883255523
  175      C       3.3698093344     0.8508284274    -2.4080792022
  176      C       3.0499843133     3.8190644715    -0.5753678931
 ----------------------------------------------------------------
 Molecular Point Group                 C1    NOp =  1
 Largest Abelian Subgroup              C1    NOp =  1
 Nuclear Repulsion Energy = 35135.5909731653 hartrees
 There are      462 alpha and      462 beta electrons
 Requested basis set is 6-31G(d,p)
 There are 676 shells and 2360 basis functions

 Total QAlloc Memory Limit  20000 MB
 Mega-Array Size      4888 MB
 MEM_STATIC part      5000 MB
 A cutoff of  1.0D-08 yielded  38481 shell pairs
 There are    536850 function pairs
 
 -------------------------------------------------------
 OpenMP Integral Computing Module                       
 Release: version 1.0, May 2013, Q-Chem Inc. Pittsburgh 
 -------------------------------------------------------
 Integral Job Info:
 Integral job number is                      11
 Integral operator is                         1
 short-range coefficients                     0
 long-range coefficients              100000000
 Omega coefficients                           0
 if combine SR and LR in K                    0
 Integral screening is                        0
 Integral computing path is                   2
 max size of driver memory is            800000
 size of driver memory is                593474
 size of scratch memory is              2260544
 max col of scratch BK array               1296
 max len of scratch array in speh3          155
 max len of scratch index in speh4           18
 max int batch size is                      520
 min int batch size is                       52
 fixed nKL is                                52
 max L of basis functions is                  2
 order of int derivative is                   0
 number of shells is                        676
 number of basis is                        2360
 number of cartesian basis is              2360
 number of contracted shell pairs         38481
 number of primitive shell pairs         115987
 maxK2 (contraction) of shell pair           36
 max number of K2 of shell pair               1
 max number of CS2 of shell pair           7290
 max number of PS2 of shell pair          34920
 mem total for path MDJ                 1522552
 -------------------------------------------------------
 Smallest overlap matrix eigenvalue = 2.58E-04

 Scale SEOQF with 1.000000e-02/1.000000e-02/1.000000e-01

 Standard Electronic Orientation quadrupole field applied
 Nucleus-field energy     =    -0.0000003168 hartrees
 Guess from superposition of atomic densities
 Warning:  Energy on first SCF cycle will be non-variational
 A restricted hybrid HF-DFT SCF calculation will be
 performed using Pulay DIIS extrapolation
 Exchange:     0.2000 Hartree-Fock + 0.0800 Slater + 0.7200 B88
 Correlation:  0.1900 VWN1RPA + 0.8100 LYP
 Using SG-1 standard quadrature grid
 SCF converges when DIIS error is below 1.0E-05
 using 16 threads for integral computing 
 -------------------------------------------------------
 OpenMP BLAS3 based DFT computing Module                
 Release: version 1.0, May 2013, Q-Chem Inc. Pittsburgh 
 -------------------------------------------------------
 ---------------------------------------
  Cycle       Energy         DIIS Error
 ---------------------------------------
    1   -5858.4280998557      1.83E-02
    2   -5803.1849645246      1.28E-03
    3   -5802.6115783435      1.69E-03
    4   -5804.0607239706      5.93E-04
    5   -5804.2379439730      2.95E-04
    6   -5804.2964133905      1.11E-04
    7   -5804.3042187415      3.95E-05
    8   -5804.3048589365      2.47E-05
    9   -5804.3052936029      7.76E-06 Convergence criterion met
 ---------------------------------------
 SCF time:  CPU 7401.95 s  wall 854.90 s
 SCF   energy in the final basis set = -5804.3052936029
 Total energy in the final basis set = -5804.3052936029
 
 --------------------------------------------------------------
 
                    Orbital Energies (a.u.)
 --------------------------------------------------------------
 
 Alpha MOs
 -- Occupied --
-19.195 -19.191 -19.134 -19.133 -10.316 -10.311 -10.250 -10.241
-10.239 -10.236 -10.234 -10.234 -10.232 -10.231 -10.230 -10.229
-10.229 -10.229 -10.228 -10.227 -10.226 -10.226 -10.225 -10.225
-10.225 -10.224 -10.224 -10.223 -10.223 -10.222 -10.222 -10.222
-10.222 -10.222 -10.221 -10.221 -10.221 -10.221 -10.221 -10.220
-10.220 -10.220 -10.220 -10.220 -10.220 -10.219 -10.219 -10.219
-10.219 -10.219 -10.219 -10.219 -10.219 -10.219 -10.218 -10.218
-10.218 -10.218 -10.218 -10.218 -10.218 -10.218 -10.218 -10.217
-10.217 -10.217 -10.217 -10.217 -10.217 -10.217 -10.217 -10.217
-10.217 -10.216 -10.216 -10.216 -10.216 -10.216 -10.216 -10.215
-10.215 -10.215 -10.215 -10.215 -10.215 -10.215 -10.215 -10.215
-10.215 -10.215 -10.214 -10.214 -10.214 -10.214 -10.214 -10.214
-10.214 -10.214 -10.214 -10.213 -10.213 -10.213 -10.213 -10.213
-10.213 -10.213 -10.213 -10.213 -10.213 -10.213 -10.212 -10.212
-10.211 -10.211 -10.211 -10.211 -10.211 -10.211 -10.210 -10.209
-10.209 -10.209 -10.209 -10.208 -10.208 -10.208 -10.208 -10.208
-10.208 -10.206 -10.206 -10.206 -10.205 -10.205 -10.204 -10.204
-10.203 -10.202 -10.202 -10.201 -10.200 -10.198 -10.197 -10.196
-10.195 -10.192 -10.191 -10.188  -1.104  -1.097  -1.019  -1.011
 -0.984  -0.983  -0.967  -0.966  -0.965  -0.964  -0.962  -0.960
 -0.938  -0.932  -0.928  -0.927  -0.926  -0.924  -0.923  -0.922
 -0.921  -0.920  -0.899  -0.897  -0.888  -0.888  -0.886  -0.886
 -0.877  -0.873  -0.855  -0.853  -0.846  -0.843  -0.840  -0.839
 -0.838  -0.835  -0.822  -0.818  -0.809  -0.800  -0.799  -0.799
 -0.797  -0.796  -0.795  -0.794  -0.793  -0.792  -0.788  -0.783
 -0.774  -0.773  -0.771  -0.770  -0.768  -0.767  -0.765  -0.762
 -0.752  -0.751  -0.743  -0.738  -0.732  -0.730  -0.718  -0.716
 -0.716  -0.715  -0.715  -0.715  -0.713  -0.713  -0.712  -0.709
 -0.708  -0.707  -0.706  -0.705  -0.702  -0.701  -0.673  -0.673
 -0.662  -0.661  -0.658  -0.655  -0.650  -0.645  -0.635  -0.633
 -0.631  -0.627  -0.626  -0.624  -0.621  -0.620  -0.619  -0.618
 -0.618  -0.617  -0.615  -0.615  -0.613  -0.613  -0.610  -0.609
 -0.608  -0.605  -0.604  -0.602  -0.570  -0.565  -0.564  -0.563
 -0.563  -0.560  -0.560  -0.558  -0.557  -0.556  -0.555  -0.553
 -0.542  -0.536  -0.535  -0.531  -0.530  -0.528  -0.526  -0.525
 -0.525  -0.523  -0.521  -0.520  -0.520  -0.516  -0.516  -0.511
 -0.507  -0.505  -0.505  -0.497  -0.494  -0.491  -0.490  -0.487
 -0.485  -0.484  -0.482  -0.480  -0.479  -0.478  -0.477  -0.476
 -0.472  -0.472  -0.472  -0.471  -0.471  -0.470  -0.469  -0.467
 -0.466  -0.465  -0.463  -0.463  -0.462  -0.461  -0.460  -0.459
 -0.457  -0.455  -0.454  -0.451  -0.448  -0.447  -0.445  -0.445
 -0.443  -0.442  -0.441  -0.441  -0.438  -0.438  -0.437  -0.435
 -0.433  -0.431  -0.429  -0.429  -0.428  -0.427  -0.426  -0.426
 -0.424  -0.424  -0.423  -0.422  -0.420  -0.420  -0.419  -0.419
 -0.418  -0.417  -0.417  -0.416  -0.415  -0.415  -0.413  -0.413
 -0.412  -0.411  -0.409  -0.408  -0.402  -0.400  -0.399  -0.398
 -0.397  -0.394  -0.394  -0.391  -0.388  -0.387  -0.386  -0.382
 -0.381  -0.378  -0.374  -0.372  -0.371  -0.370  -0.368  -0.366
 -0.366  -0.364  -0.364  -0.363  -0.362  -0.361  -0.360  -0.358
 -0.358  -0.357  -0.356  -0.356  -0.356  -0.355  -0.354  -0.351
 -0.350  -0.348  -0.348  -0.347  -0.346  -0.345  -0.345  -0.344
 -0.343  -0.342  -0.342  -0.341  -0.340  -0.338  -0.336  -0.335
 -0.334  -0.332  -0.330  -0.330  -0.328  -0.327  -0.326  -0.324
 -0.309  -0.305  -0.301  -0.301  -0.290  -0.282  -0.275  -0.273
 -0.271  -0.270  -0.270  -0.269  -0.268  -0.266  -0.266  -0.265
 -0.264  -0.263  -0.261  -0.259  -0.258  -0.256  -0.256  -0.253
 -0.251  -0.248  -0.247  -0.242  -0.226  -0.219  -0.216  -0.215
 -0.210  -0.209  -0.208  -0.205  -0.200  -0.200
 -- Virtual --
 -0.126  -0.123  -0.122  -0.117  -0.109  -0.109  -0.082  -0.077
 -0.075  -0.072  -0.064  -0.062  -0.057  -0.050  -0.030  -0.025
 -0.023  -0.022  -0.021  -0.019  -0.017  -0.017  -0.017  -0.016
 -0.015  -0.014  -0.011  -0.011  -0.007  -0.005   0.002   0.008
  0.011   0.023   0.028   0.035   0.037   0.039   0.041   0.048
  0.048   0.049   0.052   0.056   0.058   0.059   0.063   0.064
  0.068   0.075   0.078   0.082   0.083   0.086   0.090   0.091
  0.093   0.094   0.096   0.097   0.099   0.103   0.103   0.105
  0.108   0.110   0.111   0.113   0.114   0.116   0.119   0.119
  0.121   0.124   0.124   0.131   0.131   0.132   0.133   0.136
  0.137   0.142   0.145   0.147   0.150   0.151   0.152   0.156
  0.157   0.158   0.159   0.163   0.164   0.166   0.167   0.169
  0.170   0.172   0.173   0.173   0.175   0.177   0.178   0.180
  0.183   0.184   0.186   0.186   0.187   0.188   0.189   0.191
  0.194   0.195   0.198   0.199   0.200   0.202   0.203   0.205
  0.206   0.208   0.209   0.212   0.215   0.215   0.216   0.216
  0.218   0.219   0.220   0.220   0.222   0.223   0.225   0.228
  0.229   0.231   0.233   0.235   0.236   0.237   0.238   0.240
  0.243   0.244   0.248   0.250   0.251   0.253   0.256   0.259
  0.263   0.267   0.269   0.274   0.275   0.276   0.277   0.279
  0.282   0.283   0.285   0.286   0.290   0.297   0.298   0.302
  0.305   0.307   0.309   0.314   0.314   0.317   0.319   0.320
  0.321   0.321   0.322   0.324   0.325   0.327   0.330   0.331
  0.334   0.335   0.336   0.340   0.342   0.343   0.345   0.347
  0.351   0.352   0.363   0.371   0.372   0.374   0.386   0.391
  0.392   0.394   0.398   0.399   0.402   0.404   0.405   0.406
  0.408   0.411   0.411   0.413   0.415   0.418   0.423   0.425
  0.428   0.429   0.429   0.432   0.436   0.437   0.439   0.443
  0.445   0.449   0.449   0.451   0.452   0.453   0.455   0.459
  0.459   0.461   0.464   0.465   0.467   0.469   0.470   0.471
  0.472   0.475   0.476   0.477   0.479   0.481   0.481   0.482
  0.484   0.485   0.486   0.487   0.488   0.488   0.490   0.492
  0.494   0.494   0.495   0.496   0.497   0.498   0.499   0.499
  0.502   0.503   0.504   0.505   0.507   0.508   0.509   0.511
  0.512   0.513   0.513   0.515   0.515   0.515   0.516   0.516
  0.517   0.518   0.519   0.520   0.521   0.522   0.522   0.525
  0.526   0.526   0.527   0.528   0.528   0.528   0.530   0.531
  0.532   0.532   0.534   0.535   0.536   0.536   0.537   0.538
  0.539   0.540   0.541   0.541   0.542   0.543   0.544   0.544
  0.545   0.546   0.547   0.547   0.548   0.549   0.550   0.551
  0.552   0.553   0.554   0.555   0.556   0.556   0.557   0.558
  0.558   0.559   0.559   0.560   0.561   0.562   0.562   0.563
  0.564   0.566   0.567   0.567   0.568   0.569   0.571   0.571
  0.571   0.573   0.573   0.574   0.575   0.577   0.578   0.578
  0.579   0.579   0.580   0.580   0.582   0.583   0.583   0.584
  0.585   0.586   0.586   0.587   0.588   0.589   0.591   0.591
  0.591   0.592   0.594   0.594   0.596   0.597   0.597   0.598
  0.599   0.600   0.603   0.604   0.605   0.606   0.606   0.609
  0.610   0.611   0.612   0.613   0.614   0.615   0.615   0.617
  0.617   0.618   0.621   0.621   0.622   0.623   0.625   0.625
  0.626   0.628   0.628   0.629   0.630   0.631   0.632   0.633
  0.633   0.634   0.635   0.635   0.637   0.638   0.639   0.641
  0.642   0.644   0.645   0.645   0.646   0.648   0.649   0.650
  0.650   0.651   0.652   0.653   0.654   0.654   0.657   0.657
  0.658   0.659   0.660   0.660   0.661   0.662   0.663   0.663
  0.665   0.665   0.666   0.666   0.667   0.668   0.669   0.670
  0.672   0.673   0.674   0.674   0.675   0.676   0.677   0.678
  0.678   0.679   0.680   0.683   0.684   0.684   0.686   0.686
  0.687   0.689   0.691   0.692   0.692   0.694   0.695   0.695
  0.696   0.697   0.699   0.699   0.701   0.701   0.702   0.703
  0.704   0.705   0.707   0.708   0.709   0.712   0.713   0.715
  0.715   0.716   0.716   0.719   0.720   0.721   0.722   0.724
  0.724   0.725   0.726   0.727   0.728   0.729   0.731   0.732
  0.733   0.735   0.737   0.738   0.740   0.742   0.744   0.744
  0.746   0.749   0.751   0.752   0.753   0.754   0.755   0.757
  0.758   0.759   0.760   0.761   0.762   0.764   0.765   0.766
  0.768   0.769   0.770   0.770   0.772   0.773   0.773   0.775
  0.777   0.777   0.778   0.781   0.782   0.783   0.785   0.787
  0.788   0.788   0.791   0.793   0.794   0.794   0.796   0.797
  0.798   0.799   0.800   0.801   0.802   0.802   0.804   0.804
  0.805   0.806   0.806   0.807   0.808   0.809   0.810   0.811
  0.812   0.812   0.814   0.814   0.815   0.816   0.818   0.818
  0.819   0.821   0.821   0.822   0.822   0.823   0.824   0.825
  0.828   0.828   0.828   0.829   0.831   0.833   0.836   0.837
  0.839   0.840   0.842   0.843   0.845   0.847   0.849   0.850
  0.851   0.852   0.857   0.859   0.861   0.862   0.866   0.867
  0.870   0.874   0.879   0.881   0.883   0.886   0.890   0.892
  0.894   0.897   0.899   0.900   0.901   0.904   0.905   0.909
  0.913   0.915   0.917   0.917   0.920   0.921   0.925   0.926
  0.928   0.931   0.932   0.932   0.933   0.936   0.937   0.938
  0.939   0.942   0.944   0.946   0.949   0.952   0.954   0.955
  0.958   0.960   0.962   0.964   0.968   0.972   0.974   0.978
  0.978   0.979   0.980   0.984   0.986   0.987   0.989   0.993
  0.994   0.995   0.996   0.998   1.001   1.003   1.005   1.008
  1.010   1.011   1.012   1.014   1.017   1.019   1.020   1.020
  1.023   1.025   1.027   1.028   1.030   1.031   1.033   1.033
  1.036   1.037   1.037   1.039   1.041   1.043   1.045   1.047
  1.049   1.050   1.052   1.052   1.054   1.057   1.058   1.061
  1.061   1.063   1.066   1.067   1.069   1.070   1.073   1.074
  1.076   1.078   1.080   1.081   1.082   1.084   1.085   1.086
  1.088   1.089   1.090   1.092   1.094   1.095   1.095   1.098
  1.100   1.101   1.103   1.107   1.107   1.108   1.111   1.114
  1.115   1.117   1.118   1.121   1.122   1.126   1.128   1.129
  1.132   1.135   1.136   1.138   1.140   1.142   1.144   1.145
  1.149   1.151   1.152   1.153   1.156   1.158   1.160   1.161
  1.163   1.164   1.165   1.165   1.168   1.169   1.172   1.175
  1.176   1.177   1.178   1.178   1.179   1.181   1.182   1.186
  1.187   1.189   1.190   1.193   1.194   1.197   1.199   1.199
  1.201   1.206   1.207   1.208   1.213   1.216   1.217   1.218
  1.221   1.226   1.232   1.233   1.235   1.238   1.241   1.243
  1.246   1.248   1.251   1.252   1.254   1.257   1.258   1.261
  1.262   1.265   1.267   1.269   1.270   1.274   1.274   1.275
  1.279   1.280   1.281   1.282   1.284   1.287   1.290   1.291
  1.294   1.297   1.300   1.302   1.305   1.305   1.305   1.308
  1.314   1.315   1.317   1.321   1.323   1.326   1.327   1.328
  1.330   1.334   1.335   1.336   1.339   1.342   1.345   1.347
  1.350   1.351   1.351   1.354   1.356   1.359   1.360   1.362
  1.365   1.368   1.369   1.374   1.375   1.379   1.380   1.384
  1.387   1.389   1.390   1.393   1.395   1.399   1.401   1.405
  1.411   1.412   1.414   1.416   1.416   1.423   1.425   1.428
  1.430   1.434   1.436   1.439   1.444   1.444   1.445   1.447
  1.451   1.452   1.454   1.456   1.460   1.463   1.464   1.466
  1.466   1.468   1.470   1.471   1.474   1.476   1.480   1.481
  1.483   1.484   1.486   1.490   1.493   1.497   1.498   1.502
  1.503   1.508   1.509   1.511   1.511   1.516   1.518   1.520
  1.523   1.526   1.528   1.529   1.533   1.535   1.538   1.540
  1.544   1.546   1.547   1.550   1.551   1.555   1.556   1.559
  1.561   1.562   1.565   1.567   1.569   1.572   1.572   1.574
  1.575   1.580   1.581   1.584   1.586   1.587   1.591   1.591
  1.594   1.598   1.598   1.603   1.607   1.612   1.617   1.621
  1.623   1.624   1.628   1.630   1.635   1.641   1.643   1.651
  1.655   1.656   1.661   1.661   1.663   1.667   1.669   1.675
  1.680   1.681   1.684   1.689   1.691   1.693   1.695   1.697
  1.702   1.703   1.704   1.708   1.709   1.710   1.713   1.716
  1.717   1.720   1.720   1.723   1.726   1.727   1.729   1.730
  1.733   1.735   1.736   1.738   1.741   1.741   1.743   1.743
  1.744   1.747   1.749   1.752   1.753   1.757   1.760   1.761
  1.761   1.762   1.763   1.765   1.767   1.767   1.768   1.769
  1.770   1.771   1.772   1.775   1.775   1.776   1.777   1.778
  1.780   1.780   1.781   1.783   1.784   1.785   1.786   1.786
  1.788   1.789   1.790   1.792   1.793   1.795   1.795   1.797
  1.798   1.799   1.801   1.802   1.803   1.805   1.806   1.808
  1.811   1.812   1.814   1.818   1.820   1.822   1.822   1.824
  1.826   1.828   1.829   1.830   1.833   1.835   1.838   1.841
  1.842   1.847   1.848   1.850   1.851   1.851   1.853   1.855
  1.857   1.859   1.861   1.864   1.865   1.868   1.869   1.870
  1.871   1.876   1.877   1.879   1.881   1.882   1.884   1.886
  1.888   1.891   1.893   1.896   1.896   1.897   1.904   1.906
  1.907   1.908   1.912   1.915   1.916   1.916   1.922   1.925
  1.926   1.930   1.931   1.932   1.934   1.935   1.936   1.938
  1.940   1.942   1.944   1.944   1.949   1.950   1.953   1.954
  1.955   1.956   1.958   1.960   1.962   1.963   1.966   1.969
  1.970   1.971   1.973   1.976   1.976   1.977   1.979   1.981
  1.985   1.987   1.989   1.991   1.991   1.992   1.993   1.995
  1.996   1.996   1.998   1.998   2.000   2.001   2.002   2.004
  2.005   2.008   2.008   2.009   2.010   2.012   2.013   2.016
  2.017   2.017   2.018   2.020   2.021   2.023   2.024   2.024
  2.026   2.027   2.028   2.030   2.031   2.031   2.033   2.035
  2.036   2.038   2.039   2.040   2.041   2.042   2.043   2.044
  2.045   2.046   2.047   2.049   2.051   2.051   2.052   2.053
  2.055   2.056   2.059   2.060   2.061   2.062   2.065   2.066
  2.066   2.067   2.069   2.071   2.073   2.074   2.076   2.077
  2.080   2.080   2.083   2.084   2.087   2.087   2.089   2.091
  2.093   2.095   2.096   2.100   2.102   2.105   2.108   2.108
  2.111   2.114   2.116   2.119   2.121   2.124   2.128   2.129
  2.130   2.133   2.136   2.136   2.141   2.143   2.149   2.150
  2.153   2.155   2.159   2.161   2.165   2.169   2.171   2.180
  2.182   2.183   2.190   2.194   2.195   2.199   2.204   2.207
  2.208   2.211   2.214   2.217   2.219   2.220   2.222   2.224
  2.228   2.230   2.233   2.235   2.241   2.242   2.244   2.245
  2.249   2.250   2.252   2.252   2.256   2.257   2.260   2.262
  2.267   2.269   2.271   2.273   2.276   2.277   2.278   2.279
  2.283   2.288   2.288   2.289   2.293   2.294   2.295   2.296
  2.299   2.302   2.305   2.308   2.311   2.313   2.314   2.316
  2.318   2.319   2.321   2.325   2.328   2.330   2.333   2.339
  2.339   2.342   2.344   2.346   2.348   2.350   2.351   2.353
  2.353   2.358   2.358   2.359   2.361   2.362   2.363   2.365
  2.367   2.368   2.369   2.370   2.373   2.376   2.378   2.380
  2.382   2.383   2.383   2.385   2.388   2.390   2.391   2.393
  2.394   2.396   2.398   2.399   2.402   2.404   2.406   2.407
  2.408   2.411   2.412   2.413   2.415   2.420   2.421   2.424
  2.427   2.429   2.430   2.435   2.438   2.439   2.441   2.442
  2.444   2.449   2.450   2.454   2.455   2.457   2.458   2.461
  2.463   2.467   2.469   2.469   2.471   2.471   2.474   2.476
  2.477   2.480   2.481   2.486   2.487   2.488   2.490   2.492
  2.494   2.496   2.497   2.500   2.503   2.504   2.506   2.507
  2.508   2.509   2.510   2.513   2.516   2.518   2.520   2.523
  2.527   2.528   2.530   2.534   2.534   2.537   2.541   2.543
  2.545   2.547   2.547   2.551   2.553   2.554   2.560   2.563
  2.567   2.569   2.574   2.575   2.581   2.585   2.587   2.587
  2.590   2.591   2.593   2.595   2.596   2.599   2.602   2.604
  2.606   2.609   2.611   2.613   2.615   2.618   2.620   2.620
  2.621   2.624   2.625   2.628   2.631   2.632   2.633   2.636
  2.636   2.639   2.639   2.640   2.641   2.642   2.645   2.646
  2.648   2.651   2.652   2.652   2.652   2.654   2.657   2.658
  2.661   2.662   2.665   2.666   2.666   2.668   2.668   2.673
  2.674   2.675   2.677   2.678   2.680   2.686   2.686   2.688
  2.690   2.696   2.698   2.700   2.703   2.703   2.705   2.706
  2.709   2.710   2.715   2.716   2.718   2.721   2.723   2.726
  2.728   2.730   2.732   2.736   2.737   2.738   2.740   2.742
  2.743   2.747   2.749   2.750   2.753   2.756   2.756   2.757
  2.759   2.760   2.762   2.762   2.765   2.768   2.770   2.772
  2.774   2.781   2.781   2.782   2.785   2.793   2.794   2.797
  2.800   2.803   2.807   2.808   2.811   2.813   2.819   2.821
  2.827   2.829   2.830   2.832   2.835   2.836   2.837   2.840
  2.843   2.845   2.849   2.853   2.854   2.856   2.858   2.863
  2.865   2.868   2.869   2.871   2.872   2.873   2.875   2.875
  2.877   2.880   2.881   2.883   2.886   2.887   2.888   2.889
  2.890   2.891   2.894   2.897   2.898   2.899   2.901   2.901
  2.906   2.907   2.907   2.908   2.911   2.913   2.916   2.917
  2.919   2.920   2.922   2.924   2.926   2.929   2.930   2.933
  2.935   2.938   2.940   2.940   2.942   2.949   2.951   2.956
  2.958   2.964   2.966   2.969   2.972   2.975   2.977   2.977
  2.980   2.983   2.985   2.986   2.989   2.990   2.997   2.999
  3.002   3.004   3.006   3.008   3.010   3.015   3.016   3.019
  3.021   3.023   3.025   3.027   3.031   3.034   3.036   3.040
  3.045   3.048   3.049   3.053   3.054   3.058   3.062   3.064
  3.068   3.072   3.074   3.084   3.087   3.089   3.092   3.105
  3.111   3.120   3.126   3.133   3.138   3.142   3.144   3.152
  3.156   3.159   3.166   3.172   3.174   3.176   3.183   3.189
  3.195   3.196   3.202   3.214   3.219   3.222   3.234   3.241
  3.242   3.251   3.255   3.268   3.272   3.278   3.280   3.288
  3.293   3.298   3.301   3.304   3.312   3.314   3.323   3.328
  3.333   3.338   3.340   3.342   3.348   3.357   3.382   3.383
  3.401   3.415   3.419   3.422   3.428   3.434   3.439   3.443
  3.456   3.459   3.459   3.466   3.470   3.474   3.478   3.484
  3.493   3.499   3.514   3.515   3.519   3.531   3.540   3.545
  3.546   3.549   3.557   3.573   3.578   3.580   3.601   3.604
  3.609   3.614   3.677   3.679   3.838   3.892   4.023   4.070
  4.072   4.073   4.079   4.087   4.089   4.090   4.098   4.100
  4.101   4.105   4.108   4.110   4.113   4.118   4.122   4.125
  4.131   4.134   4.139   4.144   4.145   4.149   4.153   4.155
  4.156   4.158   4.161   4.163   4.175   4.180   4.181   4.189
  4.191   4.194   4.200   4.208   4.219   4.227   4.235   4.238
  4.243   4.247   4.248   4.251   4.253   4.257   4.264   4.267
  4.272   4.281   4.284   4.288   4.291   4.294   4.301   4.306
  4.309   4.314   4.325   4.330   4.379   4.382   4.385   4.390
  4.391   4.400   4.402   4.405   4.408   4.409   4.410   4.416
  4.420   4.421   4.423   4.431   4.445   4.454   4.467   4.477
  4.485   4.502   4.506   4.508   4.534   4.543   4.545   4.555
  4.559   4.562   4.616   4.618   4.621   4.627   4.633   4.641
  4.646   4.664   4.687   4.689   4.691   4.692   4.693   4.696
  4.700   4.703   4.707   4.711   4.744   4.749   4.811   4.812
  4.849   4.855   4.860   4.865   4.870   4.881   4.883   4.887
  4.899   4.907   4.951   4.955   4.964   4.971   4.975   4.977
  4.981   4.996   4.996   5.013   5.159   5.172   5.180   5.185
  5.189   5.196   5.210   5.214   5.303   5.308   5.323   5.340
  5.361   5.364
 --------------------------------------------------------------
 
          Ground-State Mulliken Net Atomic Charges

     Atom                 Charge (a.u.)
  ----------------------------------------
      1 O                    -0.456016
      2 C                    -0.099640
      3 H                     0.145212
      4 H                     0.124602
      5 H                     0.129571
      6 O                    -0.452003
      7 C                     0.582394
      8 C                    -0.265752
      9 H                     0.121624
     10 H                     0.131339
     11 C                    -0.179847
     12 H                     0.107642
     13 H                     0.124771
     14 C                    -0.184624
     15 H                     0.101719
     16 H                     0.107704
     17 C                     0.003644
     18 C                     0.085532
     19 C                    -0.104286
     20 H                     0.090612
     21 C                    -0.099665
     22 H                     0.089071
     23 C                    -0.076640
     24 H                     0.090088
     25 C                    -0.094196
     26 H                     0.089892
     27 C                    -0.082217
     28 H                     0.098696
     29 C                    -0.018452
     30 C                     0.008195
     31 C                    -0.016209
     32 C                     0.002342
     33 C                    -0.003742
     34 C                     0.025936
     35 C                     0.003324
     36 C                     0.010909
     37 C                    -0.026153
     38 C                    -0.007965
     39 C                    -0.095435
     40 C                     0.011942
     41 C                    -0.016015
     42 C                     0.020782
     43 C                     0.046235
     44 C                     0.003556
     45 C                    -0.058474
     46 C                     0.006361
     47 C                    -0.011633
     48 C                     0.018864
     49 C                    -0.021236
     50 C                    -0.021683
     51 C                     0.003227
     52 C                    -0.015260
     53 C                     0.059627
     54 C                     0.013783
     55 C                    -0.028601
     56 C                    -0.039944
     57 C                    -0.009149
     58 C                    -0.020474
     59 C                    -0.012247
     60 C                     0.013211
     61 C                     0.008455
     62 C                    -0.033525
     63 C                    -0.017739
     64 C                    -0.031869
     65 C                     0.002803
     66 C                     0.011643
     67 C                     0.001646
     68 C                     0.051660
     69 C                    -0.022442
     70 C                    -0.012494
     71 C                    -0.028748
     72 C                     0.022452
     73 C                     0.021639
     74 C                     0.014710
     75 C                    -0.005941
     76 C                    -0.024444
     77 C                     0.019500
     78 C                     0.008624
     79 C                    -0.001706
     80 C                    -0.018592
     81 C                     0.012019
     82 C                     0.028294
     83 C                     0.021622
     84 C                     0.001554
     85 C                     0.014060
     86 C                    -0.002206
     87 C                     0.007252
     88 C                    -0.013097
     89 O                    -0.468212
     90 C                    -0.088515
     91 H                     0.126675
     92 H                     0.129188
     93 H                     0.122693
     94 O                    -0.471906
     95 C                     0.610975
     96 C                    -0.264577
     97 H                     0.135804
     98 H                     0.132981
     99 C                    -0.196981
    100 H                     0.122285
    101 H                     0.107080
    102 C                    -0.193573
    103 H                     0.112416
    104 H                     0.115299
    105 C                     0.017553
    106 C                     0.089265
    107 C                    -0.104784
    108 H                     0.094961
    109 C                    -0.084560
    110 H                     0.097429
    111 C                    -0.091707
    112 H                     0.093160
    113 C                    -0.087741
    114 H                     0.093373
    115 C                    -0.112840
    116 H                     0.100906
    117 C                     0.004211
    118 C                     0.038614
    119 C                    -0.003310
    120 C                    -0.021322
    121 C                     0.016106
    122 C                    -0.022369
    123 C                    -0.003656
    124 C                    -0.012054
    125 C                    -0.002910
    126 C                    -0.000679
    127 C                    -0.095986
    128 C                     0.029795
    129 C                    -0.009109
    130 C                     0.013003
    131 C                     0.006102
    132 C                    -0.023487
    133 C                    -0.081888
    134 C                     0.061538
    135 C                     0.003530
    136 C                    -0.017922
    137 C                    -0.020028
    138 C                     0.003903
    139 C                    -0.029111
    140 C                    -0.012928
    141 C                     0.021562
    142 C                    -0.003613
    143 C                     0.014318
    144 C                    -0.008045
    145 C                    -0.010658
    146 C                     0.011466
    147 C                     0.030778
    148 C                     0.007359
    149 C                    -0.029942
    150 C                     0.000795
    151 C                     0.001215
    152 C                     0.014604
    153 C                    -0.037490
    154 C                     0.010673
    155 C                     0.008323
    156 C                    -0.020657
    157 C                     0.002629
    158 C                     0.042494
    159 C                    -0.008057
    160 C                     0.000770
    161 C                    -0.012695
    162 C                     0.011590
    163 C                    -0.014016
    164 C                    -0.014670
    165 C                     0.025736
    166 C                    -0.001162
    167 C                     0.002779
    168 C                    -0.002874
    169 C                    -0.035393
    170 C                    -0.028079
    171 C                     0.008704
    172 C                    -0.025731
    173 C                     0.009684
    174 C                     0.019962
    175 C                     0.011566
    176 C                     0.049402
  ----------------------------------------
  Sum of atomic charges =     0.000000

 -----------------------------------------------------------------
                    Cartesian Multipole Moments
 -----------------------------------------------------------------
    Charge (ESU x 10^10)
                 0.0000
    Dipole Moment (Debye)
         X       0.8711      Y       0.5458      Z      -2.8781
       Tot       3.0562
    Quadrupole Moments (Debye-Ang)
        XX    -840.1427     XY       3.3740     YY    -791.9272
        XZ       0.6648     YZ      -1.7809     ZZ    -795.5103
    Octopole Moments (Debye-Ang^2)
       XXX    -184.8514    XXY     307.6451    XYY     115.2068
       YYY      11.7236    XXZ     -95.6367    XYZ      46.4561
       YYZ    -108.1936    XZZ      63.2986    YZZ      21.2311
       ZZZ    -207.0895
    Hexadecapole Moments (Debye-Ang^3)
      XXXX -143919.3254   XXXY    1123.4682   XXYY  -30411.0752
      XYYY    -656.3800   YYYY  -44151.5694   XXXZ    -130.4520
      XXYZ    -317.2959   XYYZ     -24.6655   YYYZ    -170.0333
      XXZZ  -26578.7452   XYZZ    -759.8433   YYZZ  -11084.7876
      XZZZ    -349.6783   YZZZ     -28.5321   ZZZZ  -23590.6644
 -----------------------------------------------------------------
Archival summary:
1\1\mn366\SP\ProcedureUnspecified\6-31G**\428\afmv_a\MonOct804:28:462018MonOct804:28:462018\0\\#,ProcedureUnspecified,6-31G**,\\0,1\C\C,1,1.39607\C,2,1.40317,1,118.73\C,3,1.39388,2,119.706,1,3.80392,0\C,4,1.37037,3,121.71,2,-4.14783,0\C,5,1.38976,4,119.667,3,0.661602,0\C,6,1.38543,5,109.681,4,-140.439,0\C,7,1.40802,6,110.358,5,-2.29477,0\C,2,1.41349,1,109.451,3,-137.864,0\C,9,1.38135,2,124.123,1,146.729,0\C,10,1.36873,9,119.276,2,-140.974,0\C,9,1.38532,2,108.597,1,-6.47522,0\C,11,1.39322,10,107.566,9,138.479,0\C,13,1.41139,11,119.073,10,-140.067,0\C,14,1.38151,13,119.331,11,-5.93232,0\C,14,1.41139,13,125.168,11,141.2,0\C,16,1.38008,14,112.093,13,-147.155,0\C,17,1.38986,16,120.701,14,134.739,0\C,18,1.40586,17,120.29,16,5.97784,0\C,19,1.39026,18,119.466,17,-3.09573,0\C,20,1.41357,19,120.51,18,2.05089,0\C,3,1.4141,2,120.794,1,-138.868,0\C,22,1.3767,3,119.399,2,-0.199651,0\C,22,1.40427,3,107.207,2,142.38,0\C,24,1.3838,22,120.241,3,-145.954,0\C,25,1.38272,24,120.531,22,5.20826,0\C,26,1.39393,25,117.672,24,-2.06722,0\C,24,1.40964,22,108.037,3,0.409317,0\C,28,1.39195,24,118.097,22,-146.882,0\C,29,1.39503,28,122.444,24,3.72593,0\C,30,1.38954,29,118.921,28,-2.29766,0\C,30,1.3946,29,110.045,28,146.228,0\C,29,1.4145,28,117.851,24,143.282,0\C,33,1.39922,29,118.234,28,-5.15965,0\C,8,1.41678,7,120.975,6,145.662,0\C,35,1.41439,8,119.702,7,-1.94177,0\C,19,1.41769,18,110.306,17,-143.404,0\C,12,1.4183,9,121.3,2,146.951,0\C,38,1.38753,12,120.389,9,-129.01,0\C,38,1.40807,12,116.397,9,4.31673,0\C,39,1.41291,38,112.604,12,141.51,0\C,41,1.40864,39,119.208,38,-139.561,0\C,42,1.39276,41,121.577,39,-8.86277,0\C,43,1.37406,42,110.066,41,147.476,0\C,43,1.38417,42,118.325,41,4.86107,0\C,45,1.37992,43,119.614,42,140.532,0\C,46,1.40412,45,108.123,43,-143.926,0\C,45,1.40667,43,122.378,42,-3.53853,0\C,47,1.40743,46,109.184,45,-1.44129,0\C,49,1.40583,47,122.985,46,145.376,0\C,42,1.40833,41,121.181,39,131.731,0\C,51,1.41233,42,121.087,41,0.0290308,0\C,51,1.41393,42,108.457,41,-149.372,0\C,53,1.33807,51,118.755,42,143.553,0\C,15,1.4197,14,123.732,13,4.67703,0\C,37,1.42484,19,105.787,18,0.582256,0\C,44,1.43051,43,123.234,42,-144.206,0\C,57,1.38376,44,122.979,43,136.913,0\C,35,1.45481,8,119.571,7,-141.224,0\C,59,1.47007,35,121.699,8,4.57801,0\C,60,1.50893,59,61.7514,35,-114.645,0\C,61,1.46308,60,121.237,59,108.993,0\C,62,1.41315,61,118.436,60,62.13,0\H,63,1.08689,62,123.464,61,-12.4466,0\C,63,1.41657,62,119.781,61,168.927,0\H,65,1.08605,63,108.037,62,179.956,0\C,65,1.41943,63,118.549,62,5.73157,0\H,67,1.08582,65,117.834,63,179.875,0\C,67,1.37968,65,121.545,63,0.452201,0\H,69,1.08549,67,124.097,65,-178.576,0\C,62,1.41962,61,119.913,60,-125.111,0\H,71,1.08641,62,122.074,61,14.5873,0\C,61,1.52786,60,121.545,59,-106.545,0\H,73,1.09664,61,105.622,60,-98.2888,0\H,73,1.09778,61,118.76,60,17.4626,0\C,73,1.6172,61,113.431,60,141.437,0\H,76,1.09663,73,112.757,61,-49.1922,0\H,76,1.09762,73,107.481,61,64.8377,0\C,76,1.53026,73,112.926,61,-173.638,0\H,79,1.09701,76,105.945,73,-47.2564,0\H,79,1.09747,76,109.844,73,-167.749,0\C,79,1.47459,76,109.251,73,65.5186,0\O,82,1.20604,79,123.665,76,-127.894,0\O,82,1.36537,79,113.553,76,46.9915,0\C,84,1.45446,82,114.881,79,-165.923,0\H,85,1.09673,84,111.254,82,40.1607,0\H,85,1.09734,84,112.187,82,-74.5824,0\H,85,1.0975,84,107.29,82,153.317,0\H,48,2.96057,45,134.377,43,-126.221,0\C,89,1.09683,48,149.259,45,154.871,0\H,90,1.09718,89,111.221,48,-148.935,0\C,90,1.52353,89,109.915,48,90.5052,0\H,92,1.09685,90,103.72,89,178.61,0\H,92,1.09708,90,117.375,89,-67.9808,0\C,92,1.51946,90,115.173,89,58.2002,0\H,95,1.09694,92,107.407,90,45.5464,0\H,95,1.09697,92,112.3,90,-63.6842,0\C,95,1.59083,92,117.877,90,157.598,0\C,98,1.48496,95,113.574,92,-71.1361,0\C,99,1.38423,98,119.054,95,-81.6197,0\H,100,1.08555,99,116.805,98,-9.17531,0\C,100,1.40314,99,119.716,98,179.753,0\H,102,1.08643,100,123.762,99,-171.694,0\C,102,1.38748,100,118.383,99,-11.1721,0\H,104,1.08643,102,119.566,100,-164.126,0\C,104,1.37381,102,120.401,100,15.4454,0\H,106,1.08623,104,118.341,102,169.733,0\C,106,1.37804,104,121.472,102,-9.11721,0\H,108,1.08662,106,125.863,104,-177.2,0\C,98,1.49816,95,122.041,92,79.4836,0\C,110,1.42022,98,122.258,95,-145.423,0\C,111,1.45935,110,110.16,98,151.482,0\C,112,1.38728,111,123.986,110,142.668,0\C,113,1.39412,112,117.435,111,1.06404,0\C,114,1.3954,113,121.794,112,-9.07397,0\C,115,1.38258,114,123.933,113,-131.803,0\C,116,1.38533,115,118.116,114,0.574658,0\C,117,1.35361,116,119.25,115,137.301,0\C,116,1.39205,115,111.799,114,149.007,0\C,119,1.39106,116,105.579,115,-8.13858,0\C,120,1.37363,119,119.894,116,-140.9,0\C,121,1.37367,120,123.108,119,6.70424,0\C,120,1.38217,119,108.352,116,10.246,0\C,118,1.39213,117,112.301,116,-149.233,0\C,118,1.39473,117,124.32,116,8.73469,0\C,117,1.39759,116,122.619,115,-0.713952,0\C,126,1.35498,117,108.377,116,144.004,0\C,112,1.39827,111,107.539,110,-3.01313,0\C,125,1.41021,118,114.746,117,-8.75473,0\C,129,1.37413,125,106.282,118,-139.946,0\C,130,1.41051,129,108.363,125,6.11042,0\C,131,1.38986,130,122.654,129,140.694,0\C,132,1.35404,131,119.688,130,-0.470804,0\C,131,1.39498,130,110.299,129,-6.15853,0\C,133,1.40036,132,120.334,131,-2.31767,0\C,135,1.40978,133,122.795,132,-136.797,0\C,113,1.41296,112,121.22,111,-141.766,0\C,137,1.38665,113,120.827,112,0.460572,0\C,126,1.41358,117,118.256,116,1.0127,0\C,139,1.40549,126,117.424,117,134.751,0\C,136,1.41552,135,117.863,133,7.16341,0\C,141,1.39166,136,125.727,135,135.042,0\C,142,1.35688,141,120.714,136,1.83864,0\C,141,1.39353,136,120.24,135,-12.5267,0\C,142,1.39508,141,109.526,136,-148.579,0\C,145,1.39489,142,108.237,141,-1.07857,0\C,145,1.40791,142,120.283,141,142.671,0\C,147,1.3869,145,117.77,142,3.6958,0\C,147,1.41046,145,122.148,142,-135.974,0\C,149,1.3955,147,111.182,145,144.588,0\C,150,1.409,149,119.378,147,-136.217,0\C,151,1.4038,150,124.578,149,133.089,0\C,151,1.40704,150,117.938,149,-5.60201,0\C,152,1.41003,151,109.875,150,-143.947,0\C,153,1.41076,151,122.661,150,-1.21491,0\C,155,1.40653,153,119.307,151,5.48235,0\C,156,1.34904,155,108.023,153,140.346,0\C,155,1.40673,153,120.152,151,139.898,0\C,158,1.37555,155,110.071,153,-138.666,0\C,159,1.37672,158,121.801,155,146.483,0\C,160,1.40349,159,118.187,158,-4.91128,0\C,161,1.40504,160,121.613,159,6.82365,0\C,162,1.3836,161,119.352,160,-141.646,0\C,162,1.39909,161,118.609,160,-8.72142,0\C,164,1.39584,162,108.846,161,-142.06,0\C,165,1.38687,164,108.19,162,3.95674,0\C,154,1.41988,152,107.578,151,-1.65333,0\C,144,1.4228,141,121.177,136,10.3201,0\C,136,1.43323,135,111.813,133,146.746,0\C,90,1.61326,89,112.653,48,-36.3357,0\O,170,1.18586,90,123.505,89,161.407,0\O,170,1.33247,90,112.35,89,-15.212,0\C,172,1.46574,170,121.361,90,175.85,0\H,173,1.09689,172,117.971,170,-39.2131,0\H,173,1.0969,172,105.937,170,83.1554,0\H,173,1.0969,172,109.577,170,-171.814,0\\\@

 Total job time:  871.31s(wall), 7429.24s(cpu) 
 Mon Oct  8 04:28:46 2018

        *************************************************************
        *                                                           *
        *  Thank you very much for using Q-Chem.  Have a nice day.  *
        *                                                           *
        *************************************************************


