
Running Job 1 of 1 ./10/33.qcin
qchem ./10/33.qcin_22954.0 /tmpu/cab_g/afmv_a/scratch_qchem/qchem22954/ 1
/tmpu/appuserlic/qchem4.4/serial-multicore/exe/qcprog.exe_s ./10/33.qcin_22954.0 /tmpu/cab_g/afmv_a/scratch_qchem/qchem22954/
Check license passed

                  Welcome to Q-Chem
     A Quantum Leap Into The Future Of Chemistry


 Q-Chem 4.4, Q-Chem, Inc., Pleasanton, CA (2016)

 Y. Shao,  Z. Gan,  E. Epifanovsky,  A. T. B. Gilbert,  M. Wormit,  
 J. Kussmann,  A. W. Lange,  A. Behn,  J. Deng,  X. Feng,  D. Ghosh,  
 M. Goldey,  P. R. Horn,  L. D. Jacobson,  I. Kaliman,  F. Rob,  
 R. Z. Khaliullin,  T. Kus,  A. Landau,  J. Liu,  E. I. Proynov,  Y. M. Rhee,  
 R. M. Richard,  M. A. Rohrdanz,  R. P. Steele,  E. J. Sundstrom,  
 H. L. Woodcock III,  P. M. Zimmerman,  D. Zuev,  B. Albrecht,  E. Alguire,  
 B. Austin,  S. A. Baeppler,  G. J. O. Beran,  Y. A. Bernard,  E. Berquist,  
 K. Brandhorst,  K. B. Bravaya,  S. T. Brown,  D. Casanova,  C.-M. Chang,  
 Y. Chen,  S. H. Chien,  K. D. Closser,  M. P. Coons,  D. L. Crittenden,  
 S. Dasgupta,  M. Diedenhofen,  R. A. DiStasio Jr.,  H. Do,  A. D. Dutoi,  
 R. G. Edgar,  P.-T. Fang,  S. Fatehi,  Q. Feng,  L. Fusti-Molnar,  
 A. Ghysels,  A. Golubeva-Zadorozhnaya,  J. Gomes,  A. Gunina,  
 M. W. D. Hanson-Heine,  P. H. P. Harbach,  A. W. Hauser,  J. E. Herr,  
 E. G. Hohenstein,  Z. C. Holden,  K. Hui,  T.-C. Jagau,  H. Ji,  B. Kaduk,  
 K. Khistyaev,  Jaehoon Kim,  Jihan Kim,  R. A. King,  P. Klunzinger,  
 K. Koh,  D. Kosenkov,  T. Kowalczyk,  C. M. Krauter,  A. Kunitsa,  
 K. U. Lao,  A. Laurent,  K. V. Lawler,  J. Lee,  D. Lefrancois,  S. Lehtola,  
 S. V. Levchenko,  C. Y. Lin,  Y.-S. Lin,  F. Liu,  E. Livshits,  
 R. C. Lochan,  A. Luenser,  P. Manohar,  S. F. Manzer,  S.-P. Mao,  Y. Mao,  
 N. Mardirossian,  A. V. Marenich,  L. A. Martinez-Martinez,  S. A. Maurer,  
 N. J. Mayhall,  J.-M. Mewes,  A. F. Morrison,  K. Nanda,  T. S. Nguyen-Beck,  
 C. M. Oana,  R. Olivares-Amaya,  D. P. O'Neill,  J. A. Parkhill,  
 T. M. Perrine,  R. Peverati,  P. A. Pieniazek,  F. Plasser,  A. Prociuk,  
 D. R. Rehn,  E. Rosta,  N. J. Russ,  N. Sergueev,  S. M. Sharada,  
 S. Sharma,  D. W. Small,  A. Sodt,  T. Stauch,  T. Stein,  D. Stuck,  
 Y.-C. Su,  A. J. W. Thom,  T. Tsuchimochi,  L. Vogt,  O. Vydrov,  T. Wang,  
 M. A. Watson,  J. Wenzel,  A. White,  C. F. Williams,  V. Vanovschi,  
 K. Yao,  S. Yeganeh,  S. R. Yost,  Z.-Q. You,  I. Y. Zhang,  X. Zhang,  
 Y. Zhao,  B. R. Brooks,  G. K. L. Chan,  D. M. Chipman,  C. J. Cramer,  
 W. A. Goddard III,  M. S. Gordon,  W. J. Hehre,  A. Klamt,  
 H. F. Schaefer III,  M. W. Schmidt,  C. D. Sherrill,  D. G. Truhlar,  
 A. Warshel,  X. Xu,  A. Aspuru-Guzik,  R. Baer,  A. T. Bell,  N. A. Besley,  
 J.-D. Chai,  A. Dreuw,  B. D. Dunietz,  T. R. Furlani,  S. R. Gwaltney,  
 C.-P. Hsu,  Y. Jung,  J. Kong,  D. S. Lambrecht,  W. Liang,  C. Ochsenfeld,  
 V. A. Rassolov,  L. V. Slipchenko,  J. E. Subotnik,  T. Van Voorhis,  
 J. M. Herbert,  A. I. Krylov,  P. M. W. Gill,  M. Head-Gordon

 Contributors to earlier versions of Q-Chem not listed above: 
 R. D. Adamson,  J. Baker,  E. F. C. Byrd,  A. K. Chakraborty,  C.-L. Cheng,  
 H. Dachsel,  R. J. Doerksen,  G. Hawkins,  A. Heyden,  S. Hirata,  
 G. Kedziora,  F. J. Keil,  C. Kelley,  P. P. Korambath,  W. Kurlancheek,  
 A. M. Lee,  M. S. Lee,  D. Liotard,  I. Lotan,  P. E. Maslen,  N. Nair,  
 D. Neuhauser,  R. Olson,  B. Peters,  J. Ritchie,  N. E. Schultz,  
 N. Shenvi,  A. C. Simmonett,  K. S. Thanthiriwatte,  Q. Wu,  W. Zhang

 Please cite Q-Chem as follows:
 Y. Shao et al., Mol. Phys. 113, 184-215 (2015)
 DOI: 10.1080/00268976.2014.952696

 Q-Chem 4.4.2 for Intel X86 Linux

 Parts of Q-Chem use Armadillo 5.200.1 (Boston Tea Smuggler).
 http://arma.sourceforge.net/

 Q-Chem begins on Mon Oct  8 04:28:47 2018  

Host: 
0

     Scratch files written to /tmpu/cab_g/afmv_a/scratch_qchem/qchem22954//
 Dec716 11556_ 22328  22283 4050   
Processing $rem in /tmpu/appuserlic/qchem4.4/serial-multicore/config/preferences.
 MEM_TOTAL  2000 
FILE_GEOM_ORG=        593

Checking the input file for inconsistencies... 	...done.

--------------------------------------------------------------
User input:
--------------------------------------------------------------
$comment
SP
$end

$rem
MEM_STATIC 5000
MEM_TOTAL 20000
JOBTYPE SP
EXCHANGE B3LYP
BASIS 6-31g(d,p)
$end

$molecule
0 1
O          10.085000     13.057000      9.012000
C          11.326000     13.725000      9.059000
H          11.725000     13.615000      8.043000
H          11.994000     13.295000      9.817000
H          11.139000     14.763000      9.359000
O           8.853000     14.785000      8.139000
C           8.948000     13.680000      8.584000
C           7.718000     12.846000      8.828000
H           7.348000     12.523000      7.847000
H           7.056000     13.535000      9.368000
C           7.761000     11.554000      9.719000
H           8.522000     10.857000      9.346000
H           8.048000     11.795000     10.751000
C           6.386000     10.929000      9.805000
H           5.624000     11.648000     10.130000
H           6.016000     10.684000      8.802000
C           6.375000      9.658000     10.740000
C           6.289000     10.036000     12.194000
C           5.075000     10.171000     12.901000
H           4.073000     10.158000     12.482000
C           5.173000     10.486000     14.254000
H           4.272000     10.743000     14.803000
C           6.374000     10.710000     14.930000
H           6.413000     11.087000     15.948000
C           7.561000     10.430000     14.258000
H           8.519000     10.407000     14.769000
C           7.525000     10.144000     12.889000
H           8.437000     10.064000     12.306000
C           8.257000      4.559000     11.767000
C           5.932000      4.474000     12.573000
C           4.438000      1.796000      9.138000
C           8.553000      6.268000      7.079000
C           3.105000      4.529000      7.250000
C           7.177000      5.139000     12.438000
C           6.256000      5.323000      5.741000
C           6.552000      1.727000     10.442000
C           3.698000      6.956000     10.365000
C           7.494000      7.145000      6.841000
C           5.540000      8.480000     10.361000
C           3.647000      7.555000      9.086000
C           5.208000      7.260000      6.806000
C           5.064000      4.606000      5.865000
C           5.465000      6.615000     12.125000
C           4.578000      2.589000      6.973000
C           7.063000      8.333000     10.402000
C           7.727000      8.014000      9.116000
C           3.449000      3.152000      7.556000
C           8.551000      2.912000      7.790000
C           6.628000      1.705000      7.992000
C           7.267000      1.653000      9.184000
C           6.964000      2.539000     11.442000
C           8.776000      7.197000      9.343000
C           4.790000      7.484000     11.203000
C           5.867000      3.188000     12.043000
C           6.317000      6.631000      6.224000
C           4.893000      5.342000     12.391000
C           3.251000      6.641000      8.087000
C           9.632000      4.988000      8.569000
C           5.120000      1.797000     10.396000
C           4.823000      8.266000      8.974000
C           8.912000      3.244000     10.119000
C           3.993000      6.546000      6.927000
C           3.140000      5.709000     10.668000
C           6.844000      3.180000      6.106000
C           7.370000      4.466000      5.945000
C           2.689000      4.927000      9.630000
C           9.217000      6.323000      8.327000
C           7.062000      8.036000      7.861000
C           9.149000      4.179000      7.526000
C           7.674000      7.288000     11.341000
C           3.622000      3.587000     11.191000
C           5.646000      8.084000      7.831000
C           2.668000      5.382000      8.285000
C           9.550000      4.516000      9.862000
C           3.415000      2.710000      8.905000
C           8.224000      3.238000     11.300000
C           5.178000      1.760000      7.923000
C           3.700000      4.882000     11.684000
C           3.058000      3.629000      9.883000
C           6.852000      6.500000     12.174000
C           8.738000      6.718000     10.655000
C           7.406000      2.443000      7.122000
C           4.694000      2.703000     11.376000
C           3.919000      5.278000      6.377000
C           8.522000      5.005000      6.576000
C           5.412000      3.296000      6.063000
C           9.021000      5.353000     10.887000
C           8.435000      2.467000      9.070000
O          22.317000      5.364000      4.498000
C          22.219000      5.443000      5.947000
H          23.143000      5.818000      6.405000
H          22.110000      4.447000      6.393000
H          21.272000      5.945000      6.183000
O          23.747000      3.637000      4.752000
C          23.074000      4.329000      4.029000
C          22.894000      4.073000      2.588000
H          23.250000      3.047000      2.433000
H          23.410000      4.781000      1.927000
C          21.399000      4.053000      2.262000
H          20.962000      5.028000      2.509000
H          21.252000      3.963000      1.178000
C          20.618000      2.822000      2.962000
H          20.938000      1.875000      2.511000
H          21.021000      2.774000      3.982000
C          19.103000      2.877000      2.772000
C          18.794000      2.595000      1.370000
C          18.653000      1.247000      0.970000
H          18.567000      0.420000      1.670000
C          18.589000      0.925000     -0.408000
H          18.481000     -0.152000     -0.497000
C          18.545000      1.985000     -1.351000
H          18.494000      1.725000     -2.404000
C          18.554000      3.306000     -0.953000
H          18.544000      4.148000     -1.638000
C          18.795000      3.649000      0.419000
H          18.788000      4.694000      0.716000
C          14.725000      5.943000      3.542000
C          13.787000      3.708000      3.292000
C          12.567000      3.322000      7.705000
C          18.265000      6.155000      7.141000
C          15.462000      1.444000      8.536000
C          14.735000      4.655000      2.940000
C          17.611000      4.316000      9.188000
C          12.363000      5.202000      6.206000
C          16.443000      1.031000      4.689000
C          18.863000      4.959000      7.190000
C          18.154000      2.483000      3.877000
C          17.435000      1.091000      5.668000
C          18.601000      2.733000      7.641000
C          16.628000      3.406000      9.520000
C          15.783000      2.677000      3.050000
C          14.133000      3.386000      9.289000
C          18.296000      3.911000      3.558000
C          18.796000      4.755000      4.688000
C          14.242000      2.104000      8.674000
C          14.900000      7.137000      7.796000
C          13.269000      5.539000      8.405000
C          12.916000      6.094000      7.160000
C          12.690000      5.343000      4.811000
C          18.164000      5.986000      4.689000
C          16.795000      1.911000      3.639000
C          12.783000      4.041000      4.236000
C          18.556000      4.016000      8.214000
C          14.376000      2.450000      3.336000
C          17.070000      0.967000      7.003000
C          16.640000      7.330000      6.089000
C          12.266000      3.844000      6.462000
C          18.468000      1.930000      5.251000
C          14.292000      7.153000      5.429000
C          17.652000      1.786000      8.009000
C          15.093000      0.898000      5.001000
C          15.500000      5.368000      9.407000
C          16.894000      5.554000      9.114000
C          14.737000      0.742000      6.356000
C          17.842000      6.695000      5.889000
C          19.079000      4.210000      5.989000
C          16.256000      7.217000      7.423000
C          17.192000      4.686000      3.013000
C          13.096000      1.908000      5.310000
C          18.931000      2.820000      6.265000
C          15.684000      0.743000      7.365000
C          15.659000      7.260000      5.115000
C          13.220000      2.054000      7.712000
C          13.703000      6.252000      4.459000
C          13.144000      4.129000      8.648000
C          14.025000      1.571000      4.327000
C          13.493000      1.363000      6.553000
C          15.975000      4.037000      2.689000
C          17.165000      5.956000      3.635000
C          14.514000      6.179000      8.786000
C          12.433000      3.143000      5.246000
C          16.674000      2.091000      8.983000
C          17.237000      6.440000      8.069000
C          15.356000      4.010000      9.616000
C          15.911000      6.580000      3.941000
C          13.917000      6.982000      6.793000
$end

--------------------------------------------------------------
 ----------------------------------------------------------------
             Standard Nuclear Orientation (Angstroms)
    I     Atom           X                Y                Z
 ----------------------------------------------------------------
    1      O       3.6667601046    -7.0474191331    -2.0218552874
    2      C       2.7203722773    -8.0791579208    -1.8533941513
    3      H       1.9358673942    -7.8410001595    -2.5823591498
    4      H       2.3353989332    -8.1178569314    -0.8257824002
    5      H       3.2273870940    -9.0345184602    -2.0340463460
    6      O       4.7847985323    -7.9613154091    -3.8053127920
    7      C       4.6427340624    -7.1144162049    -2.9742565820
    8      C       5.6600920538    -6.0144692676    -2.8222978621
    9      H       5.5302949549    -5.3356699705    -3.6743390743
   10      H       6.6124034890    -6.5598269259    -2.8063932989
   11      C       5.7025524931    -5.1008563174    -1.5461699342
   12      H       4.7268272890    -4.6262285575    -1.3826223398
   13      H       5.9093081911    -5.6914605606    -0.6439988257
   14      C       6.8306572840    -4.0987313403    -1.6546646852
   15      H       7.7928060915    -4.5800220982    -1.8688115476
   16      H       6.7086596309    -3.4844839819    -2.5550816750
   17      C       6.9432996827    -3.1977948439    -0.3641562120
   18      C       7.6802085522    -3.9003506558     0.7438946212
   19      C       9.0738351399    -3.8051675915     0.9454265501
   20      H       9.7978316979    -3.3453521399     0.2789937070
   21      C       9.5929356233    -4.4853786099     2.0441920659
   22      H      10.6702520886    -4.5628810494     2.1565913786
   23      C       8.8387435009    -5.2713720032     2.9176688133
   24      H       9.2900480078    -5.8979731790     3.6816512793
   25      C       7.4523520529    -5.2359271724     2.7927071514
   26      H       6.7966484108    -5.6731582484     3.5398990412
   27      C       6.8777236673    -4.5983908519     1.6878982727
   28      H       5.8146434189    -4.6753274066     1.4830223295
   29      C       4.5905633569     0.5018245632     3.0083654001
   30      C       6.9680247351     1.1413886873     3.0418486257
   31      C       6.3618495683     4.9820114658     0.5750463757
   32      C       2.8200012429     0.1163017654    -1.6501883425
   33      C       7.3787339543     3.4664171371    -2.5038563471
   34      C       5.9448472886     0.1598298735     3.0530382621
   35      C       4.1346989701     2.0982618437    -3.1677133453
   36      C       4.9813891468     3.9863579716     2.3853436287
   37      C       8.6077184570     0.2401900678    -0.4973023384
   38      C       3.8561370976    -0.2572046674    -2.5070252204
   39      C       7.2867344502    -1.7523920185    -0.5104888223
   40      C       8.2704078012     0.0592545165    -1.8577165576
   41      C       5.9059018499     0.4141937858    -3.2737941406
   42      C       5.0951605141     3.1119820977    -3.1530890835
   43      C       7.6608731329    -0.5158223616     1.7090745875
   44      C       5.5420251397     4.7994732543    -1.5767532682
   45      C       5.9132180607    -2.1408666427     0.0421043319
   46      C       4.7402253793    -1.7303058687    -0.7653490849
   47      C       6.9013132132     4.5128507210    -1.6177710292
   48      C       2.3922633310     2.9575360861     0.2240285110
   49      C       3.9318261313     4.6378297950     0.2680902334
   50      C       3.8261245112     4.1510309665     1.5265587741
   51      C       5.1851984200     2.8467112727     3.0844539075
   52      C       3.7213720661    -1.4046929561     0.0564374795
   53      C       8.0799638156    -0.8273139803     0.3718363996
   54      C       6.5413918012     2.4668623534     3.0368586206
   55      C       4.5508305510     0.7668620868    -3.2133553759
   56      C       8.0067402424     0.7542921129     2.2435408298
   57      C       8.0310513033     1.2854021780    -2.5130663718
   58      C       2.1797082760     0.5113373743     0.4609044514
   59      C       6.2553716187     4.4152344801     1.8846704801
   60      C       7.3277303694    -0.9469040994    -1.8644321545
   61      C       3.0696006838     1.9121041559     2.2520995625
   62      C       6.8863221643     1.4337146506    -3.2698937028
   63      C       8.9613769905     1.4722070648     0.0641616061
   64      C       3.3003828530     3.7390001560    -1.8702880461
   65      C       3.0401888213     2.4443952948    -2.3314716528
   66      C       8.7835782018     2.6080142409    -0.6912843876
   67      C       2.7370663929    -0.4905372802    -0.3749263367
   68      C       4.8376214612    -1.1908033334    -2.0757631483
   69      C       2.0227249720     1.6835937895    -0.2985625587
   70      C       5.5206039112    -1.6535233435     1.4404668165
   71      C       8.2890954654     3.0871170444     1.4601703126
   72      C       6.0990371737    -0.7517072596    -2.5493505618
   73      C       8.3625867089     2.5647936131    -2.0467876669
   74      C       2.6682333222     0.6183670895     1.7459122021
   75      C       7.3757264147     4.5616833451    -0.2802851455
   76      C       4.1530723981     1.8312944110     3.0813762529
   77      C       5.2095061257     5.0924537109    -0.2526178683
   78      C       8.6912876411     1.7590818667     1.4332998720
   79      C       8.2795042708     3.5889307104     0.1264480576
   80      C       6.4186690350    -0.8897815490     2.2155116570
   81      C       4.1767358097    -1.3111776237     1.3740594828
   82      C       3.0476324120     3.9439140115    -0.5341007365
   83      C       7.2187381969     3.4768047027     2.2770814748
   84      C       6.4635662864     2.7513092107    -3.3018631097
   85      C       2.3786926313     1.4023688973    -1.6297667450
   86      C       4.5853357721     4.1255234244    -2.3854819499
   87      C       3.7267693859    -0.2352998729     2.1722795544
   88      C       2.9116713536     3.0550560877     1.4772587992
   89      O     -10.6799630592    -2.9863632167     0.5972339256
   90      C      -9.9978743909    -3.4134913227     1.8087464635
   91      H     -10.5598180432    -4.1846036308     2.3507521277
   92      H      -9.9343961739    -2.5969660372     2.5381777311
   93      H      -8.9522934682    -3.6129309569     1.5413640286
   94      O     -12.2212852062    -1.9736975209     1.8975335940
   95      C     -11.7622236793    -2.1793567561     0.8014091515
   96      C     -12.2307331138    -1.5013631538    -0.4213911531
   97      H     -12.8281313995    -0.6523492456    -0.0668101725
   98      H     -12.8042251838    -2.1364550613    -1.1085637041
   99      C     -11.0313403504    -0.8949958042    -1.1531538443
  100      H     -10.3358294745    -1.6954806665    -1.4326025993
  101      H     -11.3516408379    -0.4737382684    -2.1147747084
  102      C     -10.3170204126     0.2908106009    -0.3171321962
  103      H     -10.9835666255     1.1599142948    -0.2624978186
  104      H     -10.2799376826    -0.0744050499     0.7174476217
  105      C      -9.0296117220     0.7996624818    -0.9636603291
  106      C      -9.3730139682     1.5338998926    -2.1816830390
  107      C      -9.6931770852     2.9059718123    -2.0725994676
  108      H      -9.5130094030     3.4940251286    -1.1764644869
  109      C     -10.2540658506     3.5878190876    -3.1803684354
  110      H     -10.4220551561     4.6206522745    -2.8895949819
  111      C     -10.3656674687     2.8980368291    -4.4158968709
  112      H     -10.7953655071     3.4323668609    -5.2578357124
  113      C      -9.9342847232     1.5951127973    -4.5566942222
  114      H     -10.0196436427     1.0216512525    -5.4743786513
  115      C      -9.5292244250     0.8366060914    -3.4083442180
  116      H      -9.1824925678    -0.1845782939    -3.5396548055
  117      C      -4.1655537154    -0.7093816662    -2.7591729210
  118      C      -3.9033779436     1.6906493328    -2.4295002521
  119      C      -1.1371010420     1.2645178686     1.2144109816
  120      C      -5.8431348832    -3.0520930809     1.3913414631
  121      C      -3.7872855212     1.7680044048     3.5212472423
  122      C      -4.6882318861     0.6120806633    -2.8038141765
  123      C      -4.8340952026    -1.7209213357     3.6738108950
  124      C      -1.1534777337     0.0368036070    -0.8629591096
  125      C      -6.2843984281     2.8440959414     0.5991259007
  126      C      -6.6111794079    -2.1853180771     2.0615874633
  127      C      -7.8260592921     1.1771325231    -0.1355058048
  128      C      -6.7661527256     2.1949930404     1.7360881783
  129      C      -6.6705678597    -0.2078984283     3.2076265308
  130      C      -4.0181331094    -0.6586823445     4.0061769401
  131      C      -5.9995416923     2.0180591048    -1.6520419706
  132      C      -1.8887760953     0.2572392064     3.0544876949
  133      C      -7.7765361639    -0.0747050664    -0.9046346037
  134      C      -7.5925847357    -1.3076025961    -0.0767689423
  135      C      -2.5036795870     1.5436004174     3.0262294083
  136      C      -2.3714195169    -2.9873475320     0.5791995855
  137      C      -1.0131056132    -1.1608724348     1.2145090049
  138      C      -1.0767984237    -1.2100044922    -0.1912606301
  139      C      -1.9715709102     0.1740160947    -2.0397051688
  140      C      -6.7668322191    -2.2080090796    -0.7265280868
  141      C      -6.8301816260     2.2129189394    -0.5430388392
  142      C      -2.5604982382     1.4730748989    -2.0302804347
  143      C      -6.1292949467    -1.5053409897     3.2180875829
  144      C      -4.6785615025     2.6177809567    -1.7432507335
  145      C      -5.9344772369     2.0712481732     2.8423562694
  146      C      -4.5633982035    -3.2868285700    -0.4620681734
  147      C      -1.2533960243     1.2272344175    -0.1615321209
  148      C      -7.6757037063     1.2029279837     1.3708171327
  149      C      -2.7696262017    -2.1632962183    -1.6868498113
  150      C      -5.8784408400     0.8667142486     3.5956682544
  151      C      -4.9839245293     3.3328442348     0.5129531425
  152      C      -2.6400532312    -2.0226019336     2.8334808142
  153      C      -3.9609397241    -2.5790585312     2.9298962062
  154      C      -4.1591007953     3.2296237220     1.6514206798
  155      C      -5.8503611639    -3.0623470834    -0.0362003529
  156      C      -7.4419882459    -1.2590691943     1.3531542047
  157      C      -3.7128347999    -3.4138751894     0.6334600338
  158      C      -6.8443650840    -0.2586713485    -2.0063058273
  159      C      -2.8646103137     3.0067687014    -0.1982233489
  160      C      -7.4952336673    -0.0280120997     2.0685864901
  161      C      -4.6012834798     2.6408422862     2.8230442945
  162      C      -4.0915874759    -2.6337196478    -1.5875815554
  163      C      -1.9862583803     2.1891627492     1.8913494275
  164      C      -2.8224840438    -0.8920068484    -2.3801400727
  165      C      -1.1042791891     0.0893937990     1.9154339107
  166      C      -4.1569878409     3.2635428482    -0.6528950599
  167      C      -2.8388417343     3.0326634016     1.2154061799
  168      C      -6.0258210786     0.8221536247    -2.4174859442
  169      C      -6.3023699657    -1.5635437357    -1.9425693015
  170      C      -1.8358077700    -2.2582359959     1.6875210301
  171      C      -2.0362763070     2.1305675748    -0.9158753252
  172      C      -4.5527401604     0.6576738038     4.0395204827
  173      C      -4.4954252951    -3.2139805811     1.7871498805
  174      C      -2.7167880875    -0.8038197263     3.4794395535
  175      C      -4.9290821359    -1.7890960366    -2.2871483142
  176      C      -1.9274508680    -2.2490163412    -0.5406583928
 ----------------------------------------------------------------
 Molecular Point Group                 C1    NOp =  1
 Largest Abelian Subgroup              C1    NOp =  1
 Nuclear Repulsion Energy = 33824.1290003720 hartrees
 There are      462 alpha and      462 beta electrons
 Requested basis set is 6-31G(d,p)
 There are 676 shells and 2360 basis functions

 Total QAlloc Memory Limit  20000 MB
 Mega-Array Size      4888 MB
 MEM_STATIC part      5000 MB
 A cutoff of  1.0D-08 yielded  36994 shell pairs
 There are    521693 function pairs
 
 -------------------------------------------------------
 OpenMP Integral Computing Module                       
 Release: version 1.0, May 2013, Q-Chem Inc. Pittsburgh 
 -------------------------------------------------------
 Integral Job Info:
 Integral job number is                      11
 Integral operator is                         1
 short-range coefficients                     0
 long-range coefficients              100000000
 Omega coefficients                           0
 if combine SR and LR in K                    0
 Integral screening is                        0
 Integral computing path is                   2
 max size of driver memory is            800000
 size of driver memory is                593474
 size of scratch memory is              2260544
 max col of scratch BK array               1296
 max len of scratch array in speh3          155
 max len of scratch index in speh4           18
 max int batch size is                      520
 min int batch size is                       52
 fixed nKL is                                52
 max L of basis functions is                  2
 order of int derivative is                   0
 number of shells is                        676
 number of basis is                        2360
 number of cartesian basis is              2360
 number of contracted shell pairs         36994
 number of primitive shell pairs         112585
 maxK2 (contraction) of shell pair           36
 max number of K2 of shell pair               1
 max number of CS2 of shell pair           7110
 max number of PS2 of shell pair          34182
 mem total for path MDJ                 1485112
 -------------------------------------------------------
 Smallest overlap matrix eigenvalue = 2.56E-04

 Scale SEOQF with 1.000000e-02/1.000000e-02/1.000000e-02

 Standard Electronic Orientation quadrupole field applied
 Nucleus-field energy     =     0.0000001422 hartrees
 Guess from superposition of atomic densities
 Warning:  Energy on first SCF cycle will be non-variational
 A restricted hybrid HF-DFT SCF calculation will be
 performed using Pulay DIIS extrapolation
 Exchange:     0.2000 Hartree-Fock + 0.0800 Slater + 0.7200 B88
 Correlation:  0.1900 VWN1RPA + 0.8100 LYP
 Using SG-1 standard quadrature grid
 SCF converges when DIIS error is below 1.0E-05
 using 16 threads for integral computing 
 -------------------------------------------------------
 OpenMP BLAS3 based DFT computing Module                
 Release: version 1.0, May 2013, Q-Chem Inc. Pittsburgh 
 -------------------------------------------------------
 ---------------------------------------
  Cycle       Energy         DIIS Error
 ---------------------------------------
    1   -5858.0935835714      1.82E-02
    2   -5803.1883656798      1.27E-03
    3   -5802.5779173648      1.69E-03
    4   -5804.0167523799      6.31E-04
    5   -5804.2300584270      3.09E-04
    6   -5804.2966476088      1.22E-04
    7   -5804.3062387569      4.81E-05
    8   -5804.3072943944      3.13E-05
    9   -5804.3080322707      8.49E-06 Convergence criterion met
 ---------------------------------------
 SCF time:  CPU 7149.71 s  wall 825.25 s
 SCF   energy in the final basis set = -5804.3080322707
 Total energy in the final basis set = -5804.3080322707
 
 --------------------------------------------------------------
 
                    Orbital Energies (a.u.)
 --------------------------------------------------------------
 
 Alpha MOs
 -- Occupied --
-19.190 -19.190 -19.137 -19.134 -10.317 -10.311 -10.246 -10.240
-10.240 -10.240 -10.239 -10.239 -10.236 -10.233 -10.233 -10.231
-10.230 -10.229 -10.228 -10.228 -10.228 -10.226 -10.225 -10.225
-10.225 -10.224 -10.224 -10.224 -10.223 -10.223 -10.223 -10.222
-10.222 -10.221 -10.221 -10.221 -10.220 -10.220 -10.220 -10.220
-10.220 -10.219 -10.219 -10.219 -10.219 -10.219 -10.219 -10.218
-10.218 -10.218 -10.218 -10.218 -10.218 -10.218 -10.218 -10.218
-10.217 -10.217 -10.217 -10.217 -10.217 -10.217 -10.217 -10.217
-10.217 -10.217 -10.216 -10.216 -10.216 -10.216 -10.216 -10.216
-10.216 -10.216 -10.216 -10.216 -10.216 -10.216 -10.216 -10.215
-10.215 -10.215 -10.215 -10.215 -10.215 -10.215 -10.215 -10.215
-10.215 -10.215 -10.214 -10.214 -10.214 -10.214 -10.214 -10.214
-10.214 -10.213 -10.213 -10.213 -10.213 -10.213 -10.213 -10.213
-10.213 -10.212 -10.212 -10.212 -10.212 -10.212 -10.212 -10.212
-10.212 -10.212 -10.212 -10.212 -10.212 -10.212 -10.211 -10.211
-10.211 -10.210 -10.210 -10.210 -10.209 -10.209 -10.209 -10.209
-10.208 -10.207 -10.207 -10.206 -10.206 -10.206 -10.206 -10.205
-10.204 -10.204 -10.203 -10.202 -10.202 -10.201 -10.198 -10.198
-10.197 -10.197 -10.196 -10.194  -1.100  -1.096  -1.026  -1.011
 -0.983  -0.982  -0.966  -0.964  -0.963  -0.962  -0.961  -0.960
 -0.937  -0.932  -0.927  -0.926  -0.925  -0.923  -0.922  -0.922
 -0.920  -0.920  -0.896  -0.895  -0.890  -0.887  -0.887  -0.885
 -0.876  -0.874  -0.853  -0.853  -0.845  -0.842  -0.840  -0.838
 -0.838  -0.834  -0.821  -0.819  -0.808  -0.806  -0.798  -0.798
 -0.798  -0.795  -0.795  -0.792  -0.791  -0.789  -0.787  -0.785
 -0.773  -0.772  -0.770  -0.769  -0.767  -0.767  -0.764  -0.760
 -0.752  -0.752  -0.745  -0.738  -0.731  -0.730  -0.717  -0.716
 -0.715  -0.714  -0.714  -0.714  -0.713  -0.712  -0.711  -0.708
 -0.708  -0.706  -0.705  -0.704  -0.702  -0.701  -0.673  -0.672
 -0.661  -0.660  -0.658  -0.655  -0.650  -0.645  -0.633  -0.631
 -0.630  -0.630  -0.626  -0.623  -0.622  -0.621  -0.620  -0.618
 -0.617  -0.615  -0.614  -0.614  -0.613  -0.612  -0.608  -0.608
 -0.606  -0.604  -0.604  -0.601  -0.570  -0.567  -0.564  -0.563
 -0.562  -0.562  -0.559  -0.558  -0.557  -0.556  -0.554  -0.550
 -0.541  -0.536  -0.534  -0.534  -0.529  -0.528  -0.526  -0.525
 -0.525  -0.522  -0.520  -0.519  -0.517  -0.516  -0.515  -0.511
 -0.507  -0.506  -0.504  -0.501  -0.497  -0.493  -0.490  -0.488
 -0.487  -0.484  -0.483  -0.481  -0.479  -0.478  -0.477  -0.476
 -0.474  -0.471  -0.471  -0.470  -0.470  -0.469  -0.469  -0.466
 -0.466  -0.465  -0.464  -0.463  -0.461  -0.461  -0.461  -0.459
 -0.458  -0.455  -0.453  -0.451  -0.447  -0.447  -0.446  -0.444
 -0.444  -0.442  -0.442  -0.440  -0.439  -0.438  -0.437  -0.434
 -0.433  -0.432  -0.431  -0.428  -0.427  -0.427  -0.425  -0.425
 -0.423  -0.422  -0.422  -0.421  -0.420  -0.420  -0.419  -0.418
 -0.417  -0.416  -0.416  -0.415  -0.415  -0.414  -0.414  -0.413
 -0.412  -0.411  -0.408  -0.407  -0.404  -0.401  -0.399  -0.397
 -0.395  -0.393  -0.393  -0.392  -0.390  -0.389  -0.386  -0.386
 -0.377  -0.377  -0.372  -0.371  -0.371  -0.369  -0.367  -0.365
 -0.364  -0.364  -0.363  -0.361  -0.361  -0.360  -0.360  -0.358
 -0.357  -0.357  -0.356  -0.356  -0.355  -0.354  -0.353  -0.353
 -0.350  -0.350  -0.348  -0.348  -0.346  -0.345  -0.345  -0.344
 -0.344  -0.342  -0.341  -0.340  -0.339  -0.337  -0.337  -0.335
 -0.334  -0.331  -0.331  -0.330  -0.329  -0.328  -0.326  -0.323
 -0.315  -0.304  -0.300  -0.300  -0.290  -0.284  -0.274  -0.273
 -0.272  -0.270  -0.269  -0.269  -0.268  -0.267  -0.266  -0.265
 -0.263  -0.262  -0.261  -0.260  -0.258  -0.257  -0.256  -0.254
 -0.251  -0.247  -0.246  -0.246  -0.225  -0.216  -0.216  -0.214
 -0.211  -0.209  -0.207  -0.205  -0.202  -0.199
 -- Virtual --
 -0.124  -0.123  -0.122  -0.118  -0.112  -0.108  -0.082  -0.079
 -0.074  -0.071  -0.061  -0.059  -0.056  -0.049  -0.029  -0.024
 -0.022  -0.022  -0.021  -0.020  -0.017  -0.017  -0.016  -0.015
 -0.014  -0.012  -0.011  -0.010  -0.008  -0.007   0.003   0.008
  0.009   0.014   0.029   0.037   0.040   0.041   0.042   0.045
  0.047   0.050   0.050   0.054   0.059   0.060   0.061   0.067
  0.070   0.072   0.079   0.079   0.082   0.083   0.085   0.086
  0.093   0.095   0.096   0.097   0.098   0.104   0.105   0.106
  0.108   0.108   0.111   0.112   0.114   0.117   0.118   0.119
  0.121   0.124   0.124   0.128   0.130   0.132   0.132   0.133
  0.136   0.142   0.142   0.147   0.148   0.150   0.153   0.157
  0.157   0.159   0.161   0.162   0.165   0.167   0.167   0.169
  0.169   0.170   0.173   0.174   0.174   0.177   0.179   0.179
  0.180   0.184   0.185   0.188   0.188   0.189   0.190   0.191
  0.192   0.195   0.196   0.197   0.200   0.201   0.203   0.204
  0.207   0.208   0.209   0.209   0.213   0.213   0.214   0.216
  0.217   0.218   0.219   0.221   0.221   0.222   0.223   0.226
  0.228   0.230   0.232   0.233   0.234   0.235   0.237   0.239
  0.240   0.244   0.245   0.248   0.250   0.253   0.254   0.256
  0.263   0.264   0.268   0.269   0.274   0.275   0.276   0.276
  0.281   0.282   0.284   0.286   0.286   0.292   0.297   0.298
  0.305   0.308   0.310   0.311   0.312   0.315   0.317   0.319
  0.320   0.321   0.322   0.323   0.323   0.325   0.328   0.330
  0.332   0.335   0.338   0.340   0.342   0.345   0.345   0.346
  0.347   0.352   0.363   0.372   0.373   0.375   0.387   0.388
  0.391   0.394   0.395   0.396   0.398   0.400   0.405   0.406
  0.407   0.410   0.411   0.412   0.414   0.417   0.418   0.422
  0.425   0.428   0.430   0.432   0.433   0.438   0.441   0.444
  0.445   0.448   0.451   0.454   0.454   0.454   0.458   0.460
  0.462   0.464   0.465   0.465   0.470   0.471   0.472   0.472
  0.474   0.475   0.477   0.479   0.480   0.481   0.482   0.484
  0.485   0.486   0.487   0.488   0.488   0.489   0.493   0.493
  0.495   0.496   0.496   0.497   0.499   0.500   0.501   0.502
  0.503   0.504   0.504   0.506   0.507   0.508   0.509   0.510
  0.511   0.512   0.512   0.513   0.514   0.515   0.516   0.517
  0.517   0.518   0.519   0.520   0.521   0.522   0.524   0.524
  0.525   0.525   0.526   0.526   0.527   0.527   0.529   0.530
  0.531   0.531   0.533   0.534   0.535   0.536   0.537   0.538
  0.538   0.540   0.541   0.541   0.542   0.543   0.543   0.544
  0.545   0.546   0.546   0.547   0.547   0.548   0.549   0.551
  0.552   0.553   0.553   0.554   0.555   0.556   0.556   0.557
  0.557   0.558   0.559   0.560   0.561   0.562   0.562   0.563
  0.564   0.564   0.565   0.566   0.567   0.567   0.568   0.569
  0.570   0.571   0.572   0.572   0.573   0.574   0.575   0.576
  0.576   0.577   0.578   0.578   0.579   0.580   0.583   0.584
  0.584   0.585   0.586   0.586   0.587   0.588   0.588   0.589
  0.590   0.591   0.592   0.593   0.593   0.594   0.595   0.596
  0.597   0.598   0.599   0.600   0.600   0.602   0.603   0.604
  0.605   0.606   0.607   0.610   0.611   0.611   0.613   0.614
  0.616   0.617   0.618   0.618   0.620   0.620   0.621   0.623
  0.624   0.625   0.625   0.626   0.628   0.629   0.630   0.632
  0.632   0.633   0.633   0.634   0.635   0.636   0.636   0.638
  0.639   0.640   0.642   0.644   0.645   0.645   0.646   0.647
  0.648   0.649   0.650   0.651   0.651   0.653   0.654   0.654
  0.655   0.657   0.658   0.660   0.660   0.661   0.662   0.662
  0.664   0.664   0.665   0.665   0.667   0.667   0.668   0.669
  0.670   0.670   0.671   0.672   0.673   0.674   0.674   0.676
  0.677   0.677   0.679   0.681   0.682   0.684   0.686   0.686
  0.687   0.688   0.689   0.690   0.691   0.692   0.693   0.694
  0.695   0.696   0.697   0.698   0.700   0.701   0.701   0.703
  0.703   0.704   0.706   0.708   0.708   0.710   0.711   0.712
  0.714   0.715   0.715   0.717   0.719   0.720   0.721   0.722
  0.723   0.723   0.725   0.726   0.727   0.728   0.729   0.731
  0.732   0.733   0.734   0.738   0.739   0.741   0.742   0.744
  0.747   0.748   0.750   0.751   0.753   0.755   0.755   0.756
  0.759   0.759   0.760   0.762   0.763   0.764   0.765   0.766
  0.768   0.768   0.769   0.771   0.772   0.774   0.775   0.775
  0.777   0.779   0.779   0.781   0.782   0.782   0.783   0.784
  0.785   0.785   0.787   0.788   0.791   0.793   0.794   0.796
  0.796   0.798   0.799   0.800   0.800   0.801   0.802   0.803
  0.804   0.805   0.806   0.807   0.808   0.809   0.809   0.810
  0.811   0.812   0.812   0.813   0.814   0.815   0.816   0.816
  0.817   0.818   0.818   0.819   0.820   0.820   0.822   0.823
  0.826   0.827   0.827   0.828   0.830   0.831   0.831   0.834
  0.836   0.837   0.839   0.840   0.842   0.842   0.845   0.846
  0.847   0.850   0.850   0.855   0.857   0.860   0.861   0.863
  0.870   0.870   0.871   0.878   0.880   0.882   0.883   0.889
  0.891   0.892   0.894   0.897   0.898   0.900   0.902   0.903
  0.904   0.905   0.907   0.909   0.911   0.913   0.915   0.917
  0.920   0.922   0.925   0.927   0.929   0.930   0.931   0.934
  0.935   0.938   0.943   0.943   0.944   0.946   0.949   0.953
  0.953   0.955   0.957   0.959   0.964   0.966   0.968   0.970
  0.971   0.973   0.976   0.978   0.980   0.980   0.982   0.987
  0.988   0.990   0.992   0.993   0.998   0.999   1.001   1.004
  1.007   1.008   1.009   1.011   1.012   1.014   1.015   1.017
  1.018   1.019   1.022   1.023   1.025   1.027   1.028   1.029
  1.031   1.032   1.034   1.036   1.038   1.041   1.041   1.042
  1.044   1.045   1.046   1.047   1.050   1.052   1.052   1.054
  1.056   1.060   1.061   1.062   1.065   1.067   1.068   1.070
  1.071   1.072   1.074   1.075   1.077   1.079   1.081   1.082
  1.083   1.084   1.086   1.088   1.090   1.091   1.091   1.094
  1.094   1.096   1.097   1.099   1.102   1.102   1.103   1.105
  1.106   1.110   1.111   1.113   1.116   1.119   1.120   1.122
  1.124   1.130   1.131   1.133   1.134   1.136   1.140   1.142
  1.143   1.145   1.149   1.151   1.153   1.154   1.156   1.157
  1.160   1.162   1.163   1.165   1.166   1.167   1.168   1.170
  1.173   1.174   1.175   1.176   1.178   1.179   1.181   1.182
  1.185   1.186   1.187   1.187   1.188   1.190   1.193   1.195
  1.198   1.200   1.201   1.202   1.207   1.209   1.212   1.215
  1.217   1.219   1.222   1.225   1.227   1.233   1.234   1.239
  1.240   1.242   1.244   1.249   1.250   1.250   1.253   1.256
  1.258   1.259   1.261   1.265   1.266   1.268   1.270   1.272
  1.274   1.276   1.277   1.279   1.282   1.284   1.286   1.288
  1.289   1.293   1.293   1.295   1.299   1.304   1.305   1.307
  1.308   1.310   1.313   1.316   1.317   1.321   1.324   1.325
  1.329   1.331   1.332   1.335   1.338   1.340   1.344   1.344
  1.348   1.349   1.351   1.353   1.355   1.357   1.362   1.363
  1.366   1.367   1.369   1.371   1.378   1.380   1.382   1.384
  1.386   1.388   1.392   1.394   1.398   1.399   1.402   1.403
  1.408   1.410   1.412   1.415   1.417   1.420   1.423   1.429
  1.431   1.433   1.435   1.439   1.441   1.446   1.447   1.448
  1.449   1.452   1.456   1.456   1.459   1.461   1.463   1.464
  1.465   1.465   1.467   1.469   1.471   1.472   1.475   1.477
  1.479   1.482   1.484   1.485   1.487   1.489   1.492   1.494
  1.499   1.502   1.504   1.507   1.509   1.511   1.513   1.516
  1.520   1.521   1.522   1.528   1.530   1.530   1.532   1.536
  1.538   1.540   1.544   1.546   1.547   1.552   1.553   1.553
  1.558   1.559   1.560   1.564   1.566   1.568   1.571   1.574
  1.575   1.578   1.580   1.581   1.582   1.586   1.586   1.588
  1.588   1.592   1.595   1.595   1.598   1.612   1.614   1.620
  1.623   1.624   1.627   1.628   1.633   1.635   1.637   1.645
  1.650   1.652   1.653   1.656   1.663   1.667   1.669   1.675
  1.678   1.680   1.684   1.685   1.690   1.692   1.694   1.696
  1.699   1.700   1.703   1.707   1.710   1.711   1.713   1.714
  1.717   1.718   1.721   1.723   1.723   1.724   1.727   1.730
  1.732   1.734   1.734   1.736   1.738   1.740   1.741   1.742
  1.744   1.745   1.748   1.751   1.752   1.753   1.754   1.756
  1.758   1.759   1.760   1.761   1.763   1.765   1.765   1.766
  1.769   1.770   1.771   1.772   1.773   1.775   1.776   1.777
  1.778   1.779   1.780   1.780   1.782   1.782   1.783   1.785
  1.785   1.786   1.787   1.789   1.790   1.792   1.792   1.794
  1.795   1.798   1.798   1.800   1.802   1.803   1.805   1.806
  1.807   1.809   1.810   1.811   1.812   1.813   1.816   1.820
  1.822   1.822   1.824   1.828   1.830   1.832   1.832   1.834
  1.839   1.841   1.842   1.847   1.849   1.849   1.850   1.852
  1.854   1.856   1.858   1.862   1.863   1.863   1.866   1.866
  1.867   1.868   1.872   1.872   1.876   1.880   1.881   1.882
  1.884   1.886   1.891   1.893   1.894   1.895   1.902   1.904
  1.906   1.907   1.907   1.912   1.914   1.917   1.917   1.922
  1.923   1.926   1.928   1.931   1.932   1.934   1.935   1.936
  1.937   1.940   1.941   1.944   1.944   1.948   1.949   1.950
  1.952   1.953   1.955   1.957   1.961   1.962   1.963   1.963
  1.967   1.970   1.973   1.975   1.976   1.977   1.979   1.979
  1.981   1.982   1.985   1.986   1.988   1.989   1.990   1.991
  1.993   1.993   1.996   1.998   1.999   2.000   2.001   2.003
  2.005   2.006   2.006   2.007   2.010   2.010   2.011   2.012
  2.014   2.015   2.016   2.017   2.018   2.020   2.021   2.022
  2.023   2.024   2.025   2.027   2.029   2.029   2.032   2.033
  2.034   2.035   2.036   2.037   2.038   2.040   2.041   2.042
  2.042   2.043   2.044   2.047   2.048   2.048   2.049   2.051
  2.053   2.055   2.057   2.058   2.060   2.061   2.061   2.063
  2.064   2.065   2.065   2.067   2.069   2.070   2.073   2.073
  2.075   2.077   2.079   2.081   2.082   2.084   2.084   2.087
  2.088   2.089   2.092   2.093   2.096   2.097   2.099   2.101
  2.105   2.106   2.108   2.111   2.113   2.114   2.117   2.119
  2.123   2.125   2.129   2.132   2.135   2.136   2.137   2.143
  2.145   2.145   2.148   2.152   2.154   2.158   2.160   2.167
  2.170   2.173   2.179   2.181   2.190   2.193   2.194   2.201
  2.203   2.205   2.208   2.212   2.214   2.219   2.221   2.221
  2.225   2.225   2.228   2.231   2.234   2.237   2.240   2.241
  2.243   2.244   2.248   2.250   2.254   2.256   2.257   2.259
  2.261   2.264   2.267   2.267   2.271   2.272   2.276   2.276
  2.277   2.278   2.281   2.286   2.289   2.290   2.292   2.294
  2.295   2.296   2.298   2.301   2.308   2.309   2.310   2.314
  2.316   2.317   2.320   2.321   2.323   2.327   2.329   2.330
  2.334   2.338   2.340   2.343   2.344   2.347   2.349   2.351
  2.353   2.355   2.356   2.358   2.359   2.360   2.364   2.366
  2.366   2.367   2.369   2.371   2.372   2.375   2.375   2.378
  2.380   2.383   2.384   2.386   2.387   2.389   2.390   2.391
  2.392   2.395   2.397   2.397   2.401   2.404   2.406   2.406
  2.407   2.410   2.411   2.412   2.414   2.416   2.416   2.420
  2.422   2.424   2.428   2.432   2.437   2.440   2.441   2.444
  2.445   2.447   2.448   2.451   2.454   2.456   2.459   2.461
  2.461   2.462   2.464   2.468   2.470   2.475   2.477   2.477
  2.478   2.480   2.482   2.484   2.487   2.489   2.490   2.491
  2.493   2.494   2.496   2.498   2.500   2.501   2.503   2.505
  2.508   2.509   2.511   2.512   2.514   2.518   2.520   2.522
  2.522   2.527   2.528   2.528   2.532   2.534   2.536   2.538
  2.540   2.542   2.544   2.546   2.549   2.550   2.552   2.557
  2.558   2.563   2.564   2.567   2.572   2.574   2.579   2.583
  2.586   2.587   2.591   2.592   2.594   2.597   2.599   2.602
  2.604   2.606   2.608   2.611   2.613   2.613   2.617   2.619
  2.621   2.621   2.622   2.624   2.628   2.630   2.630   2.631
  2.632   2.635   2.636   2.637   2.638   2.640   2.642   2.643
  2.645   2.646   2.647   2.648   2.651   2.652   2.654   2.656
  2.657   2.657   2.659   2.660   2.661   2.665   2.666   2.668
  2.670   2.671   2.673   2.673   2.675   2.679   2.680   2.681
  2.686   2.687   2.690   2.690   2.693   2.697   2.699   2.702
  2.703   2.705   2.710   2.711   2.714   2.715   2.719   2.723
  2.725   2.725   2.729   2.730   2.733   2.733   2.737   2.739
  2.741   2.745   2.745   2.749   2.751   2.752   2.754   2.755
  2.759   2.760   2.761   2.762   2.766   2.766   2.769   2.772
  2.774   2.774   2.776   2.779   2.782   2.787   2.788   2.793
  2.796   2.805   2.805   2.807   2.809   2.810   2.815   2.818
  2.823   2.825   2.828   2.830   2.833   2.835   2.837   2.842
  2.843   2.846   2.848   2.852   2.854   2.855   2.858   2.859
  2.860   2.863   2.865   2.868   2.869   2.871   2.873   2.874
  2.875   2.876   2.877   2.880   2.882   2.884   2.885   2.887
  2.889   2.889   2.891   2.892   2.893   2.895   2.896   2.898
  2.899   2.902   2.903   2.906   2.907   2.909   2.911   2.912
  2.915   2.918   2.921   2.923   2.925   2.927   2.928   2.930
  2.931   2.935   2.937   2.941   2.942   2.943   2.946   2.947
  2.951   2.957   2.962   2.964   2.966   2.967   2.972   2.975
  2.975   2.978   2.980   2.984   2.984   2.987   2.992   2.995
  2.997   3.001   3.002   3.003   3.008   3.010   3.014   3.017
  3.020   3.021   3.024   3.028   3.032   3.033   3.037   3.040
  3.040   3.042   3.050   3.052   3.056   3.059   3.059   3.061
  3.066   3.069   3.071   3.076   3.078   3.085   3.086   3.100
  3.107   3.109   3.116   3.124   3.136   3.138   3.140   3.147
  3.149   3.155   3.167   3.167   3.174   3.176   3.177   3.183
  3.193   3.201   3.203   3.209   3.210   3.220   3.228   3.230
  3.235   3.239   3.249   3.251   3.256   3.258   3.271   3.274
  3.280   3.292   3.302   3.304   3.305   3.314   3.317   3.328
  3.335   3.337   3.337   3.342   3.344   3.355   3.359   3.376
  3.383   3.402   3.408   3.420   3.422   3.431   3.435   3.443
  3.449   3.453   3.454   3.459   3.470   3.476   3.477   3.487
  3.491   3.493   3.494   3.499   3.504   3.515   3.531   3.535
  3.544   3.546   3.553   3.567   3.570   3.573   3.580   3.584
  3.603   3.608   3.676   3.678   3.838   3.864   4.019   4.064
  4.071   4.071   4.079   4.084   4.089   4.092   4.094   4.095
  4.098   4.101   4.109   4.110   4.115   4.117   4.123   4.124
  4.126   4.130   4.136   4.139   4.140   4.146   4.150   4.153
  4.155   4.156   4.161   4.167   4.172   4.175   4.180   4.181
  4.187   4.189   4.198   4.205   4.209   4.213   4.233   4.235
  4.241   4.242   4.245   4.248   4.253   4.255   4.260   4.264
  4.268   4.268   4.273   4.276   4.279   4.286   4.289   4.292
  4.303   4.315   4.315   4.320   4.370   4.376   4.384   4.389
  4.393   4.396   4.398   4.400   4.403   4.406   4.409   4.413
  4.417   4.420   4.422   4.429   4.433   4.444   4.451   4.477
  4.484   4.485   4.491   4.508   4.525   4.531   4.544   4.554
  4.560   4.565   4.609   4.611   4.622   4.627   4.630   4.633
  4.635   4.663   4.676   4.682   4.687   4.691   4.691   4.695
  4.696   4.698   4.699   4.703   4.738   4.742   4.811   4.819
  4.841   4.849   4.854   4.856   4.863   4.874   4.883   4.892
  4.899   4.906   4.947   4.948   4.961   4.963   4.967   4.972
  4.977   4.981   4.994   4.998   5.145   5.155   5.170   5.177
  5.189   5.192   5.206   5.210   5.298   5.310   5.317   5.334
  5.345   5.359
 --------------------------------------------------------------
 
          Ground-State Mulliken Net Atomic Charges

     Atom                 Charge (a.u.)
  ----------------------------------------
      1 O                    -0.464601
      2 C                    -0.083920
      3 H                     0.126634
      4 H                     0.123586
      5 H                     0.129210
      6 O                    -0.453609
      7 C                     0.589599
      8 C                    -0.264731
      9 H                     0.137020
     10 H                     0.139192
     11 C                    -0.179789
     12 H                     0.114337
     13 H                     0.107572
     14 C                    -0.183718
     15 H                     0.112164
     16 H                     0.104646
     17 C                     0.008463
     18 C                     0.068417
     19 C                    -0.096944
     20 H                     0.098513
     21 C                    -0.097953
     22 H                     0.084069
     23 C                    -0.075007
     24 H                     0.093060
     25 C                    -0.095694
     26 H                     0.090841
     27 C                    -0.094504
     28 H                     0.094431
     29 C                     0.014872
     30 C                    -0.001974
     31 C                    -0.009927
     32 C                     0.015418
     33 C                    -0.020067
     34 C                    -0.026243
     35 C                    -0.011660
     36 C                    -0.013150
     37 C                     0.002451
     38 C                    -0.034011
     39 C                    -0.099932
     40 C                    -0.014242
     41 C                    -0.008236
     42 C                     0.027208
     43 C                     0.003407
     44 C                     0.006643
     45 C                    -0.096200
     46 C                     0.075615
     47 C                    -0.008213
     48 C                     0.018277
     49 C                     0.030678
     50 C                    -0.014619
     51 C                     0.017225
     52 C                     0.009287
     53 C                     0.032982
     54 C                     0.012977
     55 C                     0.002861
     56 C                    -0.001034
     57 C                     0.016233
     58 C                     0.000418
     59 C                    -0.008075
     60 C                     0.033471
     61 C                     0.011538
     62 C                     0.002566
     63 C                     0.002670
     64 C                    -0.033617
     65 C                     0.006583
     66 C                     0.002136
     67 C                     0.000436
     68 C                    -0.029556
     69 C                    -0.013939
     70 C                     0.025468
     71 C                    -0.011532
     72 C                     0.005070
     73 C                    -0.022289
     74 C                    -0.024145
     75 C                     0.013153
     76 C                    -0.025060
     77 C                    -0.011592
     78 C                    -0.013278
     79 C                     0.018006
     80 C                     0.018577
     81 C                    -0.009023
     82 C                     0.005194
     83 C                    -0.007797
     84 C                    -0.003511
     85 C                     0.004107
     86 C                    -0.006076
     87 C                     0.012935
     88 C                    -0.003556
     89 O                    -0.468240
     90 C                    -0.088559
     91 H                     0.126533
     92 H                     0.129283
     93 H                     0.122923
     94 O                    -0.471499
     95 C                     0.610411
     96 C                    -0.264399
     97 H                     0.135611
     98 H                     0.132854
     99 C                    -0.196987
    100 H                     0.122460
    101 H                     0.106835
    102 C                    -0.193713
    103 H                     0.112095
    104 H                     0.115472
    105 C                     0.018051
    106 C                     0.090517
    107 C                    -0.104991
    108 H                     0.095013
    109 C                    -0.084843
    110 H                     0.096941
    111 C                    -0.092037
    112 H                     0.092608
    113 C                    -0.088197
    114 H                     0.093239
    115 C                    -0.112906
    116 H                     0.101281
    117 C                     0.006477
    118 C                     0.028865
    119 C                     0.000986
    120 C                    -0.021302
    121 C                     0.016323
    122 C                    -0.016253
    123 C                    -0.004547
    124 C                    -0.005822
    125 C                    -0.003089
    126 C                    -0.001102
    127 C                    -0.097409
    128 C                     0.029148
    129 C                    -0.008985
    130 C                     0.012880
    131 C                     0.007845
    132 C                    -0.024818
    133 C                    -0.080503
    134 C                     0.061585
    135 C                     0.003812
    136 C                    -0.009744
    137 C                    -0.018289
    138 C                     0.007009
    139 C                    -0.029651
    140 C                    -0.013959
    141 C                     0.021220
    142 C                    -0.002234
    143 C                     0.014643
    144 C                    -0.015131
    145 C                    -0.009252
    146 C                     0.010401
    147 C                     0.034652
    148 C                     0.007577
    149 C                    -0.030593
    150 C                    -0.000343
    151 C                     0.001201
    152 C                     0.015152
    153 C                    -0.037327
    154 C                     0.010369
    155 C                     0.007941
    156 C                    -0.020931
    157 C                     0.002875
    158 C                     0.042349
    159 C                    -0.006526
    160 C                     0.001046
    161 C                    -0.013260
    162 C                     0.015644
    163 C                    -0.019793
    164 C                    -0.003376
    165 C                     0.033364
    166 C                    -0.000650
    167 C                     0.002984
    168 C                    -0.004086
    169 C                    -0.034877
    170 C                    -0.026385
    171 C                    -0.004613
    172 C                    -0.025271
    173 C                     0.010866
    174 C                     0.018785
    175 C                     0.011392
    176 C                     0.019785
  ----------------------------------------
  Sum of atomic charges =     0.000000

 -----------------------------------------------------------------
                    Cartesian Multipole Moments
 -----------------------------------------------------------------
    Charge (ESU x 10^10)
                 0.0000
    Dipole Moment (Debye)
         X      -1.0541      Y      -1.0775      Z      -0.3935
       Tot       1.5578
    Quadrupole Moments (Debye-Ang)
        XX    -795.6676     XY     -19.6366     YY    -803.3906
        XZ      41.2928     YZ     -20.8231     ZZ    -816.8590
    Octopole Moments (Debye-Ang^2)
       XXX     130.8460    XXY     -46.7581    XYY    -171.2277
       YYY    -131.6344    XXZ    -348.5247    XYZ    -118.0822
       YYZ     172.9561    XZZ    -123.1190    YZZ       2.9708
       ZZZ     -28.6146
    Hexadecapole Moments (Debye-Ang^3)
      XXXX -190568.7083   XXXY   -3852.1109   XXYY  -37585.1376
      XYYY      -3.0600   YYYY  -40329.7613   XXXZ    5370.7634
      XXYZ    -573.8539   XYYZ    1215.3884   YYYZ   -1572.9904
      XXZZ  -35323.2828   XYZZ      -6.6474   YYZZ  -11061.6813
      XZZZ     845.6292   YZZZ    -424.8134   ZZZZ  -22452.5416
 -----------------------------------------------------------------
Archival summary:
1\1\mn366\SP\ProcedureUnspecified\6-31G**\428\afmv_a\MonOct804:42:492018MonOct804:42:492018\0\\#,ProcedureUnspecified,6-31G**,\\0,1\C\C,1,1.3789\C,1,1.40557,2,118.579\C,3,1.40638,1,108.446,2,-142.016,0\C,4,1.35983,3,106.587,1,3.72713,0\C,5,1.39544,4,120.221,3,145.073,0\C,5,1.41472,4,111.908,3,-1.62105,0\C,7,1.41089,5,120.839,4,143.861,0\C,8,1.34886,7,119.809,5,1.49925,0\C,8,1.39722,7,118.185,5,-137.742,0\C,10,1.38838,8,110.124,7,146.129,0\C,11,1.41086,10,120.592,8,-136.535,0\C,12,1.39262,11,120.889,10,134.581,0\C,10,1.4132,8,118.675,7,5.81101,0\C,14,1.41015,10,122.534,8,136.404,0\C,15,1.39751,14,118.989,10,-0.0159077,0\C,15,1.40151,14,109.605,10,-147.597,0\C,17,1.3668,15,105.779,14,2.53696,0\C,18,1.38984,17,118.486,15,140.947,0\C,19,1.3601,18,119.876,17,-144.436,0\C,20,1.40613,19,105.575,18,145.79,0\C,21,1.37523,20,120.33,19,-147.365,0\C,21,1.38088,20,109.739,19,1.06551,0\C,23,1.35347,21,108.023,20,2.00409,0\C,22,1.39871,21,115.093,20,8.85207,0\C,16,1.41791,15,121.98,14,-136.988,0\C,26,1.36604,16,110.925,15,139.047,0\C,26,1.39245,16,115.97,15,-2.43421,0\C,28,1.40919,26,123.458,16,-2.05306,0\C,29,1.35244,28,110.776,26,147.053,0\C,25,1.42023,22,106.043,21,136.644,0\C,31,1.39566,25,118.785,22,-146.849,0\C,31,1.39654,25,110.3,22,-4.0418,0\C,33,1.36982,31,106.678,25,3.59393,0\C,32,1.40152,31,121.988,25,140.885,0\C,35,1.38616,32,108.894,31,-144.745,0\C,35,1.41445,32,119.254,31,-0.900098,0\C,37,1.38029,35,119.928,32,-137.947,0\C,37,1.38412,35,118.318,32,4.51041,0\C,38,1.40149,37,106.291,35,145.182,0\C,39,1.40916,37,105.762,35,-144.373,0\C,38,1.41075,37,119.263,35,-6.3144,0\C,42,1.37878,38,121.064,37,5.76192,0\C,42,1.41324,38,112.111,37,130.791,0\C,44,1.39935,42,124.006,38,13.6087,0\C,45,1.37563,44,118.289,42,-10.0248,0\C,46,1.37294,45,108.076,44,-138.625,0\C,47,1.3887,46,124.4,45,145.704,0\C,48,1.39148,47,120.382,46,-142.368,0\C,36,1.41713,35,108.134,32,-3.04249,0\C,48,1.41997,47,117.984,46,-2.40708,0\C,51,1.38978,48,106.97,47,-138.788,0\C,52,1.39633,51,107.708,48,-3.27872,0\C,45,1.42471,44,120.994,42,-150.356,0\C,54,1.38786,45,105.44,44,140.754,0\C,55,1.40174,54,119.907,45,-138.735,0\C,56,1.40097,55,123.234,54,140.761,0\C,13,1.43557,12,122.744,11,-2.65879,0\C,9,1.48204,8,109.437,7,-153.585,0\C,58,1.50449,13,121.721,12,9.05939,0\C,60,1.49283,58,131.235,13,62.5414,0\C,61,1.50479,60,114.303,58,10.336,0\C,62,1.41134,61,123.864,60,47.855,0\H,63,1.08616,62,126.808,61,8.86566,0\C,63,1.39264,62,116.602,61,-178.036,0\H,65,1.08593,63,119.098,62,-171.071,0\C,65,1.39626,63,124.554,62,-1.92532,0\H,67,1.08627,65,122.703,63,-171.303,0\C,67,1.39246,65,117.861,63,8.86877,0\H,69,1.08601,67,121.948,65,168.802,0\C,69,1.39902,67,119.434,65,-9.97166,0\H,71,1.08537,69,121.269,67,-171.002,0\C,61,1.57791,60,119.28,58,146.344,0\H,73,1.09678,61,111.076,60,18.2362,0\H,73,1.09692,61,110.339,60,-92.376,0\C,73,1.51283,61,111.888,60,141.982,0\H,76,1.0973,73,112.783,61,-58.2839,0\H,76,1.09794,73,105.952,61,57.3911,0\C,76,1.57003,73,110.325,61,177.729,0\H,79,1.09708,76,105.927,73,58.3888,0\H,79,1.09753,76,104.709,73,-63.4772,0\C,79,1.50599,76,121.688,73,-179.267,0\O,82,1.19502,79,120.496,76,164.888,0\O,82,1.36531,79,112.128,76,-10.8789,0\C,84,1.41015,82,121.815,79,170.842,0\H,85,1.09655,84,107.906,82,-36.466,0\H,85,1.09707,84,103.987,82,85.1923,0\H,85,1.09804,84,111.894,82,-153.421,0\C,3,3.31059,1,88.4638,2,112.473,0\C,89,1.38135,3,87.3747,1,-58.192,0\C,90,1.36873,89,119.276,3,99.1269,0\C,89,1.38532,3,91.4969,1,63.2071,0\C,91,1.39322,90,107.566,89,138.479,0\C,93,1.41139,91,119.073,90,-140.067,0\C,94,1.38151,93,119.331,91,-5.93232,0\C,94,1.41139,93,125.168,91,141.2,0\C,96,1.38008,94,112.093,93,-147.155,0\C,97,1.38986,96,120.701,94,134.739,0\C,98,1.40586,97,120.29,96,5.97784,0\C,99,1.39026,98,119.466,97,-3.09573,0\C,89,1.41349,3,115.971,1,174.773,0\C,101,1.39607,89,109.451,3,-107.694,0\C,101,1.40317,89,116.942,3,113.6,0\C,103,1.39388,101,119.706,89,138.6,0\C,104,1.37037,103,121.71,101,-4.14783,0\C,105,1.38976,104,119.667,103,0.661602,0\C,106,1.38543,105,109.681,104,-140.439,0\C,107,1.40802,106,110.358,105,-2.29477,0\C,100,1.41357,99,120.51,98,2.05089,0\C,103,1.4141,101,120.794,89,-4.07263,0\C,110,1.3767,103,119.399,101,-0.199651,0\C,110,1.40427,103,107.207,101,142.38,0\C,112,1.3838,110,120.241,103,-145.954,0\C,113,1.38272,112,120.531,110,5.20826,0\C,114,1.39393,113,117.672,112,-2.06722,0\C,112,1.40964,110,108.037,103,0.409317,0\C,116,1.39195,112,118.097,110,-146.882,0\C,117,1.39503,116,122.444,112,3.72593,0\C,118,1.38954,117,118.921,116,-2.29766,0\C,118,1.3946,117,110.045,116,146.228,0\C,117,1.4145,116,117.851,112,143.282,0\C,121,1.39922,117,118.234,116,-5.15965,0\C,108,1.41678,107,120.975,106,145.662,0\C,123,1.41439,108,119.702,107,-1.94177,0\C,99,1.41769,98,110.306,97,-143.404,0\C,92,1.4183,89,121.3,3,-94.9505,0\C,126,1.38753,92,120.389,89,-129.01,0\C,126,1.40807,92,116.397,89,4.31673,0\C,127,1.41291,126,112.604,92,141.51,0\C,129,1.40864,127,119.208,126,-139.561,0\C,130,1.39276,129,121.577,127,-8.86277,0\C,131,1.37406,130,110.066,129,147.476,0\C,131,1.38417,130,118.325,129,4.86107,0\C,133,1.37992,131,119.614,130,140.532,0\C,134,1.40412,133,108.123,131,-143.926,0\C,133,1.40667,131,122.378,130,-3.53853,0\C,135,1.40743,134,109.184,133,-1.44129,0\C,137,1.40583,135,122.985,134,145.376,0\C,130,1.40833,129,121.181,127,131.731,0\C,139,1.41233,130,121.087,129,0.0290308,0\C,139,1.41393,130,108.457,129,-149.372,0\C,141,1.33807,139,118.755,130,143.553,0\C,95,1.4197,94,123.732,93,4.67703,0\C,125,1.42484,99,105.787,98,0.582256,0\C,132,1.43051,131,123.234,130,-144.206,0\C,145,1.38376,132,122.979,131,136.913,0\C,123,1.45481,108,119.571,107,-141.224,0\C,147,1.47007,123,121.699,108,4.57801,0\C,148,1.50893,147,61.7514,123,-114.645,0\C,149,1.46308,148,121.237,147,108.993,0\C,150,1.41315,149,118.436,148,62.13,0\H,151,1.08689,150,123.464,149,-12.4466,0\C,151,1.41657,150,119.781,149,168.927,0\H,153,1.08605,151,108.037,150,179.956,0\C,153,1.41943,151,118.549,150,5.73157,0\H,155,1.08582,153,117.834,151,179.875,0\C,155,1.37968,153,121.545,151,0.452201,0\H,157,1.08549,155,124.097,153,-178.576,0\C,150,1.41962,149,119.913,148,-125.111,0\H,159,1.08641,150,122.074,149,14.5873,0\C,149,1.52786,148,121.545,147,-106.545,0\H,161,1.09664,149,105.622,148,-98.2888,0\H,161,1.09778,149,118.76,148,17.4626,0\C,161,1.6172,149,113.431,148,141.437,0\H,164,1.09663,161,112.757,149,-49.1922,0\H,164,1.09762,161,107.481,149,64.8377,0\C,164,1.53026,161,112.926,149,-173.638,0\H,167,1.09701,164,105.945,161,-47.2564,0\H,167,1.09747,164,109.844,161,-167.749,0\C,167,1.47459,164,109.251,161,65.5186,0\O,170,1.20604,167,123.665,164,-127.894,0\O,170,1.36537,167,113.553,164,46.9915,0\C,172,1.45446,170,114.881,167,-165.923,0\H,173,1.09673,172,111.254,170,40.1607,0\H,173,1.09734,172,112.187,170,-74.5824,0\H,173,1.0975,172,107.29,170,153.317,0\\\@

 Total job time:  841.69s(wall), 7177.36s(cpu) 
 Mon Oct  8 04:42:49 2018

        *************************************************************
        *                                                           *
        *  Thank you very much for using Q-Chem.  Have a nice day.  *
        *                                                           *
        *************************************************************


