
Running Job 1 of 1 ./10/5.qcin
qchem ./10/5.qcin_23961.0 /tmpu/cab_g/afmv_a/scratch_qchem/qchem23961/ 1
/tmpu/appuserlic/qchem4.4/serial-multicore/exe/qcprog.exe_s ./10/5.qcin_23961.0 /tmpu/cab_g/afmv_a/scratch_qchem/qchem23961/
Check license passed

                  Welcome to Q-Chem
     A Quantum Leap Into The Future Of Chemistry


 Q-Chem 4.4, Q-Chem, Inc., Pleasanton, CA (2016)

 Y. Shao,  Z. Gan,  E. Epifanovsky,  A. T. B. Gilbert,  M. Wormit,  
 J. Kussmann,  A. W. Lange,  A. Behn,  J. Deng,  X. Feng,  D. Ghosh,  
 M. Goldey,  P. R. Horn,  L. D. Jacobson,  I. Kaliman,  F. Rob,  
 R. Z. Khaliullin,  T. Kus,  A. Landau,  J. Liu,  E. I. Proynov,  Y. M. Rhee,  
 R. M. Richard,  M. A. Rohrdanz,  R. P. Steele,  E. J. Sundstrom,  
 H. L. Woodcock III,  P. M. Zimmerman,  D. Zuev,  B. Albrecht,  E. Alguire,  
 B. Austin,  S. A. Baeppler,  G. J. O. Beran,  Y. A. Bernard,  E. Berquist,  
 K. Brandhorst,  K. B. Bravaya,  S. T. Brown,  D. Casanova,  C.-M. Chang,  
 Y. Chen,  S. H. Chien,  K. D. Closser,  M. P. Coons,  D. L. Crittenden,  
 S. Dasgupta,  M. Diedenhofen,  R. A. DiStasio Jr.,  H. Do,  A. D. Dutoi,  
 R. G. Edgar,  P.-T. Fang,  S. Fatehi,  Q. Feng,  L. Fusti-Molnar,  
 A. Ghysels,  A. Golubeva-Zadorozhnaya,  J. Gomes,  A. Gunina,  
 M. W. D. Hanson-Heine,  P. H. P. Harbach,  A. W. Hauser,  J. E. Herr,  
 E. G. Hohenstein,  Z. C. Holden,  K. Hui,  T.-C. Jagau,  H. Ji,  B. Kaduk,  
 K. Khistyaev,  Jaehoon Kim,  Jihan Kim,  R. A. King,  P. Klunzinger,  
 K. Koh,  D. Kosenkov,  T. Kowalczyk,  C. M. Krauter,  A. Kunitsa,  
 K. U. Lao,  A. Laurent,  K. V. Lawler,  J. Lee,  D. Lefrancois,  S. Lehtola,  
 S. V. Levchenko,  C. Y. Lin,  Y.-S. Lin,  F. Liu,  E. Livshits,  
 R. C. Lochan,  A. Luenser,  P. Manohar,  S. F. Manzer,  S.-P. Mao,  Y. Mao,  
 N. Mardirossian,  A. V. Marenich,  L. A. Martinez-Martinez,  S. A. Maurer,  
 N. J. Mayhall,  J.-M. Mewes,  A. F. Morrison,  K. Nanda,  T. S. Nguyen-Beck,  
 C. M. Oana,  R. Olivares-Amaya,  D. P. O'Neill,  J. A. Parkhill,  
 T. M. Perrine,  R. Peverati,  P. A. Pieniazek,  F. Plasser,  A. Prociuk,  
 D. R. Rehn,  E. Rosta,  N. J. Russ,  N. Sergueev,  S. M. Sharada,  
 S. Sharma,  D. W. Small,  A. Sodt,  T. Stauch,  T. Stein,  D. Stuck,  
 Y.-C. Su,  A. J. W. Thom,  T. Tsuchimochi,  L. Vogt,  O. Vydrov,  T. Wang,  
 M. A. Watson,  J. Wenzel,  A. White,  C. F. Williams,  V. Vanovschi,  
 K. Yao,  S. Yeganeh,  S. R. Yost,  Z.-Q. You,  I. Y. Zhang,  X. Zhang,  
 Y. Zhao,  B. R. Brooks,  G. K. L. Chan,  D. M. Chipman,  C. J. Cramer,  
 W. A. Goddard III,  M. S. Gordon,  W. J. Hehre,  A. Klamt,  
 H. F. Schaefer III,  M. W. Schmidt,  C. D. Sherrill,  D. G. Truhlar,  
 A. Warshel,  X. Xu,  A. Aspuru-Guzik,  R. Baer,  A. T. Bell,  N. A. Besley,  
 J.-D. Chai,  A. Dreuw,  B. D. Dunietz,  T. R. Furlani,  S. R. Gwaltney,  
 C.-P. Hsu,  Y. Jung,  J. Kong,  D. S. Lambrecht,  W. Liang,  C. Ochsenfeld,  
 V. A. Rassolov,  L. V. Slipchenko,  J. E. Subotnik,  T. Van Voorhis,  
 J. M. Herbert,  A. I. Krylov,  P. M. W. Gill,  M. Head-Gordon

 Contributors to earlier versions of Q-Chem not listed above: 
 R. D. Adamson,  J. Baker,  E. F. C. Byrd,  A. K. Chakraborty,  C.-L. Cheng,  
 H. Dachsel,  R. J. Doerksen,  G. Hawkins,  A. Heyden,  S. Hirata,  
 G. Kedziora,  F. J. Keil,  C. Kelley,  P. P. Korambath,  W. Kurlancheek,  
 A. M. Lee,  M. S. Lee,  D. Liotard,  I. Lotan,  P. E. Maslen,  N. Nair,  
 D. Neuhauser,  R. Olson,  B. Peters,  J. Ritchie,  N. E. Schultz,  
 N. Shenvi,  A. C. Simmonett,  K. S. Thanthiriwatte,  Q. Wu,  W. Zhang

 Please cite Q-Chem as follows:
 Y. Shao et al., Mol. Phys. 113, 184-215 (2015)
 DOI: 10.1080/00268976.2014.952696

 Q-Chem 4.4.2 for Intel X86 Linux

 Parts of Q-Chem use Armadillo 5.200.1 (Boston Tea Smuggler).
 http://arma.sourceforge.net/

 Q-Chem begins on Mon Oct  8 05:56:04 2018  

Host: 
0

     Scratch files written to /tmpu/cab_g/afmv_a/scratch_qchem/qchem23961//
 Dec716 11556_ 22328  22283 4050   
Processing $rem in /tmpu/appuserlic/qchem4.4/serial-multicore/config/preferences.
 MEM_TOTAL  2000 
FILE_GEOM_ORG=        593

Checking the input file for inconsistencies... 	...done.

--------------------------------------------------------------
User input:
--------------------------------------------------------------
$comment
SP
$end

$rem
MEM_STATIC 5000
MEM_TOTAL 20000
JOBTYPE SP
EXCHANGE B3LYP
BASIS 6-31g(d,p)
$end

$molecule
0 1
O          -4.457000      6.272000    -12.995000
C          -3.364000      7.198000    -12.896000
H          -2.882000      7.458000    -13.846000
H          -2.544000      6.733000    -12.336000
H          -3.554000      8.193000    -12.475000
O          -5.785000      7.667000    -14.301000
C          -5.490000      6.551000    -13.873000
C          -6.415000      5.309000    -14.086000
H          -5.900000      4.341000    -14.127000
H          -6.754000      5.463000    -15.118000
C          -7.553000      5.260000    -13.105000
H          -8.021000      6.253000    -13.108000
H          -8.383000      4.596000    -13.377000
C          -7.082000      4.988000    -11.621000
H          -6.629000      3.989000    -11.596000
H          -6.356000      5.724000    -11.254000
C          -8.173000      5.082000    -10.513000
C          -8.589000      6.482000    -10.356000
C          -9.658000      6.937000    -11.112000
H         -10.345000      6.206000    -11.527000
C         -10.038000      8.307000    -11.169000
H         -10.949000      8.532000    -11.716000
C          -9.259000      9.209000    -10.389000
H          -9.462000     10.276000    -10.385000
C          -8.178000      8.720000     -9.624000
H          -7.558000      9.503000     -9.198000
C          -7.838000      7.377000     -9.613000
H          -7.047000      7.006000     -8.968000
C          -8.935000      3.759000     -5.390000
C         -11.261000      3.958000     -6.166000
C         -12.028000     -0.585000     -6.052000
C          -6.144000      0.635000     -8.180000
C         -11.415000     -1.029000     -9.554000
C          -9.925000      4.423000     -6.185000
C          -7.800000     -1.330000     -9.182000
C         -10.855000      0.850000     -4.459000
C         -11.378000      2.991000    -10.101000
C          -6.628000      0.717000     -9.515000
C          -9.193000      3.936000    -10.306000
C         -10.548000      2.126000    -10.865000
C          -8.463000      0.328000    -10.883000
C          -9.126000     -1.756000     -9.141000
C         -10.681000      4.475000     -8.340000
C         -10.762000     -1.961000     -7.405000
C          -8.041000      4.150000     -9.325000
C          -7.060000      3.094000     -9.194000
C         -11.764000     -1.385000     -8.211000
C          -7.682000     -0.452000     -5.203000
C          -9.779000     -1.140000     -5.309000
C          -9.783000     -0.045000     -4.494000
C         -10.603000      2.231000     -4.630000
C          -6.554000      2.955000     -7.927000
C         -10.540000      4.046000     -9.666000
C         -11.588000      2.842000     -5.396000
C          -7.466000     -0.303000    -10.079000
C         -11.757000      3.966000     -7.532000
C         -10.873000      0.754000    -10.941000
C          -6.343000      1.433000     -6.038000
C         -12.026000      0.614000     -5.252000
C          -9.226000      2.606000    -10.964000
C          -8.244000      1.836000     -4.486000
C          -9.778000     -0.158000    -10.939000
C         -12.324000      2.428000     -9.238000
C          -8.341000     -1.980000     -7.047000
C          -7.333000     -1.374000     -7.875000
C         -12.708000      1.056000     -9.267000
C          -6.035000      1.776000     -7.376000
C          -7.103000      1.945000     -9.976000
C          -6.675000      0.081000     -6.069000
C          -8.205000      4.577000     -7.940000
C         -12.949000      1.857000     -7.149000
C          -8.205000      1.707000    -10.820000
C         -11.869000      0.178000    -10.110000
C          -7.219000      2.293000     -5.266000
C         -12.514000     -0.552000     -7.387000
C          -9.276000      2.686000     -4.597000
C         -10.909000     -1.362000     -6.141000
C         -12.579000      2.916000     -7.983000
C         -12.976000      0.687000     -7.900000
C          -9.550000      4.770000     -7.498000
C          -7.285000      3.862000     -7.162000
C          -8.503000     -1.424000     -5.758000
C         -12.454000      1.798000     -5.837000
C         -10.118000     -1.238000    -10.026000
C          -6.579000     -0.347000     -7.397000
C          -9.423000     -2.213000     -7.855000
C          -7.640000      3.491000     -5.814000
C          -8.484000      0.453000     -4.487000
O          -2.225000     -4.653000    -12.247000
C          -0.885000     -4.314000    -11.864000
H          -0.348000     -3.909000    -12.730000
H          -0.292000     -5.157000    -11.488000
H          -0.902000     -3.566000    -11.062000
O          -2.871000     -2.446000    -12.329000
C          -3.137000     -3.652000    -12.446000
C          -4.557000     -4.210000    -12.773000
H          -4.675000     -4.796000    -13.693000
H          -5.291000     -3.423000    -12.986000
C          -5.063000     -5.038000    -11.614000
H          -6.008000     -5.472000    -11.963000
H          -4.457000     -5.932000    -11.424000
C          -5.232000     -4.221000    -10.293000
H          -4.382000     -3.529000    -10.291000
H          -6.096000     -3.590000    -10.536000
C          -5.439000     -5.207000     -9.179000
C          -6.777000     -5.910000     -9.311000
C          -6.984000     -7.218000     -9.856000
H          -6.128000     -7.858000    -10.048000
C          -8.319000     -7.701000     -9.997000
H          -8.358000     -8.700000    -10.422000
C          -9.399000     -6.953000     -9.602000
H         -10.400000     -7.358000     -9.722000
C          -9.188000     -5.679000     -9.100000
H          -9.977000     -4.954000     -8.924000
C          -7.894000     -5.182000     -8.952000
H          -7.893000     -4.208000     -8.473000
C          -4.884000     -6.001000     -3.788000
C          -4.294000     -8.231000     -4.676000
C           0.175000     -7.711000     -3.790000
C          -2.348000     -2.268000     -5.811000
C           0.944000     -6.688000     -6.992000
C          -5.020000     -7.004000     -4.738000
C           0.207000     -3.204000     -6.439000
C          -1.784000     -7.184000     -2.409000
C          -2.620000     -7.649000     -8.423000
C          -2.013000     -2.631000     -7.130000
C          -4.175000     -5.875000     -8.636000
C          -1.917000     -6.569000     -9.022000
C          -0.860000     -4.102000     -8.435000
C           1.025000     -4.317000     -6.388000
C          -4.628000     -7.610000     -6.909000
C           1.392000     -5.998000     -4.702000
C          -4.959000     -4.819000     -7.798000
C          -4.280000     -3.553000     -7.411000
C           1.175000     -6.982000     -5.644000
C          -1.262000     -3.618000     -2.685000
C          -0.044000     -5.577000     -2.749000
C          -1.232000     -5.907000     -2.189000
C          -3.168000     -7.309000     -2.753000
C          -4.507000     -3.264000     -6.049000
C          -3.935000     -7.230000     -8.094000
C          -3.346000     -8.382000     -3.659000
C          -0.758000     -3.124000     -7.463000
C          -3.979000     -8.551000     -6.058000
C          -0.537000     -6.429000     -8.756000
C          -3.326000     -2.923000     -3.909000
C          -1.059000     -8.100000     -3.227000
C          -2.801000     -5.512000     -9.006000
C          -3.377000     -4.941000     -2.533000
C          -0.031000     -5.196000     -8.390000
C          -2.041000     -8.539000     -7.624000
C           0.576000     -3.761000     -4.265000
C          -0.137000     -2.882000     -5.132000
C          -0.703000     -8.395000     -7.293000
C          -3.549000     -2.606000     -5.253000
C          -2.957000     -3.328000     -7.879000
C          -1.948000     -2.695000     -3.545000
C          -5.462000     -5.309000     -6.480000
C          -1.751000     -9.148000     -5.378000
C          -2.228000     -4.296000     -8.694000
C           0.006000     -7.297000     -7.851000
C          -4.010000     -3.997000     -3.362000
C           0.456000     -8.023000     -5.099000
C          -3.940000     -6.181000     -2.791000
C           0.701000     -6.408000     -3.543000
C          -2.702000     -8.994000     -6.463000
C          -0.461000     -8.808000     -5.934000
C          -5.311000     -6.676000     -6.095000
C          -5.193000     -4.336000     -5.506000
C          -0.026000     -4.195000     -3.084000
C          -2.041000     -8.787000     -4.031000
C           0.873000     -5.339000     -7.352000
C          -1.376000     -2.356000     -4.792000
C           1.295000     -4.622000     -5.101000
C          -4.971000     -4.670000     -4.143000
C          -2.031000     -4.699000     -2.122000
$end

--------------------------------------------------------------
 ----------------------------------------------------------------
             Standard Nuclear Orientation (Angstroms)
    I     Atom           X                Y                Z
 ----------------------------------------------------------------
    1      O      -6.7116877120    -6.7562181593    -0.6365234016
    2      C      -6.7918261684    -7.8068076730    -1.6121080988
    3      H      -6.9779509578    -8.8090219868    -1.2079447258
    4      H      -5.8159248361    -7.9266472264    -2.0973709874
    5      H      -7.5630628310    -7.7448618615    -2.3897472997
    6      O      -8.9005761086    -7.0090890532     0.1118541088
    7      C      -7.7477986143    -6.6064819230     0.2689418146
    8      C      -7.3567171827    -5.6431892142     1.4362808703
    9      H      -6.3212932995    -5.7285915290     1.7891743767
   10      H      -7.9451139664    -6.0545026768     2.2659021456
   11      C      -7.6970427204    -4.2089109553     1.1416108779
   12      H      -8.7372893448    -4.1923555854     0.7913325881
   13      H      -7.7196042298    -3.5403957055     2.0112995228
   14      C      -6.8207527437    -3.5887048547    -0.0183638069
   15      H      -5.7783768972    -3.5792318297     0.3239779178
   16      H      -6.8875837273    -4.1481111402    -0.9596709977
   17      C      -7.2121665577    -2.1609155639    -0.5031255701
   18      C      -8.4979977802    -2.2217634411    -1.2106851810
   19      C      -9.6591226339    -2.0311975663    -0.4780217374
   20      H      -9.5870807471    -1.5305409675     0.4825551396
   21      C     -10.9586468545    -2.2352602945    -1.0203723647
   22      H     -11.7949553844    -1.9618591278    -0.3835090789
   23      C     -11.0143973620    -2.6439864010    -2.3837064584
   24      H     -11.9610945889    -2.8427471922    -2.8776421914
   25      C      -9.8175369138    -2.8268938205    -3.1096382344
   26      H      -9.9650249808    -3.2887944983    -4.0811628269
   27      C      -8.5740025383    -2.6294532201    -2.5317027134
   28      H      -7.6650576888    -2.7085553787    -3.1206926192
   29      C      -5.2340064168     1.8647619469    -3.4112014006
   30      C      -6.9095293902     3.0532463522    -2.0576207478
   31      C      -3.7636586230     5.1782773695     0.5553993998
   32      C      -1.9688496432    -0.8139880295    -0.6732812396
   33      C      -4.0109236091     2.8016338788     3.2251062647
   34      C      -6.5242595512     1.9054123620    -2.7894173602
   35      C      -1.6371512117     0.4585433771     1.7512197337
   36      C      -3.7952746445     4.7850988580    -1.8564907480
   37      C      -7.2762732844     1.1299303931     1.4919366383
   38      C      -2.6641071299    -1.2740670844     0.4791723562
   39      C      -6.8369323505    -0.9108172302     0.3293517246
   40      C      -6.3376391607     0.3511297819     2.2221808371
   41      C      -3.7623627580    -0.6040485705     2.4117560585
   42      C      -2.0413345920     1.5992095412     2.4418350370
   43      C      -7.5695408561     1.1705243566    -0.8958515142
   44      C      -2.3381058620     3.8979840465     1.8420187424
   45      C      -6.0910753207    -1.2492639293    -0.9607692477
   46      C      -4.6779454830    -1.5471781420    -0.8660634736
   47      C      -3.5693549493     3.9698817886     2.5233941159
   48      C      -1.1885312702     2.4363902554    -1.7848954898
   49      C      -1.8624000219     4.1439571805    -0.5552186616
   50      C      -2.5010990534     4.2690953380    -1.7550811490
   51      C      -4.7775289918     4.0446095440    -2.5541711713
   52      C      -3.9440129715    -1.1247857827    -1.9447542371
   53      C      -7.5108123384     0.4234442776     0.2876265450
   54      C      -6.0157895568     4.1161446944    -1.9281556001
   55      C      -2.4915179451    -0.6553745218     1.7629840582
   56      C      -7.5620830778     2.6079859627    -0.8378040114
   57      C      -5.4698670173     0.9963374343     3.1301806126
   58      C      -2.1294928947     0.3371461264    -2.6515766930
   59      C      -4.4842179612     5.2559521141    -0.6905403556
   60      C      -5.9934473003    -0.8386371669     1.5484809255
   61      C      -3.0999209258     2.5224541528    -3.3353985018
   62      C      -4.1395143198     0.4908657591     3.2038900814
   63      C      -7.1385642866     2.5219349726     1.4882647882
   64      C      -0.8617421502     2.3331845725     0.6751773664
   65      C      -0.9886717164     0.9020945710     0.6062259858
   66      C      -6.2914562756     3.2383854687     2.3825732944
   67      C      -2.5826916729    -0.7936814871    -1.9314400559
   68      C      -4.0147278520    -1.6004456746     0.3549520644
   69      C      -1.2692123412     1.0075502568    -1.7858026628
   70      C      -6.1453817148    -0.4496964081    -2.1794540283
   71      C      -6.4845709107     4.4052676984     0.4366291535
   72      C      -4.6768784507    -1.2099075122     1.5349607628
   73      C      -5.3587929525     2.4105072992     3.1764315074
   74      C      -3.0880197595     1.1561944090    -3.3680584864
   75      C      -4.4217773981     4.7357722346     1.7346274878
   76      C      -4.3755717337     2.9374425579    -3.3168340245
   77      C      -2.5496179013     4.5569533862     0.6176298880
   78      C      -7.3267182171     3.2915843995     0.3700376833
   79      C      -5.7876104694     4.3654525352     1.6392475037
   80      C      -6.9360851298     0.7387184878    -2.1154528977
   81      C      -4.8593422218    -0.4320961238    -2.7350632906
   82      C      -1.0414246517     3.0321145791    -0.5397761489
   83      C      -5.8072432245     4.8360863333    -0.7146625165
   84      C      -3.2428475651     1.6360801318     3.2103531793
   85      C      -1.2371817292     0.2920957361    -0.5845188210
   86      C      -1.5068569827     2.7286432011     1.8176817760
   87      C      -4.4081015693     0.7484560611    -3.4303678369
   88      C      -2.1554919286     3.1530405000    -2.5103501831
   89      O       3.2798126881    -4.3675305659     3.7635952714
   90      C       3.8736133561    -5.2391576616     2.7915474472
   91      H       3.6278115983    -6.2798400605     3.0342646500
   92      H       4.9673103358    -5.1764511651     2.7318079129
   93      H       3.4950846420    -4.9981124743     1.7907426559
   94      O       1.1698961838    -4.6655364837     2.8950713408
   95      C       1.9303042421    -4.1425699805     3.7240264792
   96      C       1.4774392481    -3.1069510161     4.7997121479
   97      H       1.6216480012    -3.3716048074     5.8546444710
   98      H       0.3916910675    -2.9510260775     4.8179412959
   99      C       2.1496935957    -1.7768155303     4.5472944750
  100      H       1.8619895435    -1.1447328340     5.3963409068
  101      H       3.2406391254    -1.8169270432     4.6512219395
  102      C       1.7708212180    -1.1395689040     3.1719896148
  103      H       1.7103430150    -1.9916948077     2.4852641738
  104      H       0.7255306836    -0.8543965347     3.3444727109
  105      C       2.7230284455    -0.0043059807     2.9259804875
  106      C       2.4819774528     1.1339025412     3.8997632043
  107      C       3.2404674875     1.3938132484     5.0863032548
  108      H       4.1715445145     0.8602231047     5.2523668824
  109      C       2.8268836299     2.4521989446     5.9489521467
  110      H       3.4710133922     2.5578322900     6.8173330803
  111      C       1.7396003352     3.2353068977     5.6548671744
  112      H       1.4591152919     4.0345318362     6.3353035330
  113      C       0.9983799122     2.9581920107     4.5175894494
  114      H       0.0344167063     3.4050516080     4.2935058979
  115      C       1.3797845958     1.9295373732     3.6575027654
  116      H       0.7482370765     1.8920377396     2.7755393261
  117      C       5.1027762821     3.0362351367    -0.9590229807
  118      C       6.9387758135     2.8093619370     0.6802385213
  119      C       9.2909756269    -0.1283835429    -1.9397165420
  120      C       3.0749337275    -1.2542995002    -2.3512446237
  121      C       8.0665401897    -2.9245261548    -0.3356472312
  122      C       5.5544402072     2.9041178476     0.3469439869
  123      C       5.0784205166    -3.1995883613    -2.3313214536
  124      C       8.1451100369     1.9577563605    -2.5376992785
  125      C       6.4229181764    -0.8306137638     2.5947820166
  126      C       3.1934148570    -2.1617841779    -1.2806425587
  127      C       4.1033200699    -0.3944463859     2.3955518911
  128      C       5.8152458441    -2.0574283982     2.2139012093
  129      C       4.6423061018    -3.2992623126     0.0621651915
  130      C       6.4226641618    -3.4060564339    -2.0845949706
  131      C       5.6662115018     1.5306214827     2.1731849111
  132      C       8.3948667402    -2.1268103103    -2.6108955929
  133      C       3.0613256133     0.3314839936     1.4903951993
  134      C       2.5594478800    -0.3556396807     0.2699257008
  135      C       8.7881548354    -2.2007930013    -1.2908349748
  136      C       5.5805775689     0.2383658776    -4.4170304329
  137      C       7.7802505710    -0.0526745317    -3.7829680037
  138      C       7.5181994719     1.2617715330    -3.5895648894
  139      C       7.3698345077     2.8145299323    -1.6925342647
  140      C       2.5712087734     0.5220631817    -0.8344263113
  141      C       5.4423164604     0.1946172337     2.6134548933
  142      C       7.8642841123     2.7623644848    -0.3671485267
  143      C       4.1968934053    -3.1208821475    -1.2345460510
  144      C       6.9954900941     1.8652159793     1.7833798997
  145      C       6.5556201428    -2.9623158704     1.4215751649
  146      C       3.5452526418     0.8059815976    -3.0841531559
  147      C       9.0498615531     1.2410972521    -1.7000660555
  148      C       4.4954903223    -1.7443331793     1.9706364429
  149      C       5.4616951988     2.3204309941    -3.0395218730
  150      C       5.9763056243    -3.5236223449     0.2992513567
  151      C       7.6589337942    -0.4919848543     2.2435871217
  152      C       6.3049116554    -2.0025447816    -3.8264776846
  153      C       4.9836622905    -2.2791008801    -3.3676576325
  154      C       8.3899384540    -1.3288167847     1.4154050721
  155      C       2.8112614910     0.0711654004    -2.1472133784
  156      C       3.0043276204    -1.6805838956     0.0118891838
  157      C       4.2420728203    -0.0683906866    -3.9969941866
  158      C       3.5139765263     1.6423803813     0.9364179328
  159      C       8.9007988910     0.8229014803     0.7508239092
  160      C       3.9527497785    -2.3813273139     0.8733670254
  161      C       7.7825951350    -2.5417163237     0.9915444803
  162      C       4.1450014275     1.9860798340    -2.6740183650
  163      C       9.3418552605    -1.0069480281    -0.8836286156
  164      C       6.0433093117     2.9898841266    -1.9743033381
  165      C       8.6363414313    -0.7977977876    -3.0162074332
  166      C       7.9530082591     0.8309059614     1.8494461584
  167      C       9.2136424290    -0.5675753732     0.5109509411
  168      C       4.7700176871     2.2080723577     1.3133372743
  169      C       3.1671942607     1.7006113169    -0.4215648427
  170      C       6.6212293384    -0.7181724076    -4.2690290694
  171      C       8.8167735887     1.7144660223    -0.3568233342
  172      C       6.8763852819    -3.5284282046    -0.7519111016
  173      C       3.9653147833    -1.3384886769    -3.4425845148
  174      C       7.1584964833    -2.7435038574    -3.0021290997
  175      C       3.9189961693     2.4529869224    -1.3635488331
  176      C       6.1421460527     1.4928190288    -3.9835801711
 ----------------------------------------------------------------
 Molecular Point Group                 C1    NOp =  1
 Largest Abelian Subgroup              C1    NOp =  1
 Nuclear Repulsion Energy = 34582.9523800140 hartrees
 There are      462 alpha and      462 beta electrons
 Requested basis set is 6-31G(d,p)
 There are 676 shells and 2360 basis functions

 Total QAlloc Memory Limit  20000 MB
 Mega-Array Size      4888 MB
 MEM_STATIC part      5000 MB
 A cutoff of  1.0D-08 yielded  38063 shell pairs
 There are    531752 function pairs
 
 -------------------------------------------------------
 OpenMP Integral Computing Module                       
 Release: version 1.0, May 2013, Q-Chem Inc. Pittsburgh 
 -------------------------------------------------------
 Integral Job Info:
 Integral job number is                      11
 Integral operator is                         1
 short-range coefficients                     0
 long-range coefficients              100000000
 Omega coefficients                           0
 if combine SR and LR in K                    0
 Integral screening is                        0
 Integral computing path is                   2
 max size of driver memory is            800000
 size of driver memory is                593474
 size of scratch memory is              2260544
 max col of scratch BK array               1296
 max len of scratch array in speh3          155
 max len of scratch index in speh4           18
 max int batch size is                      520
 min int batch size is                       52
 fixed nKL is                                52
 max L of basis functions is                  2
 order of int derivative is                   0
 number of shells is                        676
 number of basis is                        2360
 number of cartesian basis is              2360
 number of contracted shell pairs         38063
 number of primitive shell pairs         114730
 maxK2 (contraction) of shell pair           36
 max number of K2 of shell pair               1
 max number of CS2 of shell pair           7208
 max number of PS2 of shell pair          34392
 mem total for path MDJ                 1505496
 -------------------------------------------------------
 Smallest overlap matrix eigenvalue = 2.55E-04

 Scale SEOQF with 1.000000e-02/1.000000e-02/1.000000e-02

 Standard Electronic Orientation quadrupole field applied
 Nucleus-field energy     =     0.0000001044 hartrees
 Guess from superposition of atomic densities
 Warning:  Energy on first SCF cycle will be non-variational
 A restricted hybrid HF-DFT SCF calculation will be
 performed using Pulay DIIS extrapolation
 Exchange:     0.2000 Hartree-Fock + 0.0800 Slater + 0.7200 B88
 Correlation:  0.1900 VWN1RPA + 0.8100 LYP
 Using SG-1 standard quadrature grid
 SCF converges when DIIS error is below 1.0E-05
 using 16 threads for integral computing 
 -------------------------------------------------------
 OpenMP BLAS3 based DFT computing Module                
 Release: version 1.0, May 2013, Q-Chem Inc. Pittsburgh 
 -------------------------------------------------------
 ---------------------------------------
  Cycle       Energy         DIIS Error
 ---------------------------------------
    1   -5858.5119748449      1.83E-02
    2   -5803.1071083448      1.30E-03
    3   -5802.2867156418      1.82E-03
    4   -5803.9789609946      6.40E-04
    5   -5804.1973032237      2.93E-04
    6   -5804.2521139392      1.34E-04
    7   -5804.2647523226      4.35E-05
    8   -5804.2657114248      2.40E-05
    9   -5804.2660811760      7.89E-06 Convergence criterion met
 ---------------------------------------
 SCF time:  CPU 7281.93 s  wall 832.84 s
 SCF   energy in the final basis set = -5804.2660811760
 Total energy in the final basis set = -5804.2660811760
 
 --------------------------------------------------------------
 
                    Orbital Energies (a.u.)
 --------------------------------------------------------------
 
 Alpha MOs
 -- Occupied --
-19.202 -19.197 -19.146 -19.138 -10.328 -10.325 -10.247 -10.242
-10.242 -10.240 -10.238 -10.237 -10.237 -10.232 -10.230 -10.229
-10.228 -10.228 -10.226 -10.224 -10.224 -10.224 -10.224 -10.224
-10.224 -10.224 -10.223 -10.223 -10.223 -10.223 -10.223 -10.222
-10.222 -10.222 -10.222 -10.222 -10.222 -10.221 -10.221 -10.221
-10.220 -10.220 -10.220 -10.220 -10.220 -10.220 -10.220 -10.219
-10.219 -10.219 -10.219 -10.219 -10.219 -10.219 -10.219 -10.218
-10.218 -10.218 -10.218 -10.218 -10.218 -10.218 -10.218 -10.218
-10.218 -10.218 -10.218 -10.217 -10.217 -10.217 -10.217 -10.217
-10.217 -10.217 -10.217 -10.217 -10.217 -10.216 -10.216 -10.216
-10.216 -10.216 -10.216 -10.216 -10.215 -10.215 -10.215 -10.215
-10.214 -10.214 -10.214 -10.214 -10.214 -10.214 -10.214 -10.213
-10.212 -10.212 -10.212 -10.212 -10.212 -10.212 -10.211 -10.211
-10.211 -10.210 -10.210 -10.210 -10.210 -10.209 -10.209 -10.209
-10.209 -10.209 -10.209 -10.209 -10.209 -10.209 -10.208 -10.208
-10.208 -10.208 -10.207 -10.207 -10.207 -10.206 -10.206 -10.206
-10.206 -10.205 -10.205 -10.205 -10.204 -10.204 -10.204 -10.203
-10.203 -10.202 -10.200 -10.198 -10.198 -10.198 -10.197 -10.196
-10.195 -10.192 -10.191 -10.190  -1.091  -1.091  -1.014  -1.003
 -0.988  -0.983  -0.970  -0.966  -0.965  -0.965  -0.963  -0.958
 -0.938  -0.934  -0.932  -0.928  -0.924  -0.924  -0.924  -0.923
 -0.922  -0.919  -0.897  -0.895  -0.893  -0.892  -0.891  -0.884
 -0.877  -0.874  -0.854  -0.854  -0.845  -0.841  -0.840  -0.839
 -0.838  -0.835  -0.823  -0.821  -0.807  -0.805  -0.801  -0.799
 -0.797  -0.797  -0.796  -0.794  -0.793  -0.791  -0.786  -0.784
 -0.774  -0.772  -0.770  -0.769  -0.767  -0.766  -0.765  -0.765
 -0.751  -0.748  -0.741  -0.739  -0.732  -0.732  -0.719  -0.718
 -0.716  -0.716  -0.715  -0.713  -0.712  -0.712  -0.710  -0.710
 -0.710  -0.708  -0.707  -0.707  -0.704  -0.702  -0.673  -0.671
 -0.662  -0.661  -0.659  -0.656  -0.646  -0.646  -0.636  -0.632
 -0.630  -0.628  -0.626  -0.624  -0.623  -0.620  -0.619  -0.618
 -0.618  -0.617  -0.616  -0.615  -0.613  -0.611  -0.610  -0.607
 -0.607  -0.606  -0.603  -0.600  -0.574  -0.571  -0.568  -0.567
 -0.565  -0.562  -0.562  -0.559  -0.556  -0.556  -0.556  -0.552
 -0.538  -0.538  -0.533  -0.533  -0.531  -0.530  -0.528  -0.527
 -0.522  -0.522  -0.520  -0.519  -0.518  -0.517  -0.515  -0.512
 -0.507  -0.507  -0.505  -0.504  -0.493  -0.491  -0.489  -0.487
 -0.486  -0.484  -0.483  -0.482  -0.479  -0.477  -0.476  -0.475
 -0.473  -0.473  -0.473  -0.472  -0.469  -0.469  -0.468  -0.467
 -0.467  -0.466  -0.465  -0.463  -0.461  -0.459  -0.458  -0.457
 -0.455  -0.455  -0.453  -0.452  -0.448  -0.448  -0.445  -0.444
 -0.443  -0.442  -0.441  -0.440  -0.438  -0.437  -0.435  -0.434
 -0.432  -0.431  -0.429  -0.428  -0.427  -0.425  -0.425  -0.424
 -0.423  -0.423  -0.422  -0.422  -0.421  -0.421  -0.420  -0.419
 -0.418  -0.418  -0.417  -0.416  -0.415  -0.414  -0.413  -0.412
 -0.411  -0.411  -0.410  -0.406  -0.402  -0.402  -0.400  -0.398
 -0.396  -0.394  -0.393  -0.391  -0.391  -0.389  -0.386  -0.384
 -0.378  -0.376  -0.373  -0.371  -0.370  -0.369  -0.368  -0.367
 -0.366  -0.365  -0.364  -0.363  -0.362  -0.361  -0.360  -0.359
 -0.357  -0.356  -0.356  -0.355  -0.355  -0.354  -0.353  -0.352
 -0.350  -0.349  -0.349  -0.348  -0.347  -0.347  -0.346  -0.344
 -0.343  -0.343  -0.343  -0.342  -0.340  -0.337  -0.334  -0.334
 -0.333  -0.332  -0.331  -0.330  -0.329  -0.329  -0.326  -0.325
 -0.309  -0.309  -0.302  -0.299  -0.284  -0.284  -0.276  -0.274
 -0.272  -0.271  -0.269  -0.268  -0.266  -0.265  -0.265  -0.264
 -0.263  -0.262  -0.260  -0.260  -0.257  -0.256  -0.255  -0.253
 -0.250  -0.249  -0.248  -0.245  -0.221  -0.221  -0.215  -0.215
 -0.214  -0.211  -0.209  -0.203  -0.202  -0.199
 -- Virtual --
 -0.129  -0.125  -0.124  -0.117  -0.110  -0.103  -0.082  -0.080
 -0.076  -0.067  -0.064  -0.063  -0.050  -0.048  -0.028  -0.025
 -0.022  -0.021  -0.020  -0.019  -0.017  -0.016  -0.014  -0.013
 -0.012  -0.012  -0.012  -0.010  -0.009  -0.008  -0.006   0.000
  0.004   0.005   0.033   0.033   0.037   0.038   0.042   0.045
  0.047   0.051   0.053   0.056   0.059   0.062   0.063   0.066
  0.066   0.070   0.081   0.084   0.086   0.088   0.090   0.091
  0.095   0.095   0.096   0.099   0.101   0.106   0.106   0.109
  0.110   0.113   0.113   0.115   0.116   0.118   0.122   0.123
  0.125   0.126   0.128   0.130   0.132   0.135   0.135   0.138
  0.142   0.146   0.147   0.148   0.151   0.153   0.157   0.158
  0.159   0.160   0.161   0.162   0.163   0.167   0.167   0.169
  0.170   0.172   0.174   0.175   0.177   0.177   0.180   0.180
  0.181   0.183   0.185   0.186   0.188   0.189   0.191   0.191
  0.193   0.195   0.197   0.198   0.200   0.202   0.205   0.205
  0.208   0.209   0.210   0.211   0.213   0.216   0.216   0.217
  0.219   0.220   0.221   0.221   0.223   0.225   0.225   0.227
  0.228   0.228   0.230   0.232   0.234   0.235   0.236   0.240
  0.242   0.243   0.245   0.246   0.247   0.250   0.253   0.256
  0.261   0.265   0.268   0.274   0.274   0.275   0.277   0.280
  0.283   0.284   0.287   0.289   0.292   0.294   0.296   0.302
  0.307   0.308   0.310   0.312   0.313   0.314   0.316   0.318
  0.319   0.320   0.321   0.322   0.325   0.325   0.326   0.329
  0.332   0.337   0.340   0.342   0.343   0.344   0.345   0.346
  0.349   0.350   0.353   0.358   0.365   0.368   0.381   0.383
  0.390   0.392   0.397   0.399   0.404   0.405   0.408   0.409
  0.411   0.411   0.415   0.416   0.416   0.419   0.422   0.426
  0.427   0.430   0.431   0.432   0.435   0.437   0.438   0.447
  0.447   0.450   0.451   0.456   0.457   0.457   0.459   0.462
  0.463   0.465   0.466   0.471   0.472   0.473   0.474   0.475
  0.477   0.478   0.480   0.481   0.482   0.484   0.485   0.485
  0.487   0.489   0.489   0.491   0.491   0.493   0.494   0.496
  0.497   0.498   0.499   0.501   0.501   0.502   0.502   0.503
  0.504   0.505   0.506   0.506   0.508   0.508   0.509   0.511
  0.513   0.514   0.515   0.515   0.516   0.516   0.517   0.517
  0.518   0.519   0.521   0.522   0.522   0.523   0.523   0.524
  0.525   0.526   0.527   0.528   0.530   0.531   0.531   0.532
  0.533   0.534   0.534   0.535   0.536   0.537   0.538   0.538
  0.539   0.540   0.540   0.541   0.542   0.543   0.543   0.544
  0.544   0.546   0.547   0.548   0.548   0.549   0.549   0.550
  0.550   0.551   0.553   0.553   0.554   0.555   0.556   0.556
  0.557   0.558   0.560   0.561   0.561   0.562   0.563   0.565
  0.565   0.565   0.566   0.567   0.568   0.569   0.570   0.570
  0.572   0.573   0.574   0.574   0.575   0.575   0.577   0.577
  0.578   0.579   0.579   0.580   0.581   0.581   0.582   0.583
  0.583   0.586   0.586   0.587   0.587   0.588   0.589   0.590
  0.593   0.593   0.594   0.595   0.595   0.597   0.598   0.599
  0.600   0.601   0.602   0.604   0.605   0.606   0.607   0.609
  0.610   0.610   0.612   0.612   0.613   0.615   0.615   0.616
  0.618   0.619   0.619   0.621   0.622   0.623   0.625   0.626
  0.627   0.628   0.628   0.630   0.631   0.632   0.632   0.633
  0.633   0.634   0.635   0.636   0.637   0.638   0.638   0.640
  0.642   0.643   0.644   0.646   0.646   0.647   0.649   0.650
  0.650   0.651   0.652   0.652   0.653   0.654   0.656   0.656
  0.658   0.659   0.660   0.660   0.661   0.662   0.663   0.663
  0.665   0.665   0.666   0.667   0.668   0.668   0.669   0.670
  0.671   0.672   0.673   0.675   0.675   0.676   0.678   0.678
  0.680   0.681   0.683   0.683   0.685   0.686   0.687   0.688
  0.688   0.689   0.690   0.691   0.692   0.694   0.695   0.696
  0.697   0.698   0.701   0.702   0.702   0.703   0.704   0.705
  0.706   0.707   0.708   0.709   0.710   0.711   0.712   0.712
  0.715   0.716   0.718   0.718   0.720   0.722   0.723   0.725
  0.725   0.727   0.728   0.730   0.730   0.731   0.734   0.735
  0.736   0.737   0.739   0.741   0.743   0.744   0.746   0.748
  0.748   0.749   0.750   0.751   0.753   0.754   0.755   0.757
  0.758   0.759   0.760   0.762   0.764   0.765   0.767   0.768
  0.768   0.770   0.771   0.773   0.773   0.775   0.776   0.777
  0.779   0.779   0.780   0.782   0.783   0.784   0.785   0.786
  0.788   0.789   0.790   0.792   0.794   0.795   0.795   0.796
  0.798   0.799   0.800   0.802   0.803   0.804   0.805   0.806
  0.807   0.808   0.808   0.809   0.810   0.811   0.811   0.812
  0.814   0.815   0.815   0.816   0.818   0.818   0.819   0.819
  0.820   0.821   0.822   0.823   0.823   0.824   0.824   0.825
  0.826   0.827   0.829   0.830   0.831   0.833   0.833   0.835
  0.836   0.838   0.839   0.843   0.843   0.845   0.847   0.850
  0.853   0.854   0.857   0.858   0.859   0.861   0.867   0.869
  0.873   0.876   0.877   0.881   0.882   0.884   0.889   0.890
  0.893   0.896   0.898   0.900   0.903   0.905   0.909   0.910
  0.912   0.916   0.917   0.920   0.922   0.923   0.924   0.925
  0.926   0.928   0.929   0.933   0.934   0.937   0.938   0.939
  0.940   0.942   0.944   0.945   0.945   0.946   0.949   0.952
  0.955   0.957   0.959   0.960   0.967   0.971   0.972   0.973
  0.977   0.980   0.984   0.987   0.990   0.990   0.992   0.993
  0.995   0.999   1.000   1.001   1.001   1.003   1.006   1.007
  1.008   1.010   1.012   1.013   1.015   1.015   1.017   1.019
  1.019   1.022   1.024   1.026   1.027   1.029   1.029   1.031
  1.033   1.036   1.039   1.039   1.041   1.043   1.044   1.045
  1.046   1.049   1.052   1.053   1.055   1.057   1.058   1.059
  1.061   1.063   1.065   1.067   1.069   1.070   1.070   1.073
  1.074   1.077   1.078   1.079   1.080   1.083   1.085   1.088
  1.088   1.089   1.089   1.091   1.093   1.095   1.096   1.097
  1.099   1.100   1.102   1.105   1.107   1.110   1.111   1.113
  1.115   1.118   1.119   1.121   1.122   1.123   1.126   1.129
  1.131   1.134   1.136   1.137   1.140   1.143   1.146   1.146
  1.148   1.151   1.152   1.153   1.155   1.156   1.159   1.162
  1.163   1.164   1.165   1.166   1.169   1.170   1.172   1.173
  1.174   1.176   1.176   1.178   1.182   1.183   1.184   1.185
  1.186   1.188   1.191   1.192   1.193   1.196   1.199   1.200
  1.202   1.204   1.207   1.209   1.209   1.212   1.217   1.218
  1.220   1.222   1.224   1.228   1.229   1.233   1.236   1.237
  1.238   1.242   1.248   1.251   1.254   1.257   1.258   1.259
  1.261   1.261   1.263   1.264   1.268   1.269   1.270   1.272
  1.273   1.276   1.277   1.280   1.281   1.283   1.284   1.288
  1.288   1.291   1.293   1.295   1.296   1.298   1.299   1.303
  1.309   1.310   1.315   1.319   1.320   1.322   1.324   1.327
  1.329   1.330   1.333   1.335   1.336   1.340   1.342   1.343
  1.345   1.346   1.348   1.352   1.353   1.357   1.359   1.361
  1.364   1.366   1.369   1.372   1.374   1.375   1.376   1.380
  1.380   1.385   1.388   1.389   1.393   1.395   1.399   1.402
  1.405   1.406   1.407   1.411   1.415   1.417   1.419   1.422
  1.425   1.428   1.430   1.432   1.438   1.441   1.442   1.445
  1.448   1.450   1.452   1.452   1.454   1.456   1.460   1.461
  1.462   1.464   1.468   1.470   1.471   1.472   1.473   1.474
  1.475   1.477   1.481   1.483   1.488   1.489   1.490   1.496
  1.497   1.502   1.503   1.505   1.508   1.511   1.512   1.515
  1.517   1.518   1.522   1.526   1.527   1.530   1.532   1.536
  1.537   1.541   1.542   1.544   1.546   1.548   1.549   1.551
  1.553   1.557   1.561   1.563   1.564   1.567   1.569   1.572
  1.572   1.574   1.576   1.577   1.579   1.582   1.585   1.587
  1.590   1.591   1.595   1.598   1.600   1.612   1.612   1.617
  1.619   1.622   1.627   1.628   1.633   1.634   1.636   1.642
  1.644   1.652   1.653   1.656   1.659   1.662   1.666   1.672
  1.680   1.681   1.685   1.688   1.689   1.690   1.692   1.698
  1.704   1.705   1.707   1.709   1.711   1.713   1.715   1.716
  1.718   1.723   1.726   1.727   1.728   1.730   1.731   1.732
  1.735   1.736   1.739   1.740   1.741   1.743   1.745   1.746
  1.748   1.749   1.751   1.752   1.753   1.754   1.756   1.757
  1.758   1.760   1.762   1.763   1.765   1.766   1.768   1.768
  1.771   1.772   1.772   1.773   1.774   1.776   1.777   1.778
  1.780   1.781   1.783   1.784   1.784   1.787   1.788   1.789
  1.790   1.791   1.792   1.794   1.795   1.795   1.796   1.797
  1.799   1.799   1.802   1.803   1.805   1.806   1.807   1.809
  1.811   1.812   1.814   1.816   1.817   1.819   1.819   1.824
  1.826   1.827   1.829   1.831   1.834   1.835   1.837   1.839
  1.841   1.843   1.845   1.847   1.848   1.850   1.851   1.853
  1.854   1.856   1.857   1.861   1.862   1.864   1.865   1.866
  1.868   1.871   1.871   1.874   1.875   1.878   1.878   1.880
  1.882   1.887   1.891   1.894   1.897   1.898   1.901   1.902
  1.903   1.907   1.912   1.913   1.915   1.916   1.919   1.921
  1.922   1.924   1.927   1.930   1.933   1.934   1.936   1.937
  1.939   1.939   1.944   1.947   1.947   1.949   1.951   1.955
  1.956   1.958   1.959   1.959   1.960   1.962   1.963   1.966
  1.967   1.970   1.973   1.974   1.975   1.977   1.978   1.979
  1.982   1.983   1.986   1.988   1.988   1.990   1.992   1.993
  1.994   1.994   1.997   1.997   2.001   2.002   2.003   2.004
  2.005   2.006   2.007   2.010   2.011   2.015   2.015   2.015
  2.017   2.021   2.022   2.023   2.024   2.025   2.026   2.027
  2.028   2.029   2.030   2.031   2.032   2.033   2.034   2.035
  2.037   2.038   2.039   2.041   2.041   2.043   2.044   2.046
  2.047   2.048   2.050   2.050   2.052   2.053   2.056   2.057
  2.058   2.059   2.060   2.060   2.062   2.063   2.063   2.065
  2.067   2.069   2.071   2.071   2.074   2.075   2.076   2.077
  2.077   2.080   2.082   2.085   2.087   2.088   2.092   2.094
  2.094   2.096   2.099   2.101   2.102   2.103   2.104   2.109
  2.110   2.111   2.113   2.115   2.117   2.120   2.123   2.125
  2.126   2.130   2.131   2.135   2.137   2.138   2.140   2.146
  2.147   2.154   2.155   2.156   2.158   2.158   2.163   2.166
  2.176   2.182   2.185   2.186   2.187   2.188   2.193   2.198
  2.199   2.205   2.206   2.208   2.211   2.220   2.222   2.226
  2.231   2.232   2.234   2.236   2.238   2.240   2.241   2.245
  2.248   2.252   2.253   2.254   2.258   2.262   2.263   2.266
  2.267   2.269   2.273   2.276   2.277   2.279   2.280   2.281
  2.284   2.284   2.284   2.287   2.292   2.294   2.295   2.296
  2.297   2.299   2.301   2.303   2.309   2.310   2.313   2.315
  2.318   2.319   2.320   2.323   2.324   2.328   2.332   2.334
  2.335   2.339   2.340   2.341   2.343   2.348   2.351   2.352
  2.353   2.355   2.356   2.358   2.360   2.361   2.363   2.365
  2.367   2.368   2.371   2.371   2.373   2.375   2.377   2.379
  2.379   2.384   2.386   2.387   2.388   2.390   2.392   2.395
  2.396   2.398   2.399   2.402   2.404   2.405   2.407   2.409
  2.410   2.413   2.414   2.415   2.416   2.418   2.421   2.422
  2.426   2.426   2.431   2.432   2.434   2.437   2.441   2.442
  2.443   2.444   2.449   2.450   2.453   2.455   2.458   2.460
  2.462   2.464   2.467   2.468   2.470   2.472   2.474   2.476
  2.476   2.479   2.483   2.483   2.486   2.488   2.489   2.491
  2.492   2.494   2.497   2.499   2.500   2.503   2.504   2.505
  2.509   2.511   2.514   2.515   2.517   2.518   2.520   2.522
  2.526   2.527   2.528   2.529   2.535   2.536   2.538   2.540
  2.543   2.544   2.548   2.551   2.552   2.560   2.562   2.566
  2.568   2.570   2.571   2.573   2.575   2.578   2.580   2.585
  2.588   2.591   2.592   2.594   2.595   2.597   2.600   2.606
  2.609   2.611   2.611   2.612   2.614   2.618   2.620   2.621
  2.623   2.625   2.627   2.628   2.629   2.630   2.632   2.633
  2.634   2.637   2.638   2.639   2.641   2.643   2.645   2.646
  2.648   2.650   2.653   2.653   2.655   2.657   2.657   2.659
  2.660   2.662   2.664   2.665   2.668   2.668   2.669   2.671
  2.675   2.675   2.676   2.676   2.682   2.682   2.685   2.686
  2.691   2.692   2.694   2.696   2.698   2.704   2.704   2.705
  2.708   2.709   2.711   2.716   2.718   2.719   2.725   2.728
  2.729   2.731   2.733   2.738   2.738   2.739   2.740   2.744
  2.748   2.748   2.750   2.751   2.753   2.754   2.757   2.758
  2.762   2.763   2.765   2.767   2.768   2.770   2.774   2.776
  2.777   2.778   2.781   2.784   2.786   2.788   2.788   2.795
  2.795   2.797   2.802   2.807   2.815   2.817   2.819   2.821
  2.823   2.826   2.831   2.832   2.834   2.839   2.841   2.842
  2.844   2.845   2.849   2.850   2.851   2.855   2.855   2.857
  2.860   2.862   2.865   2.866   2.868   2.870   2.874   2.875
  2.877   2.880   2.881   2.882   2.883   2.885   2.887   2.889
  2.891   2.894   2.897   2.898   2.900   2.901   2.903   2.904
  2.905   2.907   2.908   2.909   2.910   2.911   2.913   2.915
  2.917   2.918   2.920   2.921   2.922   2.925   2.927   2.930
  2.935   2.937   2.941   2.944   2.944   2.946   2.948   2.952
  2.955   2.956   2.960   2.961   2.971   2.973   2.974   2.977
  2.981   2.985   2.991   2.992   2.996   3.000   3.001   3.002
  3.006   3.008   3.011   3.014   3.015   3.021   3.023   3.024
  3.024   3.026   3.028   3.032   3.033   3.038   3.039   3.043
  3.045   3.046   3.048   3.051   3.052   3.054   3.058   3.060
  3.063   3.068   3.071   3.076   3.083   3.098   3.099   3.103
  3.107   3.110   3.113   3.119   3.121   3.132   3.138   3.145
  3.149   3.155   3.156   3.165   3.169   3.176   3.187   3.188
  3.189   3.194   3.202   3.204   3.206   3.226   3.227   3.234
  3.243   3.247   3.260   3.264   3.268   3.276   3.281   3.283
  3.293   3.303   3.307   3.310   3.315   3.316   3.318   3.330
  3.338   3.341   3.343   3.355   3.357   3.357   3.387   3.402
  3.418   3.420   3.425   3.432   3.433   3.434   3.444   3.449
  3.453   3.461   3.462   3.465   3.467   3.479   3.484   3.497
  3.505   3.514   3.518   3.518   3.522   3.529   3.536   3.541
  3.553   3.562   3.566   3.571   3.577   3.591   3.592   3.607
  3.624   3.630   3.676   3.691   3.862   3.885   3.984   4.031
  4.063   4.073   4.075   4.078   4.083   4.085   4.093   4.098
  4.101   4.102   4.109   4.114   4.116   4.122   4.123   4.125
  4.128   4.135   4.138   4.143   4.145   4.148   4.152   4.154
  4.156   4.159   4.164   4.164   4.167   4.172   4.176   4.178
  4.184   4.185   4.194   4.199   4.203   4.215   4.227   4.238
  4.241   4.243   4.245   4.252   4.253   4.254   4.258   4.265
  4.266   4.275   4.279   4.281   4.284   4.285   4.290   4.295
  4.302   4.303   4.313   4.322   4.372   4.384   4.391   4.394
  4.397   4.398   4.401   4.406   4.407   4.411   4.413   4.415
  4.419   4.420   4.423   4.426   4.434   4.452   4.464   4.467
  4.480   4.490   4.511   4.513   4.531   4.537   4.551   4.554
  4.557   4.563   4.615   4.621   4.626   4.627   4.635   4.638
  4.651   4.670   4.679   4.683   4.689   4.694   4.695   4.696
  4.700   4.701   4.703   4.711   4.736   4.756   4.807   4.818
  4.853   4.861   4.863   4.864   4.871   4.873   4.881   4.886
  4.893   4.903   4.951   4.953   4.965   4.966   4.977   4.981
  4.982   4.987   4.989   5.003   5.143   5.167   5.173   5.190
  5.192   5.194   5.214   5.220   5.312   5.319   5.335   5.348
  5.360   5.362
 --------------------------------------------------------------
 
          Ground-State Mulliken Net Atomic Charges

     Atom                 Charge (a.u.)
  ----------------------------------------
      1 O                    -0.451136
      2 C                    -0.096307
      3 H                     0.123213
      4 H                     0.124097
      5 H                     0.129662
      6 O                    -0.456040
      7 C                     0.582583
      8 C                    -0.230925
      9 H                     0.117151
     10 H                     0.130670
     11 C                    -0.199807
     12 H                     0.128840
     13 H                     0.107359
     14 C                    -0.163946
     15 H                     0.103419
     16 H                     0.122231
     17 C                    -0.014327
     18 C                     0.122608
     19 C                    -0.120643
     20 H                     0.089194
     21 C                    -0.085755
     22 H                     0.097169
     23 C                    -0.089619
     24 H                     0.091788
     25 C                    -0.091622
     26 H                     0.091663
     27 C                    -0.102321
     28 H                     0.092533
     29 C                     0.000259
     30 C                    -0.023904
     31 C                    -0.012144
     32 C                    -0.003518
     33 C                     0.018382
     34 C                    -0.006312
     35 C                    -0.003137
     36 C                    -0.021817
     37 C                     0.004546
     38 C                    -0.020746
     39 C                    -0.089503
     40 C                     0.000952
     41 C                     0.015903
     42 C                     0.031305
     43 C                     0.016170
     44 C                    -0.030366
     45 C                    -0.095282
     46 C                     0.068773
     47 C                     0.005533
     48 C                    -0.025501
     49 C                     0.016935
     50 C                     0.007528
     51 C                     0.006604
     52 C                     0.027437
     53 C                     0.015417
     54 C                     0.020530
     55 C                    -0.030025
     56 C                    -0.028402
     57 C                    -0.001496
     58 C                    -0.021842
     59 C                    -0.024089
     60 C                     0.039782
     61 C                     0.006644
     62 C                    -0.036030
     63 C                     0.025749
     64 C                    -0.008766
     65 C                    -0.012937
     66 C                    -0.043732
     67 C                    -0.017271
     68 C                    -0.008488
     69 C                    -0.009934
     70 C                     0.015072
     71 C                     0.003411
     72 C                     0.008514
     73 C                    -0.020796
     74 C                     0.012157
     75 C                    -0.000946
     76 C                     0.016971
     77 C                     0.021827
     78 C                     0.021274
     79 C                    -0.002467
     80 C                     0.010665
     81 C                    -0.023389
     82 C                     0.002649
     83 C                     0.013582
     84 C                     0.002110
     85 C                     0.072155
     86 C                    -0.016689
     87 C                    -0.018964
     88 C                     0.003114
     89 O                    -0.456583
     90 C                    -0.089152
     91 H                     0.121316
     92 H                     0.124253
     93 H                     0.134463
     94 O                    -0.484912
     95 C                     0.597248
     96 C                    -0.245530
     97 H                     0.123841
     98 H                     0.126600
     99 C                    -0.199555
    100 H                     0.110145
    101 H                     0.113757
    102 C                    -0.200049
    103 H                     0.127806
    104 H                     0.117265
    105 C                     0.034354
    106 C                     0.088658
    107 C                    -0.122008
    108 H                     0.094081
    109 C                    -0.089636
    110 H                     0.090115
    111 C                    -0.077828
    112 H                     0.090721
    113 C                    -0.095816
    114 H                     0.091033
    115 C                    -0.087918
    116 H                     0.088079
    117 C                    -0.004248
    118 C                     0.001371
    119 C                    -0.015450
    120 C                    -0.001942
    121 C                    -0.011761
    122 C                     0.011269
    123 C                    -0.009141
    124 C                    -0.010346
    125 C                     0.022033
    126 C                     0.006750
    127 C                    -0.088168
    128 C                    -0.005665
    129 C                    -0.004650
    130 C                     0.017793
    131 C                    -0.011681
    132 C                    -0.005620
    133 C                    -0.099833
    134 C                     0.021772
    135 C                     0.017876
    136 C                    -0.004298
    137 C                     0.046492
    138 C                     0.008140
    139 C                    -0.001618
    140 C                    -0.004614
    141 C                     0.011210
    142 C                    -0.017742
    143 C                    -0.011492
    144 C                    -0.023766
    145 C                    -0.017447
    146 C                    -0.007462
    147 C                    -0.006491
    148 C                     0.078902
    149 C                     0.016687
    150 C                    -0.006437
    151 C                     0.010410
    152 C                    -0.000048
    153 C                     0.012730
    154 C                    -0.016712
    155 C                     0.025588
    156 C                    -0.009743
    157 C                    -0.021583
    158 C                     0.041023
    159 C                    -0.015186
    160 C                    -0.018300
    161 C                     0.017315
    162 C                    -0.010165
    163 C                     0.008227
    164 C                     0.021041
    165 C                    -0.009784
    166 C                     0.003045
    167 C                    -0.021811
    168 C                    -0.002325
    169 C                     0.013707
    170 C                    -0.010714
    171 C                     0.016252
    172 C                     0.005751
    173 C                    -0.009649
    174 C                    -0.019676
    175 C                    -0.008798
    176 C                    -0.040957
  ----------------------------------------
  Sum of atomic charges =     0.000000

 -----------------------------------------------------------------
                    Cartesian Multipole Moments
 -----------------------------------------------------------------
    Charge (ESU x 10^10)
                 0.0000
    Dipole Moment (Debye)
         X      -1.7299      Y      -1.3086      Z       1.5239
       Tot       2.6509
    Quadrupole Moments (Debye-Ang)
        XX    -818.4584     XY      -6.3999     YY    -804.3057
        XZ      16.6011     YZ       9.2419     ZZ    -787.7427
    Octopole Moments (Debye-Ang^2)
       XXX    -311.1202    XXY     -23.7012    XYY      34.0327
       YYY    -288.9277    XXZ      -2.2757    XYZ     -74.2605
       YYZ     -25.6664    XZZ     -78.2190    YZZ    -114.6332
       ZZZ     181.8690
    Hexadecapole Moments (Debye-Ang^3)
      XXXX -160046.4482   XXXY    -762.7830   XXYY  -34100.3261
      XYYY     391.9025   YYYY  -36994.2524   XXXZ    1236.9309
      XXYZ     429.4836   XYYZ     707.0533   YYYZ     438.5127
      XXZZ  -30569.9072   XYZZ     782.9523   YYZZ  -10572.0280
      XZZZ     914.2319   YZZZ      88.6660   ZZZZ  -27458.2139
 -----------------------------------------------------------------
Archival summary:
1\1\mn366\SP\ProcedureUnspecified\6-31G**\428\afmv_a\MonOct806:10:142018MonOct806:10:142018\0\\#,ProcedureUnspecified,6-31G**,\\0,1\C\C,1,1.36078\C,2,1.32915,1,122.141\C,1,1.38862,2,119.541,3,7.64137,0\C,4,1.39335,1,106.419,2,136.801,0\C,5,1.39673,4,109.238,1,7.16032,0\C,6,1.37036,5,108.624,4,-5.03463,0\C,2,1.39856,1,121.768,3,-152.034,0\C,8,1.39251,2,107.572,1,151.714,0\C,3,1.40006,2,106.816,1,-150.581,0\C,10,1.40107,3,115.538,2,134.691,0\C,11,1.37137,10,125.825,3,4.80948,0\C,12,1.39053,11,116.566,10,-2.54505,0\C,11,1.39364,10,121.741,3,-138.87,0\C,13,1.39504,12,122.073,11,1.51606,0\C,14,1.40104,11,111.823,10,151.758,0\C,4,1.40389,1,122.994,2,-3.92449,0\C,13,1.40833,12,120.057,11,-140.959,0\C,18,1.36798,13,122.414,12,-3.59864,0\C,18,1.40434,13,109.669,12,145.753,0\C,20,1.40305,18,120.938,13,-142.736,0\C,19,1.40992,18,117.949,13,131.888,0\C,22,1.41201,19,122.877,18,15.322,0\C,7,1.41312,6,120.945,5,-134.66,0\C,24,1.38218,7,118.881,6,-1.24872,0\C,25,1.36502,24,111.192,7,147.166,0\C,24,1.38811,7,124.919,6,138.593,0\C,26,1.39121,25,106.704,24,-4.14014,0\C,26,1.39694,25,122.084,24,-146.168,0\C,28,1.40367,26,120.82,25,-141.423,0\C,30,1.34158,28,119.516,26,5.16764,0\C,30,1.3667,28,117.212,26,139.739,0\C,31,1.37712,30,110.538,28,141.39,0\C,32,1.38302,30,106.708,28,-141.832,0\C,31,1.40323,30,121.598,28,-4.08009,0\C,35,1.38935,31,122.739,30,144.913,0\C,36,1.39473,35,119.344,31,0.234138,0\C,37,1.41474,36,119.46,35,-1.90225,0\C,38,1.4089,37,110.171,36,-137.688,0\C,23,1.41928,22,121.624,19,-140.606,0\C,40,1.40432,23,110.717,22,134.067,0\C,41,1.39595,40,107.169,23,-0.00222359,0\C,25,1.42071,24,120.792,7,1.96119,0\C,43,1.36521,25,121.656,24,148.902,0\C,43,1.40645,25,120.646,24,-4.38475,0\C,45,1.40905,43,105.406,25,147.729,0\C,46,1.39117,45,106.818,43,4.03945,0\C,47,1.41836,46,118.975,45,-141.51,0\C,48,1.39055,47,122.231,46,138.572,0\C,49,1.39783,48,108.684,47,-140.748,0\C,50,1.37047,49,109.017,48,2.18145,0\C,51,1.3988,50,123.195,49,148.372,0\C,49,1.40351,48,118.446,47,0.418447,0\C,53,1.38826,49,122.582,48,1.76928,0\C,50,1.40769,49,121.905,48,143.048,0\C,52,1.4158,51,120.707,50,-5.52255,0\C,56,1.40078,52,117.353,51,-1.30083,0\C,51,1.42502,50,108.139,49,-7.8363,0\C,12,1.44729,11,114.059,10,-153.408,0\C,19,1.48423,18,121.71,13,-4.17299,0\C,59,1.51572,12,125.354,11,-141.483,0\C,61,1.46891,59,121.799,12,145.724,0\C,62,1.38458,61,121.32,59,-61.6939,0\H,63,1.08598,62,119.535,61,12.8487,0\C,63,1.38541,62,119.291,61,-172.247,0\H,65,1.0858,63,123.766,62,170.209,0\C,62,1.38612,61,118.227,59,126.675,0\H,67,1.08561,62,118.392,61,-20.0096,0\C,65,1.4117,63,121.871,62,0.986672,0\H,69,1.08615,65,118.777,63,178.107,0\C,67,1.42287,62,122.948,61,171.788,0\H,71,1.08617,67,116.335,62,174.212,0\C,61,1.55781,59,117.347,12,6.23728,0\H,73,1.09702,61,100.664,59,90.5042,0\H,73,1.09719,61,109.14,59,-24.3816,0\C,73,1.58053,61,116.662,59,-146.45,0\H,76,1.09717,73,110.736,61,55.2969,0\H,76,1.09776,73,106.576,61,-55.9793,0\C,76,1.50327,73,113.125,61,-173.224,0\H,79,1.09711,76,112.613,73,-177.984,0\H,79,1.09724,76,110.545,73,-62.7397,0\C,79,1.56319,76,112.64,73,67.9445,0\O,82,1.23112,79,122.078,76,80.4752,0\O,82,1.38413,79,111.587,76,-90.1891,0\C,84,1.43594,82,118.805,79,-167.313,0\H,85,1.09646,84,109.328,82,167.775,0\H,85,1.09655,84,115.325,82,53.1148,0\H,85,1.09698,84,118.656,82,-67.0601,0\H,6,2.58899,5,84.6456,4,71.191,0\C,89,1.08541,6,142.776,5,86.3625,0\C,90,1.38078,89,125.952,6,-167.947,0\C,90,1.39404,89,111.57,6,15.8348,0\H,92,1.08587,90,114.785,89,-12.5582,0\C,92,1.3855,90,120.508,89,175.315,0\H,94,1.08647,92,121.54,90,-179.844,0\C,94,1.37183,92,119.065,90,2.33825,0\H,96,1.08635,94,125.859,92,178.749,0\C,96,1.42667,94,121.576,92,-2.40305,0\H,98,1.08591,96,121.374,94,-171.965,0\C,91,1.51719,90,116.519,89,8.07674,0\C,100,1.50201,91,111.173,90,75.9152,0\H,101,1.09607,100,121.33,91,-172.014,0\H,101,1.09714,100,115.676,91,-44.0762,0\C,100,1.51265,91,118.563,90,-65.2201,0\C,104,1.48781,100,126.91,91,139.279,0\C,105,1.41071,104,110.611,100,-153.803,0\C,106,1.3837,105,107.454,104,-5.35523,0\C,107,1.40277,106,111.098,105,1.78509,0\C,106,1.40867,105,122.129,104,-147.379,0\C,109,1.36675,106,118.843,105,1.70992,0\C,109,1.39877,106,123.059,105,142.818,0\C,111,1.38584,109,118.437,106,-4.79772,0\C,112,1.40679,111,122.042,109,-136.132,0\C,113,1.38605,112,107.931,111,144.552,0\C,114,1.36741,113,120.232,112,-144.466,0\C,114,1.38475,113,107.135,112,-1.34261,0\C,116,1.38027,114,110.701,113,2.00875,0\C,116,1.38817,114,117.749,113,-143.111,0\C,110,1.40846,109,121.844,106,3.94869,0\C,119,1.38887,110,122.069,109,136.712,0\C,120,1.38263,119,110.669,110,-143.301,0\C,121,1.37335,120,119.729,119,142.584,0\C,122,1.38213,121,118.749,120,-142.707,0\C,123,1.36649,122,104.23,121,139.824,0\C,122,1.38387,121,120.08,120,-2.05774,0\C,119,1.3921,110,118.139,109,-1.41503,0\C,125,1.39801,122,109.028,121,-141.968,0\C,127,1.39889,125,117.344,122,146.794,0\C,128,1.37756,127,116.992,125,-138.86,0\C,129,1.37469,128,108.174,127,145.124,0\C,128,1.37939,127,122.284,125,3.11559,0\C,121,1.40575,120,107.393,119,2.90958,0\C,132,1.37997,121,124.565,120,144.944,0\C,133,1.37803,132,114.34,121,-1.27238,0\C,120,1.40933,119,117.689,110,2.49285,0\C,135,1.38221,120,118.538,119,-139.3,0\C,136,1.34992,135,109.602,120,145.523,0\C,135,1.38934,120,120.055,119,-4.29572,0\C,138,1.38831,135,122.627,120,6.20944,0\C,137,1.39899,136,109.14,135,-4.11763,0\C,140,1.39482,137,122.431,136,-140.512,0\C,131,1.41027,128,106.067,127,-140.217,0\C,142,1.36968,131,124.509,128,137.769,0\C,143,1.35419,142,124.684,131,-139.879,0\C,144,1.40849,143,120.011,142,0.0307069,0\C,130,1.41104,129,119.744,128,-144.059,0\C,139,1.41319,138,119.107,135,-146.337,0\C,115,1.41557,114,122.446,113,142.468,0\C,148,1.3985,115,117.958,114,-4.08516,0\C,148,1.41613,115,105.607,114,-138.056,0\C,134,1.42106,133,105.112,132,-139.852,0\C,151,1.32881,134,123.156,133,142.789,0\C,152,1.38584,151,119.65,134,-3.11973,0\C,152,1.41134,151,120.43,134,-139.201,0\C,154,1.41103,152,123.97,151,0.649395,0\C,151,1.41881,134,109.379,133,-1.80222,0\C,141,1.42121,140,119.126,137,144.946,0\C,150,1.42437,148,120.565,115,139.965,0\C,156,1.42439,151,124.406,134,141.207,0\C,159,1.41472,156,122.509,151,-132.736,0\C,113,1.42801,112,118.686,111,-7.28276,0\C,153,1.44084,152,110.956,151,-143.855,0\C,133,1.46852,132,123.323,121,-148.474,0\C,101,1.5624,100,107.381,91,68.3478,0\H,164,1.09662,101,109.851,100,39.8688,0\H,164,1.0969,101,112.502,100,-73.0657,0\C,164,1.51159,101,113.456,100,167.731,0\H,167,1.09704,164,108.534,101,61.8861,0\H,167,1.09714,164,108.323,101,167.901,0\C,167,1.56035,164,109.867,101,-62.3018,0\O,170,1.24052,167,124.233,164,115.996,0\O,170,1.3687,167,112.044,164,-61.4525,0\C,172,1.4343,170,119.241,167,176.608,0\H,173,1.09652,172,109.508,170,74.3584,0\H,173,1.09681,172,109.996,170,-45.9783,0\H,173,1.09712,172,114.512,170,-165.681,0\\\@

 Total job time:  850.03s(wall), 7308.84s(cpu) 
 Mon Oct  8 06:10:14 2018

        *************************************************************
        *                                                           *
        *  Thank you very much for using Q-Chem.  Have a nice day.  *
        *                                                           *
        *************************************************************


