
Running Job 1 of 1 ./8/1.qcin
qchem ./8/1.qcin_10539.0 /tmpu/cab_g/afmv_a/scratch_qchem/qchem10539/ 1
/tmpu/appuserlic/qchem4.4/serial-multicore/exe/qcprog.exe_s ./8/1.qcin_10539.0 /tmpu/cab_g/afmv_a/scratch_qchem/qchem10539/
Check license passed

                  Welcome to Q-Chem
     A Quantum Leap Into The Future Of Chemistry


 Q-Chem 4.4, Q-Chem, Inc., Pleasanton, CA (2016)

 Y. Shao,  Z. Gan,  E. Epifanovsky,  A. T. B. Gilbert,  M. Wormit,  
 J. Kussmann,  A. W. Lange,  A. Behn,  J. Deng,  X. Feng,  D. Ghosh,  
 M. Goldey,  P. R. Horn,  L. D. Jacobson,  I. Kaliman,  F. Rob,  
 R. Z. Khaliullin,  T. Kus,  A. Landau,  J. Liu,  E. I. Proynov,  Y. M. Rhee,  
 R. M. Richard,  M. A. Rohrdanz,  R. P. Steele,  E. J. Sundstrom,  
 H. L. Woodcock III,  P. M. Zimmerman,  D. Zuev,  B. Albrecht,  E. Alguire,  
 B. Austin,  S. A. Baeppler,  G. J. O. Beran,  Y. A. Bernard,  E. Berquist,  
 K. Brandhorst,  K. B. Bravaya,  S. T. Brown,  D. Casanova,  C.-M. Chang,  
 Y. Chen,  S. H. Chien,  K. D. Closser,  M. P. Coons,  D. L. Crittenden,  
 S. Dasgupta,  M. Diedenhofen,  R. A. DiStasio Jr.,  H. Do,  A. D. Dutoi,  
 R. G. Edgar,  P.-T. Fang,  S. Fatehi,  Q. Feng,  L. Fusti-Molnar,  
 A. Ghysels,  A. Golubeva-Zadorozhnaya,  J. Gomes,  A. Gunina,  
 M. W. D. Hanson-Heine,  P. H. P. Harbach,  A. W. Hauser,  J. E. Herr,  
 E. G. Hohenstein,  Z. C. Holden,  K. Hui,  T.-C. Jagau,  H. Ji,  B. Kaduk,  
 K. Khistyaev,  Jaehoon Kim,  Jihan Kim,  R. A. King,  P. Klunzinger,  
 K. Koh,  D. Kosenkov,  T. Kowalczyk,  C. M. Krauter,  A. Kunitsa,  
 K. U. Lao,  A. Laurent,  K. V. Lawler,  J. Lee,  D. Lefrancois,  S. Lehtola,  
 S. V. Levchenko,  C. Y. Lin,  Y.-S. Lin,  F. Liu,  E. Livshits,  
 R. C. Lochan,  A. Luenser,  P. Manohar,  S. F. Manzer,  S.-P. Mao,  Y. Mao,  
 N. Mardirossian,  A. V. Marenich,  L. A. Martinez-Martinez,  S. A. Maurer,  
 N. J. Mayhall,  J.-M. Mewes,  A. F. Morrison,  K. Nanda,  T. S. Nguyen-Beck,  
 C. M. Oana,  R. Olivares-Amaya,  D. P. O'Neill,  J. A. Parkhill,  
 T. M. Perrine,  R. Peverati,  P. A. Pieniazek,  F. Plasser,  A. Prociuk,  
 D. R. Rehn,  E. Rosta,  N. J. Russ,  N. Sergueev,  S. M. Sharada,  
 S. Sharma,  D. W. Small,  A. Sodt,  T. Stauch,  T. Stein,  D. Stuck,  
 Y.-C. Su,  A. J. W. Thom,  T. Tsuchimochi,  L. Vogt,  O. Vydrov,  T. Wang,  
 M. A. Watson,  J. Wenzel,  A. White,  C. F. Williams,  V. Vanovschi,  
 K. Yao,  S. Yeganeh,  S. R. Yost,  Z.-Q. You,  I. Y. Zhang,  X. Zhang,  
 Y. Zhao,  B. R. Brooks,  G. K. L. Chan,  D. M. Chipman,  C. J. Cramer,  
 W. A. Goddard III,  M. S. Gordon,  W. J. Hehre,  A. Klamt,  
 H. F. Schaefer III,  M. W. Schmidt,  C. D. Sherrill,  D. G. Truhlar,  
 A. Warshel,  X. Xu,  A. Aspuru-Guzik,  R. Baer,  A. T. Bell,  N. A. Besley,  
 J.-D. Chai,  A. Dreuw,  B. D. Dunietz,  T. R. Furlani,  S. R. Gwaltney,  
 C.-P. Hsu,  Y. Jung,  J. Kong,  D. S. Lambrecht,  W. Liang,  C. Ochsenfeld,  
 V. A. Rassolov,  L. V. Slipchenko,  J. E. Subotnik,  T. Van Voorhis,  
 J. M. Herbert,  A. I. Krylov,  P. M. W. Gill,  M. Head-Gordon

 Contributors to earlier versions of Q-Chem not listed above: 
 R. D. Adamson,  J. Baker,  E. F. C. Byrd,  A. K. Chakraborty,  C.-L. Cheng,  
 H. Dachsel,  R. J. Doerksen,  G. Hawkins,  A. Heyden,  S. Hirata,  
 G. Kedziora,  F. J. Keil,  C. Kelley,  P. P. Korambath,  W. Kurlancheek,  
 A. M. Lee,  M. S. Lee,  D. Liotard,  I. Lotan,  P. E. Maslen,  N. Nair,  
 D. Neuhauser,  R. Olson,  B. Peters,  J. Ritchie,  N. E. Schultz,  
 N. Shenvi,  A. C. Simmonett,  K. S. Thanthiriwatte,  Q. Wu,  W. Zhang

 Please cite Q-Chem as follows:
 Y. Shao et al., Mol. Phys. 113, 184-215 (2015)
 DOI: 10.1080/00268976.2014.952696

 Q-Chem 4.4.2 for Intel X86 Linux

 Parts of Q-Chem use Armadillo 5.200.1 (Boston Tea Smuggler).
 http://arma.sourceforge.net/

 Q-Chem begins on Sat Oct  6 07:46:49 2018  

Host: 
0

     Scratch files written to /tmpu/cab_g/afmv_a/scratch_qchem/qchem10539//
 Dec716 11556_ 22328  22283 4050   
Processing $rem in /tmpu/appuserlic/qchem4.4/serial-multicore/config/preferences.
 MEM_TOTAL  2000 
FILE_GEOM_ORG=        593

Checking the input file for inconsistencies... 	...done.

--------------------------------------------------------------
User input:
--------------------------------------------------------------
$comment
SP
$end

$rem
MEM_STATIC 5000
MEM_TOTAL 20000
JOBTYPE SP
EXCHANGE B3LYP
BASIS 6-31g(d,p)
$end

$molecule
0 1
C          25.688000     -8.848000     -1.914000
C          24.764000     -7.964000     -2.458000
N          25.768000     -9.166000     -0.626000
C          23.845000     -7.397000     -1.561000
C          24.951000     -8.650000      0.256000
C          23.927000     -7.726000     -0.199000
C          23.044000     -7.095000      0.839000
C          23.502000     -6.633000      2.139000
C          21.687000     -6.895000      0.619000
N          22.709000     -6.050000      3.064000
N          21.068000     -7.270000     -0.551000
C          20.893000     -6.421000      1.612000
C          21.416000     -6.036000      2.886000
S          19.444000     -7.147000     -0.167000
N          19.593000     -6.460000      1.311000
C          20.555000     -5.740000      4.052000
S          18.884000     -6.197000      4.290000
C          21.045000     -5.064000      5.179000
C          18.920000     -5.726000      5.987000
S          22.550000     -4.311000      5.567000
C          20.089000     -5.111000      6.285000
C          17.848000     -5.826000      6.931000
C          22.005000     -4.205000      7.249000
C          20.688000     -4.637000      7.470000
N          16.650000     -5.830000      6.317000
S          17.872000     -5.967000      8.704000
C          15.682000     -5.878000      7.306000
C          16.178000     -5.935000      8.585000
C          26.806000     -9.373000     -2.781000
H          24.756000     -7.606000     -3.483000
H          23.211000     -6.627000     -1.991000
H          25.018000     -9.003000      1.284000
H          24.584000     -6.590000      2.247000
H          22.756000     -3.970000      7.992000
H          20.214000     -4.596000      8.444000
H          14.654000     -5.950000      6.974000
H          15.460000     -5.933000      9.394000
H          26.683000    -10.433000     -3.036000
C          28.291000     -9.076000     -2.174000
H          26.741000     -8.919000     -3.777000
H          28.516000     -9.765000     -1.350000
H          28.370000     -8.067000     -1.751000
C          29.359000     -9.328000     -3.325000
H          29.505000    -10.414000     -3.385000
C          30.709000     -8.628000     -2.979000
H          29.033000     -8.898000     -4.281000
H          31.081000     -8.819000     -1.965000
H          30.584000     -7.539000     -3.024000
C          31.815000     -9.004000     -3.975000
H          31.998000    -10.071000     -3.793000
C          33.099000     -8.237000     -3.711000
H          31.521000     -9.068000     -5.030000
H          33.315000     -8.128000     -2.641000
H          33.031000     -7.252000     -4.190000
H          33.845000     -8.874000     -4.204000
C          20.089000     -7.251000     12.709000
C          20.512000     -6.104000     11.998000
N          20.726000     -8.384000     12.526000
C          21.575000     -6.249000     11.065000
C          21.721000     -8.528000     11.703000
C          22.325000     -7.449000     10.935000
C          23.611000     -7.535000     10.079000
C          23.864000     -6.695000      8.997000
C          24.621000     -8.508000     10.267000
N          24.950000     -6.705000      8.187000
N          24.594000     -9.566000     11.165000
C          25.790000     -8.479000      9.510000
C          25.931000     -7.579000      8.391000
S          26.039000    -10.310000     10.896000
N          26.683000     -9.417000      9.776000
C          27.107000     -7.491000      7.592000
S          28.723000     -8.265000      7.900000
C          27.255000     -6.456000      6.634000
C          29.492000     -7.069000      6.819000
S          26.071000     -5.409000      5.867000
C          28.547000     -6.321000      6.112000
C          30.916000     -7.192000      6.455000
C          27.436000     -4.590000      5.036000
C          28.665000     -5.246000      5.246000
N          31.570000     -7.820000      7.363000
S          31.706000     -6.743000      4.912000
C          32.870000     -7.935000      6.943000
C          33.178000     -7.432000      5.700000
C          18.965000     -7.062000     13.699000
H          20.002000     -5.145000     11.980000
H          21.863000     -5.385000     10.474000
H          22.148000     -9.530000     11.679000
H          23.096000     -5.953000      8.783000
H          27.286000     -3.711000      4.423000
H          29.589000     -4.987000      4.744000
H          33.475000     -8.441000      7.684000
H          34.165000     -7.333000      5.267000
H          18.095000     -6.566000     13.251000
C          19.417000     -6.195000     14.893000
H          18.563000     -8.028000     14.029000
H          19.513000     -5.150000     14.574000
H          20.336000     -6.660000     15.271000
C          18.381000     -6.032000     15.977000
H          17.570000     -5.343000     15.711000
C          19.008000     -5.545000     17.288000
H          18.022000     -7.049000     16.181000
H          19.881000     -6.165000     17.526000
H          18.279000     -5.785000     18.071000
C          19.420000     -4.067000     17.236000
H          20.210000     -3.918000     16.490000
C          19.828000     -3.503000     18.650000
H          18.589000     -3.412000     16.946000
H          18.908000     -3.402000     19.238000
H          20.384000     -2.560000     18.587000
H          20.448000     -4.230000     19.190000
$end

--------------------------------------------------------------
 ----------------------------------------------------------------
             Standard Nuclear Orientation (Angstroms)
    I     Atom           X                Y                Z
 ----------------------------------------------------------------
    1      C       7.8260997468     2.6884235713    -1.2504635152
    2      C       7.6748481497     3.8459942631    -0.4965928049
    3      N       6.8334556104     1.8814245699    -1.6108497391
    4      C       6.3628726151     4.1748334230    -0.1207683731
    5      C       5.5950657578     2.1285818411    -1.2688367917
    6      C       5.3109075155     3.3243848161    -0.4950885520
    7      C       3.8927239268     3.5526587500    -0.0569786118
    8      C       2.9970008735     2.5074884193     0.4104689167
    9      C       3.3228029254     4.8195561855    -0.0601314104
   10      N       1.7273655211     2.7181616960     0.8203540740
   11      N       4.0128520384     5.9359495144    -0.4726652354
   12      C       2.0093154541     4.9822818723     0.2389204473
   13      C       1.1796871236     3.8894200426     0.6416608777
   14      S       2.8049913413     7.0844524767    -0.6209031582
   15      N       1.5670458770     6.2213303479     0.0124728898
   16      C      -0.2922200925     3.9940200249     0.7467369973
   17      S      -1.3320385217     5.2008255585     0.0255351958
   18      C      -1.0527575145     3.0397706905     1.4382541971
   19      C      -2.7868148130     4.2884694634     0.4181906402
   20      S      -0.6609413302     1.6578769703     2.3971221879
   21      C      -2.4833657879     3.2201046311     1.1928552607
   22      C      -4.1380155699     4.6483836484     0.1099078255
   23      C      -2.3702965879     1.1971828404     2.3401088441
   24      C      -3.2088707434     2.1224413369     1.6992936598
   25      N      -4.2686240859     5.9784199021    -0.0518357351
   26      S      -5.5872593774     3.6400419984    -0.1067151269
   27      C      -5.6079221888     6.2328494194    -0.2947250355
   28      C      -6.4017714213     5.1132617904    -0.3325791895
   29      C       9.2147527038     2.1825225498    -1.5553325383
   30      H       8.4817724221     4.4530655175    -0.0976056989
   31      H       6.2862996751     5.0173996749     0.5603885075
   32      H       4.8167118235     1.4714700928    -1.6538709501
   33      H       3.4827384616     1.5555926151     0.6158718704
   34      H      -2.6158826339     0.1911500681     2.6545298281
   35      H      -4.2812822220     1.9848636404     1.6215826694
   36      H      -5.8741628499     7.2599418788    -0.5101060706
   37      H      -7.4627473431     5.2645065794    -0.4790855281
   38      H       9.4920659563     2.3133432110    -2.6087732413
   39      C       9.4692571647     0.6491114532    -1.0595897739
   40      H       9.9550350104     2.8309980614    -1.0717845911
   41      H       8.9873924882    -0.0622187022    -1.7423326563
   42      H       9.0344039694     0.4571636782    -0.0709999954
   43      C      11.0344092853     0.3692638514    -1.0898082978
   44      H      11.2966887627     0.1672410750    -2.1360913730
   45      C      11.3845498103    -0.8666129215    -0.2053727633
   46      H      11.6040830325     1.2096534382    -0.6722808566
   47      H      10.7617400546    -1.7519213823    -0.3825673949
   48      H      11.2207988975    -0.6240254808     0.8519389089
   49      C      12.8560468179    -1.2760934328    -0.3591591981
   50      H      12.9339183546    -1.6396957345    -1.3920345003
   51      C      13.2309096455    -2.4051898480     0.5849065548
   52      H      13.5863799798    -0.4596898690    -0.4196215300
   53      H      12.4406207234    -3.1604395827     0.6769840098
   54      H      13.4727443806    -1.9824380453     1.5683123074
   55      H      14.1214646951    -2.8197945592     0.0946529091
   56      C      -7.5803217307    -0.5321548804    -1.2131714797
   57      C      -6.9011263801    -0.3720985636     0.0169239033
   58      N      -6.9458898892    -1.0786552511    -2.2240031093
   59      C      -5.5337552584    -0.7562920764     0.0815347386
   60      C      -5.7069568003    -1.4667713992    -2.1739965420
   61      C      -4.8746018965    -1.4326155091    -0.9803049196
   62      C      -3.4589768121    -2.0377965227    -0.8263907832
   63      C      -2.5236827481    -1.5652592863     0.0913600403
   64      C      -2.9534994593    -3.0805076548    -1.6384370508
   65      N      -1.2632288563    -2.0219068598     0.2871277094
   66      N      -3.5870071665    -3.6622476713    -2.7278146429
   67      C      -1.6974964478    -3.6309855186    -1.3937299672
   68      C      -0.7988758357    -3.0389751161    -0.4324565000
   69      S      -2.4947473415    -4.7906358564    -3.2254395803
   70      N      -1.3242615782    -4.6158532818    -2.1929672418
   71      C       0.4886658003    -3.5660031114    -0.1265169183
   72      S       1.1949820619    -5.1561787433    -0.6536362581
   73      C       1.2400657111    -3.0540488929     0.9616898876
   74      C       2.3627339714    -5.0746672095     0.6954557876
   75      S       1.1151687988    -1.5413490506     1.8462767676
   76      C       2.3529756077    -3.8244393741     1.3193252723
   77      C       3.4464825960    -6.0683311352     0.8117395840
   78      C       2.4408701226    -2.1308237520     2.9043800596
   79      C       3.0065634542    -3.3339380866     2.4381355395
   80      N       3.1174297023    -7.1750798795     0.2519222833
   81      S       5.1030653416    -5.8288819203     1.4480945796
   82      C       4.1803206261    -8.0343421886     0.3594219037
   83      C       5.3210224413    -7.5543435283     0.9605231056
   84      C      -9.0334419846    -0.1240718358    -1.2464394274
   85      H      -7.2781809573     0.1612322440     0.8849637039
   86      H      -4.9923409985    -0.5798912661     1.0059125582
   87      H      -5.3341376598    -1.9127322248    -3.0954268598
   88      H      -2.8490237297    -0.7331469204     0.7141973033
   89      H       2.7635387346    -1.5776175374     3.7765943974
   90      H       3.8898495937    -3.7971912747     2.8601107514
   91      H       3.9492745614    -8.9959577453    -0.0799586113
   92      H       6.2002803840    -8.1245064703     1.2312234744
   93      H      -9.1879972098     0.8953066006    -0.8714723811
   94      C      -9.8938296623    -1.0635723649    -0.3754050999
   95      H      -9.4057258208    -0.0733243899    -2.2772107124
   96      H      -9.7048144324    -0.8583655064     0.6853330337
   97      H      -9.6583624808    -2.0818844521    -0.7089702352
   98      C     -11.3749204020    -0.7827990552    -0.4249789773
   99      H     -11.6734356396     0.1079614113     0.1412651788
  100      C     -12.1921302608    -1.9715072875     0.0928624899
  101      H     -11.6126827246    -0.7038597487    -1.4936340497
  102      H     -11.8454496148    -2.8910581407    -0.3943866849
  103      H     -13.2075044551    -1.8222501642    -0.2929710968
  104      C     -12.1095337527    -2.1295019172     1.6177059290
  105      H     -11.0810597798    -2.3591994762     1.9215106663
  106      C     -13.1398076395    -3.1851205476     2.1728284609
  107      H     -12.3945753916    -1.2125461303     2.1483935480
  108      H     -14.1370605289    -2.7346469694     2.1027911150
  109      H     -12.9047767125    -3.5125881683     3.1925732431
  110      H     -13.1678428948    -4.0719755922     1.5268941342
 ----------------------------------------------------------------
 Molecular Point Group                 C1    NOp =  1
 Largest Abelian Subgroup              C1    NOp =  1
 Nuclear Repulsion Energy = 11431.5102645715 hartrees
 There are      270 alpha and      270 beta electrons
 Requested basis set is 6-31G(d,p)
 There are 406 shells and 1262 basis functions

 Total QAlloc Memory Limit  20000 MB
 Mega-Array Size      4888 MB
 MEM_STATIC part      5000 MB
 A cutoff of  1.0D-08 yielded  13054 shell pairs
 There are    136542 function pairs
 
 -------------------------------------------------------
 OpenMP Integral Computing Module                       
 Release: version 1.0, May 2013, Q-Chem Inc. Pittsburgh 
 -------------------------------------------------------
 Integral Job Info:
 Integral job number is                      11
 Integral operator is                         1
 short-range coefficients                     0
 long-range coefficients              100000000
 Omega coefficients                           0
 if combine SR and LR in K                    0
 Integral screening is                        0
 Integral computing path is                   2
 max size of driver memory is            800000
 size of driver memory is                593474
 size of scratch memory is             15166112
 max col of scratch BK array               1296
 max len of scratch array in speh3          155
 max len of scratch index in speh4           18
 max int batch size is                      520
 min int batch size is                       52
 fixed nKL is                                52
 max L of basis functions is                  2
 order of int derivative is                   0
 number of shells is                        406
 number of basis is                        1262
 number of cartesian basis is              1262
 number of contracted shell pairs         13054
 number of primitive shell pairs          42343
 maxK2 (contraction) of shell pair           36
 max number of K2 of shell pair               1
 max number of CS2 of shell pair           1312
 max number of PS2 of shell pair           7872
 mem total for path MDJ                  281416
 -------------------------------------------------------
 Smallest overlap matrix eigenvalue = 4.05E-04

 Scale SEOQF with 1.000000e-02/1.000000e-02/1.000000e-01

 Standard Electronic Orientation quadrupole field applied
 Nucleus-field energy     =     0.0000000236 hartrees
 Guess from superposition of atomic densities
 Warning:  Energy on first SCF cycle will be non-variational
 A restricted hybrid HF-DFT SCF calculation will be
 performed using Pulay DIIS extrapolation
 Exchange:     0.2000 Hartree-Fock + 0.0800 Slater + 0.7200 B88
 Correlation:  0.1900 VWN1RPA + 0.8100 LYP
 Using SG-1 standard quadrature grid
 SCF converges when DIIS error is below 1.0E-05
 using 16 threads for integral computing 
 -------------------------------------------------------
 OpenMP BLAS3 based DFT computing Module                
 Release: version 1.0, May 2013, Q-Chem Inc. Pittsburgh 
 -------------------------------------------------------
 ---------------------------------------
  Cycle       Energy         DIIS Error
 ---------------------------------------
    1   -5680.0003007732      2.14E-02
    2   -5662.4783988260      2.17E-03
    3   -5661.2315340713      3.24E-03
    4   -5663.3687148119      8.32E-04
    5   -5663.4729888932      4.16E-04
    6   -5663.4958012757      2.31E-04
    7   -5663.5057808418      6.60E-05
    8   -5663.5065398552      2.82E-05
    9   -5663.5066849663      1.11E-05
   10   -5663.5067121745      3.29E-06 Convergence criterion met
 ---------------------------------------
 SCF time:  CPU 1001.10 s  wall 89.66 s
 SCF   energy in the final basis set = -5663.5067121745
 Total energy in the final basis set = -5663.5067121745
 
 --------------------------------------------------------------
 
                    Orbital Energies (a.u.)
 --------------------------------------------------------------
 
 Alpha MOs
 -- Occupied --
-88.985 -88.982 -88.937 -88.936 -88.926 -88.921 -88.914 -88.913
-14.383 -14.382 -14.379 -14.379 -14.346 -14.344 -14.343 -14.341
-14.322 -14.320 -10.272 -10.266 -10.260 -10.256 -10.252 -10.248
-10.246 -10.244 -10.243 -10.241 -10.238 -10.238 -10.237 -10.235
-10.232 -10.232 -10.231 -10.231 -10.231 -10.229 -10.229 -10.228
-10.224 -10.224 -10.223 -10.223 -10.222 -10.222 -10.220 -10.216
-10.211 -10.208 -10.208 -10.206 -10.206 -10.204 -10.198 -10.196
-10.185 -10.184 -10.183 -10.182 -10.180 -10.180 -10.177 -10.176
-10.174 -10.174 -10.173 -10.172  -8.040  -8.039  -7.997  -7.995
 -7.983  -7.980  -7.973  -7.972  -6.005  -6.004  -6.000  -5.998
 -5.998  -5.997  -5.961  -5.959  -5.958  -5.956  -5.954  -5.952
 -5.948  -5.944  -5.944  -5.940  -5.940  -5.937  -5.937  -5.936
 -5.933  -5.933  -5.929  -5.929  -1.046  -1.031  -0.983  -0.964
 -0.962  -0.957  -0.948  -0.947  -0.908  -0.907  -0.902  -0.895
 -0.844  -0.837  -0.830  -0.825  -0.815  -0.814  -0.805  -0.803
 -0.803  -0.799  -0.796  -0.793  -0.785  -0.784  -0.764  -0.762
 -0.748  -0.744  -0.743  -0.740  -0.720  -0.718  -0.710  -0.708
 -0.696  -0.689  -0.671  -0.667  -0.651  -0.651  -0.643  -0.643
 -0.633  -0.631  -0.625  -0.624  -0.612  -0.606  -0.604  -0.597
 -0.595  -0.593  -0.589  -0.579  -0.577  -0.574  -0.574  -0.562
 -0.541  -0.540  -0.539  -0.538  -0.524  -0.524  -0.520  -0.515
 -0.504  -0.503  -0.498  -0.495  -0.486  -0.484  -0.475  -0.475
 -0.473  -0.470  -0.468  -0.468  -0.465  -0.464  -0.457  -0.447
 -0.443  -0.439  -0.436  -0.435  -0.432  -0.431  -0.430  -0.428
 -0.425  -0.423  -0.422  -0.419  -0.418  -0.415  -0.414  -0.412
 -0.411  -0.409  -0.406  -0.404  -0.402  -0.397  -0.395  -0.393
 -0.391  -0.390  -0.389  -0.388  -0.386  -0.385  -0.384  -0.381
 -0.379  -0.378  -0.371  -0.370  -0.363  -0.361  -0.358  -0.357
 -0.356  -0.352  -0.351  -0.349  -0.348  -0.346  -0.345  -0.342
 -0.340  -0.338  -0.338  -0.331  -0.330  -0.329  -0.325  -0.325
 -0.314  -0.311  -0.309  -0.308  -0.303  -0.302  -0.301  -0.298
 -0.298  -0.295  -0.292  -0.290  -0.290  -0.289  -0.286  -0.283
 -0.275  -0.271  -0.263  -0.261  -0.254  -0.250  -0.246  -0.245
 -0.238  -0.237  -0.231  -0.225  -0.194  -0.191
 -- Virtual --
 -0.110  -0.107  -0.072  -0.069  -0.037  -0.036  -0.024  -0.022
 -0.021  -0.019  -0.016  -0.014  -0.006  -0.003   0.002   0.004
  0.006   0.007   0.018   0.021   0.030   0.032   0.034   0.038
  0.048   0.050   0.057   0.064   0.069   0.072   0.078   0.088
  0.090   0.099   0.099   0.099   0.101   0.104   0.106   0.108
  0.110   0.116   0.118   0.120   0.121   0.123   0.124   0.127
  0.130   0.132   0.133   0.136   0.138   0.140   0.144   0.147
  0.150   0.155   0.158   0.161   0.161   0.164   0.164   0.167
  0.170   0.172   0.173   0.174   0.177   0.177   0.180   0.183
  0.184   0.185   0.189   0.189   0.193   0.194   0.199   0.200
  0.200   0.202   0.205   0.206   0.209   0.211   0.213   0.215
  0.218   0.222   0.224   0.228   0.229   0.233   0.236   0.239
  0.241   0.245   0.246   0.248   0.250   0.254   0.261   0.262
  0.264   0.266   0.268   0.270   0.272   0.273   0.274   0.277
  0.278   0.280   0.288   0.291   0.296   0.297   0.299   0.305
  0.316   0.318   0.320   0.322   0.323   0.324   0.326   0.328
  0.330   0.331   0.333   0.339   0.341   0.343   0.346   0.347
  0.351   0.354   0.358   0.359   0.363   0.363   0.365   0.367
  0.371   0.376   0.379   0.385   0.389   0.398   0.399   0.412
  0.413   0.415   0.422   0.425   0.428   0.431   0.435   0.441
  0.444   0.448   0.452   0.453   0.457   0.463   0.468   0.478
  0.481   0.481   0.485   0.487   0.490   0.491   0.495   0.498
  0.500   0.502   0.508   0.509   0.514   0.517   0.519   0.520
  0.524   0.525   0.527   0.529   0.533   0.533   0.534   0.535
  0.537   0.539   0.542   0.545   0.546   0.549   0.554   0.555
  0.556   0.557   0.558   0.559   0.561   0.563   0.564   0.566
  0.568   0.569   0.573   0.576   0.580   0.581   0.583   0.584
  0.585   0.587   0.593   0.594   0.596   0.598   0.600   0.602
  0.603   0.605   0.605   0.609   0.611   0.616   0.619   0.622
  0.623   0.624   0.625   0.626   0.629   0.632   0.632   0.632
  0.634   0.636   0.639   0.642   0.644   0.647   0.649   0.652
  0.652   0.654   0.657   0.661   0.662   0.664   0.669   0.671
  0.680   0.681   0.684   0.685   0.691   0.691   0.693   0.695
  0.696   0.699   0.705   0.707   0.710   0.713   0.716   0.721
  0.727   0.728   0.733   0.734   0.735   0.736   0.739   0.745
  0.749   0.755   0.756   0.758   0.763   0.764   0.767   0.768
  0.769   0.772   0.775   0.776   0.779   0.784   0.786   0.788
  0.791   0.792   0.796   0.797   0.800   0.804   0.806   0.809
  0.813   0.813   0.816   0.819   0.820   0.822   0.824   0.824
  0.827   0.830   0.832   0.835   0.836   0.837   0.838   0.841
  0.844   0.845   0.847   0.850   0.851   0.853   0.854   0.857
  0.858   0.863   0.864   0.865   0.870   0.872   0.872   0.873
  0.875   0.878   0.883   0.884   0.887   0.889   0.892   0.893
  0.894   0.896   0.899   0.900   0.903   0.904   0.907   0.910
  0.913   0.915   0.918   0.920   0.922   0.923   0.924   0.926
  0.931   0.932   0.933   0.934   0.940   0.942   0.943   0.944
  0.946   0.947   0.950   0.952   0.957   0.959   0.961   0.963
  0.965   0.966   0.970   0.971   0.972   0.975   0.978   0.980
  0.985   0.986   0.989   0.991   0.994   0.995   0.996   0.997
  1.004   1.007   1.007   1.011   1.014   1.015   1.023   1.024
  1.028   1.030   1.032   1.037   1.037   1.040   1.044   1.045
  1.048   1.052   1.054   1.057   1.065   1.067   1.068   1.075
  1.077   1.081   1.088   1.096   1.105   1.108   1.110   1.114
  1.117   1.120   1.126   1.133   1.137   1.144   1.150   1.159
  1.164   1.166   1.169   1.173   1.178   1.181   1.186   1.191
  1.199   1.200   1.204   1.211   1.213   1.215   1.217   1.225
  1.229   1.235   1.239   1.250   1.252   1.255   1.263   1.269
  1.274   1.278   1.280   1.285   1.289   1.292   1.297   1.300
  1.306   1.310   1.314   1.315   1.321   1.330   1.335   1.338
  1.346   1.347   1.352   1.360   1.362   1.369   1.372   1.377
  1.383   1.389   1.389   1.393   1.394   1.400   1.403   1.408
  1.410   1.413   1.417   1.421   1.423   1.427   1.429   1.434
  1.438   1.441   1.447   1.453   1.458   1.463   1.464   1.465
  1.468   1.484   1.486   1.488   1.491   1.493   1.501   1.504
  1.518   1.519   1.525   1.537   1.543   1.544   1.551   1.556
  1.559   1.574   1.579   1.586   1.588   1.591   1.602   1.607
  1.609   1.615   1.621   1.625   1.633   1.640   1.643   1.644
  1.657   1.659   1.663   1.664   1.674   1.675   1.681   1.682
  1.687   1.689   1.691   1.695   1.699   1.701   1.706   1.711
  1.719   1.722   1.726   1.729   1.733   1.738   1.743   1.746
  1.756   1.757   1.760   1.761   1.765   1.771   1.775   1.782
  1.785   1.787   1.788   1.795   1.797   1.801   1.808   1.809
  1.817   1.820   1.827   1.831   1.839   1.842   1.845   1.846
  1.846   1.849   1.853   1.857   1.860   1.862   1.867   1.868
  1.873   1.874   1.877   1.885   1.886   1.893   1.896   1.897
  1.899   1.903   1.907   1.909   1.912   1.915   1.920   1.925
  1.927   1.935   1.937   1.945   1.947   1.949   1.952   1.953
  1.954   1.958   1.968   1.980   1.981   1.987   1.990   1.992
  1.996   2.003   2.004   2.009   2.012   2.021   2.025   2.031
  2.034   2.040   2.041   2.044   2.044   2.049   2.054   2.062
  2.066   2.073   2.075   2.078   2.085   2.088   2.089   2.097
  2.101   2.104   2.106   2.109   2.111   2.114   2.115   2.117
  2.125   2.127   2.130   2.138   2.140   2.147   2.150   2.154
  2.158   2.161   2.169   2.171   2.172   2.178   2.185   2.186
  2.197   2.198   2.199   2.205   2.215   2.218   2.221   2.223
  2.232   2.234   2.237   2.242   2.243   2.247   2.253   2.263
  2.265   2.269   2.273   2.276   2.278   2.279   2.280   2.283
  2.286   2.292   2.296   2.302   2.303   2.307   2.309   2.310
  2.312   2.313   2.319   2.320   2.328   2.333   2.339   2.341
  2.342   2.349   2.352   2.354   2.355   2.358   2.359   2.363
  2.365   2.372   2.374   2.380   2.382   2.383   2.391   2.398
  2.403   2.405   2.408   2.409   2.410   2.413   2.414   2.418
  2.420   2.422   2.424   2.437   2.440   2.441   2.446   2.451
  2.455   2.458   2.459   2.460   2.462   2.465   2.471   2.472
  2.475   2.476   2.479   2.485   2.487   2.496   2.496   2.500
  2.503   2.508   2.509   2.514   2.522   2.529   2.530   2.534
  2.539   2.541   2.542   2.552   2.553   2.557   2.559   2.559
  2.566   2.574   2.576   2.585   2.588   2.593   2.604   2.608
  2.613   2.615   2.621   2.626   2.629   2.633   2.638   2.644
  2.654   2.654   2.661   2.663   2.667   2.668   2.673   2.677
  2.679   2.680   2.687   2.689   2.694   2.697   2.701   2.701
  2.708   2.711   2.715   2.716   2.722   2.723   2.729   2.740
  2.744   2.753   2.758   2.771   2.771   2.776   2.785   2.787
  2.790   2.795   2.801   2.807   2.813   2.819   2.824   2.824
  2.841   2.847   2.850   2.855   2.867   2.868   2.872   2.877
  2.880   2.881   2.891   2.893   2.899   2.900   2.908   2.910
  2.914   2.914   2.921   2.925   2.930   2.933   2.940   2.944
  2.958   2.960   2.965   2.972   2.983   2.990   3.001   3.016
  3.019   3.043   3.052   3.059   3.078   3.086   3.094   3.126
  3.183   3.190   3.205   3.208   3.211   3.220   3.233   3.239
  3.244   3.244   3.251   3.262   3.274   3.276   3.279   3.284
  3.287   3.305   3.309   3.312   3.316   3.322   3.323   3.327
  3.343   3.344   3.357   3.365   3.392   3.398   3.407   3.418
  3.445   3.449   3.449   3.459   3.475   3.490   3.531   3.542
  3.548   3.549   3.551   3.560   3.578   3.578   3.595   3.596
  3.612   3.613   3.715   3.752   3.840   3.854   3.911   3.921
  3.927   3.943   3.949   3.960   3.971   3.975   3.980   3.984
  3.994   4.017   4.057   4.076   4.087   4.092   4.111   4.117
  4.127   4.131   4.135   4.151   4.156   4.161   4.182   4.205
  4.210   4.228   4.254   4.256   4.260   4.268   4.271   4.280
  4.287   4.289   4.320   4.331   4.376   4.377   4.381   4.393
  4.415   4.425   4.449   4.455   4.472   4.486   4.491   4.495
  4.504   4.507   4.527   4.532   4.578   4.581   4.640   4.659
  4.689   4.689   4.701   4.708   4.750   4.765   4.788   4.789
 --------------------------------------------------------------
 
          Ground-State Mulliken Net Atomic Charges

     Atom                 Charge (a.u.)
  ----------------------------------------
      1 C                     0.280109
      2 C                    -0.123089
      3 N                    -0.469126
      4 C                    -0.038814
      5 C                     0.082821
      6 C                    -0.000333
      7 C                    -0.005884
      8 C                     0.054080
      9 C                     0.244252
     10 N                    -0.521049
     11 N                    -0.570020
     12 C                     0.212754
     13 C                     0.317607
     14 S                     0.596338
     15 N                    -0.562787
     16 C                    -0.208736
     17 S                     0.361243
     18 C                    -0.118311
     19 C                    -0.215493
     20 S                     0.308679
     21 C                     0.132591
     22 C                     0.029433
     23 C                    -0.319886
     24 C                    -0.078051
     25 N                    -0.418420
     26 S                     0.299303
     27 C                     0.114677
     28 C                    -0.304542
     29 C                    -0.232465
     30 H                     0.096387
     31 H                     0.108212
     32 H                     0.113544
     33 H                     0.117105
     34 H                     0.135050
     35 H                     0.109410
     36 H                     0.114399
     37 H                     0.127505
     38 H                     0.113150
     39 C                    -0.175753
     40 H                     0.088778
     41 H                     0.116211
     42 H                     0.095080
     43 C                    -0.179745
     44 H                     0.096268
     45 C                    -0.174542
     46 H                     0.093125
     47 H                     0.090480
     48 H                     0.086674
     49 C                    -0.181522
     50 H                     0.088501
     51 C                    -0.312005
     52 H                     0.089796
     53 H                     0.102468
     54 H                     0.104627
     55 H                     0.100190
     56 C                     0.279380
     57 C                    -0.111904
     58 N                    -0.468649
     59 C                    -0.100962
     60 C                     0.074827
     61 C                     0.036006
     62 C                     0.055135
     63 C                     0.063893
     64 C                     0.217917
     65 N                    -0.560229
     66 N                    -0.560470
     67 C                     0.165996
     68 C                     0.351992
     69 S                     0.598922
     70 N                    -0.527951
     71 C                    -0.236272
     72 S                     0.366209
     73 C                    -0.133174
     74 C                    -0.231337
     75 S                     0.332712
     76 C                     0.142934
     77 C                     0.079343
     78 C                    -0.325667
     79 C                    -0.073860
     80 N                    -0.411306
     81 S                     0.262683
     82 C                     0.129668
     83 C                    -0.315848
     84 C                    -0.230661
     85 H                     0.086490
     86 H                     0.084083
     87 H                     0.121017
     88 H                     0.093464
     89 H                     0.129438
     90 H                     0.106082
     91 H                     0.115282
     92 H                     0.137010
     93 H                     0.097631
     94 C                    -0.164937
     95 H                     0.109482
     96 H                     0.097557
     97 H                     0.107040
     98 C                    -0.183388
     99 H                     0.090492
    100 C                    -0.170726
    101 H                     0.087041
    102 H                     0.093722
    103 H                     0.087524
    104 C                    -0.180286
    105 H                     0.099702
    106 C                    -0.322462
    107 H                     0.091354
    108 H                     0.105155
    109 H                     0.100817
    110 H                     0.101813
  ----------------------------------------
  Sum of atomic charges =     0.000000

 -----------------------------------------------------------------
                    Cartesian Multipole Moments
 -----------------------------------------------------------------
    Charge (ESU x 10^10)
                 0.0000
    Dipole Moment (Debye)
         X       1.4917      Y      -0.3526      Z       2.8569
       Tot       3.2421
    Quadrupole Moments (Debye-Ang)
        XX    -391.9254     XY     -17.9820     YY    -428.0930
        XZ       1.7336     YZ      -5.1997     ZZ    -447.9885
    Octopole Moments (Debye-Ang^2)
       XXX     -10.8120    XXY     126.2437    XYY     190.3501
       YYY     -99.3840    XXZ     133.5478    XYZ       1.7129
       YYZ     -40.6570    XZZ      43.5551    YZZ     -25.9098
       ZZZ       0.1948
    Hexadecapole Moments (Debye-Ang^3)
      XXXX  -93112.2597   XXXY   -1248.8862   XXYY  -21294.1053
      XYYY   -1199.2348   YYYY  -38860.6977   XXXZ    -291.6798
      XXYZ    -146.4650   XYYZ     450.4312   YYYZ    -227.6890
      XXZZ  -17537.6657   XYZZ       9.4426   YYZZ   -7768.4063
      XZZZ      25.0285   YZZZ      79.5382   ZZZZ   -5234.5754
 -----------------------------------------------------------------
Archival summary:
1\1\mn426\SP\ProcedureUnspecified\6-31G**\8105042\afmv_a\SatOct607:48:232018SatOct607:48:232018\0\\#,ProcedureUnspecified,6-31G**,\\0,1\S\C,1,1.7568\C,2,1.39999,1,113.685\C,3,1.38546,2,112.736,1,-9.44076,0\H,4,1.08299,3,123.228,2,179.826,0\C,3,1.39728,2,112.573,1,-174.382,0\C,4,1.40886,3,112.344,2,3.46087,0\H,7,1.08209,4,125.704,3,-178.243,0\C,2,1.41806,1,131.268,3,173.258,0\C,9,1.42447,2,120.676,1,19.0069,0\N,10,1.32961,9,118.845,2,-2.63136,0\C,11,1.35484,10,120.3,9,174.861,0\H,12,1.08912,11,116.923,10,-179.708,0\C,12,1.39296,11,127.267,10,0.558736,0\C,14,1.41498,12,112.844,11,2.16013,0\N,15,1.38798,14,126.601,12,172.969,0\C,15,1.393,14,120.83,12,-6.6227,0\N,17,1.32214,15,116.277,14,-178.86,0\C,6,1.47492,3,124.941,2,-176.031,0\N,19,1.28319,6,110.993,3,-172.953,0\C,20,1.37099,19,107.912,6,-178.123,0\H,21,1.08219,20,111.073,19,-178.79,0\C,21,1.37584,20,117.282,19,2.12768,0\H,23,1.08234,21,126.8,20,-172.156,0\C,14,1.54723,12,123.174,11,179.339,0\C,25,1.42106,14,122.426,12,25.8674,0\H,26,1.08569,25,118.83,14,-5.56095,0\C,26,1.42179,25,122.734,14,170.445,0\H,28,1.08633,26,115.478,25,178.492,0\C,28,1.41423,26,118.088,25,7.5903,0\N,30,1.31261,28,119.001,26,-2.92281,0\C,31,1.29927,30,123.754,28,1.28824,0\H,32,1.08945,31,114.585,30,-179.217,0\C,30,1.5097,28,116.797,26,-179.585,0\H,34,1.0971,30,112.286,28,-52.2416,0\H,34,1.09711,30,111.089,28,-167.383,0\C,34,1.54325,30,111.077,28,67.6731,0\H,37,1.09681,34,109.626,30,-72.9702,0\H,37,1.09712,34,105.89,30,52.2659,0\C,37,1.50828,34,114.556,30,176.119,0\H,40,1.0969,37,113.668,34,74.8213,0\H,40,1.09763,37,104.957,34,-48.7151,0\C,40,1.53265,37,111.599,34,-162.637,0\H,43,1.09642,40,105.623,37,161.101,0\H,43,1.09689,40,109.365,37,49.1391,0\C,43,1.53523,40,112.75,37,-73.2589,0\H,46,1.09673,43,110.313,40,64.066,0\H,46,1.09713,43,112.361,40,-54.654,0\S,18,1.57054,17,105.659,15,-1.75667,0\C,46,1.57606,43,112.557,40,-169.994,0\H,50,1.09651,46,107.27,43,72.272,0\H,50,1.09652,46,112.797,43,-163.745,0\H,50,1.09751,46,110.526,43,-42.5365,0\S,6,1.78615,3,111.932,2,-14.0528,0\S,19,1.79068,6,128.147,3,13.9591,0\H,13,2.16184,12,143.874,11,30.7765,0\C,56,1.08225,13,99.2739,12,-126.502,0\C,57,1.40355,56,127.58,13,-68.1855,0\H,58,1.08399,57,122.694,56,-12.529,0\C,58,1.40986,57,111.703,56,167.667,0\C,60,1.3541,58,134.786,57,-173.129,0\C,61,1.43189,60,122.205,58,-11.7327,0\N,62,1.34619,61,111.454,60,-149.005,0\C,63,1.38472,62,107.245,61,177.791,0\H,64,1.08268,63,116.554,62,176.291,0\C,64,1.37299,63,114.471,62,1.27228,0\H,66,1.08167,64,117.184,63,-177.557,0\C,60,1.46266,58,110.308,57,-2.40286,0\C,68,1.40257,60,111.331,58,-169.729,0\C,69,1.47936,68,121.764,60,169.404,0\N,70,1.30527,69,118.112,68,-21.3324,0\C,71,1.35069,70,119.527,69,-163.434,0\H,72,1.08823,71,119.916,70,-175.895,0\C,70,1.42998,69,122.903,68,164.374,0\N,74,1.33496,70,124.396,69,-5.07766,0\C,74,1.35689,70,122.143,69,169.179,0\N,76,1.37575,74,117.02,70,-178.192,0\C,76,1.38919,74,120.398,70,-3.70757,0\C,78,1.50176,76,121.694,74,-174.746,0\C,79,1.40357,78,122.539,76,-42.7087,0\H,80,1.08617,79,125.763,78,-4.67047,0\C,80,1.4038,79,119.152,78,-175.806,0\H,82,1.08575,80,117.725,79,172.927,0\C,82,1.38966,80,116.237,79,-1.23079,0\N,84,1.32909,82,124.861,80,1.11509,0\C,85,1.30831,84,121.424,82,-0.0158799,0\H,86,1.08898,85,118.043,84,-175.641,0\C,84,1.50905,82,119.275,80,172.926,0\H,88,1.09652,84,109.506,82,-2.1291,0\H,88,1.09716,84,112.743,82,108.857,0\C,88,1.63153,84,113.406,82,-123.41,0\H,91,1.09693,88,112.115,84,41.3984,0\H,91,1.09742,88,110.59,84,-76.4851,0\C,91,1.59026,88,108.249,84,165.587,0\H,94,1.09741,91,106.603,88,79.3067,0\H,94,1.09778,91,111.641,88,-43.675,0\C,94,1.55956,91,110.466,88,-161.271,0\H,97,1.09684,94,114.868,91,-48.7206,0\H,97,1.09707,94,109.744,91,68.5655,0\C,97,1.53513,94,111.702,91,-172.468,0\H,100,1.09707,97,116.432,94,-40.1314,0\H,100,1.09777,97,104.513,94,67.2494,0\C,100,1.51876,97,111.877,94,-175.275,0\H,103,1.09701,100,112.717,97,-39.636,0\H,103,1.0974,100,108.967,97,83.2989,0\H,103,1.09788,100,101.735,97,-158.821,0\S,75,1.63666,74,107.73,70,172.278,0\S,66,1.69848,64,115.236,63,1.17288,0\S,68,1.72701,60,114.438,58,5.93086,0\S,69,1.74864,68,110.515,60,-8.25726,0\\\@

 Total job time:  93.44s(wall), 1013.16s(cpu) 
 Sat Oct  6 07:48:23 2018

        *************************************************************
        *                                                           *
        *  Thank you very much for using Q-Chem.  Have a nice day.  *
        *                                                           *
        *************************************************************


