
Running Job 1 of 1 ./8/116.qcin
qchem ./8/116.qcin_9658.0 /tmpu/cab_g/afmv_a/scratch_qchem/qchem9658/ 1
/tmpu/appuserlic/qchem4.4/serial-multicore/exe/qcprog.exe_s ./8/116.qcin_9658.0 /tmpu/cab_g/afmv_a/scratch_qchem/qchem9658/
Check license passed

                  Welcome to Q-Chem
     A Quantum Leap Into The Future Of Chemistry


 Q-Chem 4.4, Q-Chem, Inc., Pleasanton, CA (2016)

 Y. Shao,  Z. Gan,  E. Epifanovsky,  A. T. B. Gilbert,  M. Wormit,  
 J. Kussmann,  A. W. Lange,  A. Behn,  J. Deng,  X. Feng,  D. Ghosh,  
 M. Goldey,  P. R. Horn,  L. D. Jacobson,  I. Kaliman,  F. Rob,  
 R. Z. Khaliullin,  T. Kus,  A. Landau,  J. Liu,  E. I. Proynov,  Y. M. Rhee,  
 R. M. Richard,  M. A. Rohrdanz,  R. P. Steele,  E. J. Sundstrom,  
 H. L. Woodcock III,  P. M. Zimmerman,  D. Zuev,  B. Albrecht,  E. Alguire,  
 B. Austin,  S. A. Baeppler,  G. J. O. Beran,  Y. A. Bernard,  E. Berquist,  
 K. Brandhorst,  K. B. Bravaya,  S. T. Brown,  D. Casanova,  C.-M. Chang,  
 Y. Chen,  S. H. Chien,  K. D. Closser,  M. P. Coons,  D. L. Crittenden,  
 S. Dasgupta,  M. Diedenhofen,  R. A. DiStasio Jr.,  H. Do,  A. D. Dutoi,  
 R. G. Edgar,  P.-T. Fang,  S. Fatehi,  Q. Feng,  L. Fusti-Molnar,  
 A. Ghysels,  A. Golubeva-Zadorozhnaya,  J. Gomes,  A. Gunina,  
 M. W. D. Hanson-Heine,  P. H. P. Harbach,  A. W. Hauser,  J. E. Herr,  
 E. G. Hohenstein,  Z. C. Holden,  K. Hui,  T.-C. Jagau,  H. Ji,  B. Kaduk,  
 K. Khistyaev,  Jaehoon Kim,  Jihan Kim,  R. A. King,  P. Klunzinger,  
 K. Koh,  D. Kosenkov,  T. Kowalczyk,  C. M. Krauter,  A. Kunitsa,  
 K. U. Lao,  A. Laurent,  K. V. Lawler,  J. Lee,  D. Lefrancois,  S. Lehtola,  
 S. V. Levchenko,  C. Y. Lin,  Y.-S. Lin,  F. Liu,  E. Livshits,  
 R. C. Lochan,  A. Luenser,  P. Manohar,  S. F. Manzer,  S.-P. Mao,  Y. Mao,  
 N. Mardirossian,  A. V. Marenich,  L. A. Martinez-Martinez,  S. A. Maurer,  
 N. J. Mayhall,  J.-M. Mewes,  A. F. Morrison,  K. Nanda,  T. S. Nguyen-Beck,  
 C. M. Oana,  R. Olivares-Amaya,  D. P. O'Neill,  J. A. Parkhill,  
 T. M. Perrine,  R. Peverati,  P. A. Pieniazek,  F. Plasser,  A. Prociuk,  
 D. R. Rehn,  E. Rosta,  N. J. Russ,  N. Sergueev,  S. M. Sharada,  
 S. Sharma,  D. W. Small,  A. Sodt,  T. Stauch,  T. Stein,  D. Stuck,  
 Y.-C. Su,  A. J. W. Thom,  T. Tsuchimochi,  L. Vogt,  O. Vydrov,  T. Wang,  
 M. A. Watson,  J. Wenzel,  A. White,  C. F. Williams,  V. Vanovschi,  
 K. Yao,  S. Yeganeh,  S. R. Yost,  Z.-Q. You,  I. Y. Zhang,  X. Zhang,  
 Y. Zhao,  B. R. Brooks,  G. K. L. Chan,  D. M. Chipman,  C. J. Cramer,  
 W. A. Goddard III,  M. S. Gordon,  W. J. Hehre,  A. Klamt,  
 H. F. Schaefer III,  M. W. Schmidt,  C. D. Sherrill,  D. G. Truhlar,  
 A. Warshel,  X. Xu,  A. Aspuru-Guzik,  R. Baer,  A. T. Bell,  N. A. Besley,  
 J.-D. Chai,  A. Dreuw,  B. D. Dunietz,  T. R. Furlani,  S. R. Gwaltney,  
 C.-P. Hsu,  Y. Jung,  J. Kong,  D. S. Lambrecht,  W. Liang,  C. Ochsenfeld,  
 V. A. Rassolov,  L. V. Slipchenko,  J. E. Subotnik,  T. Van Voorhis,  
 J. M. Herbert,  A. I. Krylov,  P. M. W. Gill,  M. Head-Gordon

 Contributors to earlier versions of Q-Chem not listed above: 
 R. D. Adamson,  J. Baker,  E. F. C. Byrd,  A. K. Chakraborty,  C.-L. Cheng,  
 H. Dachsel,  R. J. Doerksen,  G. Hawkins,  A. Heyden,  S. Hirata,  
 G. Kedziora,  F. J. Keil,  C. Kelley,  P. P. Korambath,  W. Kurlancheek,  
 A. M. Lee,  M. S. Lee,  D. Liotard,  I. Lotan,  P. E. Maslen,  N. Nair,  
 D. Neuhauser,  R. Olson,  B. Peters,  J. Ritchie,  N. E. Schultz,  
 N. Shenvi,  A. C. Simmonett,  K. S. Thanthiriwatte,  Q. Wu,  W. Zhang

 Please cite Q-Chem as follows:
 Y. Shao et al., Mol. Phys. 113, 184-215 (2015)
 DOI: 10.1080/00268976.2014.952696

 Q-Chem 4.4.2 for Intel X86 Linux

 Parts of Q-Chem use Armadillo 5.200.1 (Boston Tea Smuggler).
 http://arma.sourceforge.net/

 Q-Chem begins on Sat Oct  6 07:28:06 2018  

Host: 
0

     Scratch files written to /tmpu/cab_g/afmv_a/scratch_qchem/qchem9658//
 Dec716 11556_ 22328  22283 4050   
Processing $rem in /tmpu/appuserlic/qchem4.4/serial-multicore/config/preferences.
 MEM_TOTAL  2000 
FILE_GEOM_ORG=        593

Checking the input file for inconsistencies... 	...done.

--------------------------------------------------------------
User input:
--------------------------------------------------------------
$comment
SP
$end

$rem
MEM_STATIC 5000
MEM_TOTAL 20000
JOBTYPE SP
EXCHANGE B3LYP
BASIS 6-31g(d,p)
$end

$molecule
0 1
C          -0.940000    -30.425000     10.245000
C          -2.341000    -30.453000     10.672000
N          -0.135000    -29.385000     10.598000
C          -2.903000    -29.330000     11.248000
C          -0.792000    -28.302000     11.070000
C          -2.135000    -28.169000     11.501000
C          -2.571000    -26.890000     12.050000
C          -1.572000    -26.089000     12.728000
C          -3.856000    -26.415000     12.151000
N          -1.884000    -24.967000     13.361000
N          -4.915000    -27.018000     11.527000
C          -4.129000    -25.206000     12.811000
C          -3.068000    -24.438000     13.340000
S          -6.175000    -26.135000     12.059000
N          -5.481000    -24.857000     12.793000
C          -3.286000    -23.138000     14.131000
S          -4.800000    -22.203000     14.187000
C          -2.372000    -22.469000     14.933000
C          -4.045000    -20.881000     15.084000
S          -0.764000    -22.954000     15.433000
C          -2.771000    -21.256000     15.369000
C          -4.731000    -19.653000     15.483000
C          -0.627000    -21.416000     16.311000
C          -1.758000    -20.618000     16.167000
N          -3.924000    -18.673000     15.864000
S          -6.394000    -19.203000     15.145000
C          -4.685000    -17.590000     16.076000
C          -6.090000    -17.766000     15.993000
C          -0.291000    -31.644000      9.703000
H          -2.788000    -31.393000     10.362000
H          -3.859000    -29.267000     11.759000
H          -0.138000    -27.449000     11.244000
H          -0.575000    -26.468000     12.949000
H           0.251000    -21.301000     16.933000
H          -1.858000    -19.703000     16.739000
H          -4.234000    -16.625000     16.270000
H          -6.904000    -17.139000     16.333000
H           0.568000    -31.887000     10.340000
C           0.112000    -31.572000      8.173000
H          -1.036000    -32.444000      9.789000
H           0.743000    -30.682000      8.051000
H          -0.716000    -31.426000      7.469000
C           1.040000    -32.718000      7.724000
H           1.302000    -32.649000      6.661000
C           0.495000    -34.175000      7.830000
H           1.943000    -32.622000      8.340000
H           0.522000    -34.391000      8.905000
H           1.188000    -34.854000      7.318000
C          -0.926000    -34.418000      7.141000
H          -1.643000    -33.850000      7.746000
C          -1.243000    -35.861000      7.016000
H          -0.905000    -33.980000      6.135000
H          -0.478000    -36.422000      6.463000
H          -2.173000    -36.041000      6.462000
H          -1.341000    -36.299000      8.017000
C          12.172000    -11.482000      8.951000
C          11.562000    -11.056000     10.110000
N          12.032000    -12.749000      8.471000
C          10.725000    -11.906000     10.806000
C          11.210000    -13.583000      9.219000
C          10.566000    -13.262000     10.415000
C           9.654000    -14.259000     11.107000
C           8.881000    -13.808000     12.169000
C           9.579000    -15.741000     10.892000
N           7.954000    -14.576000     12.757000
N          10.309000    -16.419000     10.017000
C           8.537000    -16.511000     11.497000
C           7.683000    -15.869000     12.404000
S           9.638000    -17.876000      9.946000
N           8.448000    -17.757000     10.990000
C           6.592000    -16.650000     13.084000
S           5.883000    -18.162000     12.685000
C           5.820000    -16.067000     14.083000
C           4.606000    -18.021000     13.834000
S           6.117000    -14.631000     15.000000
C           4.751000    -16.857000     14.513000
C           3.752000    -19.079000     14.249000
C           4.575000    -14.946000     15.750000
C           4.023000    -16.225000     15.469000
N           3.178000    -19.166000     15.443000
S           3.516000    -20.415000     13.137000
C           2.661000    -20.407000     15.607000
C           2.646000    -21.219000     14.467000
C          13.068000    -10.643000      8.057000
H          11.731000    -10.030000     10.424000
H          10.193000    -11.562000     11.688000
H          11.163000    -14.611000      8.862000
H           9.026000    -12.818000     12.598000
H           4.185000    -14.349000     16.564000
H           3.127000    -16.514000     16.007000
H           2.340000    -20.653000     16.610000
H           2.257000    -22.221000     14.343000
H          12.795000    -10.817000      7.009000
C          14.591000    -10.866000      8.040000
H          12.872000     -9.569000      8.160000
H          15.097000    -10.498000      7.140000
H          14.735000    -11.945000      7.900000
C          15.274000    -10.562000      9.337000
H          14.597000    -10.815000     10.163000
C          15.719000     -9.121000      9.433000
H          16.147000    -11.221000      9.422000
H          14.878000     -8.418000      9.410000
H          16.341000     -8.783000      8.595000
C          16.460000     -8.854000     10.733000
H          17.128000     -9.709000     10.894000
C          15.600000     -8.626000     11.909000
H          17.067000     -7.951000     10.592000
H          16.353000     -8.424000     12.681000
H          14.982000     -9.482000     12.205000
H          15.007000     -7.713000     11.777000
$end

--------------------------------------------------------------
 ----------------------------------------------------------------
             Standard Nuclear Orientation (Angstroms)
    I     Atom           X                Y                Z
 ----------------------------------------------------------------
    1      C       9.8096077793    -4.8710914614    -0.4007581755
    2      C      10.8213927340    -3.8421604299    -0.1487539339
    3      N       8.5191468074    -4.5179597029    -0.6542191016
    4      C      10.4304284286    -2.5310511134     0.0433092641
    5      C       8.2183170971    -3.2355747268    -0.3503897771
    6      C       9.0743695590    -2.1428761589    -0.0670471888
    7      C       8.4826799100    -0.8275591468     0.1501681814
    8      C       7.2434142044    -0.5398121596    -0.5431630397
    9      C       9.0383412468     0.2441319912     0.8057363194
   10      N       6.6820577530     0.6604021710    -0.5073650606
   11      N      10.1794417963     0.1379837732     1.5547944558
   12      C       8.3886034030     1.4886427124     0.8347845398
   13      C       7.1234401401     1.6362624463     0.2240830314
   14      S      10.4436406933     1.6818992804     1.9984574467
   15      N       9.0760611194     2.4564635487     1.5701441233
   16      C       6.3759031541     2.9777990284     0.1557232947
   17      S       6.7582470783     4.4250545235     1.1194772340
   18      C       5.2959124326     3.3075243596    -0.6511609891
   19      C       5.3238619699     5.2839026076     0.5474306195
   20      S       4.5495128672     2.3892777672    -1.9436778688
   21      C       4.7209677002     4.4982145029    -0.3821599902
   22      C       4.9358274656     6.6263183556     0.9776981912
   23      C       3.3883341102     3.7175467661    -2.1497418411
   24      C       3.5943147412     4.7508270612    -1.2405637444
   25      N       3.6882988595     6.9590639233     0.6780938453
   26      S       5.7526716814     7.6481593894     2.1485608769
   27      C       3.4482764740     8.1520939488     1.2402527308
   28      C       4.5467402473     8.8044095911     1.8564926530
   29      C      10.2105945974    -6.2689109920    -0.6944180665
   30      H      11.7933080353    -4.3165774984    -0.0496676473
   31      H      11.0715143333    -1.6549691154     0.0660071883
   32      H       7.1591621739    -3.0084867249    -0.4609469479
   33      H       6.8329459314    -1.2061142562    -1.3008228003
   34      H       2.7233222593     3.6391790310    -2.9998069776
   35      H       3.0317231709     5.6732431311    -1.3245180131
   36      H       2.4505352575     8.5725252741     1.2437118567
   37      H       4.6766422014     9.8329599304     2.1671929619
   38      H       9.8165508650    -6.5382683680    -1.6817757225
   39      C       9.8118432122    -7.3327113755     0.4091303360
   40      H      11.3062958460    -6.2640029310    -0.7372629585
   41      H       8.7290910322    -7.2401441961     0.5647710573
   42      H      10.2510824145    -7.1764440391     1.4016853434
   43      C       9.9707327467    -8.7939025499    -0.0553860445
   44      H       9.6925580300    -9.5115588136     0.7262547388
   45      C      11.4002778875    -9.2780874832    -0.4466348666
   46      H       9.3017419199    -8.9011661536    -0.9185353903
   47      H      11.5838579631    -8.8052010156    -1.4190991305
   48      H      11.3841990178   -10.3664717776    -0.5829987098
   49      C      12.5313648314    -9.0028603874     0.6478528542
   50      H      12.6479138475    -7.9127722948     0.6772174135
   51      C      13.7823777284    -9.7413858847     0.3513569498
   52      H      12.1580406197    -9.3332016435     1.6255157242
   53      H      13.6297507644   -10.8250392716     0.2610499894
   54      H      14.5331696067    -9.6325755656     1.1442553480
   55      H      14.2089552161    -9.3698834183    -0.5885720712
   56      C     -12.9576898531    -1.9732357518     1.9843665183
   57      C     -12.7891388728    -0.7107026816     1.4604793037
   58      N     -11.9715846482    -2.9126907320     1.9667635281
   59      C     -11.5668551651    -0.3334444365     0.9397262391
   60      C     -10.7689257536    -2.5048404294     1.4028364814
   61      C     -10.4997280590    -1.2634117731     0.8244071491
   62      C      -9.1199609473    -0.9319722780     0.2849559664
   63      C      -8.8604281652     0.3829284838    -0.0789845802
   64      C      -8.0129473058    -1.8832934275    -0.0580934003
   65      N      -7.6392779209     0.7980277774    -0.4414506576
   66      N      -8.0713771581    -3.2000119446     0.0869834732
   67      C      -6.7097522681    -1.3938908964    -0.3849830703
   68      C      -6.5379502199    -0.0091238583    -0.5154947803
   69      S      -6.5621025080    -3.7134676118    -0.1042867763
   70      N      -5.7753317545    -2.3656136899    -0.3949387788
   71      C      -5.1895338647     0.5447546550    -0.8864852458
   72      S      -3.6287704701    -0.1670405862    -0.8130607228
   73      C      -5.0282637976     1.9006163976    -1.1501230661
   74      C      -2.7927725642     1.3035837969    -1.1434883627
   75      S      -6.2255863209     3.0997739902    -1.4960043224
   76      C      -3.6996382287     2.2935355754    -1.3293704299
   77      C      -1.4216356854     1.4074615312    -1.5041794711
   78      C      -4.8955789631     4.2254891489    -1.5537521348
   79      C      -3.6060037400     3.6284326072    -1.5587750875
   80      N      -0.9081126092     2.3678958258    -2.2634824516
   81      S      -0.3470563179     0.1205991241    -0.9880396374
   82      C       0.3494036539     2.0278677611    -2.6340222782
   83      C       0.8929439127     0.9066426376    -1.9963803650
   84      C     -14.2217395391    -2.5040199613     2.6373745689
   85      H     -13.6295859156    -0.0245037395     1.5115946649
   86      H     -11.4057412980     0.6777481956     0.5780415939
   87      H     -10.0136534450    -3.2865774272     1.3328864560
   88      H      -9.6533039786     1.1275093886    -0.1249543598
   89      H      -5.0177670579     5.2652930092    -1.8275823773
   90      H      -2.7525937404     4.2787537390    -1.7154747943
   91      H       0.7930377218     2.6408707878    -3.4066684476
   92      H       1.8772758874     0.4690805027    -2.0980216053
   93      H     -13.9532016610    -3.0500556166     3.5499760543
   94      C     -15.1199782496    -3.5155742215     1.9028868579
   95      H     -14.8524493622    -1.7016940751     3.0385968160
   96      H     -15.7751837512    -4.1036798959     2.5558014514
   97      H     -14.4511904693    -4.3122868126     1.5528169333
   98      C     -15.7556745110    -2.9850122775     0.6556866788
   99      H     -15.0675595736    -2.2738973302     0.1808947615
  100      C     -17.0954141635    -2.3374421066     0.9192631139
  101      H     -15.8849065350    -3.8228499632    -0.0407055214
  102      H     -17.0172831204    -1.4565492619     1.5672926938
  103      H     -17.8069079570    -2.9740160879     1.4595613169
  104      C     -17.7446835938    -1.8600724463    -0.3695104947
  105      H     -17.5874492180    -2.6524181259    -1.1115587917
  106      C     -17.2595699582    -0.5612647292    -0.8718283966
  107      H     -18.8209397235    -1.7570171173    -0.1829861200
  108      H     -17.8936725649    -0.4311719708    -1.7577103066
  109      H     -16.2026246611    -0.5416873158    -1.1629630111
  110      H     -17.5092704416     0.2388932256    -0.1646940982
 ----------------------------------------------------------------
 Molecular Point Group                 C1    NOp =  1
 Largest Abelian Subgroup              C1    NOp =  1
 Nuclear Repulsion Energy = 10231.8978726027 hartrees
 There are      270 alpha and      270 beta electrons
 Requested basis set is 6-31G(d,p)
 There are 406 shells and 1262 basis functions

 Total QAlloc Memory Limit  20000 MB
 Mega-Array Size      4888 MB
 MEM_STATIC part      5000 MB
 A cutoff of  1.0D-08 yielded  12626 shell pairs
 There are    131026 function pairs
 
 -------------------------------------------------------
 OpenMP Integral Computing Module                       
 Release: version 1.0, May 2013, Q-Chem Inc. Pittsburgh 
 -------------------------------------------------------
 Integral Job Info:
 Integral job number is                      11
 Integral operator is                         1
 short-range coefficients                     0
 long-range coefficients              100000000
 Omega coefficients                           0
 if combine SR and LR in K                    0
 Integral screening is                        0
 Integral computing path is                   2
 max size of driver memory is            800000
 size of driver memory is                593474
 size of scratch memory is             15166112
 max col of scratch BK array               1296
 max len of scratch array in speh3          155
 max len of scratch index in speh4           18
 max int batch size is                      520
 min int batch size is                       52
 fixed nKL is                                52
 max L of basis functions is                  2
 order of int derivative is                   0
 number of shells is                        406
 number of basis is                        1262
 number of cartesian basis is              1262
 number of contracted shell pairs         12626
 number of primitive shell pairs          41490
 maxK2 (contraction) of shell pair           36
 max number of K2 of shell pair               1
 max number of CS2 of shell pair           1246
 max number of PS2 of shell pair           7476
 mem total for path MDJ                  278296
 -------------------------------------------------------
 Smallest overlap matrix eigenvalue = 4.03E-04

 Scale SEOQF with 1.000000e-03/1.000000e-02/1.000000e-01

 Standard Electronic Orientation quadrupole field applied
 Nucleus-field energy     =    -0.0000000113 hartrees
 Guess from superposition of atomic densities
 Warning:  Energy on first SCF cycle will be non-variational
 A restricted hybrid HF-DFT SCF calculation will be
 performed using Pulay DIIS extrapolation
 Exchange:     0.2000 Hartree-Fock + 0.0800 Slater + 0.7200 B88
 Correlation:  0.1900 VWN1RPA + 0.8100 LYP
 Using SG-1 standard quadrature grid
 SCF converges when DIIS error is below 1.0E-05
 using 16 threads for integral computing 
 -------------------------------------------------------
 OpenMP BLAS3 based DFT computing Module                
 Release: version 1.0, May 2013, Q-Chem Inc. Pittsburgh 
 -------------------------------------------------------
 ---------------------------------------
  Cycle       Energy         DIIS Error
 ---------------------------------------
    1   -5680.5205518104      2.17E-02
    2   -5662.4180959937      2.22E-03
    3   -5659.6087803388      3.93E-03
    4   -5662.9538930136      1.41E-03
    5   -5663.4565063424      3.58E-04
    6   -5663.4543378916      3.81E-04
    7   -5663.4842237506      1.22E-04
    8   -5663.4871017990      3.99E-05
    9   -5663.4873157823      2.36E-05
   10   -5663.4874217494      6.82E-06 Convergence criterion met
 ---------------------------------------
 SCF time:  CPU 988.98 s  wall 89.01 s
 SCF   energy in the final basis set = -5663.4874217494
 Total energy in the final basis set = -5663.4874217494
 
 --------------------------------------------------------------
 
                    Orbital Energies (a.u.)
 --------------------------------------------------------------
 
 Alpha MOs
 -- Occupied --
-88.993 -88.990 -88.932 -88.925 -88.922 -88.921 -88.909 -88.905
-14.397 -14.390 -14.388 -14.383 -14.349 -14.348 -14.347 -14.340
-14.334 -14.331 -10.272 -10.267 -10.267 -10.265 -10.265 -10.261
-10.259 -10.256 -10.245 -10.244 -10.240 -10.240 -10.239 -10.235
-10.234 -10.233 -10.231 -10.230 -10.230 -10.229 -10.229 -10.228
-10.225 -10.225 -10.222 -10.222 -10.221 -10.220 -10.216 -10.216
-10.215 -10.212 -10.206 -10.202 -10.200 -10.196 -10.195 -10.192
-10.188 -10.186 -10.181 -10.181 -10.179 -10.178 -10.172 -10.172
-10.169 -10.168 -10.167 -10.166  -8.049  -8.046  -7.993  -7.985
 -7.982  -7.981  -7.969  -7.965  -6.013  -6.011  -6.008  -6.007
 -6.006  -6.004  -5.957  -5.954  -5.950  -5.949  -5.946  -5.945
 -5.945  -5.943  -5.942  -5.941  -5.939  -5.938  -5.933  -5.930
 -5.930  -5.926  -5.926  -5.921  -1.055  -1.040  -0.982  -0.975
 -0.968  -0.953  -0.936  -0.929  -0.922  -0.917  -0.917  -0.908
 -0.852  -0.841  -0.841  -0.828  -0.821  -0.813  -0.811  -0.809
 -0.803  -0.800  -0.796  -0.795  -0.786  -0.784  -0.773  -0.770
 -0.752  -0.749  -0.745  -0.739  -0.723  -0.720  -0.713  -0.710
 -0.695  -0.689  -0.676  -0.675  -0.658  -0.657  -0.656  -0.648
 -0.635  -0.633  -0.627  -0.627  -0.612  -0.611  -0.600  -0.596
 -0.592  -0.590  -0.587  -0.582  -0.580  -0.575  -0.558  -0.556
 -0.552  -0.550  -0.543  -0.540  -0.527  -0.526  -0.516  -0.512
 -0.510  -0.508  -0.502  -0.501  -0.488  -0.482  -0.479  -0.478
 -0.476  -0.474  -0.469  -0.468  -0.462  -0.460  -0.453  -0.451
 -0.450  -0.448  -0.446  -0.438  -0.437  -0.435  -0.432  -0.430
 -0.429  -0.426  -0.424  -0.422  -0.421  -0.419  -0.418  -0.417
 -0.414  -0.411  -0.409  -0.406  -0.402  -0.400  -0.399  -0.397
 -0.397  -0.393  -0.392  -0.389  -0.386  -0.385  -0.382  -0.382
 -0.378  -0.376  -0.376  -0.373  -0.369  -0.369  -0.360  -0.359
 -0.356  -0.356  -0.354  -0.350  -0.349  -0.348  -0.345  -0.344
 -0.343  -0.339  -0.337  -0.332  -0.332  -0.330  -0.325  -0.322
 -0.318  -0.315  -0.310  -0.307  -0.305  -0.303  -0.303  -0.298
 -0.296  -0.294  -0.293  -0.292  -0.291  -0.285  -0.284  -0.278
 -0.274  -0.272  -0.269  -0.269  -0.256  -0.255  -0.251  -0.247
 -0.244  -0.242  -0.230  -0.227  -0.191  -0.190
 -- Virtual --
 -0.117  -0.112  -0.077  -0.069  -0.046  -0.042  -0.029  -0.028
 -0.021  -0.016  -0.014  -0.011  -0.006  -0.003  -0.001   0.005
  0.010   0.015   0.021   0.030   0.031   0.036   0.038   0.047
  0.052   0.052   0.060   0.070   0.073   0.078   0.079   0.084
  0.094   0.096   0.098   0.101   0.107   0.107   0.109   0.112
  0.114   0.115   0.117   0.119   0.121   0.122   0.124   0.126
  0.126   0.130   0.130   0.136   0.145   0.146   0.150   0.150
  0.152   0.155   0.157   0.159   0.162   0.164   0.167   0.167
  0.170   0.172   0.172   0.173   0.176   0.178   0.180   0.183
  0.184   0.185   0.185   0.196   0.197   0.199   0.200   0.201
  0.203   0.206   0.207   0.211   0.212   0.215   0.217   0.219
  0.222   0.224   0.228   0.230   0.234   0.235   0.236   0.240
  0.246   0.246   0.248   0.250   0.253   0.253   0.257   0.259
  0.267   0.270   0.271   0.271   0.272   0.275   0.279   0.279
  0.283   0.286   0.288   0.291   0.296   0.298   0.306   0.308
  0.311   0.313   0.315   0.316   0.317   0.321   0.322   0.324
  0.325   0.327   0.332   0.333   0.334   0.337   0.343   0.350
  0.353   0.354   0.358   0.363   0.365   0.367   0.369   0.371
  0.373   0.376   0.382   0.383   0.384   0.394   0.398   0.400
  0.402   0.411   0.417   0.421   0.421   0.430   0.433   0.438
  0.446   0.449   0.457   0.457   0.462   0.467   0.472   0.475
  0.478   0.480   0.482   0.487   0.490   0.494   0.495   0.497
  0.499   0.505   0.506   0.507   0.510   0.511   0.513   0.516
  0.517   0.520   0.523   0.525   0.528   0.529   0.529   0.532
  0.533   0.536   0.540   0.541   0.542   0.545   0.548   0.549
  0.551   0.555   0.556   0.557   0.558   0.563   0.565   0.567
  0.568   0.569   0.572   0.573   0.576   0.578   0.580   0.583
  0.585   0.587   0.589   0.591   0.592   0.595   0.596   0.598
  0.600   0.601   0.603   0.604   0.608   0.612   0.614   0.616
  0.620   0.621   0.623   0.624   0.625   0.625   0.628   0.630
  0.633   0.635   0.637   0.640   0.642   0.644   0.646   0.648
  0.648   0.655   0.655   0.656   0.663   0.667   0.668   0.672
  0.679   0.682   0.683   0.685   0.689   0.694   0.694   0.698
  0.699   0.699   0.703   0.706   0.707   0.710   0.712   0.717
  0.719   0.725   0.726   0.726   0.728   0.730   0.742   0.743
  0.749   0.754   0.757   0.758   0.759   0.764   0.768   0.769
  0.771   0.774   0.777   0.779   0.782   0.786   0.790   0.793
  0.795   0.796   0.797   0.799   0.803   0.810   0.810   0.812
  0.813   0.815   0.816   0.819   0.820   0.821   0.825   0.826
  0.829   0.830   0.832   0.833   0.837   0.839   0.840   0.843
  0.844   0.847   0.848   0.850   0.851   0.855   0.856   0.857
  0.859   0.860   0.862   0.866   0.867   0.869   0.871   0.871
  0.873   0.874   0.877   0.878   0.883   0.884   0.887   0.889
  0.890   0.894   0.894   0.898   0.901   0.901   0.904   0.906
  0.911   0.914   0.917   0.922   0.925   0.927   0.929   0.932
  0.934   0.936   0.938   0.942   0.944   0.950   0.954   0.956
  0.957   0.958   0.961   0.963   0.964   0.967   0.968   0.969
  0.970   0.972   0.974   0.977   0.980   0.983   0.987   0.990
  0.991   0.995   0.996   0.998   1.005   1.005   1.007   1.009
  1.010   1.013   1.017   1.018   1.021   1.022   1.026   1.027
  1.030   1.033   1.038   1.041   1.044   1.046   1.047   1.048
  1.050   1.056   1.061   1.064   1.069   1.072   1.077   1.083
  1.085   1.090   1.092   1.094   1.098   1.103   1.108   1.114
  1.118   1.123   1.128   1.130   1.133   1.139   1.144   1.147
  1.151   1.152   1.159   1.161   1.162   1.168   1.178   1.181
  1.191   1.192   1.196   1.210   1.213   1.223   1.229   1.232
  1.238   1.245   1.250   1.252   1.255   1.259   1.264   1.267
  1.268   1.271   1.276   1.288   1.290   1.291   1.297   1.305
  1.311   1.314   1.319   1.321   1.326   1.328   1.332   1.334
  1.340   1.342   1.345   1.350   1.364   1.367   1.370   1.374
  1.375   1.380   1.388   1.391   1.394   1.398   1.399   1.405
  1.410   1.414   1.423   1.424   1.426   1.429   1.440   1.443
  1.445   1.450   1.451   1.453   1.458   1.462   1.471   1.474
  1.481   1.484   1.492   1.500   1.503   1.506   1.509   1.518
  1.527   1.531   1.534   1.544   1.546   1.555   1.558   1.568
  1.571   1.579   1.587   1.588   1.593   1.605   1.614   1.615
  1.619   1.625   1.629   1.633   1.635   1.639   1.647   1.649
  1.651   1.664   1.666   1.667   1.669   1.675   1.689   1.689
  1.695   1.695   1.698   1.699   1.702   1.704   1.712   1.714
  1.714   1.721   1.725   1.728   1.731   1.735   1.739   1.741
  1.748   1.759   1.759   1.762   1.765   1.767   1.768   1.781
  1.788   1.792   1.792   1.797   1.804   1.809   1.810   1.818
  1.820   1.825   1.829   1.834   1.836   1.839   1.841   1.843
  1.852   1.854   1.859   1.865   1.868   1.872   1.874   1.877
  1.879   1.882   1.885   1.892   1.896   1.902   1.902   1.907
  1.907   1.909   1.918   1.921   1.922   1.925   1.928   1.931
  1.932   1.936   1.939   1.941   1.943   1.945   1.947   1.953
  1.959   1.962   1.969   1.983   1.987   1.991   1.991   1.993
  1.998   2.001   2.002   2.010   2.019   2.022   2.023   2.023
  2.027   2.040   2.043   2.046   2.048   2.052   2.057   2.060
  2.062   2.066   2.084   2.089   2.096   2.099   2.102   2.103
  2.103   2.110   2.112   2.114   2.115   2.122   2.124   2.130
  2.131   2.139   2.139   2.143   2.144   2.145   2.157   2.158
  2.160   2.167   2.167   2.171   2.175   2.176   2.178   2.185
  2.187   2.193   2.196   2.198   2.206   2.207   2.209   2.214
  2.216   2.220   2.222   2.224   2.231   2.233   2.241   2.243
  2.258   2.260   2.264   2.266   2.268   2.271   2.275   2.281
  2.284   2.291   2.293   2.294   2.296   2.298   2.302   2.305
  2.308   2.312   2.314   2.318   2.322   2.327   2.330   2.337
  2.339   2.341   2.347   2.349   2.352   2.357   2.362   2.365
  2.375   2.377   2.380   2.383   2.386   2.387   2.390   2.393
  2.395   2.396   2.401   2.403   2.405   2.409   2.415   2.419
  2.422   2.423   2.428   2.438   2.439   2.446   2.450   2.453
  2.455   2.462   2.464   2.465   2.466   2.469   2.474   2.477
  2.482   2.482   2.485   2.491   2.493   2.500   2.505   2.509
  2.511   2.522   2.524   2.526   2.532   2.535   2.536   2.540
  2.542   2.548   2.548   2.550   2.551   2.554   2.566   2.567
  2.572   2.578   2.580   2.587   2.591   2.595   2.597   2.601
  2.604   2.609   2.612   2.620   2.623   2.630   2.631   2.636
  2.637   2.643   2.644   2.653   2.663   2.665   2.666   2.674
  2.678   2.680   2.685   2.686   2.693   2.697   2.700   2.703
  2.707   2.708   2.713   2.717   2.724   2.739   2.741   2.742
  2.744   2.753   2.764   2.766   2.771   2.775   2.780   2.788
  2.792   2.797   2.801   2.811   2.812   2.816   2.832   2.837
  2.839   2.844   2.854   2.860   2.862   2.866   2.874   2.877
  2.884   2.885   2.890   2.892   2.898   2.899   2.908   2.909
  2.913   2.929   2.930   2.935   2.937   2.946   2.946   2.954
  2.963   2.963   2.965   2.968   2.986   2.990   3.024   3.043
  3.054   3.061   3.064   3.066   3.084   3.088   3.101   3.124
  3.125   3.148   3.181   3.198   3.209   3.209   3.227   3.242
  3.247   3.253   3.266   3.271   3.276   3.279   3.283   3.287
  3.289   3.311   3.318   3.325   3.327   3.330   3.333   3.340
  3.342   3.358   3.365   3.369   3.379   3.402   3.426   3.448
  3.452   3.468   3.483   3.486   3.505   3.514   3.520   3.536
  3.543   3.544   3.565   3.566   3.575   3.599   3.605   3.612
  3.636   3.646   3.721   3.737   3.828   3.856   3.905   3.915
  3.945   3.954   3.958   3.964   3.965   3.975   3.983   3.992
  4.052   4.062   4.075   4.081   4.091   4.095   4.103   4.106
  4.110   4.127   4.145   4.149   4.154   4.166   4.176   4.183
  4.196   4.213   4.229   4.236   4.244   4.251   4.253   4.266
  4.273   4.278   4.309   4.322   4.357   4.369   4.383   4.387
  4.416   4.427   4.446   4.448   4.465   4.471   4.488   4.490
  4.500   4.511   4.532   4.559   4.599   4.660   4.662   4.675
  4.684   4.717   4.725   4.745   4.752   4.760   4.793   4.811
 --------------------------------------------------------------
 
          Ground-State Mulliken Net Atomic Charges

     Atom                 Charge (a.u.)
  ----------------------------------------
      1 C                     0.256536
      2 C                    -0.120047
      3 N                    -0.467054
      4 C                    -0.064097
      5 C                     0.054432
      6 C                     0.054265
      7 C                     0.037329
      8 C                     0.052269
      9 C                     0.206433
     10 N                    -0.510862
     11 N                    -0.541744
     12 C                     0.174166
     13 C                     0.326356
     14 S                     0.614800
     15 N                    -0.535891
     16 C                    -0.241206
     17 S                     0.304035
     18 C                    -0.107745
     19 C                    -0.249221
     20 S                     0.254233
     21 C                     0.178919
     22 C                     0.049358
     23 C                    -0.305215
     24 C                    -0.044121
     25 N                    -0.411645
     26 S                     0.292003
     27 C                     0.117399
     28 C                    -0.315119
     29 C                    -0.231977
     30 H                     0.093655
     31 H                     0.106453
     32 H                     0.089319
     33 H                     0.127195
     34 H                     0.120062
     35 H                     0.124522
     36 H                     0.111461
     37 H                     0.142595
     38 H                     0.124717
     39 C                    -0.183418
     40 H                     0.098864
     41 H                     0.115633
     42 H                     0.098328
     43 C                    -0.186530
     44 H                     0.091029
     45 C                    -0.179959
     46 H                     0.093700
     47 H                     0.089401
     48 H                     0.088461
     49 C                    -0.171766
     50 H                     0.093281
     51 C                    -0.311147
     52 H                     0.092388
     53 H                     0.102669
     54 H                     0.097964
     55 H                     0.102685
     56 C                     0.274677
     57 C                    -0.114194
     58 N                    -0.486205
     59 C                    -0.082028
     60 C                     0.037697
     61 C                     0.064149
     62 C                     0.054807
     63 C                     0.064770
     64 C                     0.210503
     65 N                    -0.542750
     66 N                    -0.537735
     67 C                     0.191354
     68 C                     0.314249
     69 S                     0.608910
     70 N                    -0.540708
     71 C                    -0.222377
     72 S                     0.334417
     73 C                    -0.129680
     74 C                    -0.249347
     75 S                     0.299784
     76 C                     0.204033
     77 C                     0.075572
     78 C                    -0.305965
     79 C                    -0.087962
     80 N                    -0.437362
     81 S                     0.257325
     82 C                     0.132137
     83 C                    -0.310579
     84 C                    -0.226014
     85 H                     0.095319
     86 H                     0.094295
     87 H                     0.129337
     88 H                     0.113143
     89 H                     0.115124
     90 H                     0.123255
     91 H                     0.104801
     92 H                     0.142873
     93 H                     0.118557
     94 C                    -0.181890
     95 H                     0.088375
     96 H                     0.092045
     97 H                     0.106335
     98 C                    -0.167485
     99 H                     0.093022
    100 C                    -0.162822
    101 H                     0.089345
    102 H                     0.079243
    103 H                     0.083901
    104 C                    -0.173659
    105 H                     0.088092
    106 C                    -0.305304
    107 H                     0.083049
    108 H                     0.100467
    109 H                     0.102105
    110 H                     0.098844
  ----------------------------------------
  Sum of atomic charges =     0.000000

 -----------------------------------------------------------------
                    Cartesian Multipole Moments
 -----------------------------------------------------------------
    Charge (ESU x 10^10)
                 0.0000
    Dipole Moment (Debye)
         X       2.7367      Y       2.7235      Z       0.2798
       Tot       3.8711
    Quadrupole Moments (Debye-Ang)
        XX    -390.7019     XY     -14.8969     YY    -408.8924
        XZ       7.7284     YZ       8.7882     ZZ    -447.9610
    Octopole Moments (Debye-Ang^2)
       XXX     185.7039    XXY     103.9598    XYY     228.4294
       YYY     339.4979    XXZ      80.6249    XYZ       7.2263
       YYZ      92.1201    XZZ      45.6118    YZZ      32.1628
       ZZZ       2.4770
    Hexadecapole Moments (Debye-Ang^3)
      XXXX -195371.7015   XXXY   -3252.8482   XXYY  -41568.6002
      XYYY     350.2288   YYYY  -41085.3345   XXXZ      17.7332
      XXYZ     561.8409   XYYZ     972.7070   YYYZ     837.6126
      XXZZ  -36072.1613   XYZZ     145.6163   YYZZ   -8247.1640
      XZZZ     108.1163   YZZZ      53.8771   ZZZZ   -4683.9353
 -----------------------------------------------------------------
Archival summary:
1\1\mn426\SP\ProcedureUnspecified\6-31G**\8105042\afmv_a\SatOct607:29:382018SatOct607:29:382018\0\\#,ProcedureUnspecified,6-31G**,\\0,1\S\C,1,1.71698\C,2,1.39064,1,107.872\C,3,1.39705,2,114.131,1,-2.30465,0\C,4,1.35535,3,114.413,2,3.44251,0\C,4,1.3577,3,111.333,2,178.893,0\H,6,1.08433,4,131.941,3,-178.294,0\C,6,1.42109,4,110.481,3,0.283663,0\H,8,1.08218,6,120.348,4,173.293,0\C,5,1.42159,4,123.862,3,-168.171,0\N,10,1.32766,5,124.822,4,12.243,0\C,11,1.35435,10,109.511,5,167.658,0\H,12,1.08146,11,115.724,10,-168.579,0\C,12,1.3997,11,115.915,10,9.65842,0\H,14,1.08199,12,129.378,11,177.634,0\C,2,1.50421,1,130.668,3,169.457,0\N,16,1.36744,2,121.197,1,-169.023,0\C,17,1.33974,16,124.463,2,177.886,0\H,18,1.08865,17,116.136,16,176.398,0\C,18,1.3888,17,122.316,16,-1.13712,0\C,16,1.40147,2,119.781,1,18.0725,0\N,21,1.34814,16,128.795,2,-8.54876,0\C,21,1.42993,16,118.111,2,178.735,0\N,23,1.32597,21,113.894,16,177.944,0\C,20,1.5181,18,118.013,17,-173.384,0\C,25,1.39578,20,121.114,18,169.86,0\H,26,1.08924,25,118.554,20,8.71389,0\N,26,1.38951,25,126.597,20,-177.89,0\C,28,1.36209,26,115.43,25,2.32052,0\C,29,1.37726,28,122.598,26,-1.06171,0\H,30,1.0862,29,117.809,28,-179.693,0\C,30,1.38112,29,120.141,28,2.78501,0\H,32,1.08595,30,120.746,29,176.352,0\C,29,1.51854,28,111.538,26,179.104,0\H,34,1.09659,29,112.356,28,-156.038,0\H,34,1.09686,29,109.147,28,-44.1728,0\C,34,1.53933,29,120.68,28,73.7193,0\H,37,1.09611,34,114.656,29,-158.736,0\H,37,1.09753,34,105.881,29,-50.1294,0\C,37,1.49704,34,114.356,29,64.3548,0\H,40,1.0971,37,107.95,34,-149.45,0\H,40,1.09755,37,108.893,34,-33.5008,0\C,40,1.5112,37,112.521,34,89.6285,0\H,43,1.09637,40,112.595,37,-63.1572,0\H,43,1.09698,40,114.346,37,53.6796,0\C,43,1.51999,40,111.431,37,177.614,0\H,46,1.09689,43,106.589,40,-42.3862,0\H,46,1.09715,43,107.72,40,-159.099,0\C,46,1.47464,43,115.145,40,81.2011,0\H,49,1.09648,46,115.042,43,-63.8952,0\H,49,1.09665,46,110.37,43,64.2844,0\H,49,1.09718,46,100.915,43,177.878,0\S,22,1.58751,21,105.493,16,-176.133,0\S,3,1.72951,2,129.319,1,-173.02,0\S,10,1.75418,5,117.554,4,-171.606,0\H,13,2.21092,12,118.856,11,-123.671,0\C,56,1.08212,13,135.545,12,2.94694,0\C,57,1.39165,56,131.143,13,102.602,0\H,58,1.0837,57,120.3,56,-0.0833478,0\C,58,1.43876,57,112.044,56,171.451,0\C,60,1.34932,58,111.695,57,0.98416,0\C,60,1.35828,58,130.87,57,-173.719,0\C,61,1.38786,60,115.171,58,178.719,0\C,62,1.46212,60,127.929,58,-2.96029,0\N,64,1.32545,62,114.442,60,-18.3441,0\C,65,1.34051,64,107.287,62,-174.392,0\H,66,1.08271,65,120.793,64,171.873,0\C,66,1.41841,65,116.925,64,-6.27578,0\H,68,1.08228,66,130.9,65,-164.126,0\C,63,1.53727,61,127.704,60,-171.56,0\N,70,1.29697,63,117.778,61,3.10544,0\C,71,1.32549,70,123.532,63,-179.543,0\H,72,1.08926,71,114.399,70,172.469,0\C,70,1.41258,63,123.09,61,-164.658,0\N,74,1.39643,70,126.595,63,-7.11197,0\C,74,1.40421,70,119.874,63,177.119,0\N,76,1.36911,74,116.298,70,172.34,0\C,76,1.3737,74,120.939,70,-2.26217,0\C,78,1.45854,76,127.627,74,-174.467,0\C,79,1.41483,78,128.655,76,16.7597,0\H,80,1.08583,79,110.252,78,15.0799,0\C,80,1.38157,79,121.383,78,-177.478,0\H,82,1.08605,80,130.928,79,176.144,0\C,79,1.41672,78,118.699,76,-158.963,0\H,84,1.08885,79,116.565,78,-4.31858,0\N,84,1.35178,79,129.954,78,-176.159,0\C,86,1.3617,84,114.524,79,-14.0993,0\C,87,1.48355,86,117.623,84,-179.31,0\H,88,1.09655,87,105.878,86,-162.254,0\H,88,1.09668,87,108.211,86,-45.5594,0\C,88,1.58382,87,115.27,86,80.4711,0\H,91,1.09659,88,115.728,87,61.3593,0\H,91,1.09779,88,106.886,87,-54.8571,0\C,91,1.54146,88,113.626,87,-167.728,0\H,94,1.09698,91,112.289,88,-179.782,0\H,94,1.09731,91,105.478,88,60.4185,0\C,94,1.5592,91,117.677,88,-61.8128,0\H,97,1.09682,94,104.008,91,74.0106,0\H,97,1.09701,94,109.017,91,-170.215,0\C,97,1.59781,94,115.066,91,-52.032,0\H,100,1.09669,97,105.354,94,67.7941,0\H,100,1.09742,97,108.516,94,-47.8406,0\C,100,1.48269,97,111.994,94,-167.433,0\H,103,1.09702,100,109.314,97,-64.4668,0\H,103,1.09737,100,112.544,97,174.736,0\H,103,1.09807,100,113,97,56.5028,0\S,77,1.62798,76,102.171,74,9.44795,0\S,68,1.69602,66,108.176,65,18.5517,0\S,61,1.7524,60,115.337,58,-0.0218879,0\S,62,1.76701,60,107.501,58,174.106,0\\\@

 Total job time:  92.83s(wall), 1000.97s(cpu) 
 Sat Oct  6 07:29:38 2018

        *************************************************************
        *                                                           *
        *  Thank you very much for using Q-Chem.  Have a nice day.  *
        *                                                           *
        *************************************************************


