
Running Job 1 of 1 ./8/25.qcin
qchem ./8/25.qcin_10984.0 /tmpu/cab_g/afmv_a/scratch_qchem/qchem10984/ 1
/tmpu/appuserlic/qchem4.4/serial-multicore/exe/qcprog.exe_s ./8/25.qcin_10984.0 /tmpu/cab_g/afmv_a/scratch_qchem/qchem10984/
Check license passed

                  Welcome to Q-Chem
     A Quantum Leap Into The Future Of Chemistry


 Q-Chem 4.4, Q-Chem, Inc., Pleasanton, CA (2016)

 Y. Shao,  Z. Gan,  E. Epifanovsky,  A. T. B. Gilbert,  M. Wormit,  
 J. Kussmann,  A. W. Lange,  A. Behn,  J. Deng,  X. Feng,  D. Ghosh,  
 M. Goldey,  P. R. Horn,  L. D. Jacobson,  I. Kaliman,  F. Rob,  
 R. Z. Khaliullin,  T. Kus,  A. Landau,  J. Liu,  E. I. Proynov,  Y. M. Rhee,  
 R. M. Richard,  M. A. Rohrdanz,  R. P. Steele,  E. J. Sundstrom,  
 H. L. Woodcock III,  P. M. Zimmerman,  D. Zuev,  B. Albrecht,  E. Alguire,  
 B. Austin,  S. A. Baeppler,  G. J. O. Beran,  Y. A. Bernard,  E. Berquist,  
 K. Brandhorst,  K. B. Bravaya,  S. T. Brown,  D. Casanova,  C.-M. Chang,  
 Y. Chen,  S. H. Chien,  K. D. Closser,  M. P. Coons,  D. L. Crittenden,  
 S. Dasgupta,  M. Diedenhofen,  R. A. DiStasio Jr.,  H. Do,  A. D. Dutoi,  
 R. G. Edgar,  P.-T. Fang,  S. Fatehi,  Q. Feng,  L. Fusti-Molnar,  
 A. Ghysels,  A. Golubeva-Zadorozhnaya,  J. Gomes,  A. Gunina,  
 M. W. D. Hanson-Heine,  P. H. P. Harbach,  A. W. Hauser,  J. E. Herr,  
 E. G. Hohenstein,  Z. C. Holden,  K. Hui,  T.-C. Jagau,  H. Ji,  B. Kaduk,  
 K. Khistyaev,  Jaehoon Kim,  Jihan Kim,  R. A. King,  P. Klunzinger,  
 K. Koh,  D. Kosenkov,  T. Kowalczyk,  C. M. Krauter,  A. Kunitsa,  
 K. U. Lao,  A. Laurent,  K. V. Lawler,  J. Lee,  D. Lefrancois,  S. Lehtola,  
 S. V. Levchenko,  C. Y. Lin,  Y.-S. Lin,  F. Liu,  E. Livshits,  
 R. C. Lochan,  A. Luenser,  P. Manohar,  S. F. Manzer,  S.-P. Mao,  Y. Mao,  
 N. Mardirossian,  A. V. Marenich,  L. A. Martinez-Martinez,  S. A. Maurer,  
 N. J. Mayhall,  J.-M. Mewes,  A. F. Morrison,  K. Nanda,  T. S. Nguyen-Beck,  
 C. M. Oana,  R. Olivares-Amaya,  D. P. O'Neill,  J. A. Parkhill,  
 T. M. Perrine,  R. Peverati,  P. A. Pieniazek,  F. Plasser,  A. Prociuk,  
 D. R. Rehn,  E. Rosta,  N. J. Russ,  N. Sergueev,  S. M. Sharada,  
 S. Sharma,  D. W. Small,  A. Sodt,  T. Stauch,  T. Stein,  D. Stuck,  
 Y.-C. Su,  A. J. W. Thom,  T. Tsuchimochi,  L. Vogt,  O. Vydrov,  T. Wang,  
 M. A. Watson,  J. Wenzel,  A. White,  C. F. Williams,  V. Vanovschi,  
 K. Yao,  S. Yeganeh,  S. R. Yost,  Z.-Q. You,  I. Y. Zhang,  X. Zhang,  
 Y. Zhao,  B. R. Brooks,  G. K. L. Chan,  D. M. Chipman,  C. J. Cramer,  
 W. A. Goddard III,  M. S. Gordon,  W. J. Hehre,  A. Klamt,  
 H. F. Schaefer III,  M. W. Schmidt,  C. D. Sherrill,  D. G. Truhlar,  
 A. Warshel,  X. Xu,  A. Aspuru-Guzik,  R. Baer,  A. T. Bell,  N. A. Besley,  
 J.-D. Chai,  A. Dreuw,  B. D. Dunietz,  T. R. Furlani,  S. R. Gwaltney,  
 C.-P. Hsu,  Y. Jung,  J. Kong,  D. S. Lambrecht,  W. Liang,  C. Ochsenfeld,  
 V. A. Rassolov,  L. V. Slipchenko,  J. E. Subotnik,  T. Van Voorhis,  
 J. M. Herbert,  A. I. Krylov,  P. M. W. Gill,  M. Head-Gordon

 Contributors to earlier versions of Q-Chem not listed above: 
 R. D. Adamson,  J. Baker,  E. F. C. Byrd,  A. K. Chakraborty,  C.-L. Cheng,  
 H. Dachsel,  R. J. Doerksen,  G. Hawkins,  A. Heyden,  S. Hirata,  
 G. Kedziora,  F. J. Keil,  C. Kelley,  P. P. Korambath,  W. Kurlancheek,  
 A. M. Lee,  M. S. Lee,  D. Liotard,  I. Lotan,  P. E. Maslen,  N. Nair,  
 D. Neuhauser,  R. Olson,  B. Peters,  J. Ritchie,  N. E. Schultz,  
 N. Shenvi,  A. C. Simmonett,  K. S. Thanthiriwatte,  Q. Wu,  W. Zhang

 Please cite Q-Chem as follows:
 Y. Shao et al., Mol. Phys. 113, 184-215 (2015)
 DOI: 10.1080/00268976.2014.952696

 Q-Chem 4.4.2 for Intel X86 Linux

 Parts of Q-Chem use Armadillo 5.200.1 (Boston Tea Smuggler).
 http://arma.sourceforge.net/

 Q-Chem begins on Sat Oct  6 07:57:02 2018  

Host: 
0

     Scratch files written to /tmpu/cab_g/afmv_a/scratch_qchem/qchem10984//
 Dec716 11556_ 22328  22283 4050   
Processing $rem in /tmpu/appuserlic/qchem4.4/serial-multicore/config/preferences.
 MEM_TOTAL  2000 
FILE_GEOM_ORG=        593

Checking the input file for inconsistencies... 	...done.

--------------------------------------------------------------
User input:
--------------------------------------------------------------
$comment
SP
$end

$rem
MEM_STATIC 5000
MEM_TOTAL 20000
JOBTYPE SP
EXCHANGE B3LYP
BASIS 6-31g(d,p)
$end

$molecule
0 1
C           5.243000    -21.699000     -3.794000
C           6.227000    -22.674000     -4.072000
N           5.577000    -20.495000     -3.299000
C           7.602000    -22.242000     -3.921000
C           6.868000    -20.158000     -3.181000
C           7.962000    -20.975000     -3.419000
C           9.428000    -20.627000     -3.305000
C          10.451000    -21.540000     -3.024000
C           9.957000    -19.352000     -3.490000
N          11.780000    -21.300000     -2.886000
N           9.179000    -18.266000     -3.723000
C          11.325000    -19.026000     -3.488000
C          12.223000    -20.031000     -3.074000
S          10.156000    -16.987000     -3.815000
N          11.553000    -17.643000     -3.605000
C          13.617000    -19.844000     -2.662000
S          14.428000    -20.802000     -1.422000
C          14.604000    -19.067000     -3.218000
C          16.018000    -20.172000     -1.781000
S          14.386000    -18.048000     -4.601000
C          15.914000    -19.222000     -2.769000
C          17.240000    -20.426000     -1.068000
C          16.128000    -17.963000     -4.676000
C          16.827000    -18.532000     -3.630000
N          17.327000    -21.584000     -0.504000
S          18.549000    -19.303000     -0.841000
C          18.536000    -21.591000      0.234000
C          19.376000    -20.527000      0.049000
C           3.788000    -22.098000     -3.752000
H           6.120000    -23.637000     -4.563000
H           8.332000    -22.997000     -4.195000
H           7.003000    -19.161000     -2.763000
H          10.168000    -22.584000     -2.898000
H          16.612000    -17.407000     -5.468000
H          17.902000    -18.477000     -3.506000
H          18.725000    -22.516000      0.761000
H          20.349000    -20.366000      0.494000
H           3.597000    -23.018000     -3.186000
C           3.210000    -22.436000     -5.198000
H           3.127000    -21.345000     -3.303000
H           3.638000    -23.395000     -5.518000
H           3.481000    -21.572000     -5.817000
C           1.653000    -22.534000     -5.230000
H           1.293000    -23.366000     -4.612000
C           1.079000    -22.625000     -6.675000
H           1.210000    -21.712000     -4.654000
H           1.549000    -23.453000     -7.219000
H           1.105000    -21.676000     -7.225000
C          -0.366000    -23.101000     -6.593000
H          -0.698000    -23.582000     -7.521000
C          -1.370000    -22.024000     -6.231000
H          -0.476000    -23.983000     -5.951000
H          -1.186000    -21.040000     -6.682000
H          -1.463000    -21.747000     -5.174000
H          -2.391000    -22.348000     -6.465000
C           4.013000    -28.239000     -2.556000
C           5.260000    -27.954000     -3.205000
N           3.550000    -27.549000     -1.505000
C           5.963000    -26.854000     -2.787000
C           4.297000    -26.500000     -1.052000
C           5.483000    -26.026000     -1.706000
C           6.255000    -24.931000     -1.039000
C           7.653000    -25.078000     -0.849000
C           5.686000    -23.705000     -0.528000
N           8.445000    -24.134000     -0.246000
N           4.377000    -23.425000     -0.604000
C           6.542000    -22.728000     -0.022000
C           7.916000    -22.936000      0.104000
S           4.281000    -21.929000      0.036000
N           5.832000    -21.642000      0.317000
C           8.878000    -22.084000      0.868000
S           8.396000    -20.536000      1.484000
C          10.254000    -22.198000      1.019000
C          10.021000    -20.063000      1.896000
S          11.254000    -23.427000      0.421000
C          10.859000    -21.062000      1.537000
C          10.447000    -18.767000      2.340000
C          12.644000    -22.443000      0.889000
C          12.281000    -21.276000      1.487000
N          11.754000    -18.521000      2.392000
S           9.430000    -17.376000      2.246000
C          12.014000    -17.238000      2.642000
C          10.850000    -16.499000      2.662000
C           3.256000    -29.506000     -2.982000
H           5.553000    -28.576000     -4.046000
H           6.829000    -26.630000     -3.403000
H           3.867000    -25.931000     -0.229000
H           8.115000    -26.048000     -1.028000
H          13.623000    -22.848000      0.670000
H          13.060000    -20.631000      1.876000
H          13.050000    -16.936000      2.721000
H          10.728000    -15.433000      2.800000
H           3.903000    -30.336000     -2.672000
C           2.933000    -29.428000     -4.463000
H           2.298000    -29.543000     -2.448000
H           3.863000    -29.312000     -5.033000
H           2.377000    -28.509000     -4.687000
C           2.161000    -30.697000     -4.886000
H           2.789000    -31.585000     -4.743000
C           1.915000    -30.647000     -6.428000
H           1.158000    -30.753000     -4.445000
H           2.011000    -31.682000     -6.779000
H           2.757000    -30.142000     -6.917000
C           0.589000    -29.867000     -6.785000
H          -0.279000    -30.151000     -6.178000
C           0.202000    -30.214000     -8.262000
H           0.799000    -28.806000     -6.596000
H           0.098000    -31.303000     -8.348000
H           1.025000    -29.910000     -8.921000
H          -0.707000    -29.657000     -8.524000
$end

--------------------------------------------------------------
 ----------------------------------------------------------------
             Standard Nuclear Orientation (Angstroms)
    I     Atom           X                Y                Z
 ----------------------------------------------------------------
    1      C       3.2784508131    -2.0374908250    -1.0881034886
    2      C       2.9889968652    -0.6903062503    -1.4003135681
    3      N       2.2959217016    -2.9227838088    -0.8491686068
    4      C       1.5864029392    -0.3724558239    -1.5785027521
    5      C       1.0179267974    -2.5644250059    -1.0293962218
    6      C       0.5497941818    -1.2991460854    -1.3470282534
    7      C      -0.8798657928    -0.8616574972    -1.5659622439
    8      C      -1.3654324203     0.4335546061    -1.3521640733
    9      C      -1.8988342986    -1.6873807067    -2.0345509395
   10      N      -2.6331732787     0.8941019874    -1.5058332810
   11      N      -1.7147441948    -3.0094334207    -2.2738341508
   12      C      -3.2086555961    -1.2768211207    -2.3403498845
   13      C      -3.5761376179     0.0301665174    -1.9601324761
   14      S      -3.1348764870    -3.6151235013    -2.7377283185
   15      N      -4.0428313000    -2.3500647318    -2.7018205557
   16      C      -4.9382143613     0.5603325246    -1.8523366044
   17      S      -5.4521357656     1.7558606481    -0.6608323887
   18      C      -6.0129056597     0.4076327023    -2.6942127102
   19      C      -7.0100648356     2.0283545544    -1.4041257923
   20      S      -5.9935540647    -0.5359899297    -4.1460308270
   21      C      -7.1473784853     1.1889720828    -2.4839600518
   22      C      -8.0854274654     2.8419380634    -0.9062843633
   23      C      -7.4830144997     0.2739584874    -4.5618495065
   24      C      -8.0449291878     1.0838143309    -3.5949661650
   25      N      -7.7319482245     3.8658844976    -0.2039915995
   26      S      -9.7854303178     2.5281984532    -1.1004408948
   27      C      -8.9220187973     4.4591303929     0.2840302642
   28      C     -10.1004939022     3.9725656418    -0.2123286484
   29      C       4.6863814730    -2.4305383057    -0.7122911221
   30      H       3.6627358817     0.1018550261    -1.7140893633
   31      H       1.4031670893     0.6565006323    -1.8712043656
   32      H       0.3215465616    -3.3693600330    -0.7968189887
   33      H      -0.6513826885     1.1864297577    -1.0216901913
   34      H      -7.9710125730     0.0651670466    -5.5046750549
   35      H      -9.0059081204     1.5758881407    -3.6866659841
   36      H      -8.7584743268     5.3349779538     0.8965816958
   37      H     -11.1035043470     4.3112062097     0.0112057188
   38      H       5.1580326910    -1.7524080679     0.0094578018
   39      C       5.6813124513    -2.3842013984    -1.9561597805
   40      H       4.7707993782    -3.4285927647    -0.2625223880
   41      H       5.8620721231    -1.3305633260    -2.2060352566
   42      H       5.1820989728    -2.9718731716    -2.7362404108
   43      C       7.0468725298    -3.0859118497    -1.6773675380
   44      H       7.6057245000    -2.5707958122    -0.8861103463
   45      C       7.9185082745    -3.2505340224    -2.9575755949
   46      H       6.8841036311    -4.0373734215    -1.1558925501
   47      H       8.0538325609    -2.2812920437    -3.4522242826
   48      H       7.5678622652    -4.0376150676    -3.6367867583
   49      C       9.3458003150    -3.5734455537    -2.5334405056
   50      H      10.0795086925    -3.2963418647    -3.3000268102
   51      C       9.5826379760    -5.0214215760    -2.1509978806
   52      H       9.7127486908    -2.8896014629    -1.7589121659
   53      H       9.0584537097    -5.7620203297    -2.7692675150
   54      H       9.2747342031    -5.3417442397    -1.1483934433
   55      H      10.6547388352    -5.2506870669    -2.1365036631
   56      C       7.1877106909     2.9386130463     1.3146494054
   57      C       6.1547703779     3.3445813330     0.4059915711
   58      N       6.9925164909     2.0753437786     2.3204999886
   59      C       4.9304234441     2.7380357322     0.5155818073
   60      C       5.7475077838     1.5338725388     2.4632627837
   61      C       4.6755148640     1.7462166579     1.5333546404
   62      C       3.3361648750     1.1707450480     1.8722824103
   63      C       2.1854864605     1.9981320272     1.8132656915
   64      C       3.0991683202    -0.1906084901     2.2947835076
   65      N       0.9177297312     1.5650442430     2.1086245351
   66      N       4.0833182118    -1.0913799593     2.4278877942
   67      C       1.7846763684    -0.6166226428     2.4789677915
   68      C       0.6990118271     0.2533083275     2.3714103155
   69      S       3.2866384159    -2.4505641553     2.8459208361
   70      N       1.7751910365    -1.9229563511     2.7819847402
   71      C      -0.7056202488    -0.0197607188     2.8044068830
   72      S      -1.1969016418    -1.6181610506     3.2646709076
   73      C      -1.8444772993     0.7693245095     2.7068255271
   74      C      -2.8919875387    -1.2177701378     3.2863254503
   75      S      -1.9480392204     2.3540236298     2.1185665480
   76      C      -3.0276238558     0.0789286906     2.9267410544
   77      C      -3.9843726526    -2.1341994400     3.4446924201
   78      C      -3.7063047973     2.1932133672     2.1635356520
   79      C      -4.1088281533     0.9840445144     2.6401357291
   80      N      -5.2160055476    -1.6871425031     3.2108345419
   81      S      -3.7800570787    -3.8445827499     3.3405287061
   82      C      -6.1161354483    -2.6699665296     3.2143122815
   83      C      -5.4993275620    -3.8962787745     3.3451683456
   84      C       8.5403376517     3.6620940014     1.2322503001
   85      H       6.4100371938     4.0564184764    -0.3738422150
   86      H       4.2398437205     3.0028781744    -0.2797458774
   87      H       5.6375196341     0.7990467658     3.2594560330
   88      H       2.3093513401     3.0738441358     1.6954270268
   89      H      -4.2818222572     3.0445242636     1.8251920235
   90      H      -5.1697456218     0.8091462600     2.7744924394
   91      H      -7.1532541200    -2.4090924332     3.0497809266
   92      H      -5.9460987738    -4.8815092301     3.3445098748
   93      H       8.3240978798     4.6946904942     1.5332384130
   94      C       9.1274077618     3.4798541853    -0.1555217760
   95      H       9.2372788972     3.1921898856     1.9377657303
   96      H       8.4243321747     3.8686664680    -0.9023589253
   97      H       9.2034312186     2.4137322231    -0.4034681329
   98      C      10.4929134882     4.1973772981    -0.2318676580
   99      H      10.3605769839     5.2758200649    -0.0807873862
  100      C      11.0432850501     4.0802001593    -1.6893108514
  101      H      11.2591035128     3.7241354921     0.3947271387
  102      H      11.5476884722     5.0325078562    -1.8950515576
  103      H      10.2064669186     4.0865024050    -2.3983987842
  104      C      11.8664348270     2.7489308421    -1.8997186693
  105      H      12.5899176712     2.5350992964    -1.1038684043
  106      C      12.7123617000     2.9006111616    -3.2085761123
  107      H      11.1305032711     1.9342116638    -1.9131129050
  108      H      13.3480954713     3.7897049866    -3.1111710685
  109      H      12.0294562991     3.0761437789    -4.0493225150
  110      H      13.2699607779     1.9693417071    -3.3728760559
 ----------------------------------------------------------------
 Molecular Point Group                 C1    NOp =  1
 Largest Abelian Subgroup              C1    NOp =  1
 Nuclear Repulsion Energy = 12146.5194370223 hartrees
 There are      270 alpha and      270 beta electrons
 Requested basis set is 6-31G(d,p)
 There are 406 shells and 1262 basis functions

 Total QAlloc Memory Limit  20000 MB
 Mega-Array Size      4888 MB
 MEM_STATIC part      5000 MB
 A cutoff of  1.0D-08 yielded  14641 shell pairs
 There are    155111 function pairs
 
 -------------------------------------------------------
 OpenMP Integral Computing Module                       
 Release: version 1.0, May 2013, Q-Chem Inc. Pittsburgh 
 -------------------------------------------------------
 Integral Job Info:
 Integral job number is                      11
 Integral operator is                         1
 short-range coefficients                     0
 long-range coefficients              100000000
 Omega coefficients                           0
 if combine SR and LR in K                    0
 Integral screening is                        0
 Integral computing path is                   2
 max size of driver memory is            800000
 size of driver memory is                593474
 size of scratch memory is             15166112
 max col of scratch BK array               1296
 max len of scratch array in speh3          155
 max len of scratch index in speh4           18
 max int batch size is                      520
 min int batch size is                       52
 fixed nKL is                                52
 max L of basis functions is                  2
 order of int derivative is                   0
 number of shells is                        406
 number of basis is                        1262
 number of cartesian basis is              1262
 number of contracted shell pairs         14641
 number of primitive shell pairs          45851
 maxK2 (contraction) of shell pair           36
 max number of K2 of shell pair               1
 max number of CS2 of shell pair           1586
 max number of PS2 of shell pair           8706
 mem total for path MDJ                  336120
 -------------------------------------------------------
 Smallest overlap matrix eigenvalue = 4.08E-04

 Scale SEOQF with 1.000000e-02/1.000000e-02/1.000000e-02

 Standard Electronic Orientation quadrupole field applied
 Nucleus-field energy     =     0.0000000612 hartrees
 Guess from superposition of atomic densities
 Warning:  Energy on first SCF cycle will be non-variational
 A restricted hybrid HF-DFT SCF calculation will be
 performed using Pulay DIIS extrapolation
 Exchange:     0.2000 Hartree-Fock + 0.0800 Slater + 0.7200 B88
 Correlation:  0.1900 VWN1RPA + 0.8100 LYP
 Using SG-1 standard quadrature grid
 SCF converges when DIIS error is below 1.0E-05
 using 16 threads for integral computing 
 -------------------------------------------------------
 OpenMP BLAS3 based DFT computing Module                
 Release: version 1.0, May 2013, Q-Chem Inc. Pittsburgh 
 -------------------------------------------------------
 ---------------------------------------
  Cycle       Energy         DIIS Error
 ---------------------------------------
    1   -5680.4512056709      2.17E-02
    2   -5662.4723218909      2.19E-03
    3   -5660.7554529497      3.53E-03
    4   -5663.2708695851      1.03E-03
    5   -5663.4870251501      3.56E-04
    6   -5663.4997559111      2.60E-04
    7   -5663.5118941053      9.43E-05
    8   -5663.5135208642      2.94E-05
    9   -5663.5136827776      1.06E-05
   10   -5663.5137066371      4.26E-06 Convergence criterion met
 ---------------------------------------
 SCF time:  CPU 1154.25 s  wall 102.51 s
 SCF   energy in the final basis set = -5663.5137066371
 Total energy in the final basis set = -5663.5137066371
 
 --------------------------------------------------------------
 
                    Orbital Energies (a.u.)
 --------------------------------------------------------------
 
 Alpha MOs
 -- Occupied --
-88.993 -88.985 -88.927 -88.926 -88.916 -88.914 -88.906 -88.895
-14.385 -14.380 -14.377 -14.372 -14.348 -14.346 -14.340 -14.333
-14.329 -14.327 -10.263 -10.262 -10.260 -10.260 -10.259 -10.253
-10.252 -10.250 -10.236 -10.235 -10.234 -10.233 -10.232 -10.230
-10.230 -10.230 -10.229 -10.228 -10.227 -10.226 -10.225 -10.224
-10.224 -10.223 -10.222 -10.222 -10.220 -10.218 -10.217 -10.214
-10.214 -10.208 -10.204 -10.203 -10.201 -10.199 -10.197 -10.184
-10.184 -10.184 -10.183 -10.183 -10.180 -10.180 -10.179 -10.178
-10.178 -10.175 -10.174 -10.168  -8.049  -8.040  -7.988  -7.988
 -7.975  -7.975  -7.968  -7.956  -6.014  -6.008  -6.008  -6.005
 -6.000  -5.998  -5.952  -5.951  -5.949  -5.948  -5.945  -5.945
 -5.940  -5.939  -5.936  -5.935  -5.932  -5.932  -5.931  -5.928
 -5.924  -5.921  -5.917  -5.913  -1.046  -1.043  -0.976  -0.973
 -0.955  -0.948  -0.939  -0.932  -0.915  -0.914  -0.904  -0.902
 -0.845  -0.845  -0.830  -0.826  -0.813  -0.810  -0.810  -0.809
 -0.805  -0.802  -0.795  -0.795  -0.783  -0.781  -0.767  -0.766
 -0.747  -0.745  -0.743  -0.734  -0.720  -0.718  -0.709  -0.708
 -0.695  -0.689  -0.672  -0.669  -0.656  -0.648  -0.646  -0.640
 -0.635  -0.628  -0.624  -0.621  -0.608  -0.607  -0.600  -0.597
 -0.591  -0.589  -0.583  -0.580  -0.576  -0.575  -0.571  -0.569
 -0.547  -0.545  -0.538  -0.537  -0.525  -0.522  -0.518  -0.509
 -0.508  -0.504  -0.502  -0.502  -0.486  -0.483  -0.476  -0.473
 -0.471  -0.470  -0.469  -0.466  -0.465  -0.460  -0.453  -0.444
 -0.443  -0.438  -0.437  -0.436  -0.435  -0.431  -0.430  -0.428
 -0.425  -0.424  -0.422  -0.420  -0.419  -0.417  -0.415  -0.414
 -0.412  -0.408  -0.402  -0.399  -0.396  -0.396  -0.395  -0.394
 -0.390  -0.390  -0.389  -0.389  -0.387  -0.382  -0.380  -0.378
 -0.377  -0.376  -0.375  -0.375  -0.363  -0.362  -0.359  -0.355
 -0.353  -0.349  -0.348  -0.346  -0.343  -0.342  -0.341  -0.338
 -0.337  -0.336  -0.335  -0.332  -0.330  -0.327  -0.326  -0.321
 -0.312  -0.311  -0.307  -0.306  -0.301  -0.300  -0.298  -0.294
 -0.293  -0.292  -0.291  -0.290  -0.288  -0.286  -0.282  -0.278
 -0.275  -0.270  -0.267  -0.264  -0.255  -0.250  -0.247  -0.245
 -0.241  -0.238  -0.234  -0.228  -0.196  -0.187
 -- Virtual --
 -0.106  -0.106  -0.066  -0.066  -0.036  -0.034  -0.026  -0.023
 -0.016  -0.014  -0.008  -0.007  -0.001   0.000   0.008   0.009
  0.012   0.012   0.023   0.024   0.041   0.042   0.045   0.048
  0.051   0.061   0.071   0.075   0.077   0.083   0.089   0.090
  0.092   0.097   0.105   0.105   0.107   0.112   0.113   0.114
  0.115   0.118   0.119   0.120   0.122   0.123   0.123   0.124
  0.129   0.130   0.133   0.134   0.138   0.142   0.145   0.149
  0.151   0.153   0.156   0.157   0.158   0.161   0.162   0.163
  0.166   0.168   0.171   0.173   0.176   0.177   0.179   0.182
  0.184   0.185   0.190   0.193   0.195   0.196   0.197   0.198
  0.201   0.204   0.208   0.210   0.210   0.215   0.217   0.219
  0.221   0.222   0.226   0.230   0.231   0.234   0.236   0.239
  0.240   0.245   0.246   0.247   0.249   0.252   0.256   0.261
  0.262   0.267   0.270   0.270   0.271   0.275   0.277   0.278
  0.287   0.289   0.292   0.293   0.296   0.299   0.301   0.307
  0.310   0.312   0.315   0.318   0.320   0.323   0.327   0.329
  0.331   0.335   0.340   0.342   0.345   0.348   0.350   0.353
  0.354   0.358   0.361   0.363   0.369   0.371   0.373   0.377
  0.379   0.385   0.388   0.389   0.391   0.397   0.398   0.400
  0.408   0.409   0.410   0.421   0.423   0.427   0.437   0.439
  0.440   0.449   0.453   0.458   0.461   0.467   0.471   0.472
  0.475   0.483   0.485   0.487   0.490   0.492   0.493   0.494
  0.500   0.506   0.509   0.509   0.512   0.515   0.516   0.520
  0.520   0.522   0.522   0.527   0.530   0.533   0.534   0.537
  0.538   0.538   0.541   0.543   0.547   0.550   0.551   0.553
  0.557   0.559   0.561   0.562   0.563   0.565   0.566   0.571
  0.572   0.574   0.577   0.578   0.579   0.583   0.583   0.587
  0.589   0.592   0.593   0.593   0.595   0.598   0.600   0.603
  0.605   0.606   0.611   0.614   0.616   0.619   0.620   0.624
  0.625   0.626   0.627   0.630   0.633   0.634   0.634   0.636
  0.638   0.641   0.644   0.645   0.647   0.649   0.651   0.653
  0.656   0.657   0.661   0.663   0.668   0.673   0.677   0.681
  0.685   0.689   0.690   0.695   0.700   0.700   0.701   0.703
  0.705   0.707   0.710   0.712   0.712   0.714   0.721   0.724
  0.724   0.732   0.733   0.738   0.739   0.745   0.747   0.749
  0.752   0.758   0.764   0.766   0.769   0.772   0.773   0.776
  0.779   0.784   0.786   0.789   0.792   0.796   0.797   0.799
  0.799   0.803   0.804   0.805   0.810   0.811   0.812   0.814
  0.816   0.818   0.820   0.821   0.824   0.824   0.826   0.829
  0.833   0.833   0.834   0.836   0.837   0.839   0.841   0.841
  0.845   0.848   0.849   0.850   0.852   0.855   0.857   0.859
  0.862   0.863   0.868   0.868   0.870   0.872   0.874   0.875
  0.877   0.880   0.881   0.884   0.884   0.886   0.891   0.893
  0.894   0.895   0.899   0.899   0.903   0.905   0.908   0.910
  0.913   0.915   0.917   0.919   0.920   0.923   0.928   0.929
  0.930   0.933   0.936   0.938   0.939   0.943   0.945   0.947
  0.950   0.954   0.957   0.961   0.964   0.966   0.967   0.971
  0.972   0.975   0.976   0.977   0.979   0.980   0.982   0.986
  0.991   0.993   0.994   0.997   0.998   1.001   1.005   1.008
  1.011   1.012   1.015   1.017   1.022   1.028   1.031   1.032
  1.036   1.037   1.041   1.042   1.049   1.051   1.056   1.057
  1.063   1.067   1.069   1.070   1.074   1.076   1.078   1.084
  1.088   1.089   1.096   1.103   1.106   1.114   1.116   1.125
  1.129   1.130   1.133   1.137   1.145   1.148   1.153   1.158
  1.161   1.168   1.171   1.176   1.178   1.180   1.183   1.187
  1.187   1.194   1.197   1.203   1.204   1.212   1.215   1.225
  1.228   1.233   1.237   1.241   1.243   1.249   1.265   1.266
  1.273   1.276   1.278   1.285   1.298   1.301   1.301   1.303
  1.313   1.320   1.324   1.327   1.331   1.335   1.337   1.338
  1.343   1.345   1.356   1.364   1.367   1.369   1.375   1.377
  1.385   1.388   1.395   1.396   1.401   1.405   1.406   1.407
  1.413   1.414   1.418   1.422   1.424   1.429   1.432   1.433
  1.436   1.440   1.447   1.453   1.459   1.466   1.467   1.474
  1.476   1.477   1.484   1.488   1.501   1.506   1.509   1.515
  1.516   1.535   1.538   1.541   1.548   1.552   1.556   1.566
  1.575   1.576   1.582   1.588   1.593   1.597   1.602   1.611
  1.613   1.617   1.621   1.629   1.633   1.636   1.647   1.650
  1.657   1.665   1.665   1.670   1.673   1.674   1.682   1.688
  1.690   1.693   1.694   1.700   1.701   1.705   1.711   1.714
  1.719   1.722   1.726   1.733   1.737   1.741   1.744   1.751
  1.755   1.756   1.757   1.770   1.770   1.774   1.778   1.782
  1.790   1.791   1.794   1.803   1.805   1.809   1.813   1.817
  1.820   1.827   1.831   1.831   1.836   1.840   1.842   1.843
  1.846   1.852   1.854   1.856   1.859   1.866   1.871   1.874
  1.880   1.882   1.887   1.888   1.892   1.895   1.898   1.901
  1.904   1.909   1.911   1.913   1.916   1.917   1.924   1.925
  1.930   1.936   1.940   1.945   1.949   1.949   1.958   1.962
  1.964   1.965   1.970   1.980   1.984   1.988   1.993   1.995
  1.996   2.003   2.006   2.013   2.015   2.021   2.028   2.029
  2.039   2.043   2.046   2.051   2.052   2.061   2.065   2.070
  2.075   2.075   2.080   2.085   2.088   2.090   2.093   2.094
  2.096   2.105   2.111   2.113   2.114   2.120   2.120   2.124
  2.131   2.133   2.144   2.144   2.148   2.151   2.158   2.164
  2.167   2.172   2.174   2.175   2.176   2.191   2.194   2.197
  2.198   2.203   2.205   2.209   2.212   2.215   2.224   2.225
  2.229   2.239   2.239   2.241   2.248   2.251   2.256   2.256
  2.260   2.264   2.274   2.276   2.280   2.284   2.288   2.289
  2.292   2.293   2.297   2.300   2.302   2.303   2.307   2.314
  2.315   2.320   2.324   2.326   2.328   2.330   2.333   2.335
  2.338   2.345   2.347   2.354   2.355   2.360   2.363   2.365
  2.366   2.373   2.379   2.381   2.383   2.386   2.390   2.394
  2.403   2.406   2.411   2.414   2.419   2.420   2.422   2.424
  2.426   2.428   2.432   2.436   2.440   2.448   2.450   2.452
  2.457   2.457   2.462   2.464   2.467   2.475   2.477   2.480
  2.490   2.494   2.497   2.498   2.501   2.503   2.504   2.507
  2.512   2.514   2.516   2.520   2.528   2.530   2.535   2.536
  2.543   2.545   2.549   2.550   2.551   2.552   2.559   2.567
  2.571   2.574   2.577   2.580   2.587   2.590   2.599   2.600
  2.604   2.608   2.624   2.625   2.628   2.636   2.636   2.638
  2.643   2.645   2.656   2.659   2.663   2.666   2.673   2.677
  2.678   2.683   2.690   2.691   2.696   2.699   2.704   2.704
  2.710   2.712   2.717   2.721   2.728   2.733   2.736   2.738
  2.746   2.746   2.753   2.759   2.769   2.780   2.789   2.793
  2.793   2.807   2.808   2.811   2.819   2.820   2.827   2.830
  2.834   2.836   2.839   2.842   2.854   2.861   2.868   2.871
  2.875   2.876   2.880   2.881   2.889   2.892   2.901   2.906
  2.908   2.910   2.919   2.921   2.926   2.928   2.930   2.951
  2.956   2.960   2.971   2.984   2.985   3.003   3.009   3.016
  3.032   3.037   3.048   3.063   3.077   3.107   3.130   3.130
  3.153   3.181   3.183   3.196   3.198   3.221   3.230   3.235
  3.236   3.239   3.253   3.255   3.268   3.275   3.281   3.286
  3.294   3.298   3.316   3.319   3.325   3.326   3.333   3.341
  3.342   3.351   3.355   3.368   3.385   3.409   3.414   3.425
  3.431   3.446   3.453   3.470   3.479   3.509   3.529   3.534
  3.538   3.550   3.560   3.561   3.572   3.574   3.590   3.618
  3.631   3.646   3.701   3.703   3.871   3.881   3.913   3.920
  3.930   3.952   3.961   3.964   3.982   3.985   3.997   4.004
  4.013   4.068   4.076   4.085   4.092   4.098   4.108   4.120
  4.124   4.137   4.143   4.156   4.170   4.182   4.205   4.208
  4.219   4.229   4.241   4.249   4.257   4.262   4.265   4.273
  4.285   4.292   4.336   4.341   4.368   4.377   4.385   4.394
  4.422   4.430   4.436   4.458   4.463   4.484   4.491   4.502
  4.506   4.535   4.537   4.542   4.577   4.603   4.655   4.672
  4.683   4.699   4.719   4.741   4.750   4.756   4.787   4.801
 --------------------------------------------------------------
 
          Ground-State Mulliken Net Atomic Charges

     Atom                 Charge (a.u.)
  ----------------------------------------
      1 C                     0.274772
      2 C                    -0.112208
      3 N                    -0.489084
      4 C                    -0.109512
      5 C                     0.079340
      6 C                     0.076324
      7 C                     0.090071
      8 C                     0.044335
      9 C                     0.189641
     10 N                    -0.500485
     11 N                    -0.556192
     12 C                     0.191203
     13 C                     0.246268
     14 S                     0.630604
     15 N                    -0.516436
     16 C                    -0.219141
     17 S                     0.364214
     18 C                    -0.129728
     19 C                    -0.233909
     20 S                     0.279127
     21 C                     0.140827
     22 C                     0.061655
     23 C                    -0.298261
     24 C                    -0.080956
     25 N                    -0.420503
     26 S                     0.269481
     27 C                     0.097595
     28 C                    -0.297457
     29 C                    -0.251828
     30 H                     0.097919
     31 H                     0.096156
     32 H                     0.116442
     33 H                     0.114265
     34 H                     0.119475
     35 H                     0.114300
     36 H                     0.110054
     37 H                     0.139182
     38 H                     0.133901
     39 C                    -0.186772
     40 H                     0.108274
     41 H                     0.094440
     42 H                     0.104862
     43 C                    -0.181015
     44 H                     0.093125
     45 C                    -0.166387
     46 H                     0.095525
     47 H                     0.090882
     48 H                     0.097568
     49 C                    -0.180172
     50 H                     0.085869
     51 C                    -0.318559
     52 H                     0.092512
     53 H                     0.099850
     54 H                     0.101406
     55 H                     0.097846
     56 C                     0.256617
     57 C                    -0.098862
     58 N                    -0.479739
     59 C                    -0.093589
     60 C                     0.077881
     61 C                     0.025689
     62 C                     0.015849
     63 C                     0.052561
     64 C                     0.229042
     65 N                    -0.529501
     66 N                    -0.563763
     67 C                     0.227165
     68 C                     0.319324
     69 S                     0.618051
     70 N                    -0.555605
     71 C                    -0.224095
     72 S                     0.309463
     73 C                    -0.124459
     74 C                    -0.259550
     75 S                     0.279475
     76 C                     0.179647
     77 C                     0.068293
     78 C                    -0.301162
     79 C                    -0.055102
     80 N                    -0.429892
     81 S                     0.281737
     82 C                     0.145194
     83 C                    -0.327697
     84 C                    -0.219264
     85 H                     0.093502
     86 H                     0.094601
     87 H                     0.119605
     88 H                     0.116234
     89 H                     0.143000
     90 H                     0.121711
     91 H                     0.118551
     92 H                     0.123918
     93 H                     0.113104
     94 C                    -0.184882
     95 H                     0.118251
     96 H                     0.089539
     97 H                     0.106366
     98 C                    -0.174588
     99 H                     0.090725
    100 C                    -0.183487
    101 H                     0.100722
    102 H                     0.083028
    103 H                     0.088133
    104 C                    -0.180217
    105 H                     0.095712
    106 C                    -0.313742
    107 H                     0.097942
    108 H                     0.108188
    109 H                     0.101832
    110 H                     0.097842
  ----------------------------------------
  Sum of atomic charges =     0.000000

 -----------------------------------------------------------------
                    Cartesian Multipole Moments
 -----------------------------------------------------------------
    Charge (ESU x 10^10)
                 0.0000
    Dipole Moment (Debye)
         X      -2.4199      Y      -0.0908      Z      -2.6508
       Tot       3.5904
    Quadrupole Moments (Debye-Ang)
        XX    -384.1163     XY      11.3655     YY    -427.5857
        XZ      -6.3276     YZ      -7.1812     ZZ    -448.7431
    Octopole Moments (Debye-Ang^2)
       XXX    -630.3943    XXY     167.2717    XYY     -73.4873
       YYY     -19.7436    XXZ     -94.0654    XYZ     -46.8804
       YYZ      36.6054    XZZ     -92.5252    YZZ     -55.9625
       ZZZ     -70.6146
    Hexadecapole Moments (Debye-Ang^3)
      XXXX  -87219.6310   XXXY   -1526.1580   XXYY  -17106.0357
      XYYY     395.5206   YYYY  -16485.1749   XXXZ     -60.9558
      XXYZ    -228.5686   XYYZ    -296.2275   YYYZ     -35.4170
      XXZZ  -18361.0075   XYZZ       6.9118   YYZZ   -5332.3194
      XZZZ     593.7316   YZZZ      -4.7962   ZZZZ  -15104.6675
 -----------------------------------------------------------------
Archival summary:
1\1\mn426\SP\ProcedureUnspecified\6-31G**\8105042\afmv_a\SatOct607:58:482018SatOct607:58:482018\0\\#,ProcedureUnspecified,6-31G**,\\0,1\S\C,1,1.73438\C,2,1.38895,1,108.057\C,3,1.38739,2,113.916,1,3.05038,0\C,4,1.35245,3,115.704,2,-4.23075,0\C,5,1.43465,4,124.432,3,174.27,0\N,6,1.33097,5,118.076,4,-0.676059,0\C,7,1.33274,6,112.138,5,-171.485,0\H,8,1.08201,7,117.981,6,-178.999,0\C,8,1.37892,7,110.73,6,5.22986,0\H,10,1.0818,8,128.693,7,177.483,0\C,4,1.43888,3,107.23,2,173.441,0\H,12,1.0836,4,127.551,3,175.026,0\C,12,1.36061,4,113.985,3,-4.06779,0\H,14,1.08186,12,130.653,4,-176.973,0\C,2,1.49501,1,120.753,3,170.043,0\N,16,1.35556,2,112.612,1,177.16,0\C,17,1.37186,16,119.757,2,-174.298,0\H,18,1.08921,17,116.114,16,174.987,0\C,16,1.39536,2,126.5,1,10.7135,0\N,20,1.34105,16,128.259,2,-11.5862,0\C,20,1.39402,16,122.205,2,167.103,0\N,22,1.34077,20,118.276,16,-179.443,0\C,18,1.41849,17,123.817,16,5.58637,0\C,24,1.49663,18,119.488,17,179.802,0\C,25,1.43492,24,117.704,18,-129.525,0\H,26,1.08903,25,119.881,24,-13.32,0\N,26,1.36514,25,123.701,24,175.596,0\C,28,1.3398,26,117.836,25,-5.6303,0\C,29,1.43438,28,123.575,26,-1.53533,0\H,30,1.08628,29,118.1,28,-179.527,0\C,30,1.37074,29,117.862,28,5.05361,0\H,32,1.08609,30,113.671,29,172.72,0\C,29,1.53617,28,118.165,26,-173.815,0\H,34,1.09709,29,104.774,28,107.152,0\H,34,1.0974,29,108.848,28,-11.1739,0\C,34,1.51782,29,109.455,28,-127.688,0\H,37,1.09693,34,109.393,29,-57.9855,0\H,37,1.09721,34,110.492,29,55.4354,0\C,37,1.54443,34,109.353,29,179.498,0\H,40,1.09699,37,110.076,34,62.85,0\H,40,1.0971,37,112.882,34,-67.7497,0\C,40,1.5623,37,108.829,34,176.422,0\H,43,1.09686,40,109.505,37,-33.0677,0\H,43,1.09711,40,105.772,37,-143.406,0\C,43,1.57928,40,111.785,37,87.1313,0\H,46,1.0966,43,114.303,40,46.4832,0\H,46,1.09797,43,106.127,40,-72.2349,0\C,46,1.56579,43,108.138,40,163.783,0\H,49,1.09728,46,108.647,43,59.523,0\H,49,1.09733,46,108.499,43,-56.94,0\H,49,1.0978,46,108.502,43,178.741,0\S,21,1.60216,20,108.852,16,177.346,0\S,3,1.69353,2,127.312,1,172.293,0\S,10,1.72005,8,114.842,7,4.60765,0\H,23,2.72778,22,111.345,20,-107.171,0\C,56,1.09692,23,124.317,22,77.172,0\H,57,1.09797,56,105.032,23,71.0658,0\C,57,1.5093,56,113.825,23,-54.6071,0\N,59,1.34395,57,117.786,56,120.956,0\C,60,1.33947,59,119.826,57,-172.732,0\H,61,1.08948,60,112.549,59,179.702,0\C,61,1.38599,60,126.679,59,5.74664,0\C,63,1.40957,61,112.918,60,-4.62511,0\H,64,1.08536,63,122.915,61,-177.891,0\C,59,1.41286,57,119.633,56,-45.662,0\H,66,1.08623,59,129.208,57,-20.8729,0\C,63,1.51104,61,128.104,60,-179.569,0\C,68,1.39273,63,124.703,61,28.5337,0\N,69,1.35609,68,122.551,63,-3.78584,0\C,68,1.39966,63,125.031,61,-152.73,0\H,71,1.08899,68,117.299,63,-1.28857,0\N,71,1.35753,68,128.361,63,178.868,0\C,73,1.35719,71,118.085,68,2.09473,0\C,69,1.40631,68,125.557,63,174.914,0\N,75,1.40654,69,112.675,68,175.75,0\C,74,1.46559,73,113.006,71,-169.432,0\C,77,1.37369,74,129.926,73,-143.665,0\C,78,1.39346,77,118.825,74,169.754,0\C,79,1.37458,78,112.309,77,0.444312,0\C,79,1.43213,78,110.611,77,-168.723,0\H,81,1.08352,79,126.026,78,-179.138,0\C,81,1.38075,79,109.345,78,2.24198,0\H,83,1.08197,81,122.673,79,178.65,0\C,80,1.43742,79,122.886,78,173.966,0\N,85,1.29098,80,115.626,79,158.447,0\C,86,1.41647,85,106.832,80,174.977,0\H,87,1.08124,86,114.04,85,-179.822,0\C,87,1.36818,86,116.727,85,8.50267,0\H,89,1.08198,87,127.75,86,177.991,0\S,76,1.55758,75,106.257,69,4.60802,0\C,57,1.5935,56,103.13,23,-176.62,0\H,92,1.09686,57,104.797,56,174.269,0\H,92,1.09785,57,107.961,56,50.8878,0\C,92,1.56041,57,113.195,56,-70.0576,0\H,95,1.09714,92,110.186,57,-43.5973,0\H,95,1.09715,92,111.314,57,64.0705,0\C,95,1.55749,92,112.981,57,-170.329,0\H,98,1.09655,95,110.269,92,-54.1873,0\H,98,1.09717,95,113.942,92,74.4101,0\C,98,1.52359,95,108.533,92,-164.408,0\H,101,1.09644,98,112.209,95,48.6951,0\H,101,1.09671,98,112.246,95,156.034,0\C,101,1.51624,98,114.768,95,-79.8219,0\H,104,1.09644,101,110.84,98,-163.811,0\H,104,1.09664,101,117.755,98,79.8427,0\H,104,1.09796,101,115.312,98,-38.7499,0\S,89,1.72459,87,109.106,86,-10.8457,0\S,78,1.73164,77,124.448,74,-1.40069,0\S,80,1.74754,79,109.146,78,1.75773,0\\\@

 Total job time:  106.14s(wall), 1166.38s(cpu) 
 Sat Oct  6 07:58:48 2018

        *************************************************************
        *                                                           *
        *  Thank you very much for using Q-Chem.  Have a nice day.  *
        *                                                           *
        *************************************************************


