
Running Job 1 of 1 ./8/30.qcin
qchem ./8/30.qcin_11441.0 /tmpu/cab_g/afmv_a/scratch_qchem/qchem11441/ 1
/tmpu/appuserlic/qchem4.4/serial-multicore/exe/qcprog.exe_s ./8/30.qcin_11441.0 /tmpu/cab_g/afmv_a/scratch_qchem/qchem11441/
Check license passed

                  Welcome to Q-Chem
     A Quantum Leap Into The Future Of Chemistry


 Q-Chem 4.4, Q-Chem, Inc., Pleasanton, CA (2016)

 Y. Shao,  Z. Gan,  E. Epifanovsky,  A. T. B. Gilbert,  M. Wormit,  
 J. Kussmann,  A. W. Lange,  A. Behn,  J. Deng,  X. Feng,  D. Ghosh,  
 M. Goldey,  P. R. Horn,  L. D. Jacobson,  I. Kaliman,  F. Rob,  
 R. Z. Khaliullin,  T. Kus,  A. Landau,  J. Liu,  E. I. Proynov,  Y. M. Rhee,  
 R. M. Richard,  M. A. Rohrdanz,  R. P. Steele,  E. J. Sundstrom,  
 H. L. Woodcock III,  P. M. Zimmerman,  D. Zuev,  B. Albrecht,  E. Alguire,  
 B. Austin,  S. A. Baeppler,  G. J. O. Beran,  Y. A. Bernard,  E. Berquist,  
 K. Brandhorst,  K. B. Bravaya,  S. T. Brown,  D. Casanova,  C.-M. Chang,  
 Y. Chen,  S. H. Chien,  K. D. Closser,  M. P. Coons,  D. L. Crittenden,  
 S. Dasgupta,  M. Diedenhofen,  R. A. DiStasio Jr.,  H. Do,  A. D. Dutoi,  
 R. G. Edgar,  P.-T. Fang,  S. Fatehi,  Q. Feng,  L. Fusti-Molnar,  
 A. Ghysels,  A. Golubeva-Zadorozhnaya,  J. Gomes,  A. Gunina,  
 M. W. D. Hanson-Heine,  P. H. P. Harbach,  A. W. Hauser,  J. E. Herr,  
 E. G. Hohenstein,  Z. C. Holden,  K. Hui,  T.-C. Jagau,  H. Ji,  B. Kaduk,  
 K. Khistyaev,  Jaehoon Kim,  Jihan Kim,  R. A. King,  P. Klunzinger,  
 K. Koh,  D. Kosenkov,  T. Kowalczyk,  C. M. Krauter,  A. Kunitsa,  
 K. U. Lao,  A. Laurent,  K. V. Lawler,  J. Lee,  D. Lefrancois,  S. Lehtola,  
 S. V. Levchenko,  C. Y. Lin,  Y.-S. Lin,  F. Liu,  E. Livshits,  
 R. C. Lochan,  A. Luenser,  P. Manohar,  S. F. Manzer,  S.-P. Mao,  Y. Mao,  
 N. Mardirossian,  A. V. Marenich,  L. A. Martinez-Martinez,  S. A. Maurer,  
 N. J. Mayhall,  J.-M. Mewes,  A. F. Morrison,  K. Nanda,  T. S. Nguyen-Beck,  
 C. M. Oana,  R. Olivares-Amaya,  D. P. O'Neill,  J. A. Parkhill,  
 T. M. Perrine,  R. Peverati,  P. A. Pieniazek,  F. Plasser,  A. Prociuk,  
 D. R. Rehn,  E. Rosta,  N. J. Russ,  N. Sergueev,  S. M. Sharada,  
 S. Sharma,  D. W. Small,  A. Sodt,  T. Stauch,  T. Stein,  D. Stuck,  
 Y.-C. Su,  A. J. W. Thom,  T. Tsuchimochi,  L. Vogt,  O. Vydrov,  T. Wang,  
 M. A. Watson,  J. Wenzel,  A. White,  C. F. Williams,  V. Vanovschi,  
 K. Yao,  S. Yeganeh,  S. R. Yost,  Z.-Q. You,  I. Y. Zhang,  X. Zhang,  
 Y. Zhao,  B. R. Brooks,  G. K. L. Chan,  D. M. Chipman,  C. J. Cramer,  
 W. A. Goddard III,  M. S. Gordon,  W. J. Hehre,  A. Klamt,  
 H. F. Schaefer III,  M. W. Schmidt,  C. D. Sherrill,  D. G. Truhlar,  
 A. Warshel,  X. Xu,  A. Aspuru-Guzik,  R. Baer,  A. T. Bell,  N. A. Besley,  
 J.-D. Chai,  A. Dreuw,  B. D. Dunietz,  T. R. Furlani,  S. R. Gwaltney,  
 C.-P. Hsu,  Y. Jung,  J. Kong,  D. S. Lambrecht,  W. Liang,  C. Ochsenfeld,  
 V. A. Rassolov,  L. V. Slipchenko,  J. E. Subotnik,  T. Van Voorhis,  
 J. M. Herbert,  A. I. Krylov,  P. M. W. Gill,  M. Head-Gordon

 Contributors to earlier versions of Q-Chem not listed above: 
 R. D. Adamson,  J. Baker,  E. F. C. Byrd,  A. K. Chakraborty,  C.-L. Cheng,  
 H. Dachsel,  R. J. Doerksen,  G. Hawkins,  A. Heyden,  S. Hirata,  
 G. Kedziora,  F. J. Keil,  C. Kelley,  P. P. Korambath,  W. Kurlancheek,  
 A. M. Lee,  M. S. Lee,  D. Liotard,  I. Lotan,  P. E. Maslen,  N. Nair,  
 D. Neuhauser,  R. Olson,  B. Peters,  J. Ritchie,  N. E. Schultz,  
 N. Shenvi,  A. C. Simmonett,  K. S. Thanthiriwatte,  Q. Wu,  W. Zhang

 Please cite Q-Chem as follows:
 Y. Shao et al., Mol. Phys. 113, 184-215 (2015)
 DOI: 10.1080/00268976.2014.952696

 Q-Chem 4.4.2 for Intel X86 Linux

 Parts of Q-Chem use Armadillo 5.200.1 (Boston Tea Smuggler).
 http://arma.sourceforge.net/

 Q-Chem begins on Sat Oct  6 08:08:04 2018  

Host: 
0

     Scratch files written to /tmpu/cab_g/afmv_a/scratch_qchem/qchem11441//
 Dec716 11556_ 22328  22283 4050   
Processing $rem in /tmpu/appuserlic/qchem4.4/serial-multicore/config/preferences.
 MEM_TOTAL  2000 
FILE_GEOM_ORG=        593

Checking the input file for inconsistencies... 	...done.

--------------------------------------------------------------
User input:
--------------------------------------------------------------
$comment
SP
$end

$rem
MEM_STATIC 5000
MEM_TOTAL 20000
JOBTYPE SP
EXCHANGE B3LYP
BASIS 6-31g(d,p)
$end

$molecule
0 1
C          -6.858000    -19.016000     -6.184000
C          -6.642000    -17.786000     -5.521000
N          -7.833000    -19.851000     -5.773000
C          -7.563000    -17.423000     -4.450000
C          -8.687000    -19.511000     -4.723000
C          -8.585000    -18.248000     -3.992000
C          -9.476000    -17.936000     -2.799000
C          -9.106000    -17.140000     -1.685000
C         -10.828000    -18.382000     -2.676000
N          -9.733000    -17.145000     -0.523000
N         -11.466000    -18.870000     -3.716000
C         -11.589000    -18.219000     -1.525000
C         -10.941000    -17.734000     -0.364000
S         -13.023000    -19.099000     -3.260000
N         -12.846000    -18.725000     -1.662000
C         -11.633000    -17.569000      0.918000
S         -13.250000    -18.144000      1.375000
C         -11.160000    -16.893000      2.046000
C         -13.229000    -17.525000      2.981000
S          -9.700000    -15.867000      2.181000
C         -12.072000    -16.814000      3.133000
C         -14.300000    -17.554000      4.018000
C         -10.347000    -15.344000      3.802000
C         -11.577000    -15.964000      4.120000
N         -15.489000    -17.843000      3.554000
S         -14.005000    -17.458000      5.726000
C         -16.461000    -17.935000      4.556000
C         -15.837000    -17.682000      5.777000
C          -5.973000    -19.290000     -7.416000
H          -5.901000    -17.058000     -5.835000
H          -7.583000    -16.453000     -3.961000
H          -9.403000    -20.304000     -4.514000
H          -8.145000    -16.628000     -1.700000
H          -9.881000    -14.514000      4.316000
H         -12.286000    -15.601000      4.856000
H         -17.513000    -18.184000      4.508000
H         -16.310000    -17.640000      6.749000
H          -6.687000    -19.333000     -8.247000
C          -4.912000    -20.541000     -7.319000
H          -5.408000    -18.371000     -7.613000
H          -4.140000    -20.298000     -6.578000
H          -4.224000    -20.509000     -8.173000
C          -5.495000    -21.927000     -7.036000
H          -4.769000    -22.711000     -6.790000
C          -6.184000    -22.410000     -8.358000
H          -6.277000    -21.861000     -6.270000
H          -5.382000    -22.345000     -9.104000
H          -6.925000    -21.684000     -8.714000
C          -6.898000    -23.822000     -8.254000
H          -6.999000    -24.234000     -9.266000
C          -8.285000    -23.597000     -7.673000
H          -6.386000    -24.615000     -7.694000
H          -8.261000    -23.681000     -6.579000
H          -8.931000    -24.450000     -7.915000
H          -8.845000    -22.720000     -8.018000
C         -10.183000    -19.819000     10.464000
C         -11.315000    -19.989000      9.639000
N          -8.970000    -20.023000      9.973000
C         -11.152000    -20.046000      8.284000
C          -8.779000    -20.151000      8.670000
C          -9.865000    -20.040000      7.743000
C          -9.650000    -19.950000      6.260000
C          -8.547000    -19.296000      5.665000
C         -10.472000    -20.529000      5.253000
N          -8.205000    -19.263000      4.381000
N         -11.654000    -21.210000      5.547000
C         -10.190000    -20.520000      3.913000
C          -9.011000    -19.888000      3.468000
S         -12.218000    -21.663000      4.084000
N         -11.020000    -21.160000      3.082000
C          -8.428000    -20.075000      2.148000
S          -8.883000    -21.252000      0.956000
C          -7.572000    -19.122000      1.603000
C          -7.772000    -20.626000     -0.225000
S          -6.738000    -17.720000      2.242000
C          -7.160000    -19.486000      0.293000
C          -7.680000    -21.128000     -1.510000
C          -5.925000    -17.532000      0.681000
C          -6.295000    -18.493000     -0.222000
N          -8.635000    -21.853000     -1.996000
S          -6.053000    -21.334000     -2.220000
C          -8.093000    -22.506000     -3.109000
C          -6.734000    -22.401000     -3.268000
C         -10.281000    -19.496000     11.952000
H         -12.297000    -19.938000     10.100000
H         -12.059000    -19.920000      7.699000
H          -7.772000    -20.196000      8.260000
H          -7.885000    -18.785000      6.362000
H          -5.284000    -16.687000      0.468000
H          -5.902000    -18.695000     -1.212000
H          -8.760000    -23.199000     -3.605000
H          -6.150000    -22.952000     -3.994000
H          -9.363000    -19.766000     12.488000
C         -11.500000    -20.122000     12.679000
H         -10.333000    -18.403000     12.031000
H         -11.505000    -21.218000     12.715000
H         -12.383000    -19.876000     12.077000
C         -11.678000    -19.637000     14.062000
H         -10.890000    -20.004000     14.731000
C         -13.039000    -20.289000     14.476000
H         -11.678000    -18.546000     14.181000
H         -13.122000    -21.340000     14.173000
H         -13.828000    -19.720000     13.969000
C         -13.207000    -20.092000     15.989000
H         -12.395000    -20.628000     16.497000
C         -14.536000    -20.496000     16.607000
H         -12.991000    -19.048000     16.247000
H         -14.435000    -20.459000     17.699000
H         -14.870000    -21.489000     16.282000
H         -15.384000    -19.853000     16.342000
$end

--------------------------------------------------------------
 ----------------------------------------------------------------
             Standard Nuclear Orientation (Angstroms)
    I     Atom           X                Y                Z
 ----------------------------------------------------------------
    1      C      -8.5607164697    -0.2323147654    -1.0543099908
    2      C      -7.9207487895    -0.0332349488    -2.2992732814
    3      N      -7.9351620020     0.0928084530     0.0944926471
    4      C      -6.6137043889     0.6137953274    -2.2931286490
    5      C      -6.6685483696     0.6785569145     0.0923371492
    6      C      -5.9292394790     0.9701428654    -1.1358053496
    7      C      -4.5167558110     1.5346034007    -1.1084522570
    8      C      -3.5126457198     1.2792937408    -2.0770037024
    9      C      -4.0382879695     2.4364228009    -0.1085826185
   10      N      -2.2222717452     1.4839281696    -1.8860645594
   11      N      -4.8784863033     3.0388776722     0.7025295118
   12      C      -2.7111340493     2.8343695127    -0.0046986124
   13      C      -1.7581446159     2.1885530897    -0.8279739538
   14      S      -4.0111280305     4.1210670573     1.5749868238
   15      N      -2.5118187509     3.7005379831     1.0272314204
   16      C      -0.3251593835     2.4928779977    -0.7683696407
   17      S       0.5414067757     3.4664424494     0.4380292777
   18      C       0.6564834249     2.0916373242    -1.6785741884
   19      C       2.1061370521     3.2879015104    -0.2566507171
   20      S       0.4257512972     1.2936528430    -3.2636560326
   21      C       1.9608163757     2.5961478962    -1.4261090697
   22      C       3.4020193715     3.8908179633     0.1681218867
   23      C       2.1898485945     1.6305150602    -3.5706797653
   24      C       2.8107233344     2.2953806677    -2.4886020042
   25      N       3.2808294285     4.8899664304     1.0045149392
   26      S       4.9578641820     3.2124900690    -0.1961900589
   27      C       4.5115915721     5.3901012865     1.4430826894
   28      C       5.5162083462     4.6413054761     0.8313017060
   29      C     -10.0067473869    -0.7634404978    -1.1093103796
   30      H      -8.3926550054    -0.2369593851    -3.2550252772
   31      H      -6.0872071077     0.9407921750    -3.1854820962
   32      H      -6.3077900406     0.8604295579     1.1032583972
   33      H      -3.7728081017     0.7077915027    -2.9667175479
   34      H       2.5942438879     1.4761594343    -4.5620882520
   35      H       3.7367832700     2.8563938039    -2.5504344932
   36      H       4.7516936262     6.1766973267     2.1463796915
   37      H       6.5834455317     4.7902608589     0.9266646111
   38      H     -10.6010538126     0.0496677010    -0.6758811126
   39      C     -10.2841779476    -2.2604210739    -0.4910770590
   40      H     -10.3061588836    -0.7633300202    -2.1642737645
   41      H      -9.7816350203    -3.0056258434    -1.1205486293
   42      H     -11.2956845677    -2.5895098858    -0.7598500325
   43      C      -9.9227581838    -2.4837574401     0.9787768868
   44      H      -9.9367619668    -3.5247934685     1.3227185701
   45      C     -11.0180465122    -1.7577913198     1.8325981033
   46      H      -8.9633662861    -2.0059252380     1.2108966260
   47      H     -11.9568615839    -2.1978538694     1.4735490626
   48      H     -11.1082032765    -0.7002518929     1.5562376173
   49      C     -10.7920459410    -1.8329093359     3.4002833477
   50      H     -11.7542401411    -1.6564277353     3.8974006035
   51      C      -9.8287550432    -0.7202233470     3.7823246235
   52      H     -10.4450835666    -2.7845539707     3.8228736927
   53      H      -8.7931570954    -1.0823612635     3.7529814822
   54      H      -9.9228249348    -0.4999550433     4.8528953731
   55      H      -9.9517102563     0.2509154353     3.2888416136
   56      C       8.2753480875    -2.4109150672    -0.2437737784
   57      C       7.7989109154    -1.3051068597     0.4918516897
   58      N       7.4488872906    -3.3920785377    -0.5729345222
   59      C       6.4525933165    -1.0931910650     0.5833045122
   60      C       6.1404966652    -3.2508280862    -0.4356891898
   61      C       5.5686385834    -2.0264467386     0.0385624838
   62      C       4.0930132062    -1.7553817642    -0.0130856127
   63      C       3.2450562647    -2.2206674213    -1.0440212473
   64      C       3.3318440281    -1.0486247238     0.9595859496
   65      N       1.9206115506    -2.1381262003    -1.1197981966
   66      N       3.9127590851    -0.4456365668     2.0759478886
   67      C       1.9695855101    -0.9109567454     0.9371302612
   68      C       1.2423436341    -1.4920656193    -0.1216056504
   69      S       2.6485624431     0.2277259256     2.8582929558
   70      N       1.3758134580    -0.2742695218     1.9525735778
   71      C      -0.1971651769    -1.7039878780    -0.1089037168
   72      S      -1.2724595764    -1.5303879062     1.2426964476
   73      C      -0.9106498983    -1.8373302037    -1.2968133836
   74      C      -2.6850467609    -1.8528319057     0.2827040969
   75      S      -0.4602858192    -2.0740477733    -2.9733031654
   76      C      -2.3015256612    -1.9890580896    -1.0502707689
   77      C      -3.9683773988    -1.8048755671     0.7950083654
   78      C      -2.1755280084    -2.2409341604    -3.3771932078
   79      C      -2.9866845379    -2.1199328905    -2.2802821916
   80      N      -4.2009984401    -1.1974107263     1.9133642650
   81      S      -5.1224414219    -3.0755852664     0.2979187449
   82      C      -5.4560921557    -1.6462365303     2.3402567137
   83      C      -5.9895712480    -2.7006618064     1.6425645213
   84      C       9.7449224933    -2.5923316242    -0.6118988910
   85      H       8.5225452519    -0.5808475415     0.8541330543
   86      H       6.1578839381    -0.1077741918     0.9338041105
   87      H       5.4588785283    -4.0075648273    -0.8189909250
   88      H       3.7514058475    -2.7377158727    -1.8573139369
   89      H      -2.5159245960    -2.3345190185    -4.3997620502
   90      H      -4.0570760198    -2.2699079208    -2.1958868960
   91      H      -5.7785601659    -1.2643160655     3.3001031290
   92      H      -6.8806971764    -3.2453503996     1.9270674494
   93      H       9.9817646594    -3.6396099427    -0.8355815056
   94      C      10.7537688149    -2.0528923343     0.4357653453
   95      H       9.8948411980    -2.0681529821    -1.5639257462
   96      H      10.7299796691    -2.5622332985     1.4066118104
   97      H      10.4424876534    -1.0278777111     0.6704098867
   98      C      12.1544559229    -2.0632599173    -0.0306745102
   99      H      12.5503264820    -3.0822821948    -0.1205304967
  100      C      12.9027718498    -1.3291713155     1.1312025050
  101      H      12.3277385772    -1.5949680223    -1.0079758060
  102      H      12.5792080786    -1.6580369386     2.1264175008
  103      H      12.6732241158    -0.2614035915     1.0286797004
  104      C      14.4093479431    -1.5163446405     0.9044942752
  105      H      14.6350991548    -2.5886348936     0.9672159096
  106      C      15.3572888212    -0.7518646617     1.8146368210
  107      H      14.6515870082    -1.2904477831    -0.1411858122
  108      H      16.3756313769    -1.1228262066     1.6431726221
  109      H      15.0873091392    -0.8361834517     2.8744628978
  110      H      15.3801766807     0.3325992704     1.6527970058
 ----------------------------------------------------------------
 Molecular Point Group                 C1    NOp =  1
 Largest Abelian Subgroup              C1    NOp =  1
 Nuclear Repulsion Energy = 12450.4119546966 hartrees
 There are      270 alpha and      270 beta electrons
 Requested basis set is 6-31G(d,p)
 There are 406 shells and 1262 basis functions

 Total QAlloc Memory Limit  20000 MB
 Mega-Array Size      4888 MB
 MEM_STATIC part      5000 MB
 A cutoff of  1.0D-08 yielded  15466 shell pairs
 There are    166376 function pairs
 
 -------------------------------------------------------
 OpenMP Integral Computing Module                       
 Release: version 1.0, May 2013, Q-Chem Inc. Pittsburgh 
 -------------------------------------------------------
 Integral Job Info:
 Integral job number is                      11
 Integral operator is                         1
 short-range coefficients                     0
 long-range coefficients              100000000
 Omega coefficients                           0
 if combine SR and LR in K                    0
 Integral screening is                        0
 Integral computing path is                   2
 max size of driver memory is            800000
 size of driver memory is                593474
 size of scratch memory is             15166112
 max col of scratch BK array               1296
 max len of scratch array in speh3          155
 max len of scratch index in speh4           18
 max int batch size is                      520
 min int batch size is                       52
 fixed nKL is                                52
 max L of basis functions is                  2
 order of int derivative is                   0
 number of shells is                        406
 number of basis is                        1262
 number of cartesian basis is              1262
 number of contracted shell pairs         15466
 number of primitive shell pairs          48040
 maxK2 (contraction) of shell pair           36
 max number of K2 of shell pair               1
 max number of CS2 of shell pair           1788
 max number of PS2 of shell pair           9612
 mem total for path MDJ                  378136
 -------------------------------------------------------
 Smallest overlap matrix eigenvalue = 3.82E-04

 Scale SEOQF with 1.000000e-02/1.000000e-02/1.000000e-01

 Standard Electronic Orientation quadrupole field applied
 Nucleus-field energy     =    -0.0000000713 hartrees
 Guess from superposition of atomic densities
 Warning:  Energy on first SCF cycle will be non-variational
 A restricted hybrid HF-DFT SCF calculation will be
 performed using Pulay DIIS extrapolation
 Exchange:     0.2000 Hartree-Fock + 0.0800 Slater + 0.7200 B88
 Correlation:  0.1900 VWN1RPA + 0.8100 LYP
 Using SG-1 standard quadrature grid
 SCF converges when DIIS error is below 1.0E-05
 using 16 threads for integral computing 
 -------------------------------------------------------
 OpenMP BLAS3 based DFT computing Module                
 Release: version 1.0, May 2013, Q-Chem Inc. Pittsburgh 
 -------------------------------------------------------
 ---------------------------------------
  Cycle       Energy         DIIS Error
 ---------------------------------------
    1   -5680.1102840167      2.15E-02
    2   -5662.4956076174      2.13E-03
    3   -5661.2742243075      3.18E-03
    4   -5663.3682463418      7.34E-04
    5   -5663.4584679678      3.40E-04
    6   -5663.4733807325      2.02E-04
    7   -5663.4805325243      6.95E-05
    8   -5663.4813388707      2.98E-05
    9   -5663.4815144402      1.04E-05
   10   -5663.4815381157      2.98E-06 Convergence criterion met
 ---------------------------------------
 SCF time:  CPU 1202.99 s  wall 109.98 s
 SCF   energy in the final basis set = -5663.4815381157
 Total energy in the final basis set = -5663.4815381157
 
 --------------------------------------------------------------
 
                    Orbital Energies (a.u.)
 --------------------------------------------------------------
 
 Alpha MOs
 -- Occupied --
-88.982 -88.981 -88.936 -88.921 -88.919 -88.919 -88.909 -88.907
-14.382 -14.380 -14.378 -14.371 -14.348 -14.345 -14.344 -14.342
-14.332 -14.323 -10.275 -10.262 -10.257 -10.253 -10.249 -10.248
-10.246 -10.244 -10.242 -10.239 -10.239 -10.237 -10.236 -10.235
-10.235 -10.230 -10.230 -10.229 -10.228 -10.228 -10.226 -10.225
-10.225 -10.224 -10.223 -10.222 -10.222 -10.222 -10.218 -10.214
-10.212 -10.206 -10.201 -10.200 -10.200 -10.199 -10.199 -10.195
-10.191 -10.191 -10.184 -10.180 -10.180 -10.178 -10.177 -10.177
-10.175 -10.172 -10.171 -10.164  -8.037  -8.036  -7.996  -7.985
 -7.978  -7.978  -7.966  -7.966  -6.002  -6.001  -5.997  -5.996
 -5.995  -5.995  -5.960  -5.957  -5.953  -5.948  -5.945  -5.942
 -5.942  -5.941  -5.939  -5.938  -5.935  -5.934  -5.931  -5.930
 -5.928  -5.926  -5.923  -5.922  -1.032  -1.032  -0.977  -0.967
 -0.959  -0.951  -0.944  -0.922  -0.908  -0.908  -0.897  -0.896
 -0.844  -0.833  -0.826  -0.824  -0.823  -0.816  -0.807  -0.803
 -0.800  -0.797  -0.795  -0.790  -0.784  -0.774  -0.766  -0.762
 -0.749  -0.747  -0.740  -0.737  -0.720  -0.713  -0.710  -0.704
 -0.691  -0.690  -0.673  -0.668  -0.653  -0.651  -0.639  -0.638
 -0.636  -0.633  -0.624  -0.622  -0.606  -0.604  -0.599  -0.597
 -0.594  -0.592  -0.586  -0.582  -0.578  -0.574  -0.574  -0.561
 -0.543  -0.542  -0.538  -0.534  -0.521  -0.517  -0.514  -0.513
 -0.505  -0.500  -0.494  -0.493  -0.491  -0.481  -0.477  -0.472
 -0.470  -0.469  -0.466  -0.464  -0.461  -0.456  -0.452  -0.444
 -0.441  -0.438  -0.436  -0.436  -0.434  -0.432  -0.430  -0.430
 -0.429  -0.428  -0.425  -0.421  -0.414  -0.412  -0.412  -0.411
 -0.409  -0.404  -0.403  -0.398  -0.396  -0.395  -0.395  -0.393
 -0.392  -0.389  -0.386  -0.384  -0.382  -0.381  -0.377  -0.376
 -0.375  -0.375  -0.372  -0.370  -0.370  -0.359  -0.356  -0.354
 -0.351  -0.350  -0.350  -0.347  -0.345  -0.342  -0.340  -0.339
 -0.338  -0.336  -0.333  -0.330  -0.327  -0.325  -0.324  -0.323
 -0.318  -0.313  -0.309  -0.305  -0.302  -0.298  -0.296  -0.294
 -0.293  -0.292  -0.291  -0.287  -0.286  -0.284  -0.283  -0.278
 -0.270  -0.269  -0.263  -0.260  -0.257  -0.247  -0.244  -0.244
 -0.240  -0.238  -0.227  -0.224  -0.195  -0.186
 -- Virtual --
 -0.110  -0.105  -0.068  -0.066  -0.038  -0.033  -0.033  -0.024
 -0.018  -0.017  -0.016  -0.009  -0.006  -0.004   0.005   0.008
  0.013   0.017   0.020   0.025   0.033   0.035   0.038   0.041
  0.049   0.050   0.059   0.066   0.076   0.078   0.087   0.088
  0.091   0.093   0.098   0.103   0.105   0.109   0.109   0.112
  0.112   0.113   0.116   0.118   0.120   0.124   0.126   0.127
  0.128   0.131   0.134   0.138   0.138   0.141   0.143   0.145
  0.148   0.149   0.151   0.154   0.157   0.163   0.166   0.167
  0.171   0.173   0.174   0.175   0.177   0.178   0.181   0.182
  0.182   0.185   0.188   0.192   0.197   0.197   0.198   0.200
  0.202   0.203   0.205   0.207   0.211   0.214   0.215   0.217
  0.223   0.227   0.228   0.230   0.234   0.236   0.238   0.241
  0.244   0.246   0.247   0.250   0.253   0.254   0.257   0.260
  0.262   0.264   0.266   0.269   0.271   0.275   0.277   0.279
  0.282   0.285   0.293   0.295   0.297   0.301   0.304   0.307
  0.311   0.314   0.317   0.320   0.322   0.328   0.329   0.333
  0.334   0.335   0.337   0.340   0.342   0.343   0.347   0.349
  0.351   0.358   0.361   0.365   0.370   0.374   0.375   0.379
  0.382   0.382   0.385   0.388   0.394   0.397   0.403   0.410
  0.417   0.420   0.423   0.429   0.430   0.435   0.440   0.443
  0.448   0.450   0.451   0.459   0.460   0.464   0.468   0.472
  0.473   0.473   0.480   0.483   0.486   0.489   0.497   0.498
  0.504   0.506   0.508   0.511   0.512   0.514   0.517   0.519
  0.522   0.524   0.526   0.530   0.531   0.533   0.534   0.535
  0.537   0.540   0.543   0.546   0.547   0.549   0.552   0.552
  0.557   0.559   0.561   0.562   0.564   0.564   0.567   0.568
  0.573   0.574   0.578   0.581   0.583   0.585   0.587   0.589
  0.590   0.592   0.595   0.598   0.600   0.600   0.603   0.605
  0.606   0.607   0.610   0.612   0.613   0.614   0.617   0.617
  0.619   0.622   0.625   0.626   0.631   0.633   0.636   0.636
  0.639   0.643   0.644   0.650   0.652   0.652   0.658   0.661
  0.661   0.663   0.667   0.669   0.671   0.675   0.679   0.683
  0.684   0.688   0.691   0.693   0.697   0.699   0.703   0.706
  0.707   0.708   0.713   0.714   0.718   0.720   0.723   0.726
  0.728   0.732   0.735   0.742   0.744   0.750   0.750   0.754
  0.755   0.756   0.762   0.762   0.763   0.765   0.768   0.771
  0.775   0.781   0.782   0.785   0.787   0.790   0.792   0.796
  0.798   0.802   0.805   0.807   0.810   0.812   0.813   0.814
  0.819   0.820   0.821   0.825   0.827   0.829   0.830   0.832
  0.833   0.834   0.837   0.839   0.841   0.843   0.844   0.844
  0.845   0.847   0.848   0.850   0.853   0.854   0.854   0.857
  0.864   0.867   0.870   0.871   0.872   0.876   0.877   0.877
  0.880   0.884   0.885   0.887   0.889   0.890   0.892   0.894
  0.897   0.902   0.905   0.908   0.909   0.911   0.913   0.914
  0.914   0.918   0.918   0.923   0.927   0.929   0.930   0.931
  0.932   0.933   0.935   0.937   0.938   0.942   0.945   0.950
  0.950   0.955   0.959   0.962   0.966   0.968   0.968   0.971
  0.975   0.976   0.979   0.981   0.982   0.982   0.988   0.989
  0.990   0.993   0.998   1.000   1.005   1.006   1.009   1.013
  1.015   1.015   1.020   1.021   1.023   1.029   1.034   1.035
  1.038   1.044   1.051   1.053   1.059   1.060   1.061   1.063
  1.064   1.066   1.070   1.072   1.072   1.074   1.078   1.085
  1.088   1.091   1.096   1.099   1.103   1.108   1.110   1.120
  1.124   1.126   1.134   1.137   1.140   1.143   1.148   1.150
  1.159   1.165   1.167   1.169   1.173   1.177   1.186   1.191
  1.197   1.202   1.206   1.213   1.214   1.219   1.224   1.229
  1.236   1.238   1.242   1.247   1.247   1.256   1.264   1.268
  1.273   1.274   1.277   1.280   1.285   1.289   1.298   1.303
  1.304   1.309   1.312   1.317   1.320   1.321   1.329   1.332
  1.336   1.337   1.345   1.346   1.351   1.353   1.359   1.362
  1.367   1.372   1.380   1.382   1.387   1.396   1.400   1.405
  1.407   1.417   1.422   1.424   1.428   1.433   1.435   1.438
  1.445   1.446   1.454   1.458   1.459   1.471   1.474   1.481
  1.484   1.487   1.491   1.497   1.500   1.504   1.505   1.516
  1.531   1.535   1.536   1.549   1.554   1.558   1.561   1.567
  1.569   1.582   1.585   1.592   1.594   1.602   1.611   1.614
  1.621   1.624   1.629   1.635   1.641   1.645   1.649   1.655
  1.666   1.670   1.671   1.674   1.676   1.678   1.683   1.685
  1.687   1.690   1.698   1.699   1.701   1.704   1.706   1.716
  1.723   1.724   1.727   1.734   1.738   1.742   1.743   1.753
  1.760   1.763   1.765   1.769   1.773   1.776   1.780   1.783
  1.785   1.788   1.790   1.798   1.802   1.806   1.814   1.817
  1.818   1.820   1.830   1.832   1.837   1.837   1.845   1.846
  1.850   1.851   1.859   1.861   1.862   1.870   1.876   1.879
  1.881   1.882   1.883   1.886   1.889   1.890   1.895   1.899
  1.905   1.908   1.912   1.915   1.920   1.923   1.925   1.925
  1.932   1.933   1.944   1.945   1.950   1.952   1.958   1.964
  1.965   1.966   1.970   1.973   1.981   1.991   1.994   1.996
  1.998   2.003   2.008   2.009   2.011   2.022   2.027   2.028
  2.031   2.033   2.041   2.047   2.052   2.058   2.062   2.066
  2.069   2.070   2.071   2.083   2.083   2.096   2.099   2.104
  2.107   2.111   2.113   2.117   2.121   2.126   2.127   2.129
  2.135   2.135   2.142   2.148   2.150   2.155   2.159   2.163
  2.164   2.168   2.171   2.177   2.181   2.182   2.185   2.187
  2.188   2.192   2.192   2.200   2.206   2.207   2.215   2.217
  2.228   2.234   2.236   2.237   2.243   2.247   2.248   2.248
  2.250   2.253   2.258   2.267   2.273   2.276   2.282   2.285
  2.287   2.290   2.291   2.295   2.299   2.303   2.304   2.305
  2.315   2.317   2.319   2.322   2.328   2.331   2.336   2.341
  2.343   2.347   2.348   2.352   2.353   2.360   2.361   2.367
  2.370   2.371   2.374   2.375   2.378   2.384   2.385   2.390
  2.394   2.399   2.404   2.406   2.410   2.415   2.420   2.422
  2.425   2.434   2.436   2.438   2.441   2.443   2.446   2.450
  2.454   2.456   2.457   2.458   2.466   2.467   2.469   2.477
  2.481   2.485   2.486   2.490   2.494   2.497   2.501   2.501
  2.507   2.513   2.516   2.520   2.522   2.526   2.527   2.528
  2.533   2.537   2.542   2.546   2.548   2.556   2.561   2.563
  2.570   2.573   2.585   2.590   2.591   2.594   2.598   2.608
  2.610   2.610   2.613   2.623   2.626   2.630   2.635   2.639
  2.652   2.652   2.659   2.665   2.668   2.669   2.671   2.672
  2.674   2.675   2.685   2.686   2.688   2.694   2.697   2.705
  2.705   2.710   2.716   2.722   2.732   2.740   2.747   2.752
  2.754   2.756   2.766   2.767   2.778   2.781   2.781   2.791
  2.796   2.802   2.811   2.814   2.821   2.824   2.825   2.835
  2.838   2.842   2.846   2.857   2.863   2.871   2.873   2.874
  2.876   2.879   2.885   2.890   2.898   2.901   2.908   2.911
  2.913   2.922   2.924   2.925   2.930   2.935   2.938   2.941
  2.946   2.956   2.957   2.980   2.994   3.002   3.014   3.022
  3.039   3.039   3.049   3.060   3.083   3.107   3.111   3.129
  3.141   3.175   3.192   3.192   3.197   3.204   3.241   3.246
  3.253   3.254   3.254   3.263   3.274   3.278   3.285   3.288
  3.288   3.299   3.303   3.306   3.309   3.316   3.322   3.336
  3.347   3.355   3.365   3.384   3.387   3.395   3.412   3.430
  3.445   3.451   3.466   3.486   3.487   3.499   3.528   3.545
  3.546   3.549   3.555   3.565   3.575   3.588   3.597   3.597
  3.608   3.625   3.686   3.760   3.851   3.853   3.911   3.938
  3.939   3.950   3.955   3.961   3.966   3.973   3.995   3.998
  4.030   4.035   4.079   4.088   4.091   4.102   4.106   4.116
  4.121   4.134   4.148   4.160   4.167   4.182   4.191   4.199
  4.210   4.221   4.237   4.258   4.262   4.268   4.269   4.277
  4.292   4.301   4.314   4.321   4.358   4.369   4.380   4.391
  4.408   4.420   4.439   4.455   4.465   4.474   4.484   4.490
  4.498   4.524   4.530   4.547   4.574   4.637   4.640   4.659
  4.674   4.690   4.698   4.710   4.729   4.783   4.785   4.813
 --------------------------------------------------------------
 
          Ground-State Mulliken Net Atomic Charges

     Atom                 Charge (a.u.)
  ----------------------------------------
      1 C                     0.295902
      2 C                    -0.126536
      3 N                    -0.502419
      4 C                    -0.105323
      5 C                     0.084222
      6 C                     0.059090
      7 C                     0.047085
      8 C                     0.064081
      9 C                     0.218683
     10 N                    -0.516531
     11 N                    -0.551560
     12 C                     0.215258
     13 C                     0.319337
     14 S                     0.597436
     15 N                    -0.565066
     16 C                    -0.228865
     17 S                     0.356636
     18 C                    -0.134779
     19 C                    -0.213716
     20 S                     0.302313
     21 C                     0.144557
     22 C                     0.067560
     23 C                    -0.315366
     24 C                    -0.095465
     25 N                    -0.438698
     26 S                     0.261805
     27 C                     0.135644
     28 C                    -0.300907
     29 C                    -0.232859
     30 H                     0.093790
     31 H                     0.094012
     32 H                     0.129247
     33 H                     0.103454
     34 H                     0.128669
     35 H                     0.107288
     36 H                     0.136197
     37 H                     0.119235
     38 H                     0.123551
     39 C                    -0.183527
     40 H                     0.096588
     41 H                     0.086078
     42 H                     0.093855
     43 C                    -0.185192
     44 H                     0.084754
     45 C                    -0.168371
     46 H                     0.132326
     47 H                     0.076715
     48 H                     0.098328
     49 C                    -0.184385
     50 H                     0.091758
     51 C                    -0.311985
     52 H                     0.086968
     53 H                     0.100396
     54 H                     0.088567
     55 H                     0.115066
     56 C                     0.277127
     57 C                    -0.122463
     58 N                    -0.480447
     59 C                    -0.055331
     60 C                     0.080311
     61 C                     0.016486
     62 C                     0.044707
     63 C                     0.052929
     64 C                     0.205069
     65 N                    -0.511193
     66 N                    -0.547985
     67 C                     0.209852
     68 C                     0.280689
     69 S                     0.606360
     70 N                    -0.563147
     71 C                    -0.212142
     72 S                     0.361726
     73 C                    -0.116016
     74 C                    -0.224624
     75 S                     0.306301
     76 C                     0.134364
     77 C                     0.063828
     78 C                    -0.319196
     79 C                    -0.063988
     80 N                    -0.424139
     81 S                     0.280604
     82 C                     0.090257
     83 C                    -0.278226
     84 C                    -0.231845
     85 H                     0.083057
     86 H                     0.118830
     87 H                     0.103441
     88 H                     0.101561
     89 H                     0.126266
     90 H                     0.095888
     91 H                     0.110947
     92 H                     0.144175
     93 H                     0.118377
     94 C                    -0.181683
     95 H                     0.111241
     96 H                     0.104875
     97 H                     0.091681
     98 C                    -0.172555
     99 H                     0.096893
    100 C                    -0.176240
    101 H                     0.094371
    102 H                     0.094638
    103 H                     0.093915
    104 C                    -0.175580
    105 H                     0.091883
    106 C                    -0.320284
    107 H                     0.090961
    108 H                     0.100201
    109 H                     0.099275
    110 H                     0.099098
  ----------------------------------------
  Sum of atomic charges =     0.000000

 -----------------------------------------------------------------
                    Cartesian Multipole Moments
 -----------------------------------------------------------------
    Charge (ESU x 10^10)
                 0.0000
    Dipole Moment (Debye)
         X       0.6105      Y       1.4803      Z      -1.5809
       Tot       2.2501
    Quadrupole Moments (Debye-Ang)
        XX    -393.3357     XY      32.5733     YY    -447.9252
        XZ      14.1107     YZ       3.8914     ZZ    -428.8461
    Octopole Moments (Debye-Ang^2)
       XXX     153.0457    XXY      74.2878    XYY     -36.3472
       YYY      76.7974    XXZ     -85.7856    XYZ       9.3411
       YYZ      64.6829    XZZ     -53.1501    YZZ       8.6986
       ZZZ     -38.8101
    Hexadecapole Moments (Debye-Ang^3)
      XXXX -101357.3853   XXXY    1437.7372   XXYY  -19566.6673
      XYYY     632.6654   YYYY  -15215.1601   XXXZ     799.2182
      XXYZ     132.9935   XYYZ     104.5011   YYYZ     260.1031
      XXZZ  -18408.5031   XYZZ     160.8544   YYZZ   -3809.0635
      XZZZ      48.1705   YZZZ     147.1404   ZZZZ   -7621.5938
 -----------------------------------------------------------------
Archival summary:
1\1\mn426\SP\ProcedureUnspecified\6-31G**\8105042\afmv_a\SatOct608:09:582018SatOct608:09:582018\0\\#,ProcedureUnspecified,6-31G**,\\0,1\S\C,1,1.73586\C,2,1.39211,1,110.886\C,3,1.42068,2,111.341,1,8.51124,0\C,4,1.39372,3,115.147,2,-5.62643,0\C,5,1.38264,4,127.82,3,-172.363,0\N,6,1.29377,5,120.229,4,153.99,0\C,7,1.39962,6,105.921,5,163.368,0\H,8,1.0822,7,115.123,6,-177.031,0\C,8,1.37229,7,116.1,6,-9.77734,0\H,10,1.08247,8,124.963,7,-171.384,0\C,4,1.41404,3,109.47,2,-179.96,0\H,12,1.08414,4,115.055,3,-178.33,0\C,12,1.36961,4,114.7,3,-7.78821,0\H,14,1.08179,12,125.333,4,178.973,0\C,2,1.45508,1,127.233,3,-168.625,0\N,16,1.36888,2,115.329,1,-157.129,0\C,17,1.32918,16,118.781,2,166.481,0\H,18,1.08866,17,116.767,16,179.751,0\C,16,1.40978,2,124.32,1,10.0085,0\N,20,1.33756,16,122.503,2,12.723,0\C,20,1.36938,16,118.95,2,-164.512,0\N,22,1.39546,20,112.569,16,178.857,0\C,18,1.41363,17,128.232,16,-2.39508,0\C,24,1.5012,18,123.73,17,-173.439,0\C,25,1.3961,24,121.004,18,-147.076,0\H,26,1.08662,25,124.08,24,4.35367,0\C,26,1.36596,25,119.619,24,173.246,0\H,28,1.08602,26,122.069,25,-176.677,0\C,28,1.41101,26,119.294,25,-4.95,0\N,30,1.32441,28,119.964,26,15.5621,0\C,31,1.32313,30,120.811,28,-12.1287,0\H,32,1.0882,31,120.572,30,-172.455,0\C,30,1.5258,28,122.969,26,-168.755,0\H,34,1.09678,30,111.76,28,-158.674,0\H,34,1.09708,30,106.509,28,87.8248,0\C,34,1.55125,30,114.967,28,-33.4321,0\H,37,1.0966,34,114.979,30,-64.2109,0\H,37,1.09664,34,106.555,30,50.1846,0\C,37,1.47635,34,113.653,30,171.61,0\H,40,1.0969,37,112.012,34,69.7417,0\H,40,1.09747,37,115.35,34,-50.8948,0\C,40,1.56487,37,102.463,34,-173.687,0\H,43,1.09695,40,113.074,37,-43.7446,0\H,43,1.09696,40,106.688,37,75.27,0\C,43,1.53499,40,107.607,37,-168.946,0\H,46,1.09688,43,109.417,40,-47.6002,0\H,46,1.09759,43,108.213,40,62.9283,0\C,46,1.52032,43,117.532,40,-172.887,0\H,49,1.09671,46,114.954,43,70.1259,0\H,49,1.09692,46,112.724,43,-47.4169,0\H,49,1.09728,46,108.368,43,-170.29,0\S,23,1.63208,22,103.846,20,2.02145,0\S,10,1.64334,8,112.717,7,8.40115,0\S,3,1.75199,2,134.246,1,178.566,0\H,11,2.52717,10,110.927,8,-81.2034,0\C,56,1.09665,11,124.559,10,-152.324,0\H,57,1.09647,56,111.006,11,-13.5675,0\C,57,1.53002,56,110.267,11,116.276,0\H,59,1.09713,57,114.164,56,171.886,0\H,59,1.09732,57,110.107,56,-83.324,0\C,57,1.56707,56,107.115,11,-127.751,0\H,62,1.09676,57,111.522,56,-63.0567,0\H,62,1.09724,57,103.529,56,-173.76,0\C,62,1.58567,57,114.652,56,59.8665,0\H,65,1.09731,62,108.379,57,158.541,0\H,65,1.09754,62,117.827,57,40.8964,0\C,65,1.52051,62,107.7,57,-83.7867,0\H,68,1.09625,65,117.653,62,-40.2438,0\H,68,1.09704,65,109.743,62,-159.59,0\H,68,1.09748,65,110.464,62,91.1164,0\C,59,1.64321,57,117.035,56,41.8457,0\H,72,1.09645,59,115.808,57,64.8058,0\H,72,1.09663,59,108.417,57,-179.542,0\C,72,1.54147,59,117.313,57,-58.4469,0\N,75,1.34788,72,123.291,59,68.3154,0\C,76,1.3955,75,121.411,72,174.368,0\H,77,1.08866,76,111.682,75,179.153,0\C,75,1.4139,72,116.212,59,-114.716,0\H,79,1.0852,75,123.52,72,0.226537,0\C,79,1.45844,75,117.671,72,-172.979,0\H,81,1.08647,79,124.357,75,171.365,0\C,81,1.391,79,123.928,75,-4.05403,0\C,83,1.52134,81,124.532,79,-174.457,0\C,84,1.41828,83,125.328,81,27.9486,0\H,85,1.08899,84,118.9,83,-5.74474,0\N,85,1.32038,84,124.419,83,162.143,0\C,87,1.35332,85,121.932,84,12.3794,0\C,88,1.41529,87,117.481,85,7.00743,0\N,89,1.36193,88,129.229,87,172.864,0\C,89,1.38942,88,117.969,87,-16.4201,0\N,91,1.31407,89,115.675,88,-178.161,0\C,88,1.46616,87,118.363,85,173.469,0\C,93,1.39753,88,126.902,87,2.39827,0\C,94,1.42111,93,115.281,88,-176.273,0\C,95,1.36648,94,115.427,93,-6.49067,0\C,95,1.39345,94,110.348,93,171.508,0\H,97,1.0845,95,116.913,94,-163.08,0\C,97,1.41366,95,114.663,94,-2.64531,0\H,99,1.08178,97,127.187,95,-166.982,0\C,96,1.49106,95,122.747,94,179.813,0\N,101,1.30864,96,114.225,95,-156.183,0\C,102,1.39902,101,113.068,96,-176.737,0\H,103,1.08213,102,131.208,101,177.861,0\C,103,1.39436,102,107.717,101,0.0316598,0\H,105,1.08179,103,126.739,102,-177.655,0\S,92,1.63848,91,107.038,89,-0.987728,0\S,96,1.72129,95,107.531,94,6.78027,0\S,101,1.73594,96,124.135,95,32.7289,0\S,94,1.78955,93,127.904,88,-8.84602,0\\\@

 Total job time:  113.86s(wall), 1214.96s(cpu) 
 Sat Oct  6 08:09:58 2018

        *************************************************************
        *                                                           *
        *  Thank you very much for using Q-Chem.  Have a nice day.  *
        *                                                           *
        *************************************************************


