
Running Job 1 of 1 ./8/4.qcin
qchem ./8/4.qcin_13120.0 /tmpu/cab_g/afmv_a/scratch_qchem/qchem13120/ 1
/tmpu/appuserlic/qchem4.4/serial-multicore/exe/qcprog.exe_s ./8/4.qcin_13120.0 /tmpu/cab_g/afmv_a/scratch_qchem/qchem13120/
Check license passed

                  Welcome to Q-Chem
     A Quantum Leap Into The Future Of Chemistry


 Q-Chem 4.4, Q-Chem, Inc., Pleasanton, CA (2016)

 Y. Shao,  Z. Gan,  E. Epifanovsky,  A. T. B. Gilbert,  M. Wormit,  
 J. Kussmann,  A. W. Lange,  A. Behn,  J. Deng,  X. Feng,  D. Ghosh,  
 M. Goldey,  P. R. Horn,  L. D. Jacobson,  I. Kaliman,  F. Rob,  
 R. Z. Khaliullin,  T. Kus,  A. Landau,  J. Liu,  E. I. Proynov,  Y. M. Rhee,  
 R. M. Richard,  M. A. Rohrdanz,  R. P. Steele,  E. J. Sundstrom,  
 H. L. Woodcock III,  P. M. Zimmerman,  D. Zuev,  B. Albrecht,  E. Alguire,  
 B. Austin,  S. A. Baeppler,  G. J. O. Beran,  Y. A. Bernard,  E. Berquist,  
 K. Brandhorst,  K. B. Bravaya,  S. T. Brown,  D. Casanova,  C.-M. Chang,  
 Y. Chen,  S. H. Chien,  K. D. Closser,  M. P. Coons,  D. L. Crittenden,  
 S. Dasgupta,  M. Diedenhofen,  R. A. DiStasio Jr.,  H. Do,  A. D. Dutoi,  
 R. G. Edgar,  P.-T. Fang,  S. Fatehi,  Q. Feng,  L. Fusti-Molnar,  
 A. Ghysels,  A. Golubeva-Zadorozhnaya,  J. Gomes,  A. Gunina,  
 M. W. D. Hanson-Heine,  P. H. P. Harbach,  A. W. Hauser,  J. E. Herr,  
 E. G. Hohenstein,  Z. C. Holden,  K. Hui,  T.-C. Jagau,  H. Ji,  B. Kaduk,  
 K. Khistyaev,  Jaehoon Kim,  Jihan Kim,  R. A. King,  P. Klunzinger,  
 K. Koh,  D. Kosenkov,  T. Kowalczyk,  C. M. Krauter,  A. Kunitsa,  
 K. U. Lao,  A. Laurent,  K. V. Lawler,  J. Lee,  D. Lefrancois,  S. Lehtola,  
 S. V. Levchenko,  C. Y. Lin,  Y.-S. Lin,  F. Liu,  E. Livshits,  
 R. C. Lochan,  A. Luenser,  P. Manohar,  S. F. Manzer,  S.-P. Mao,  Y. Mao,  
 N. Mardirossian,  A. V. Marenich,  L. A. Martinez-Martinez,  S. A. Maurer,  
 N. J. Mayhall,  J.-M. Mewes,  A. F. Morrison,  K. Nanda,  T. S. Nguyen-Beck,  
 C. M. Oana,  R. Olivares-Amaya,  D. P. O'Neill,  J. A. Parkhill,  
 T. M. Perrine,  R. Peverati,  P. A. Pieniazek,  F. Plasser,  A. Prociuk,  
 D. R. Rehn,  E. Rosta,  N. J. Russ,  N. Sergueev,  S. M. Sharada,  
 S. Sharma,  D. W. Small,  A. Sodt,  T. Stauch,  T. Stein,  D. Stuck,  
 Y.-C. Su,  A. J. W. Thom,  T. Tsuchimochi,  L. Vogt,  O. Vydrov,  T. Wang,  
 M. A. Watson,  J. Wenzel,  A. White,  C. F. Williams,  V. Vanovschi,  
 K. Yao,  S. Yeganeh,  S. R. Yost,  Z.-Q. You,  I. Y. Zhang,  X. Zhang,  
 Y. Zhao,  B. R. Brooks,  G. K. L. Chan,  D. M. Chipman,  C. J. Cramer,  
 W. A. Goddard III,  M. S. Gordon,  W. J. Hehre,  A. Klamt,  
 H. F. Schaefer III,  M. W. Schmidt,  C. D. Sherrill,  D. G. Truhlar,  
 A. Warshel,  X. Xu,  A. Aspuru-Guzik,  R. Baer,  A. T. Bell,  N. A. Besley,  
 J.-D. Chai,  A. Dreuw,  B. D. Dunietz,  T. R. Furlani,  S. R. Gwaltney,  
 C.-P. Hsu,  Y. Jung,  J. Kong,  D. S. Lambrecht,  W. Liang,  C. Ochsenfeld,  
 V. A. Rassolov,  L. V. Slipchenko,  J. E. Subotnik,  T. Van Voorhis,  
 J. M. Herbert,  A. I. Krylov,  P. M. W. Gill,  M. Head-Gordon

 Contributors to earlier versions of Q-Chem not listed above: 
 R. D. Adamson,  J. Baker,  E. F. C. Byrd,  A. K. Chakraborty,  C.-L. Cheng,  
 H. Dachsel,  R. J. Doerksen,  G. Hawkins,  A. Heyden,  S. Hirata,  
 G. Kedziora,  F. J. Keil,  C. Kelley,  P. P. Korambath,  W. Kurlancheek,  
 A. M. Lee,  M. S. Lee,  D. Liotard,  I. Lotan,  P. E. Maslen,  N. Nair,  
 D. Neuhauser,  R. Olson,  B. Peters,  J. Ritchie,  N. E. Schultz,  
 N. Shenvi,  A. C. Simmonett,  K. S. Thanthiriwatte,  Q. Wu,  W. Zhang

 Please cite Q-Chem as follows:
 Y. Shao et al., Mol. Phys. 113, 184-215 (2015)
 DOI: 10.1080/00268976.2014.952696

 Q-Chem 4.4.2 for Intel X86 Linux

 Parts of Q-Chem use Armadillo 5.200.1 (Boston Tea Smuggler).
 http://arma.sourceforge.net/

 Q-Chem begins on Sat Oct  6 08:43:53 2018  

Host: 
0

     Scratch files written to /tmpu/cab_g/afmv_a/scratch_qchem/qchem13120//
 Dec716 11556_ 22328  22283 4050   
Processing $rem in /tmpu/appuserlic/qchem4.4/serial-multicore/config/preferences.
 MEM_TOTAL  2000 
FILE_GEOM_ORG=        593

Checking the input file for inconsistencies... 	...done.

--------------------------------------------------------------
User input:
--------------------------------------------------------------
$comment
SP
$end

$rem
MEM_STATIC 5000
MEM_TOTAL 20000
JOBTYPE SP
EXCHANGE B3LYP
BASIS 6-31g(d,p)
$end

$molecule
0 1
C         -23.925000     19.608000     -9.187000
C         -22.692000     20.070000     -8.780000
N         -24.410000     18.349000     -8.891000
C         -21.878000     19.270000     -7.973000
C         -23.622000     17.559000     -8.109000
C         -22.341000     17.975000     -7.638000
C         -21.589000     16.994000     -6.721000
C         -21.642000     15.611000     -7.001000
C         -20.871000     17.347000     -5.549000
N         -20.948000     14.688000     -6.239000
N         -20.712000     18.638000     -5.190000
C         -20.155000     16.474000     -4.791000
C         -20.217000     15.090000     -5.144000
S         -19.775000     18.601000     -3.835000
N         -19.488000     17.020000     -3.717000
C         -19.635000     13.977000     -4.382000
S         -19.045000     12.480000     -5.121000
C         -19.561000     13.883000     -2.997000
C         -18.847000     11.735000     -3.605000
S         -20.396000     14.703000     -1.757000
C         -19.178000     12.603000     -2.616000
C         -18.733000     10.363000     -3.310000
C         -20.215000     13.366000     -0.690000
C         -19.472000     12.360000     -1.284000
N         -19.250000      9.512000     -4.229000
S         -17.607000      9.687000     -2.075000
C         -18.885000      8.219000     -3.862000
C         -18.071000      8.121000     -2.692000
C         -24.850000     20.435000    -10.045000
H         -22.386000     21.073000     -9.063000
H         -20.883000     19.577000     -7.664000
H         -24.087000     16.637000     -7.763000
H         -22.181000     15.194000     -7.851000
H         -20.654000     13.291000      0.296000
H         -19.227000     11.464000     -0.725000
H         -19.315000      7.390000     -4.408000
H         -17.665000      7.266000     -2.168000
H         -24.368000     21.389000    -10.292000
C         -26.219000     20.711000     -9.411000
H         -25.108000     19.895000    -10.964000
H         -25.980000     21.184000     -8.450000
H         -26.743000     19.780000     -9.161000
C         -27.149000     21.643000    -10.261000
H         -26.588000     22.524000    -10.595000
C         -28.483000     22.032000     -9.614000
H         -27.462000     21.021000    -11.110000
H         -28.259000     22.422000     -8.613000
H         -29.015000     21.079000     -9.509000
C         -29.332000     23.008000    -10.389000
H         -28.799000     23.937000    -10.628000
C         -30.650000     23.275000     -9.704000
H         -29.432000     22.580000    -11.393000
H         -31.296000     22.432000     -9.429000
H         -31.227000     23.812000    -10.467000
H         -30.566000     23.884000     -8.796000
C         -16.927000     26.398000      0.015000
C         -17.966000     25.543000      0.551000
N         -15.968000     25.963000     -0.793000
C         -17.910000     24.162000      0.216000
C         -15.917000     24.643000     -1.015000
C         -16.879000     23.648000     -0.590000
C         -16.777000     22.161000     -0.856000
C         -17.297000     21.174000      0.057000
C         -16.066000     21.577000     -1.967000
N         -17.218000     19.828000     -0.150000
N         -15.432000     22.405000     -2.819000
C         -15.937000     20.248000     -2.167000
C         -16.466000     19.369000     -1.165000
S         -14.640000     21.374000     -3.854000
N         -15.011000     20.011000     -3.120000
C         -16.443000     17.889000     -1.301000
S         -16.168000     17.145000     -2.882000
C         -16.979000     16.962000     -0.420000
C         -16.343000     15.518000     -2.141000
S         -17.564000     17.180000      1.205000
C         -16.909000     15.633000     -0.918000
C         -15.891000     14.261000     -2.692000
C         -17.663000     15.395000      1.282000
C         -17.252000     14.696000      0.128000
N         -15.953000     14.146000     -3.981000
S         -15.505000     12.822000     -1.796000
C         -15.672000     12.891000     -4.388000
C         -15.245000     12.049000     -3.408000
C         -17.007000     27.916000      0.174000
H         -18.819000     25.890000      1.127000
H         -18.742000     23.505000      0.452000
H         -15.091000     24.358000     -1.664000
H         -17.932000     21.472000      0.890000
H         -18.032000     14.927000      2.185000
H         -17.134000     13.619000      0.088000
H         -15.731000     12.749000     -5.459000
H         -14.909000     11.020000     -3.393000
H         -16.481000     28.341000     -0.690000
C         -16.453000     28.524000      1.406000
H         -18.055000     28.201000      0.023000
H         -16.218000     29.577000      1.207000
H         -15.544000     28.067000      1.816000
C         -17.387000     28.487000      2.627000
H         -18.416000     28.738000      2.341000
C         -16.902000     29.540000      3.704000
H         -17.423000     27.489000      3.080000
H         -16.983000     30.594000      3.412000
H         -15.842000     29.305000      3.858000
C         -17.720000     29.390000      5.017000
H         -17.742000     28.309000      5.202000
C         -19.154000     29.862000      4.694000
H         -17.249000     29.955000      5.831000
H         -19.647000     29.646000      3.738000
H         -19.186000     30.955000      4.776000
H         -19.860000     29.568000      5.480000
$end

--------------------------------------------------------------
 ----------------------------------------------------------------
             Standard Nuclear Orientation (Angstroms)
    I     Atom           X                Y                Z
 ----------------------------------------------------------------
    1      C       1.0737562342     7.7061944478     1.1567646349
    2      C       0.3982506474     6.6912141973     1.7993292568
    3      N       2.2157346653     7.5132034091     0.4040616909
    4      C       0.8291086254     5.3686746083     1.6611430119
    5      C       2.6472956917     6.2280651968     0.2671571410
    6      C       1.9909598543     5.1249468557     0.8902231040
    7      C       2.5642292057     3.7260608406     0.6017197812
    8      C       3.9643195874     3.5563582990     0.5321067776
    9      C       1.7994204761     2.5615370302     0.3321480797
   10      N       4.5363991368     2.3142338922     0.3221997811
   11      N       0.4520704159     2.5790758866     0.4041425504
   12      C       2.3234774293     1.3201616646     0.1485710887
   13      C       3.7481286014     1.2032406223     0.1239234154
   14      S      -0.0208943619     1.0316772618     0.0923336105
   15      N       1.4113787340     0.3087134208    -0.0552165955
   16      C       4.5100096181    -0.0116588852    -0.1949707724
   17      S       6.1031321841    -0.3812939284     0.4836752505
   18      C       4.1596090323    -0.9752452334    -1.1337240835
   19      C       6.3162234491    -1.6993631510    -0.5697812684
   20      S       3.0723617264    -0.9389585668    -2.4466603248
   21      C       5.2164123166    -1.8508526494    -1.3498917763
   22      C       7.5112117899    -2.3528618811    -0.9266387683
   23      C       3.9870618551    -2.1236066006    -3.2944525815
   24      C       5.0567432188    -2.5583304686    -2.5304382238
   25      N       8.6497584529    -1.6331760034    -0.7789406522
   26      S       7.6629129035    -4.1377539837    -1.1296755979
   27      C       9.7248556714    -2.4905694074    -0.9998603693
   28      C       9.3784817443    -3.8486930149    -1.2766732472
   29      C       0.6433318830     9.1484427973     1.2586104802
   30      H      -0.4895154758     6.9327353270     2.3766271473
   31      H       0.3523095153     4.5436277712     2.1824062134
   32      H       3.4531626222     6.0829828594    -0.4508641718
   33      H       4.6728892457     4.3690488164     0.6882258422
   34      H       3.7897057719    -2.4592486661    -4.3038766650
   35      H       5.7072950820    -3.3413078436    -2.9033332541
   36      H      10.7182258379    -2.0652679888    -1.0507663192
   37      H       9.9866363238    -4.7133273569    -1.5068741639
   38      H      -0.2252555327     9.2270697437     1.9240597305
   39      C       0.3080875665     9.8025632177    -0.0875064255
   40      H       1.4643611141     9.7692969766     1.6369966451
   41      H      -0.4609833923     9.1497969531    -0.5197066847
   42      H       1.1577855060     9.7585682270    -0.7802652957
   43      C      -0.2236772403    11.2726317269     0.0227150269
   44      H      -1.0032007836    11.3297496253     0.7918174850
   45      C      -0.6730057806    11.9249299412    -1.2895718710
   46      H       0.6580044745    11.8653227155     0.3002195239
   47      H      -1.3747249715    11.2341887492    -1.7740755168
   48      H       0.2435102944    11.9730991164    -1.8895185477
   49      C      -1.2771294624    13.3013220334    -1.1688184624
   50      H      -2.1291856910    13.3312809217    -0.4779106188
   51      C      -1.6244040083    13.8837923222    -2.5170642680
   52      H      -0.5497503930    13.8944338432    -0.6028343014
   53      H      -0.8547011790    13.9359189776    -3.2970837334
   54      H      -1.8417274935    14.9347825967    -2.2897826240
   55      H      -2.4915145707    13.4140258122    -2.9964802657
   56      C      -8.8542193283    -1.2899130343     0.6485723493
   57      C      -8.1191563227    -1.1259374148    -0.5886165506
   58      N      -8.2771953123    -1.5833472687     1.8073258326
   59      C      -6.7136339032    -1.3381350163    -0.5438850621
   60      C      -6.9642010007    -1.8470573959     1.7792561607
   61      C      -6.0690380612    -1.7065568072     0.6500808438
   62      C      -4.5889874891    -2.0254173224     0.6604382528
   63      C      -3.8937808472    -2.5112206070    -0.5052464790
   64      C      -3.7539955199    -1.9891883063     1.8361822172
   65      N      -2.5634164700    -2.8118530880    -0.5288417113
   66      N      -4.3282040607    -1.6685168021     3.0112985256
   67      C      -2.4464146987    -2.3253964452     1.8450412934
   68      C      -1.8803239343    -2.8313868967     0.6284884136
   69      S      -3.1015667063    -1.8638115490     4.1152327458
   70      N      -2.0083561537    -2.4472594150     3.1159103377
   71      C      -0.4403549406    -3.1746351617     0.4939710327
   72      S       0.7321681159    -2.5703732572     1.6724358107
   73      C       0.2095542330    -3.6117669725    -0.6502841163
   74      C       2.0551228798    -3.3726244765     0.7597372440
   75      S      -0.4512674399    -4.1687958725    -2.1613789251
   76      C       1.6155493347    -3.7154063543    -0.4725718417
   77      C       3.3750448719    -3.6962544445     1.2506787666
   78      C       1.2216275572    -4.6457736155    -2.5807469749
   79      C       2.2059267250    -4.3990850271    -1.6011869264
   80      N       3.8920169699    -2.8609693650     2.0954442286
   81      S       4.4210771529    -4.9472459221     0.6478771490
   82      C       5.1805314162    -3.1533454494     2.3672561986
   83      C       5.6320632695    -4.3205389935     1.8329611338
   84      C     -10.3321532735    -0.9098529024     0.7338398681
   85      H      -8.5500826086    -0.7849919251    -1.5255544936
   86      H      -6.0908232772    -1.0757430508    -1.3940770290
   87      H      -6.5666626336    -2.1047076011     2.7591957601
   88      H      -4.3783548230    -2.5043861786    -1.4804691984
   89      H       1.4155093368    -5.0884475485    -3.5487571219
   90      H       3.2262215252    -4.7591353229    -1.6705793271
   91      H       5.6546732157    -2.4669384290     3.0562561668
   92      H       6.5700760107    -4.8586275285     1.8835064176
   93      H     -10.5117493416    -0.6166860949     1.7757589989
   94      C     -11.3420160257    -1.9238129369     0.3511307484
   95      H     -10.4597405605     0.0177609416     0.1632401480
   96      H     -12.2968822723    -1.6710318599     0.8285898337
   97      H     -11.1201056931    -2.9651668479     0.6148879025
   98      C     -11.6039508331    -2.0438854478    -1.1593455834
   99      H     -11.6589369325    -1.0532081416    -1.6275047484
  100      C     -12.9799772567    -2.7850489820    -1.4067135225
  101      H     -10.7984253788    -2.5861739536    -1.6688167985
  102      H     -13.8781682008    -2.2459957252    -1.0820358141
  103      H     -12.9016947995    -3.7092114889    -0.8216182159
  104      C     -13.1742777009    -3.0786248276    -2.9205343706
  105      H     -12.2078196661    -3.4830435948    -3.2456102503
  106      C     -13.3900766898    -1.7121241602    -3.6057903246
  107      H     -14.0054112494    -3.7782072449    -3.0737122601
  108      H     -12.8426341779    -0.8085777645    -3.3098991165
  109      H     -14.4463966610    -1.4360917704    -3.5038529008
  110      H     -13.2937227715    -1.7897986970    -4.6954465037
 ----------------------------------------------------------------
 Molecular Point Group                 C1    NOp =  1
 Largest Abelian Subgroup              C1    NOp =  1
 Nuclear Repulsion Energy = 11777.8524705024 hartrees
 There are      270 alpha and      270 beta electrons
 Requested basis set is 6-31G(d,p)
 There are 406 shells and 1262 basis functions

 Total QAlloc Memory Limit  20000 MB
 Mega-Array Size      4888 MB
 MEM_STATIC part      5000 MB
 A cutoff of  1.0D-08 yielded  13929 shell pairs
 There are    150598 function pairs
 
 -------------------------------------------------------
 OpenMP Integral Computing Module                       
 Release: version 1.0, May 2013, Q-Chem Inc. Pittsburgh 
 -------------------------------------------------------
 Integral Job Info:
 Integral job number is                      11
 Integral operator is                         1
 short-range coefficients                     0
 long-range coefficients              100000000
 Omega coefficients                           0
 if combine SR and LR in K                    0
 Integral screening is                        0
 Integral computing path is                   2
 max size of driver memory is            800000
 size of driver memory is                593474
 size of scratch memory is             15166112
 max col of scratch BK array               1296
 max len of scratch array in speh3          155
 max len of scratch index in speh4           18
 max int batch size is                      520
 min int batch size is                       52
 fixed nKL is                                52
 max L of basis functions is                  2
 order of int derivative is                   0
 number of shells is                        406
 number of basis is                        1262
 number of cartesian basis is              1262
 number of contracted shell pairs         13929
 number of primitive shell pairs          45017
 maxK2 (contraction) of shell pair           36
 max number of K2 of shell pair               1
 max number of CS2 of shell pair           1566
 max number of PS2 of shell pair           8946
 mem total for path MDJ                  331960
 -------------------------------------------------------
 Smallest overlap matrix eigenvalue = 4.58E-04

 Scale SEOQF with 1.000000e-02/1.000000e-02/1.000000e-01

 Standard Electronic Orientation quadrupole field applied
 Nucleus-field energy     =    -0.0000000199 hartrees
 Guess from superposition of atomic densities
 Warning:  Energy on first SCF cycle will be non-variational
 A restricted hybrid HF-DFT SCF calculation will be
 performed using Pulay DIIS extrapolation
 Exchange:     0.2000 Hartree-Fock + 0.0800 Slater + 0.7200 B88
 Correlation:  0.1900 VWN1RPA + 0.8100 LYP
 Using SG-1 standard quadrature grid
 SCF converges when DIIS error is below 1.0E-05
 using 16 threads for integral computing 
 -------------------------------------------------------
 OpenMP BLAS3 based DFT computing Module                
 Release: version 1.0, May 2013, Q-Chem Inc. Pittsburgh 
 -------------------------------------------------------
 ---------------------------------------
  Cycle       Energy         DIIS Error
 ---------------------------------------
    1   -5679.9751026234      2.14E-02
    2   -5662.4585230561      2.17E-03
    3   -5660.0766038332      3.58E-03
    4   -5661.4405849486      2.28E-03
    5   -5663.4472412608      4.06E-04
    6   -5663.4603599237      3.49E-04
    7   -5663.4835228848      1.42E-04
    8   -5663.4869386579      5.21E-05
    9   -5663.4873716511      2.32E-05
   10   -5663.4874748141      6.90E-06 Convergence criterion met
 ---------------------------------------
 SCF time:  CPU 1159.56 s  wall 105.83 s
 SCF   energy in the final basis set = -5663.4874748141
 Total energy in the final basis set = -5663.4874748141
 
 --------------------------------------------------------------
 
                    Orbital Energies (a.u.)
 --------------------------------------------------------------
 
 Alpha MOs
 -- Occupied --
-88.991 -88.989 -88.931 -88.925 -88.921 -88.917 -88.914 -88.906
-14.387 -14.385 -14.380 -14.378 -14.354 -14.348 -14.347 -14.333
-14.332 -14.329 -10.266 -10.266 -10.262 -10.261 -10.255 -10.254
-10.252 -10.251 -10.244 -10.239 -10.237 -10.235 -10.235 -10.235
-10.234 -10.233 -10.233 -10.230 -10.230 -10.229 -10.229 -10.228
-10.228 -10.225 -10.224 -10.223 -10.222 -10.221 -10.221 -10.220
-10.213 -10.213 -10.208 -10.207 -10.206 -10.198 -10.197 -10.192
-10.182 -10.182 -10.180 -10.178 -10.178 -10.177 -10.176 -10.175
-10.175 -10.172 -10.170 -10.169  -8.047  -8.045  -7.991  -7.986
 -7.980  -7.975  -7.974  -7.968  -6.012  -6.010  -6.006  -6.005
 -6.004  -6.003  -5.955  -5.952  -5.950  -5.948  -5.946  -5.945
 -5.942  -5.941  -5.940  -5.938  -5.937  -5.936  -5.935  -5.933
 -5.932  -5.930  -5.929  -5.924  -1.046  -1.039  -0.977  -0.956
 -0.956  -0.941  -0.941  -0.929  -0.921  -0.908  -0.901  -0.901
 -0.854  -0.837  -0.829  -0.822  -0.813  -0.809  -0.808  -0.805
 -0.803  -0.801  -0.797  -0.794  -0.788  -0.781  -0.768  -0.765
 -0.748  -0.744  -0.740  -0.739  -0.727  -0.717  -0.711  -0.708
 -0.692  -0.691  -0.675  -0.668  -0.655  -0.650  -0.645  -0.643
 -0.636  -0.635  -0.624  -0.622  -0.613  -0.606  -0.605  -0.596
 -0.594  -0.594  -0.580  -0.578  -0.575  -0.574  -0.567  -0.566
 -0.548  -0.543  -0.539  -0.536  -0.524  -0.520  -0.517  -0.516
 -0.506  -0.505  -0.498  -0.498  -0.485  -0.482  -0.480  -0.473
 -0.473  -0.472  -0.467  -0.466  -0.464  -0.458  -0.449  -0.448
 -0.446  -0.444  -0.441  -0.439  -0.437  -0.435  -0.434  -0.427
 -0.426  -0.423  -0.420  -0.418  -0.416  -0.414  -0.414  -0.412
 -0.411  -0.408  -0.404  -0.403  -0.398  -0.397  -0.396  -0.394
 -0.393  -0.392  -0.390  -0.389  -0.388  -0.384  -0.383  -0.380
 -0.379  -0.378  -0.375  -0.371  -0.369  -0.364  -0.360  -0.358
 -0.355  -0.352  -0.350  -0.347  -0.346  -0.344  -0.341  -0.340
 -0.338  -0.332  -0.330  -0.326  -0.325  -0.323  -0.321  -0.317
 -0.314  -0.312  -0.307  -0.306  -0.304  -0.302  -0.300  -0.299
 -0.297  -0.294  -0.294  -0.290  -0.287  -0.285  -0.281  -0.280
 -0.278  -0.269  -0.267  -0.263  -0.259  -0.257  -0.255  -0.245
 -0.241  -0.237  -0.233  -0.229  -0.194  -0.189
 -- Virtual --
 -0.113  -0.109  -0.072  -0.071  -0.042  -0.038  -0.029  -0.026
 -0.024  -0.020  -0.017  -0.015  -0.006  -0.003  -0.002   0.003
  0.003   0.011   0.012   0.019   0.025   0.029   0.035   0.042
  0.044   0.060   0.061   0.065   0.072   0.080   0.092   0.092
  0.094   0.095   0.100   0.101   0.103   0.106   0.109   0.111
  0.113   0.117   0.119   0.121   0.122   0.123   0.125   0.125
  0.129   0.130   0.133   0.135   0.137   0.137   0.142   0.145
  0.149   0.153   0.156   0.157   0.157   0.158   0.162   0.164
  0.164   0.166   0.168   0.170   0.174   0.176   0.184   0.185
  0.189   0.190   0.191   0.193   0.196   0.200   0.200   0.201
  0.202   0.203   0.205   0.208   0.210   0.211   0.214   0.216
  0.219   0.220   0.223   0.227   0.228   0.232   0.234   0.235
  0.237   0.239   0.245   0.245   0.247   0.250   0.255   0.256
  0.258   0.261   0.265   0.267   0.269   0.275   0.277   0.277
  0.283   0.288   0.291   0.294   0.296   0.299   0.300   0.307
  0.310   0.312   0.316   0.317   0.319   0.320   0.324   0.327
  0.330   0.333   0.335   0.338   0.340   0.344   0.346   0.348
  0.350   0.355   0.358   0.361   0.366   0.367   0.370   0.374
  0.376   0.380   0.385   0.389   0.394   0.398   0.400   0.401
  0.408   0.410   0.417   0.422   0.426   0.432   0.434   0.441
  0.442   0.451   0.452   0.454   0.465   0.467   0.468   0.473
  0.475   0.478   0.481   0.486   0.490   0.491   0.493   0.497
  0.497   0.498   0.504   0.508   0.509   0.510   0.512   0.513
  0.515   0.518   0.526   0.527   0.528   0.530   0.532   0.536
  0.538   0.540   0.542   0.546   0.549   0.550   0.551   0.552
  0.555   0.557   0.559   0.561   0.565   0.566   0.567   0.569
  0.571   0.573   0.577   0.578   0.581   0.584   0.585   0.587
  0.589   0.592   0.592   0.595   0.597   0.600   0.600   0.602
  0.604   0.607   0.610   0.613   0.614   0.616   0.617   0.618
  0.620   0.621   0.623   0.624   0.626   0.629   0.634   0.636
  0.637   0.638   0.641   0.642   0.644   0.648   0.649   0.652
  0.652   0.658   0.660   0.663   0.665   0.669   0.673   0.674
  0.677   0.679   0.680   0.688   0.692   0.697   0.705   0.706
  0.708   0.710   0.715   0.721   0.721   0.725   0.730   0.732
  0.732   0.735   0.740   0.742   0.746   0.749   0.753   0.755
  0.758   0.762   0.766   0.767   0.769   0.770   0.774   0.776
  0.781   0.784   0.786   0.788   0.790   0.791   0.794   0.796
  0.798   0.799   0.800   0.803   0.804   0.805   0.811   0.812
  0.812   0.814   0.818   0.822   0.822   0.823   0.828   0.828
  0.829   0.831   0.832   0.832   0.834   0.836   0.839   0.840
  0.842   0.842   0.844   0.847   0.850   0.852   0.854   0.855
  0.857   0.859   0.861   0.863   0.865   0.866   0.867   0.872
  0.874   0.876   0.881   0.882   0.883   0.885   0.891   0.893
  0.895   0.899   0.902   0.906   0.907   0.909   0.911   0.912
  0.913   0.918   0.919   0.920   0.921   0.925   0.926   0.927
  0.927   0.930   0.934   0.939   0.939   0.941   0.943   0.947
  0.947   0.949   0.952   0.954   0.955   0.957   0.958   0.964
  0.965   0.967   0.971   0.972   0.972   0.974   0.975   0.977
  0.980   0.986   0.988   0.990   0.992   0.995   0.996   1.000
  1.001   1.006   1.008   1.011   1.014   1.018   1.020   1.022
  1.023   1.027   1.030   1.034   1.037   1.040   1.046   1.050
  1.051   1.058   1.064   1.067   1.070   1.073   1.076   1.077
  1.086   1.089   1.094   1.096   1.100   1.103   1.110   1.116
  1.119   1.124   1.131   1.131   1.138   1.138   1.143   1.144
  1.149   1.152   1.163   1.168   1.176   1.178   1.184   1.188
  1.191   1.195   1.199   1.201   1.205   1.210   1.212   1.218
  1.220   1.230   1.233   1.236   1.245   1.260   1.262   1.272
  1.275   1.277   1.280   1.283   1.286   1.292   1.294   1.301
  1.307   1.308   1.310   1.312   1.318   1.321   1.331   1.332
  1.334   1.343   1.350   1.354   1.365   1.370   1.373   1.375
  1.380   1.383   1.389   1.392   1.397   1.400   1.401   1.409
  1.414   1.416   1.422   1.423   1.428   1.435   1.438   1.445
  1.451   1.452   1.457   1.462   1.462   1.466   1.477   1.484
  1.486   1.494   1.497   1.502   1.504   1.507   1.512   1.516
  1.518   1.522   1.530   1.538   1.545   1.553   1.556   1.561
  1.563   1.570   1.577   1.585   1.587   1.595   1.607   1.609
  1.614   1.618   1.623   1.628   1.638   1.644   1.645   1.648
  1.655   1.658   1.663   1.667   1.673   1.679   1.681   1.686
  1.694   1.694   1.698   1.702   1.704   1.709   1.713   1.715
  1.718   1.722   1.725   1.727   1.729   1.735   1.744   1.750
  1.754   1.754   1.755   1.763   1.764   1.774   1.776   1.783
  1.784   1.786   1.799   1.802   1.805   1.808   1.810   1.817
  1.820   1.821   1.827   1.831   1.839   1.839   1.848   1.850
  1.853   1.856   1.859   1.861   1.863   1.871   1.871   1.873
  1.876   1.878   1.883   1.888   1.892   1.892   1.893   1.898
  1.902   1.910   1.914   1.916   1.920   1.925   1.928   1.929
  1.935   1.939   1.947   1.948   1.952   1.954   1.954   1.959
  1.961   1.965   1.969   1.972   1.975   1.977   1.984   1.987
  1.995   2.006   2.007   2.009   2.017   2.028   2.038   2.040
  2.044   2.044   2.055   2.057   2.060   2.062   2.063   2.065
  2.081   2.082   2.091   2.092   2.094   2.094   2.100   2.109
  2.110   2.113   2.117   2.119   2.122   2.124   2.127   2.127
  2.130   2.134   2.141   2.147   2.149   2.149   2.152   2.155
  2.159   2.164   2.166   2.168   2.172   2.173   2.178   2.182
  2.189   2.190   2.194   2.197   2.202   2.217   2.219   2.221
  2.227   2.230   2.235   2.237   2.239   2.241   2.243   2.250
  2.250   2.260   2.263   2.267   2.268   2.274   2.277   2.283
  2.284   2.287   2.290   2.292   2.298   2.299   2.303   2.305
  2.311   2.319   2.322   2.326   2.328   2.330   2.331   2.338
  2.339   2.341   2.346   2.353   2.355   2.356   2.358   2.358
  2.369   2.370   2.371   2.380   2.382   2.388   2.390   2.395
  2.395   2.400   2.404   2.404   2.409   2.411   2.414   2.418
  2.422   2.427   2.434   2.439   2.439   2.441   2.447   2.450
  2.453   2.455   2.457   2.464   2.471   2.473   2.474   2.478
  2.480   2.482   2.483   2.486   2.489   2.495   2.499   2.504
  2.506   2.507   2.509   2.513   2.515   2.518   2.528   2.530
  2.535   2.541   2.545   2.550   2.550   2.554   2.558   2.560
  2.563   2.570   2.577   2.582   2.588   2.591   2.596   2.600
  2.603   2.608   2.609   2.624   2.627   2.636   2.637   2.638
  2.642   2.646   2.651   2.654   2.659   2.661   2.671   2.674
  2.677   2.678   2.681   2.693   2.694   2.697   2.700   2.701
  2.705   2.713   2.720   2.726   2.730   2.732   2.734   2.741
  2.751   2.752   2.756   2.764   2.765   2.774   2.777   2.789
  2.791   2.799   2.804   2.805   2.809   2.820   2.826   2.835
  2.842   2.844   2.848   2.848   2.860   2.863   2.864   2.876
  2.880   2.883   2.885   2.893   2.896   2.902   2.907   2.916
  2.919   2.919   2.925   2.926   2.929   2.930   2.947   2.949
  2.953   2.960   2.961   2.977   2.987   2.991   3.001   3.023
  3.030   3.040   3.045   3.057   3.070   3.078   3.083   3.148
  3.167   3.175   3.184   3.187   3.198   3.202   3.227   3.228
  3.235   3.238   3.243   3.247   3.264   3.266   3.273   3.275
  3.281   3.287   3.293   3.298   3.302   3.317   3.318   3.322
  3.327   3.344   3.361   3.381   3.387   3.401   3.423   3.435
  3.439   3.445   3.476   3.479   3.482   3.497   3.517   3.525
  3.538   3.541   3.562   3.568   3.587   3.597   3.598   3.600
  3.629   3.654   3.689   3.737   3.849   3.856   3.921   3.924
  3.934   3.939   3.948   3.953   3.955   3.967   3.990   3.995
  3.999   4.045   4.062   4.082   4.085   4.095   4.106   4.107
  4.118   4.131   4.138   4.168   4.172   4.178   4.186   4.197
  4.209   4.228   4.235   4.243   4.246   4.259   4.262   4.265
  4.284   4.291   4.325   4.331   4.344   4.368   4.381   4.403
  4.407   4.410   4.440   4.447   4.464   4.466   4.490   4.493
  4.495   4.534   4.537   4.569   4.583   4.599   4.651   4.659
  4.687   4.696   4.718   4.735   4.767   4.771   4.784   4.785
 --------------------------------------------------------------
 
          Ground-State Mulliken Net Atomic Charges

     Atom                 Charge (a.u.)
  ----------------------------------------
      1 C                     0.278603
      2 C                    -0.124212
      3 N                    -0.489920
      4 C                    -0.049476
      5 C                     0.073722
      6 C                     0.028807
      7 C                     0.023626
      8 C                     0.052784
      9 C                     0.235959
     10 N                    -0.510780
     11 N                    -0.555801
     12 C                     0.213429
     13 C                     0.251775
     14 S                     0.615596
     15 N                    -0.534141
     16 C                    -0.201804
     17 S                     0.348794
     18 C                    -0.109875
     19 C                    -0.168364
     20 S                     0.279911
     21 C                     0.110034
     22 C                     0.018220
     23 C                    -0.296773
     24 C                    -0.084718
     25 N                    -0.411748
     26 S                     0.262511
     27 C                     0.112453
     28 C                    -0.311290
     29 C                    -0.218583
     30 H                     0.093020
     31 H                     0.113253
     32 H                     0.111371
     33 H                     0.123033
     34 H                     0.130408
     35 H                     0.101586
     36 H                     0.116288
     37 H                     0.134334
     38 H                     0.088186
     39 C                    -0.178908
     40 H                     0.117409
     41 H                     0.084816
     42 H                     0.115975
     43 C                    -0.182830
     44 H                     0.083612
     45 C                    -0.161977
     46 H                     0.090842
     47 H                     0.085536
     48 H                     0.091445
     49 C                    -0.171841
     50 H                     0.092334
     51 C                    -0.316350
     52 H                     0.090237
     53 H                     0.104317
     54 H                     0.097399
     55 H                     0.105763
     56 C                     0.260957
     57 C                    -0.120725
     58 N                    -0.462362
     59 C                    -0.100197
     60 C                     0.077622
     61 C                     0.058541
     62 C                     0.037311
     63 C                     0.046888
     64 C                     0.202594
     65 N                    -0.502964
     66 N                    -0.565331
     67 C                     0.198257
     68 C                     0.290173
     69 S                     0.606776
     70 N                    -0.512258
     71 C                    -0.236653
     72 S                     0.333392
     73 C                    -0.104111
     74 C                    -0.195805
     75 S                     0.289168
     76 C                     0.146689
     77 C                     0.047649
     78 C                    -0.310135
     79 C                    -0.070809
     80 N                    -0.410696
     81 S                     0.240540
     82 C                     0.139197
     83 C                    -0.313636
     84 C                    -0.235222
     85 H                     0.098131
     86 H                     0.097552
     87 H                     0.122409
     88 H                     0.107059
     89 H                     0.119009
     90 H                     0.116768
     91 H                     0.120408
     92 H                     0.138968
     93 H                     0.117115
     94 C                    -0.168078
     95 H                     0.099864
     96 H                     0.098449
     97 H                     0.104749
     98 C                    -0.181958
     99 H                     0.086746
    100 C                    -0.176169
    101 H                     0.094552
    102 H                     0.091698
    103 H                     0.084592
    104 C                    -0.176287
    105 H                     0.094870
    106 C                    -0.324630
    107 H                     0.095841
    108 H                     0.108638
    109 H                     0.100854
    110 H                     0.095999
  ----------------------------------------
  Sum of atomic charges =     0.000000

 -----------------------------------------------------------------
                    Cartesian Multipole Moments
 -----------------------------------------------------------------
    Charge (ESU x 10^10)
                 0.0000
    Dipole Moment (Debye)
         X       0.0870      Y      -2.5267      Z      -1.9559
       Tot       3.1965
    Quadrupole Moments (Debye-Ang)
        XX    -421.7234     XY     -41.4732     YY    -435.1263
        XZ       5.8833     YZ      18.4228     ZZ    -433.5447
    Octopole Moments (Debye-Ang^2)
       XXX     155.3499    XXY    -270.1795    XYY     104.1741
       YYY     -42.3663    XXZ    -150.6743    XYZ      19.0840
       YYZ     -11.2784    XZZ      35.4874    YZZ     -33.8010
       ZZZ       1.4533
    Hexadecapole Moments (Debye-Ang^3)
      XXXX  -77967.5370   XXXY   -2533.9089   XXYY  -22645.0797
      XYYY   -1325.4393   YYYY  -58113.6250   XXXZ     855.3648
      XXYZ     410.4019   XYYZ    -339.9342   YYYZ     530.9896
      XXZZ  -15406.0142   XYZZ    -195.9233   YYZZ  -10962.1902
      XZZZ    -221.0344   YZZZ     130.8530   ZZZZ   -7490.1937
 -----------------------------------------------------------------
Archival summary:
1\1\mn426\SP\ProcedureUnspecified\6-31G**\8105042\afmv_a\SatOct608:45:432018SatOct608:45:432018\0\\#,ProcedureUnspecified,6-31G**,\\0,1\S\C,1,1.76882\C,2,1.38665,1,110.291\C,3,1.42097,2,112.553,1,-11.9899,0\C,4,1.35252,3,114.648,2,0.0758253,0\C,5,1.44498,4,123.345,3,-165.008,0\N,6,1.2956,5,116.207,4,-149.291,0\C,7,1.34894,6,111.888,5,172.245,0\H,8,1.08198,7,114.167,6,-178.935,0\C,8,1.36077,7,115.072,6,6.79854,0\H,10,1.08257,8,134.069,7,177.265,0\C,4,1.44559,3,109.935,2,-169.624,0\H,12,1.08418,4,126.254,3,169.649,0\C,12,1.4104,4,109.873,3,-5.14305,0\H,14,1.08194,12,124.603,4,-175.954,0\C,2,1.48641,1,120.198,3,163.174,0\N,16,1.34403,2,114.695,1,-152.338,0\C,17,1.36411,16,118.945,2,-179.783,0\H,18,1.089,17,114.826,16,-179.395,0\C,16,1.43405,2,122.729,1,16.8077,0\N,20,1.34976,16,129.701,2,23.0838,0\C,20,1.35014,16,117.685,2,-177.03,0\N,22,1.34664,20,117.809,16,-172.132,0\C,18,1.44157,17,123.958,16,-9.13338,0\C,24,1.51404,18,122.471,17,179.782,0\C,25,1.40598,24,120.608,18,26.3569,0\H,26,1.08608,25,117.721,24,13.3866,0\C,26,1.42215,25,121.259,24,-175.587,0\H,28,1.08618,26,117.779,25,-176.397,0\C,25,1.44779,24,125.355,18,-148.31,0\H,30,1.08844,25,119.956,24,-6.5753,0\N,30,1.33951,25,127.106,24,179.586,0\C,32,1.32732,30,116.831,25,-7.33028,0\C,33,1.5284,32,115.255,30,176.327,0\H,34,1.09651,33,107.088,32,-130.945,0\H,34,1.09718,33,106.123,32,-19.8372,0\C,34,1.48135,33,118.332,32,102.191,0\H,37,1.09692,34,116.729,33,-36.5266,0\H,37,1.0971,34,108.856,33,-157.543,0\C,37,1.53771,34,115.046,33,82.041,0\H,40,1.09659,37,111.707,34,-76.3369,0\H,40,1.0971,37,110.928,34,42.3995,0\C,40,1.58239,37,109.771,34,161.948,0\H,43,1.0966,40,104.433,37,52.5028,0\H,43,1.0967,40,115.829,37,-66.5519,0\C,43,1.55422,40,110.453,37,172.709,0\H,46,1.09694,43,104.368,40,-45.7057,0\H,46,1.09712,43,110.557,40,-167.517,0\C,46,1.54385,43,106.416,40,68.9789,0\H,49,1.09654,46,108.433,43,83.2457,0\H,49,1.09666,46,111.472,43,-166.157,0\H,49,1.09711,46,122.65,43,-38.3829,0\S,21,1.59191,20,109.578,16,172.619,0\S,6,1.73854,5,126.367,4,20.8407,0\S,3,1.7408,2,129.737,1,174.214,0\C,13,2.98893,12,110.501,4,83.8721,0\H,56,1.08412,13,86.2542,12,155.345,0\C,56,1.38453,13,85.2263,12,34.7566,0\H,58,1.08192,56,123.943,13,88.2484,0\C,56,1.38554,13,101.621,12,-78.29,0\C,60,1.35687,56,129.813,13,-112.196,0\C,60,1.38933,56,111.514,13,82.4059,0\C,62,1.39016,60,110.499,56,162.25,0\C,61,1.40798,60,119.367,56,1.68932,0\N,64,1.35501,61,116.04,60,-138.643,0\C,65,1.39275,64,107.719,61,-171.97,0\H,66,1.08178,65,118.312,64,-172.231,0\C,66,1.42867,65,115.391,64,1.52272,0\H,68,1.08187,66,131.658,65,-178.309,0\C,63,1.46906,62,126.093,60,-169.071,0\N,70,1.37659,63,113.686,62,139.699,0\C,71,1.38355,70,120.64,63,-175.159,0\H,72,1.08945,71,114.994,70,-179.428,0\C,72,1.41205,71,121.692,70,-2.42739,0\C,74,1.41905,72,115.239,71,4.99176,0\N,75,1.34939,74,121.154,72,-178.04,0\C,75,1.35991,74,124.545,72,-6.50458,0\N,77,1.37713,75,115.797,74,-177.753,0\C,74,1.53908,72,119.196,71,-177.712,0\C,79,1.41549,74,124.356,72,144.42,0\H,80,1.08617,79,119.4,74,-6.9399,0\C,80,1.3978,79,118.019,74,177.73,0\H,82,1.08616,80,120.989,79,-179.741,0\C,82,1.37818,80,119.976,79,-2.19135,0\N,84,1.38128,82,123.807,80,2.80149,0\C,85,1.36256,84,116.64,82,-2.46646,0\H,86,1.08905,85,115.231,84,-170.968,0\C,84,1.50855,82,122.193,80,-179.302,0\H,88,1.09669,84,110.544,82,-123.384,0\H,88,1.09702,84,109.596,82,-1.91067,0\C,88,1.53372,84,114.259,82,120.992,0\H,91,1.0972,88,111.579,84,57.6993,0\H,91,1.09744,88,104.191,84,-55.8615,0\C,91,1.56717,88,114.362,84,-176.418,0\H,94,1.09656,91,109.841,88,47.5823,0\H,94,1.09802,91,104.575,88,-72.1034,0\C,94,1.5328,91,116.005,88,175.431,0\H,97,1.09648,94,104.011,91,63.6499,0\H,97,1.0974,94,107.312,91,-51.4283,0\C,97,1.50798,94,115.932,91,-175.728,0\H,100,1.09599,97,105.629,94,-52.7527,0\H,100,1.09738,97,112.73,94,55.5881,0\C,100,1.50918,97,111.896,94,-177.218,0\H,103,1.09654,100,114.029,97,-72.0558,0\H,103,1.09703,100,103.312,97,168.411,0\H,103,1.09708,100,119.477,97,53.7056,0\S,78,1.61117,77,104.221,75,3.1216,0\S,61,1.70073,60,109.943,56,-163.04,0\S,62,1.70506,60,112.25,56,5.15868,0\S,68,1.74595,66,112.29,65,5.11434,0\\\@

 Total job time:  109.57s(wall), 1171.04s(cpu) 
 Sat Oct  6 08:45:43 2018

        *************************************************************
        *                                                           *
        *  Thank you very much for using Q-Chem.  Have a nice day.  *
        *                                                           *
        *************************************************************


