
Running Job 1 of 1 ./8/46.qcin
qchem ./8/46.qcin_12760.0 /tmpu/cab_g/afmv_a/scratch_qchem/qchem12760/ 1
/tmpu/appuserlic/qchem4.4/serial-multicore/exe/qcprog.exe_s ./8/46.qcin_12760.0 /tmpu/cab_g/afmv_a/scratch_qchem/qchem12760/
Check license passed

                  Welcome to Q-Chem
     A Quantum Leap Into The Future Of Chemistry


 Q-Chem 4.4, Q-Chem, Inc., Pleasanton, CA (2016)

 Y. Shao,  Z. Gan,  E. Epifanovsky,  A. T. B. Gilbert,  M. Wormit,  
 J. Kussmann,  A. W. Lange,  A. Behn,  J. Deng,  X. Feng,  D. Ghosh,  
 M. Goldey,  P. R. Horn,  L. D. Jacobson,  I. Kaliman,  F. Rob,  
 R. Z. Khaliullin,  T. Kus,  A. Landau,  J. Liu,  E. I. Proynov,  Y. M. Rhee,  
 R. M. Richard,  M. A. Rohrdanz,  R. P. Steele,  E. J. Sundstrom,  
 H. L. Woodcock III,  P. M. Zimmerman,  D. Zuev,  B. Albrecht,  E. Alguire,  
 B. Austin,  S. A. Baeppler,  G. J. O. Beran,  Y. A. Bernard,  E. Berquist,  
 K. Brandhorst,  K. B. Bravaya,  S. T. Brown,  D. Casanova,  C.-M. Chang,  
 Y. Chen,  S. H. Chien,  K. D. Closser,  M. P. Coons,  D. L. Crittenden,  
 S. Dasgupta,  M. Diedenhofen,  R. A. DiStasio Jr.,  H. Do,  A. D. Dutoi,  
 R. G. Edgar,  P.-T. Fang,  S. Fatehi,  Q. Feng,  L. Fusti-Molnar,  
 A. Ghysels,  A. Golubeva-Zadorozhnaya,  J. Gomes,  A. Gunina,  
 M. W. D. Hanson-Heine,  P. H. P. Harbach,  A. W. Hauser,  J. E. Herr,  
 E. G. Hohenstein,  Z. C. Holden,  K. Hui,  T.-C. Jagau,  H. Ji,  B. Kaduk,  
 K. Khistyaev,  Jaehoon Kim,  Jihan Kim,  R. A. King,  P. Klunzinger,  
 K. Koh,  D. Kosenkov,  T. Kowalczyk,  C. M. Krauter,  A. Kunitsa,  
 K. U. Lao,  A. Laurent,  K. V. Lawler,  J. Lee,  D. Lefrancois,  S. Lehtola,  
 S. V. Levchenko,  C. Y. Lin,  Y.-S. Lin,  F. Liu,  E. Livshits,  
 R. C. Lochan,  A. Luenser,  P. Manohar,  S. F. Manzer,  S.-P. Mao,  Y. Mao,  
 N. Mardirossian,  A. V. Marenich,  L. A. Martinez-Martinez,  S. A. Maurer,  
 N. J. Mayhall,  J.-M. Mewes,  A. F. Morrison,  K. Nanda,  T. S. Nguyen-Beck,  
 C. M. Oana,  R. Olivares-Amaya,  D. P. O'Neill,  J. A. Parkhill,  
 T. M. Perrine,  R. Peverati,  P. A. Pieniazek,  F. Plasser,  A. Prociuk,  
 D. R. Rehn,  E. Rosta,  N. J. Russ,  N. Sergueev,  S. M. Sharada,  
 S. Sharma,  D. W. Small,  A. Sodt,  T. Stauch,  T. Stein,  D. Stuck,  
 Y.-C. Su,  A. J. W. Thom,  T. Tsuchimochi,  L. Vogt,  O. Vydrov,  T. Wang,  
 M. A. Watson,  J. Wenzel,  A. White,  C. F. Williams,  V. Vanovschi,  
 K. Yao,  S. Yeganeh,  S. R. Yost,  Z.-Q. You,  I. Y. Zhang,  X. Zhang,  
 Y. Zhao,  B. R. Brooks,  G. K. L. Chan,  D. M. Chipman,  C. J. Cramer,  
 W. A. Goddard III,  M. S. Gordon,  W. J. Hehre,  A. Klamt,  
 H. F. Schaefer III,  M. W. Schmidt,  C. D. Sherrill,  D. G. Truhlar,  
 A. Warshel,  X. Xu,  A. Aspuru-Guzik,  R. Baer,  A. T. Bell,  N. A. Besley,  
 J.-D. Chai,  A. Dreuw,  B. D. Dunietz,  T. R. Furlani,  S. R. Gwaltney,  
 C.-P. Hsu,  Y. Jung,  J. Kong,  D. S. Lambrecht,  W. Liang,  C. Ochsenfeld,  
 V. A. Rassolov,  L. V. Slipchenko,  J. E. Subotnik,  T. Van Voorhis,  
 J. M. Herbert,  A. I. Krylov,  P. M. W. Gill,  M. Head-Gordon

 Contributors to earlier versions of Q-Chem not listed above: 
 R. D. Adamson,  J. Baker,  E. F. C. Byrd,  A. K. Chakraborty,  C.-L. Cheng,  
 H. Dachsel,  R. J. Doerksen,  G. Hawkins,  A. Heyden,  S. Hirata,  
 G. Kedziora,  F. J. Keil,  C. Kelley,  P. P. Korambath,  W. Kurlancheek,  
 A. M. Lee,  M. S. Lee,  D. Liotard,  I. Lotan,  P. E. Maslen,  N. Nair,  
 D. Neuhauser,  R. Olson,  B. Peters,  J. Ritchie,  N. E. Schultz,  
 N. Shenvi,  A. C. Simmonett,  K. S. Thanthiriwatte,  Q. Wu,  W. Zhang

 Please cite Q-Chem as follows:
 Y. Shao et al., Mol. Phys. 113, 184-215 (2015)
 DOI: 10.1080/00268976.2014.952696

 Q-Chem 4.4.2 for Intel X86 Linux

 Parts of Q-Chem use Armadillo 5.200.1 (Boston Tea Smuggler).
 http://arma.sourceforge.net/

 Q-Chem begins on Sat Oct  6 08:37:14 2018  

Host: 
0

     Scratch files written to /tmpu/cab_g/afmv_a/scratch_qchem/qchem12760//
 Dec716 11556_ 22328  22283 4050   
Processing $rem in /tmpu/appuserlic/qchem4.4/serial-multicore/config/preferences.
 MEM_TOTAL  2000 
FILE_GEOM_ORG=        593

Checking the input file for inconsistencies... 	...done.

--------------------------------------------------------------
User input:
--------------------------------------------------------------
$comment
SP
$end

$rem
MEM_STATIC 5000
MEM_TOTAL 20000
JOBTYPE SP
EXCHANGE B3LYP
BASIS 6-31g(d,p)
$end

$molecule
0 1
C          -0.024000      8.336000     12.919000
C          -0.777000      7.244000     13.385000
N          -0.025000      8.644000     11.621000
C          -1.443000      6.477000     12.512000
C          -0.774000      7.990000     10.737000
C          -1.595000      6.857000     11.152000
C          -2.327000      6.015000     10.156000
C          -3.312000      5.018000     10.538000
C          -1.921000      5.800000      8.794000
N          -3.801000      4.083000      9.771000
N          -0.830000      6.421000      8.202000
C          -2.512000      4.897000      7.936000
C          -3.442000      4.029000      8.479000
S          -0.629000      5.738000      6.698000
N          -1.978000      4.826000      6.684000
C          -3.980000      2.859000      7.768000
S          -3.069000      2.025000      6.526000
C          -5.178000      2.217000      8.024000
C          -4.375000      0.860000      6.300000
S          -6.560000      2.708000      9.004000
C          -5.362000      1.095000      7.181000
C          -4.234000     -0.330000      5.577000
C          -7.331000      1.184000      8.495000
C          -6.580000      0.402000      7.575000
N          -5.015000     -1.312000      5.933000
S          -2.824000     -0.747000      4.665000
C          -4.710000     -2.448000      5.230000
C          -3.522000     -2.309000      4.519000
C           0.559000      9.345000     13.852000
H          -0.760000      6.960000     14.433000
H          -1.842000      5.552000     12.918000
H          -0.830000      8.478000      9.765000
H          -3.683000      5.001000     11.561000
H          -8.288000      0.961000      8.947000
H          -6.931000     -0.508000      7.102000
H          -5.317000     -3.311000      5.470000
H          -3.016000     -3.127000      4.022000
H           1.634000      9.328000     13.633000
C           0.431000      9.080000     15.374000
H           0.404000     10.404000     13.611000
H           0.931000      8.134000     15.615000
H          -0.650000      9.132000     15.550000
C           0.973000     10.177000     16.249000
H           2.063000     10.200000     16.128000
C           0.739000      9.953000     17.779000
H           0.418000     11.067000     15.930000
H           1.078000      8.946000     18.050000
H          -0.329000      9.976000     18.031000
C           1.432000     11.086000     18.647000
H           0.954000     12.026000     18.344000
C           2.924000     11.183000     18.383000
H           1.143000     10.921000     19.693000
H           3.441000     10.245000     18.620000
H           3.299000     11.850000     19.169000
H           3.069000     11.660000     17.406000
C         -12.540000      7.085000     -2.972000
C         -12.487000      6.662000     -1.632000
N         -11.444000      7.160000     -3.768000
C         -11.300000      6.061000     -1.182000
C         -10.281000      6.611000     -3.272000
C         -10.154000      6.118000     -1.995000
C          -8.944000      5.332000     -1.598000
C          -9.123000      4.258000     -0.655000
C          -7.624000      5.587000     -1.991000
N          -8.162000      3.418000     -0.258000
N          -7.281000      6.569000     -2.822000
C          -6.708000      4.678000     -1.678000
C          -6.977000      3.574000     -0.812000
S          -5.680000      6.249000     -3.117000
N          -5.464000      4.942000     -2.203000
C          -5.962000      2.531000     -0.444000
S          -4.595000      2.027000     -1.483000
C          -6.029000      1.655000      0.637000
C          -4.063000      0.751000     -0.429000
S          -7.082000      1.673000      2.010000
C          -4.954000      0.694000      0.647000
C          -2.768000      0.104000     -0.560000
C          -6.112000      0.302000      2.647000
C          -5.110000     -0.122000      1.805000
N          -2.328000     -0.535000      0.507000
S          -1.611000      0.450000     -1.799000
C          -0.968000     -0.851000      0.337000
C          -0.487000     -0.527000     -0.939000
C         -13.828000      7.684000     -3.535000
H         -13.370000      6.808000     -1.017000
H         -11.181000      5.778000     -0.141000
H          -9.529000      6.411000     -4.034000
H         -10.111000      4.065000     -0.241000
H          -6.365000     -0.272000      3.529000
H          -4.457000     -0.937000      2.096000
H          -0.459000     -1.385000      1.128000
H           0.492000     -0.666000     -1.380000
H         -14.089000      8.638000     -3.060000
C         -15.036000      6.715000     -3.478000
H         -13.646000      8.009000     -4.567000
H         -15.708000      7.078000     -4.266000
H         -15.508000      6.873000     -2.500000
C         -14.678000      5.222000     -3.759000
H         -14.124000      5.137000     -4.702000
C         -15.940000      4.436000     -4.031000
H         -14.014000      4.759000     -3.019000
H         -16.496000      4.945000     -4.828000
H         -16.592000      4.465000     -3.149000
C         -15.669000      3.019000     -4.460000
H         -15.183000      3.024000     -5.443000
C         -17.070000      2.309000     -4.543000
H         -15.010000      2.511000     -3.744000
H         -17.676000      2.636000     -5.397000
H         -17.719000      2.465000     -3.672000
H         -16.858000      1.238000     -4.437000
$end

--------------------------------------------------------------
 ----------------------------------------------------------------
             Standard Nuclear Orientation (Angstroms)
    I     Atom           X                Y                Z
 ----------------------------------------------------------------
    1      C     -10.8035167432     2.2417641630     1.0997327194
    2      C     -10.6077177524     1.8366870011    -0.2322598662
    3      N      -9.7740890785     2.2728116860     1.9476618051
    4      C      -9.3973241684     1.4215612720    -0.6279769380
    5      C      -8.5307623274     1.9937924663     1.5649610538
    6      C      -8.2496870565     1.5834640635     0.1928887912
    7      C      -6.8890895133     1.1217828499    -0.2223566572
    8      C      -6.5183382846     0.9068665527    -1.6103453141
    9      C      -5.9282085372     0.4907495684     0.6405510711
   10      N      -5.4597342428     0.2754785098    -2.0373600938
   11      N      -6.1137850973     0.3034455095     2.0032192368
   12      C      -4.7458887298    -0.0742991082     0.2119558470
   13      C      -4.5606857160    -0.1858571902    -1.1542167768
   14      S      -4.8456108907    -0.6239159847     2.5515264870
   15      N      -3.9688480520    -0.6382364155     1.1793665656
   16      C      -3.4821888758    -0.9736903151    -1.7706813200
   17      S      -2.7778895107    -2.3675431748    -0.9774741529
   18      C      -2.9567064529    -0.8027252922    -3.0385705834
   19      C      -1.7027371648    -2.6491487062    -2.3481246400
   20      S      -3.1361643626     0.5219625998    -4.1893971765
   21      C      -1.9617929079    -1.7669634629    -3.3280196948
   22      C      -0.9661891852    -3.8259911013    -2.5248986506
   23      C      -2.0424877322    -0.3945294709    -5.2571104866
   24      C      -1.5320505885    -1.6033006616    -4.7091587271
   25      N      -0.6831565523    -4.1443813517    -3.7575953600
   26      S      -0.8709970819    -5.0936192671    -1.3511055272
   27      C      -0.0585490776    -5.3630041358    -3.8081325992
   28      C      -0.1116662904    -6.0189941326    -2.5821465936
   29      C     -12.0626712413     2.9109663604     1.5414989120
   30      H     -11.4411952491     1.7738079953    -0.9255206347
   31      H      -9.3658941140     0.9500171900    -1.6058932588
   32      H      -7.7758019231     2.2583029331     2.3039691735
   33      H      -7.1743791689     1.2704710324    -2.3989270413
   34      H      -1.8796433485     0.0221649266    -6.2418589244
   35      H      -0.7952479401    -2.2391742675    -5.1864601147
   36      H       0.2094104213    -5.6985888011    -4.8013086357
   37      H       0.1805009489    -7.0511970383    -2.4359807093
   38      H     -12.4397960627     2.2728819449     2.3505107461
   39      C     -13.2188857071     3.0239277476     0.5150970248
   40      H     -11.9650582183     3.8230032900     2.1433687791
   41      H     -13.5167888751     2.0163082315     0.2005280923
   42      H     -12.8088553261     3.6866376054    -0.2562211527
   43      C     -14.4235375152     3.7777644591     1.0083943323
   44      H     -14.8972194469     3.1810785406     1.7976099823
   45      C     -15.5380795970     3.9835744545    -0.0692281404
   46      H     -14.0220307479     4.7561128003     1.2973802130
   47      H     -15.7660945193     3.0189134525    -0.5381090918
   48      H     -15.1931876350     4.6284084423    -0.8876996809
   49      C     -16.8222113981     4.6833388851     0.5461556903
   50      H     -16.4830693586     5.6634194174     0.9043704685
   51      C     -17.3999596957     3.9034980846     1.7137276283
   52      H     -17.5145716944     4.8847259253    -0.2814568279
   53      H     -17.7048198578     2.8924789800     1.4167383156
   54      H     -18.3680355071     4.3805110756     1.9101909325
   55      H     -16.7441316776     4.0484381391     2.5808867782
   56      C       9.2199156678     5.3261951006     0.5634694701
   57      C       8.1482762138     5.1796236361    -0.3351092335
   58      N       9.2970029679     4.6533654566     1.7389756667
   59      C       7.2563152984     4.1158615249    -0.1218350059
   60      C       8.3701792684     3.6532291317     1.9407457380
   61      C       7.3245436290     3.3980705838     1.0854988584
   62      C       6.4969820593     2.1609307314     1.2408431016
   63      C       5.9913349036     1.5390084422     0.0440558940
   64      C       6.0893310946     1.5824842194     2.4496004485
   65      N       5.3035289247     0.3934588452     0.0070551348
   66      N       6.4317469673     2.0586082066     3.6448373785
   67      C       5.5071633246     0.3905154012     2.3896252529
   68      C       5.1180770738    -0.2200786729     1.1579922856
   69      S       5.8954554762     0.8719131234     4.6728316470
   70      N       5.2478206303    -0.1616646026     3.6227901284
   71      C       4.4615622976    -1.5665814047     1.0609523869
   72      S       4.7003454349    -2.9038449754     2.2258278119
   73      C       3.7476882930    -2.0635878266    -0.0270708307
   74      C       3.7651252491    -4.0604828999     1.3260123222
   75      S       3.1506505064    -1.2391844177    -1.4264159993
   76      C       3.3440596335    -3.4368407746     0.1475895429
   77      C       3.3092160158    -5.3203543340     1.8896307576
   78      C       2.3504909818    -2.7841483580    -1.8726683475
   79      C       2.6021000343    -3.8228810982    -1.0063709511
   80      N       2.3003180769    -5.9020304374     1.2698018621
   81      S       3.6766258888    -5.8799911555     3.4850312130
   82      C       1.7852341325    -6.9325303098     2.0767185513
   83      C       2.5412083291    -7.1476338153     3.2372126254
   84      C      10.2593419547     6.4240954596     0.3422867498
   85      H       8.0721389153     5.8865212513    -1.1559191222
   86      H       6.3751069237     3.9969404925    -0.7441376561
   87      H       8.6469042107     2.9483670829     2.7235233555
   88      H       6.1968728998     1.9907257392    -0.9247034237
   89      H       1.8473336040    -2.9659777234    -2.8135082569
   90      H       2.1595766706    -4.7979805997    -1.1756902790
   91      H       0.9521127711    -7.5129671971     1.7039990631
   92      H       2.4207505215    -7.8713995221     4.0333885596
   93      H       9.8335734603     7.4303902131     0.4420567763
   94      C      11.0130101492     6.2982218466    -1.0059024381
   95      H      10.9681585215     6.4147451179     1.1797022056
   96      H      11.9587527344     6.8278549191    -0.8345642607
   97      H      10.4168787870     6.8527953982    -1.7416385150
   98      C      11.3201183593     4.8300534673    -1.4375737915
   99      H      11.8314133259     4.2966021324    -0.6267734891
  100      C      12.3445634071     4.8274560658    -2.5488476540
  101      H      10.4360218063     4.2145413101    -1.6434452791
  102      H      13.2116486410     5.4120078442    -2.2173534377
  103      H      11.9452031048     5.3580120587    -3.4222837921
  104      C      12.8074080960     3.4437788121    -2.9184190971
  105      H      13.3719786300     3.0144179152    -2.0821061579
  106      C      13.7337420637     3.6117272636    -4.1783749289
  107      H      11.9537868026     2.7899743314    -3.1394878384
  108      H      14.7062539861     4.0645157711    -3.9488446952
  109      H      13.3198562833     4.2429413034    -4.9748957364
  110      H      13.7209758995     2.6356352709    -4.6786772842
 ----------------------------------------------------------------
 Molecular Point Group                 C1    NOp =  1
 Largest Abelian Subgroup              C1    NOp =  1
 Nuclear Repulsion Energy = 10831.8850358985 hartrees
 There are      270 alpha and      270 beta electrons
 Requested basis set is 6-31G(d,p)
 There are 406 shells and 1262 basis functions

 Total QAlloc Memory Limit  20000 MB
 Mega-Array Size      4888 MB
 MEM_STATIC part      5000 MB
 A cutoff of  1.0D-08 yielded  12898 shell pairs
 There are    135129 function pairs
 
 -------------------------------------------------------
 OpenMP Integral Computing Module                       
 Release: version 1.0, May 2013, Q-Chem Inc. Pittsburgh 
 -------------------------------------------------------
 Integral Job Info:
 Integral job number is                      11
 Integral operator is                         1
 short-range coefficients                     0
 long-range coefficients              100000000
 Omega coefficients                           0
 if combine SR and LR in K                    0
 Integral screening is                        0
 Integral computing path is                   2
 max size of driver memory is            800000
 size of driver memory is                593474
 size of scratch memory is             15166112
 max col of scratch BK array               1296
 max len of scratch array in speh3          155
 max len of scratch index in speh4           18
 max int batch size is                      520
 min int batch size is                       52
 fixed nKL is                                52
 max L of basis functions is                  2
 order of int derivative is                   0
 number of shells is                        406
 number of basis is                        1262
 number of cartesian basis is              1262
 number of contracted shell pairs         12898
 number of primitive shell pairs          42223
 maxK2 (contraction) of shell pair           36
 max number of K2 of shell pair               1
 max number of CS2 of shell pair           1306
 max number of PS2 of shell pair           7824
 mem total for path MDJ                  278296
 -------------------------------------------------------
 Smallest overlap matrix eigenvalue = 4.42E-04

 Scale SEOQF with 1.000000e-03/1.000000e-02/1.000000e-02

 Standard Electronic Orientation quadrupole field applied
 Nucleus-field energy     =     0.0000000257 hartrees
 Guess from superposition of atomic densities
 Warning:  Energy on first SCF cycle will be non-variational
 A restricted hybrid HF-DFT SCF calculation will be
 performed using Pulay DIIS extrapolation
 Exchange:     0.2000 Hartree-Fock + 0.0800 Slater + 0.7200 B88
 Correlation:  0.1900 VWN1RPA + 0.8100 LYP
 Using SG-1 standard quadrature grid
 SCF converges when DIIS error is below 1.0E-05
 using 16 threads for integral computing 
 -------------------------------------------------------
 OpenMP BLAS3 based DFT computing Module                
 Release: version 1.0, May 2013, Q-Chem Inc. Pittsburgh 
 -------------------------------------------------------
 ---------------------------------------
  Cycle       Energy         DIIS Error
 ---------------------------------------
    1   -5680.3182256205      2.16E-02
    2   -5662.4534948256      2.18E-03
    3   -5659.6227122240      3.78E-03
    4   -5658.9546396102      2.85E-03
    5   -5663.3833274199      6.76E-04
    6   -5663.4591798473      3.90E-04
    7   -5663.4747195378      2.71E-04
    8   -5663.4890020150      8.39E-05
    9   -5663.4901940299      3.42E-05
   10   -5663.4904125326      1.26E-05
   11   -5663.4904436095      6.42E-06 Convergence criterion met
 ---------------------------------------
 SCF time:  CPU 1122.85 s  wall 100.43 s
 SCF   energy in the final basis set = -5663.4904436095
 Total energy in the final basis set = -5663.4904436095
 
 --------------------------------------------------------------
 
                    Orbital Energies (a.u.)
 --------------------------------------------------------------
 
 Alpha MOs
 -- Occupied --
-88.991 -88.990 -88.927 -88.925 -88.917 -88.917 -88.907 -88.907
-14.391 -14.383 -14.381 -14.377 -14.348 -14.344 -14.343 -14.334
-14.330 -14.321 -10.267 -10.262 -10.256 -10.255 -10.254 -10.250
-10.249 -10.246 -10.239 -10.237 -10.237 -10.237 -10.236 -10.234
-10.232 -10.230 -10.229 -10.229 -10.228 -10.227 -10.227 -10.226
-10.226 -10.225 -10.224 -10.223 -10.221 -10.220 -10.214 -10.212
-10.211 -10.207 -10.204 -10.202 -10.201 -10.198 -10.189 -10.187
-10.184 -10.183 -10.182 -10.181 -10.181 -10.180 -10.179 -10.177
-10.174 -10.173 -10.171 -10.168  -8.046  -8.046  -7.989  -7.987
 -7.977  -7.976  -7.967  -7.966  -6.011  -6.011  -6.005  -6.005
 -6.004  -6.004  -5.953  -5.950  -5.949  -5.947  -5.946  -5.943
 -5.941  -5.941  -5.937  -5.937  -5.933  -5.933  -5.931  -5.931
 -5.928  -5.927  -5.923  -5.922  -1.046  -1.027  -0.977  -0.968
 -0.965  -0.965  -0.940  -0.930  -0.908  -0.907  -0.899  -0.888
 -0.837  -0.836  -0.836  -0.826  -0.813  -0.813  -0.812  -0.811
 -0.810  -0.807  -0.798  -0.790  -0.785  -0.784  -0.768  -0.762
 -0.749  -0.745  -0.737  -0.736  -0.718  -0.713  -0.710  -0.708
 -0.692  -0.690  -0.675  -0.673  -0.658  -0.653  -0.648  -0.639
 -0.635  -0.633  -0.624  -0.622  -0.610  -0.609  -0.598  -0.595
 -0.592  -0.589  -0.582  -0.579  -0.576  -0.571  -0.569  -0.561
 -0.549  -0.547  -0.540  -0.536  -0.521  -0.520  -0.509  -0.508
 -0.505  -0.503  -0.499  -0.496  -0.488  -0.485  -0.482  -0.478
 -0.474  -0.470  -0.468  -0.466  -0.465  -0.463  -0.453  -0.446
 -0.443  -0.440  -0.436  -0.435  -0.434  -0.433  -0.429  -0.429
 -0.428  -0.426  -0.424  -0.419  -0.416  -0.415  -0.412  -0.410
 -0.409  -0.408  -0.403  -0.398  -0.397  -0.396  -0.395  -0.395
 -0.393  -0.392  -0.389  -0.389  -0.388  -0.384  -0.384  -0.383
 -0.379  -0.377  -0.375  -0.374  -0.366  -0.363  -0.361  -0.355
 -0.352  -0.351  -0.349  -0.345  -0.345  -0.343  -0.340  -0.339
 -0.337  -0.335  -0.331  -0.331  -0.329  -0.329  -0.326  -0.326
 -0.315  -0.313  -0.306  -0.304  -0.303  -0.303  -0.301  -0.300
 -0.297  -0.293  -0.290  -0.288  -0.286  -0.285  -0.281  -0.281
 -0.277  -0.274  -0.266  -0.264  -0.252  -0.251  -0.248  -0.239
 -0.238  -0.237  -0.226  -0.223  -0.190  -0.188
 -- Virtual --
 -0.113  -0.111  -0.072  -0.069  -0.041  -0.040  -0.031  -0.017
 -0.015  -0.013  -0.011  -0.010  -0.005  -0.004  -0.002   0.003
  0.006   0.008   0.020   0.028   0.034   0.037   0.038   0.043
  0.049   0.053   0.062   0.069   0.081   0.084   0.084   0.085
  0.097   0.100   0.100   0.103   0.104   0.108   0.109   0.112
  0.115   0.117   0.119   0.120   0.122   0.124   0.126   0.128
  0.131   0.131   0.133   0.136   0.139   0.140   0.143   0.147
  0.147   0.151   0.154   0.156   0.158   0.161   0.166   0.167
  0.169   0.171   0.173   0.177   0.178   0.180   0.181   0.185
  0.186   0.189   0.190   0.195   0.198   0.198   0.201   0.201
  0.203   0.204   0.205   0.213   0.215   0.217   0.217   0.223
  0.225   0.225   0.227   0.230   0.230   0.232   0.235   0.238
  0.242   0.243   0.245   0.246   0.249   0.252   0.255   0.258
  0.262   0.263   0.265   0.269   0.270   0.272   0.274   0.276
  0.281   0.285   0.287   0.292   0.302   0.305   0.307   0.309
  0.313   0.315   0.317   0.320   0.322   0.323   0.325   0.330
  0.333   0.334   0.336   0.338   0.340   0.343   0.347   0.349
  0.353   0.361   0.363   0.364   0.367   0.370   0.371   0.372
  0.377   0.377   0.381   0.387   0.391   0.392   0.395   0.404
  0.409   0.411   0.415   0.418   0.419   0.423   0.423   0.426
  0.446   0.448   0.451   0.455   0.462   0.465   0.470   0.476
  0.478   0.480   0.482   0.492   0.496   0.501   0.501   0.504
  0.505   0.508   0.511   0.512   0.513   0.516   0.517   0.520
  0.521   0.524   0.525   0.525   0.526   0.532   0.535   0.537
  0.540   0.543   0.545   0.545   0.546   0.547   0.550   0.550
  0.553   0.556   0.557   0.562   0.562   0.566   0.568   0.568
  0.570   0.573   0.578   0.578   0.582   0.582   0.585   0.586
  0.587   0.590   0.591   0.592   0.593   0.598   0.599   0.601
  0.604   0.608   0.609   0.612   0.613   0.615   0.618   0.619
  0.620   0.623   0.624   0.625   0.627   0.628   0.629   0.631
  0.636   0.638   0.642   0.643   0.648   0.649   0.651   0.652
  0.655   0.662   0.664   0.664   0.665   0.667   0.669   0.672
  0.674   0.677   0.682   0.684   0.689   0.692   0.692   0.695
  0.698   0.699   0.706   0.711   0.712   0.715   0.717   0.721
  0.722   0.726   0.733   0.736   0.739   0.743   0.745   0.748
  0.751   0.755   0.758   0.759   0.760   0.763   0.767   0.771
  0.772   0.773   0.781   0.782   0.783   0.784   0.788   0.792
  0.793   0.794   0.799   0.801   0.803   0.805   0.807   0.808
  0.810   0.812   0.815   0.816   0.818   0.822   0.823   0.825
  0.826   0.827   0.827   0.828   0.831   0.833   0.835   0.838
  0.840   0.842   0.844   0.844   0.845   0.849   0.850   0.853
  0.858   0.860   0.862   0.866   0.867   0.868   0.869   0.870
  0.872   0.873   0.876   0.877   0.884   0.885   0.889   0.890
  0.892   0.896   0.901   0.901   0.904   0.906   0.910   0.912
  0.916   0.918   0.920   0.920   0.923   0.928   0.931   0.932
  0.934   0.938   0.940   0.942   0.946   0.948   0.949   0.950
  0.951   0.952   0.952   0.954   0.958   0.960   0.963   0.966
  0.968   0.972   0.973   0.975   0.978   0.979   0.987   0.989
  0.990   0.993   0.993   0.998   1.002   1.003   1.005   1.006
  1.008   1.012   1.014   1.015   1.021   1.026   1.026   1.028
  1.032   1.034   1.038   1.041   1.046   1.048   1.050   1.054
  1.055   1.056   1.067   1.069   1.070   1.076   1.079   1.081
  1.084   1.091   1.092   1.096   1.099   1.107   1.111   1.117
  1.119   1.121   1.125   1.126   1.131   1.136   1.143   1.147
  1.147   1.155   1.161   1.162   1.166   1.176   1.180   1.183
  1.192   1.196   1.203   1.211   1.213   1.221   1.222   1.230
  1.239   1.243   1.246   1.249   1.259   1.263   1.270   1.271
  1.277   1.280   1.281   1.286   1.288   1.293   1.298   1.299
  1.301   1.311   1.313   1.314   1.320   1.323   1.327   1.328
  1.337   1.339   1.344   1.346   1.352   1.360   1.363   1.366
  1.371   1.375   1.379   1.380   1.389   1.390   1.394   1.399
  1.403   1.413   1.416   1.417   1.429   1.434   1.436   1.439
  1.443   1.448   1.449   1.453   1.458   1.463   1.468   1.481
  1.490   1.497   1.501   1.505   1.509   1.516   1.522   1.529
  1.530   1.545   1.552   1.554   1.561   1.563   1.566   1.573
  1.574   1.577   1.583   1.590   1.602   1.604   1.613   1.616
  1.619   1.627   1.634   1.639   1.641   1.649   1.651   1.656
  1.658   1.665   1.667   1.668   1.674   1.679   1.687   1.693
  1.694   1.696   1.699   1.704   1.704   1.707   1.713   1.715
  1.721   1.723   1.728   1.729   1.735   1.743   1.745   1.749
  1.751   1.752   1.757   1.761   1.766   1.777   1.780   1.782
  1.786   1.789   1.794   1.797   1.801   1.801   1.806   1.808
  1.812   1.819   1.824   1.825   1.826   1.832   1.836   1.843
  1.844   1.847   1.851   1.857   1.862   1.863   1.864   1.869
  1.876   1.878   1.878   1.889   1.890   1.893   1.896   1.904
  1.907   1.912   1.915   1.917   1.923   1.928   1.929   1.932
  1.936   1.940   1.944   1.946   1.954   1.958   1.959   1.962
  1.966   1.968   1.972   1.977   1.980   1.987   1.989   1.990
  1.994   1.996   2.001   2.006   2.009   2.014   2.022   2.025
  2.040   2.040   2.044   2.051   2.056   2.062   2.066   2.067
  2.069   2.076   2.082   2.085   2.090   2.096   2.097   2.104
  2.104   2.112   2.116   2.120   2.123   2.130   2.130   2.136
  2.141   2.143   2.144   2.152   2.153   2.153   2.161   2.163
  2.166   2.167   2.173   2.174   2.180   2.183   2.186   2.187
  2.189   2.199   2.200   2.202   2.204   2.212   2.214   2.218
  2.226   2.229   2.233   2.237   2.242   2.245   2.252   2.254
  2.257   2.263   2.264   2.273   2.273   2.281   2.282   2.283
  2.286   2.294   2.299   2.299   2.303   2.306   2.307   2.313
  2.315   2.318   2.326   2.327   2.332   2.333   2.338   2.341
  2.342   2.350   2.359   2.360   2.362   2.366   2.367   2.373
  2.374   2.379   2.381   2.386   2.388   2.391   2.399   2.401
  2.404   2.407   2.411   2.414   2.417   2.420   2.421   2.424
  2.425   2.426   2.432   2.433   2.434   2.442   2.443   2.446
  2.450   2.452   2.454   2.456   2.461   2.462   2.467   2.476
  2.482   2.485   2.489   2.490   2.496   2.499   2.505   2.508
  2.509   2.510   2.519   2.519   2.524   2.526   2.532   2.535
  2.536   2.543   2.547   2.549   2.554   2.556   2.566   2.569
  2.577   2.581   2.584   2.590   2.598   2.601   2.606   2.607
  2.613   2.615   2.620   2.630   2.632   2.643   2.645   2.648
  2.649   2.651   2.653   2.658   2.659   2.663   2.666   2.671
  2.675   2.678   2.685   2.692   2.693   2.697   2.698   2.699
  2.706   2.711   2.723   2.724   2.724   2.727   2.730   2.743
  2.751   2.759   2.760   2.762   2.769   2.778   2.789   2.791
  2.798   2.799   2.809   2.813   2.818   2.824   2.825   2.837
  2.844   2.853   2.856   2.856   2.860   2.867   2.871   2.879
  2.879   2.883   2.888   2.896   2.900   2.900   2.910   2.912
  2.919   2.920   2.924   2.931   2.936   2.936   2.940   2.948
  2.954   2.957   2.972   2.981   2.986   3.005   3.016   3.023
  3.026   3.049   3.055   3.065   3.070   3.088   3.108   3.134
  3.148   3.196   3.204   3.209   3.214   3.218   3.222   3.240
  3.245   3.246   3.254   3.264   3.272   3.280   3.287   3.290
  3.302   3.303   3.308   3.312   3.313   3.314   3.322   3.330
  3.337   3.337   3.350   3.368   3.392   3.398   3.436   3.442
  3.444   3.450   3.463   3.477   3.494   3.509   3.514   3.520
  3.543   3.559   3.560   3.572   3.574   3.588   3.588   3.601
  3.606   3.617   3.733   3.750   3.842   3.851   3.907   3.913
  3.944   3.945   3.953   3.954   3.965   3.972   3.982   3.995
  4.053   4.071   4.073   4.078   4.091   4.095   4.107   4.109
  4.116   4.133   4.144   4.150   4.158   4.164   4.177   4.199
  4.204   4.217   4.237   4.254   4.263   4.266   4.267   4.271
  4.288   4.302   4.305   4.354   4.377   4.383   4.395   4.400
  4.430   4.436   4.455   4.462   4.469   4.477   4.488   4.495
  4.505   4.520   4.526   4.532   4.572   4.597   4.637   4.641
  4.687   4.692   4.709   4.715   4.763   4.766   4.800   4.822
 --------------------------------------------------------------
 
          Ground-State Mulliken Net Atomic Charges

     Atom                 Charge (a.u.)
  ----------------------------------------
      1 C                     0.280102
      2 C                    -0.112467
      3 N                    -0.489386
      4 C                    -0.069840
      5 C                     0.101360
      6 C                     0.000138
      7 C                     0.039674
      8 C                     0.051665
      9 C                     0.214286
     10 N                    -0.480054
     11 N                    -0.563910
     12 C                     0.228659
     13 C                     0.249691
     14 S                     0.618124
     15 N                    -0.559987
     16 C                    -0.216347
     17 S                     0.317171
     18 C                    -0.094814
     19 C                    -0.239867
     20 S                     0.269051
     21 C                     0.153860
     22 C                     0.073789
     23 C                    -0.306832
     24 C                    -0.043301
     25 N                    -0.438734
     26 S                     0.289947
     27 C                     0.113471
     28 C                    -0.320313
     29 C                    -0.229286
     30 H                     0.093230
     31 H                     0.097483
     32 H                     0.122414
     33 H                     0.104357
     34 H                     0.128018
     35 H                     0.121240
     36 H                     0.115661
     37 H                     0.129157
     38 H                     0.115224
     39 C                    -0.183015
     40 H                     0.120479
     41 H                     0.095262
     42 H                     0.098199
     43 C                    -0.178757
     44 H                     0.098710
     45 C                    -0.179161
     46 H                     0.091817
     47 H                     0.085716
     48 H                     0.084378
     49 C                    -0.180182
     50 H                     0.093813
     51 C                    -0.312222
     52 H                     0.090141
     53 H                     0.105089
     54 H                     0.098697
     55 H                     0.115764
     56 C                     0.271710
     57 C                    -0.107059
     58 N                    -0.481836
     59 C                    -0.096619
     60 C                     0.072574
     61 C                     0.063096
     62 C                     0.008291
     63 C                     0.055077
     64 C                     0.264387
     65 N                    -0.513980
     66 N                    -0.559419
     67 C                     0.184705
     68 C                     0.297453
     69 S                     0.607814
     70 N                    -0.529861
     71 C                    -0.224189
     72 S                     0.298028
     73 C                    -0.109010
     74 C                    -0.239994
     75 S                     0.278909
     76 C                     0.161471
     77 C                     0.078363
     78 C                    -0.311021
     79 C                    -0.063410
     80 N                    -0.434601
     81 S                     0.283908
     82 C                     0.107469
     83 C                    -0.309566
     84 C                    -0.246297
     85 H                     0.095725
     86 H                     0.107065
     87 H                     0.116169
     88 H                     0.105984
     89 H                     0.129914
     90 H                     0.125390
     91 H                     0.113780
     92 H                     0.136157
     93 H                     0.106471
     94 C                    -0.186089
     95 H                     0.117896
     96 H                     0.100300
     97 H                     0.092316
     98 C                    -0.177507
     99 H                     0.098162
    100 C                    -0.159420
    101 H                     0.095999
    102 H                     0.088291
    103 H                     0.086198
    104 C                    -0.179287
    105 H                     0.098084
    106 C                    -0.323354
    107 H                     0.093821
    108 H                     0.106868
    109 H                     0.100481
    110 H                     0.096833
  ----------------------------------------
  Sum of atomic charges =     0.000000

 -----------------------------------------------------------------
                    Cartesian Multipole Moments
 -----------------------------------------------------------------
    Charge (ESU x 10^10)
                 0.0000
    Dipole Moment (Debye)
         X      -1.8428      Y      -1.8430      Z      -0.9438
       Tot       2.7719
    Quadrupole Moments (Debye-Ang)
        XX    -424.1600     XY      -2.3885     YY    -406.5893
        XZ       0.4605     YZ     -21.8568     ZZ    -431.1164
    Octopole Moments (Debye-Ang^2)
       XXX    -694.1504    XXY     178.6064    XYY      33.2066
       YYY    -249.0670    XXZ    -190.7195    XYZ     -68.9530
       YYZ      -3.9821    XZZ      63.1183    YZZ     -97.2999
       ZZZ      18.4921
    Hexadecapole Moments (Debye-Ang^3)
      XXXX -144693.5034   XXXY   -1485.8913   XXYY  -30176.4822
      XYYY     213.4387   YYYY  -29697.9757   XXXZ     682.4514
      XXYZ   -1235.3135   XYYZ    -429.3869   YYYZ    -758.7103
      XXZZ  -28815.5725   XYZZ    -341.2373   YYZZ   -7455.0613
      XZZZ     378.1828   YZZZ    -264.2268   ZZZZ  -14085.2241
 -----------------------------------------------------------------
Archival summary:
1\1\mn426\SP\ProcedureUnspecified\6-31G**\8105042\afmv_a\SatOct608:38:582018SatOct608:38:582018\0\\#,ProcedureUnspecified,6-31G**,\\0,1\S\C,1,1.75158\C,2,1.38308,1,111.145\C,3,1.41541,2,111.735,1,2.19025,0\C,4,1.34371,3,115.699,2,0.365962,0\C,5,1.39954,4,124.154,3,-166.524,0\N,6,1.30423,5,116.031,4,9.43625,0\C,7,1.3703,6,110.541,5,175.108,0\H,8,1.08204,7,114.995,6,-179.986,0\C,8,1.39147,7,111.676,6,-10.533,0\H,10,1.08267,8,123.925,7,-170.157,0\C,4,1.45568,3,108.962,2,-175.268,0\H,12,1.08399,4,123.538,3,178.241,0\C,12,1.42194,4,110.807,3,-10.9142,0\H,14,1.08161,12,128.631,4,-178.06,0\C,2,1.47101,1,122.088,3,-175.885,0\N,16,1.34204,2,113.546,1,144.044,0\C,17,1.30447,16,119.645,2,-175.071,0\H,18,1.08833,17,114.438,16,-178.214,0\C,16,1.38317,2,123.731,1,-27.6326,0\N,20,1.36298,16,126.253,2,-1.26734,0\C,20,1.37871,16,117.06,2,168.555,0\N,22,1.38794,20,111.38,16,-167.924,0\C,22,1.4374,20,124.511,16,8.48776,0\C,24,1.49559,22,125.239,20,-171.76,0\C,25,1.42025,24,122.647,22,139.873,0\H,26,1.08612,25,123.127,24,-0.282022,0\C,26,1.33939,25,121.61,24,-179.643,0\H,28,1.08593,26,119.146,25,-174.604,0\C,28,1.40593,26,119.674,25,10.5798,0\N,30,1.33404,28,120.094,26,-3.18832,0\C,31,1.33048,30,122.236,28,-3.41032,0\H,32,1.08907,31,113.684,30,-167.976,0\C,30,1.4928,28,121.803,26,-170.238,0\H,34,1.09708,30,117.386,28,131.954,0\H,34,1.09721,30,104.325,28,-123,0\C,34,1.55019,30,117.765,28,-5.98224,0\H,37,1.09647,34,103.35,30,65.2671,0\H,37,1.09681,34,108.998,30,-59.9273,0\C,37,1.50426,34,114.626,30,176.72,0\H,40,1.09631,37,103.908,34,-56.8271,0\H,40,1.09694,37,108.009,34,68.0784,0\C,40,1.56392,37,114.249,34,-175.446,0\H,43,1.09655,40,109.09,37,-50.4289,0\H,43,1.09757,40,111.544,37,65.4336,0\C,43,1.58662,40,111.566,37,-175.563,0\H,46,1.09722,43,105.689,40,-61.5098,0\H,46,1.09766,43,107.397,40,-174.45,0\C,46,1.51828,43,112.316,40,57.2145,0\H,49,1.09685,46,108.214,43,-74.3063,0\H,49,1.09695,46,111.774,43,60.1636,0\H,49,1.09695,46,104.489,43,169.44,0\S,21,1.62842,20,106.708,16,162.121,0\S,10,1.71708,8,113.234,7,2.67734,0\S,3,1.76392,2,130.713,1,171.227,0\H,10,2.93727,8,101.326,7,83.2296,0\C,56,1.08412,10,139.846,8,-44.3542,0\C,57,1.37577,56,120.404,10,21.9409,0\H,58,1.08232,57,120.368,56,10.1521,0\C,57,1.42519,56,125.633,10,-150.817,0\C,60,1.39818,57,135.922,56,-1.64825,0\C,60,1.44196,57,107.795,56,179.853,0\C,62,1.39299,60,112.869,57,-178.732,0\C,61,1.45355,60,128.24,57,14.5854,0\N,64,1.31925,61,116.095,60,5.69456,0\C,65,1.40654,64,109.485,61,167.208,0\H,66,1.08163,65,118.525,64,179.638,0\C,66,1.40161,65,112.949,64,5.65943,0\H,68,1.0827,66,130.65,65,178.366,0\C,63,1.50117,62,126.487,60,-174.785,0\N,70,1.31738,63,115.014,62,17.3276,0\C,71,1.33669,70,116.576,63,174.24,0\H,72,1.08848,71,115.352,70,-175.632,0\C,70,1.42868,63,123.93,62,-161.735,0\C,74,1.3279,70,122.818,63,-179.862,0\N,75,1.33137,74,118.315,70,179.067,0\N,74,1.37581,70,123.355,63,3.94866,0\C,75,1.40067,74,117.343,70,9.08433,0\C,78,1.4965,75,126.294,74,171.427,0\C,79,1.37474,78,120.629,75,-38.8092,0\H,80,1.0891,79,121.351,78,-2.4305,0\N,80,1.3784,79,123.713,78,-169.628,0\C,82,1.35663,80,116.646,79,6.19161,0\C,83,1.40618,82,123.046,80,-9.43101,0\H,84,1.08592,83,117.943,82,-168.739,0\C,84,1.40452,83,117.768,82,12.119,0\H,86,1.08533,84,120.767,83,-175.801,0\C,83,1.52798,82,116.304,80,179.433,0\H,88,1.09717,83,108.837,82,-4.8863,0\H,88,1.09721,83,112.449,82,106.038,0\C,88,1.54967,83,113.479,82,-128.278,0\H,91,1.09738,88,106.143,83,-88.6899,0\H,91,1.0974,88,104.128,83,156.098,0\C,91,1.56082,88,114.375,83,37.0911,0\H,94,1.09675,91,114.911,88,-64.3978,0\H,94,1.09699,91,110.164,88,52.6189,0\C,94,1.51143,91,109.775,88,165.489,0\H,97,1.09701,94,108.219,91,-53.2309,0\H,97,1.09721,94,109.74,91,61.6515,0\C,97,1.50511,94,112.989,91,-173.677,0\H,100,1.09659,97,109.33,94,66.9316,0\H,100,1.09773,97,110.969,94,-52.9655,0\C,100,1.57283,97,106.239,94,-173.861,0\H,103,1.09691,100,105.278,97,157.038,0\H,103,1.09703,100,113.489,97,-72.1668,0\H,103,1.09735,100,114.882,97,47.8739,0\S,77,1.60944,74,104.548,70,-179.043,0\S,68,1.71974,66,111.241,65,-11.7136,0\S,62,1.73039,60,117.071,57,-5.12722,0\S,61,1.73842,60,107.547,57,-177.841,0\\\@

 Total job time:  104.28s(wall), 1134.77s(cpu) 
 Sat Oct  6 08:38:58 2018

        *************************************************************
        *                                                           *
        *  Thank you very much for using Q-Chem.  Have a nice day.  *
        *                                                           *
        *************************************************************


