
Running Job 1 of 1 ./8/66.qcin
qchem ./8/66.qcin_14488.0 /tmpu/cab_g/afmv_a/scratch_qchem/qchem14488/ 1
/tmpu/appuserlic/qchem4.4/serial-multicore/exe/qcprog.exe_s ./8/66.qcin_14488.0 /tmpu/cab_g/afmv_a/scratch_qchem/qchem14488/
Check license passed

                  Welcome to Q-Chem
     A Quantum Leap Into The Future Of Chemistry


 Q-Chem 4.4, Q-Chem, Inc., Pleasanton, CA (2016)

 Y. Shao,  Z. Gan,  E. Epifanovsky,  A. T. B. Gilbert,  M. Wormit,  
 J. Kussmann,  A. W. Lange,  A. Behn,  J. Deng,  X. Feng,  D. Ghosh,  
 M. Goldey,  P. R. Horn,  L. D. Jacobson,  I. Kaliman,  F. Rob,  
 R. Z. Khaliullin,  T. Kus,  A. Landau,  J. Liu,  E. I. Proynov,  Y. M. Rhee,  
 R. M. Richard,  M. A. Rohrdanz,  R. P. Steele,  E. J. Sundstrom,  
 H. L. Woodcock III,  P. M. Zimmerman,  D. Zuev,  B. Albrecht,  E. Alguire,  
 B. Austin,  S. A. Baeppler,  G. J. O. Beran,  Y. A. Bernard,  E. Berquist,  
 K. Brandhorst,  K. B. Bravaya,  S. T. Brown,  D. Casanova,  C.-M. Chang,  
 Y. Chen,  S. H. Chien,  K. D. Closser,  M. P. Coons,  D. L. Crittenden,  
 S. Dasgupta,  M. Diedenhofen,  R. A. DiStasio Jr.,  H. Do,  A. D. Dutoi,  
 R. G. Edgar,  P.-T. Fang,  S. Fatehi,  Q. Feng,  L. Fusti-Molnar,  
 A. Ghysels,  A. Golubeva-Zadorozhnaya,  J. Gomes,  A. Gunina,  
 M. W. D. Hanson-Heine,  P. H. P. Harbach,  A. W. Hauser,  J. E. Herr,  
 E. G. Hohenstein,  Z. C. Holden,  K. Hui,  T.-C. Jagau,  H. Ji,  B. Kaduk,  
 K. Khistyaev,  Jaehoon Kim,  Jihan Kim,  R. A. King,  P. Klunzinger,  
 K. Koh,  D. Kosenkov,  T. Kowalczyk,  C. M. Krauter,  A. Kunitsa,  
 K. U. Lao,  A. Laurent,  K. V. Lawler,  J. Lee,  D. Lefrancois,  S. Lehtola,  
 S. V. Levchenko,  C. Y. Lin,  Y.-S. Lin,  F. Liu,  E. Livshits,  
 R. C. Lochan,  A. Luenser,  P. Manohar,  S. F. Manzer,  S.-P. Mao,  Y. Mao,  
 N. Mardirossian,  A. V. Marenich,  L. A. Martinez-Martinez,  S. A. Maurer,  
 N. J. Mayhall,  J.-M. Mewes,  A. F. Morrison,  K. Nanda,  T. S. Nguyen-Beck,  
 C. M. Oana,  R. Olivares-Amaya,  D. P. O'Neill,  J. A. Parkhill,  
 T. M. Perrine,  R. Peverati,  P. A. Pieniazek,  F. Plasser,  A. Prociuk,  
 D. R. Rehn,  E. Rosta,  N. J. Russ,  N. Sergueev,  S. M. Sharada,  
 S. Sharma,  D. W. Small,  A. Sodt,  T. Stauch,  T. Stein,  D. Stuck,  
 Y.-C. Su,  A. J. W. Thom,  T. Tsuchimochi,  L. Vogt,  O. Vydrov,  T. Wang,  
 M. A. Watson,  J. Wenzel,  A. White,  C. F. Williams,  V. Vanovschi,  
 K. Yao,  S. Yeganeh,  S. R. Yost,  Z.-Q. You,  I. Y. Zhang,  X. Zhang,  
 Y. Zhao,  B. R. Brooks,  G. K. L. Chan,  D. M. Chipman,  C. J. Cramer,  
 W. A. Goddard III,  M. S. Gordon,  W. J. Hehre,  A. Klamt,  
 H. F. Schaefer III,  M. W. Schmidt,  C. D. Sherrill,  D. G. Truhlar,  
 A. Warshel,  X. Xu,  A. Aspuru-Guzik,  R. Baer,  A. T. Bell,  N. A. Besley,  
 J.-D. Chai,  A. Dreuw,  B. D. Dunietz,  T. R. Furlani,  S. R. Gwaltney,  
 C.-P. Hsu,  Y. Jung,  J. Kong,  D. S. Lambrecht,  W. Liang,  C. Ochsenfeld,  
 V. A. Rassolov,  L. V. Slipchenko,  J. E. Subotnik,  T. Van Voorhis,  
 J. M. Herbert,  A. I. Krylov,  P. M. W. Gill,  M. Head-Gordon

 Contributors to earlier versions of Q-Chem not listed above: 
 R. D. Adamson,  J. Baker,  E. F. C. Byrd,  A. K. Chakraborty,  C.-L. Cheng,  
 H. Dachsel,  R. J. Doerksen,  G. Hawkins,  A. Heyden,  S. Hirata,  
 G. Kedziora,  F. J. Keil,  C. Kelley,  P. P. Korambath,  W. Kurlancheek,  
 A. M. Lee,  M. S. Lee,  D. Liotard,  I. Lotan,  P. E. Maslen,  N. Nair,  
 D. Neuhauser,  R. Olson,  B. Peters,  J. Ritchie,  N. E. Schultz,  
 N. Shenvi,  A. C. Simmonett,  K. S. Thanthiriwatte,  Q. Wu,  W. Zhang

 Please cite Q-Chem as follows:
 Y. Shao et al., Mol. Phys. 113, 184-215 (2015)
 DOI: 10.1080/00268976.2014.952696

 Q-Chem 4.4.2 for Intel X86 Linux

 Parts of Q-Chem use Armadillo 5.200.1 (Boston Tea Smuggler).
 http://arma.sourceforge.net/

 Q-Chem begins on Sat Oct  6 09:15:00 2018  

Host: 
0

     Scratch files written to /tmpu/cab_g/afmv_a/scratch_qchem/qchem14488//
 Dec716 11556_ 22328  22283 4050   
Processing $rem in /tmpu/appuserlic/qchem4.4/serial-multicore/config/preferences.
 MEM_TOTAL  2000 
FILE_GEOM_ORG=        593

Checking the input file for inconsistencies... 	...done.

--------------------------------------------------------------
User input:
--------------------------------------------------------------
$comment
SP
$end

$rem
MEM_STATIC 5000
MEM_TOTAL 20000
JOBTYPE SP
EXCHANGE B3LYP
BASIS 6-31g(d,p)
$end

$molecule
0 1
C         -16.299000    -19.484000    -13.906000
C         -16.548000    -18.209000    -13.529000
N         -16.676000    -20.575000    -13.257000
C         -17.262000    -17.935000    -12.303000
C         -17.422000    -20.390000    -12.124000
C         -17.776000    -19.086000    -11.643000
C         -18.656000    -18.930000    -10.441000
C         -18.437000    -17.970000     -9.416000
C         -19.877000    -19.645000    -10.325000
N         -19.162000    -17.900000     -8.294000
N         -20.386000    -20.527000    -11.247000
C         -20.795000    -19.381000     -9.278000
C         -20.363000    -18.476000     -8.220000
S         -21.764000    -21.099000    -10.729000
N         -21.865000    -20.247000     -9.285000
C         -21.187000    -18.460000     -6.977000
S         -22.756000    -19.063000     -6.577000
C         -20.891000    -17.504000     -5.968000
C         -22.900000    -18.189000     -5.062000
S         -19.669000    -16.246000     -5.975000
C         -21.893000    -17.269000     -5.000000
C         -23.972000    -18.339000     -4.216000
C         -20.510000    -15.423000     -4.629000
C         -21.678000    -16.086000     -4.245000
N         -23.827000    -17.933000     -3.015000
S         -25.409000    -19.229000     -4.604000
C         -24.958000    -18.245000     -2.261000
C         -25.954000    -18.808000     -2.996000
C         -15.311000    -19.775000    -14.964000
H         -16.266000    -17.430000    -14.231000
H         -17.465000    -16.934000    -11.935000
H         -17.582000    -21.284000    -11.523000
H         -17.585000    -17.292000     -9.424000
H         -20.070000    -14.501000     -4.271000
H         -22.309000    -15.765000     -3.424000
H         -24.850000    -17.907000     -1.239000
H         -26.972000    -19.071000     -2.741000
H         -14.646000    -18.904000    -14.912000
C         -15.891000    -19.781000    -16.326000
H         -14.821000    -20.733000    -14.749000
H         -16.383000    -18.857000    -16.656000
H         -16.733000    -20.454000    -16.122000
C         -14.973000    -20.420000    -17.491000
H         -14.175000    -19.750000    -17.833000
C         -15.833000    -20.704000    -18.773000
H         -14.535000    -21.382000    -17.199000
H         -16.191000    -19.706000    -19.055000
H         -16.706000    -21.312000    -18.503000
C         -14.974000    -21.321000    -19.901000
H         -14.348000    -20.557000    -20.379000
C         -15.931000    -21.843000    -21.070000
H         -14.279000    -22.124000    -19.624000
H         -16.313000    -22.845000    -20.838000
H         -15.328000    -21.955000    -21.979000
H         -16.639000    -21.009000    -21.156000
C         -18.287000     -8.286000    -10.207000
C         -19.302000     -9.035000     -9.575000
N         -17.595000     -8.752000    -11.310000
C         -19.597000    -10.280000    -10.027000
C         -17.928000     -9.999000    -11.675000
C         -18.910000    -10.861000    -11.113000
C         -19.173000    -12.200000    -11.783000
C         -18.788000    -12.546000    -13.099000
C         -19.609000    -13.292000    -10.986000
N         -18.949000    -13.753000    -13.643000
N         -19.728000    -13.246000     -9.621000
C         -19.745000    -14.545000    -11.526000
C         -19.584000    -14.731000    -12.948000
S         -20.345000    -14.698000     -9.232000
N         -20.288000    -15.465000    -10.695000
C         -19.926000    -15.993000    -13.614000
S         -20.913000    -17.362000    -13.069000
C         -19.372000    -16.398000    -14.840000
C         -20.719000    -18.280000    -14.562000
S         -18.213000    -15.530000    -15.734000
C         -19.829000    -17.616000    -15.356000
C         -21.330000    -19.500000    -14.927000
C         -18.284000    -16.819000    -16.953000
C         -19.146000    -17.831000    -16.602000
N         -22.071000    -20.004000    -13.911000
S         -21.974000    -19.940000    -16.519000
C         -23.079000    -20.805000    -14.375000
C         -23.237000    -20.868000    -15.700000
C         -17.949000     -6.872000     -9.856000
H         -19.906000     -8.664000     -8.752000
H         -20.379000    -10.885000     -9.578000
H         -17.335000    -10.417000    -12.487000
H         -18.401000    -11.712000    -13.683000
H         -17.594000    -16.753000    -17.783000
H         -19.282000    -18.720000    -17.207000
H         -23.812000    -21.252000    -13.716000
H         -23.919000    -21.557000    -16.182000
H         -17.594000     -6.804000     -8.821000
C         -19.116000     -5.907000     -9.782000
H         -17.262000     -6.349000    -10.533000
H         -18.803000     -4.890000     -9.513000
H         -19.647000     -6.222000     -8.875000
C         -19.955000     -5.954000    -11.083000
H         -19.403000     -5.749000    -12.008000
C         -21.097000     -4.903000    -10.986000
H         -20.439000     -6.934000    -11.177000
H         -21.454000     -4.747000    -12.011000
H         -20.748000     -3.904000    -10.698000
C         -22.349000     -5.473000    -10.210000
H         -22.843000     -6.287000    -10.755000
C         -23.410000     -4.379000    -10.080000
H         -22.061000     -5.755000     -9.190000
H         -22.918000     -3.557000     -9.544000
H         -24.413000     -4.621000     -9.707000
H         -23.662000     -3.916000    -11.042000
$end

--------------------------------------------------------------
 ----------------------------------------------------------------
             Standard Nuclear Orientation (Angstroms)
    I     Atom           X                Y                Z
 ----------------------------------------------------------------
    1      C       5.0508481688     0.7087325734     2.4186440675
    2      C       3.8438483126     1.2968666902     2.2543132796
    3      N       5.2831453360    -0.5945270760     2.4527514299
    4      C       2.6501247517     0.4930089083     2.1247573973
    5      C       4.2053287716    -1.4167920745     2.2613833923
    6      C       2.8815301439    -0.9087064202     2.0457467504
    7      C       1.7432705777    -1.8414419774     1.7666239456
    8      C       0.4457794694    -1.7014079476     2.3297343204
    9      C       1.8493424538    -2.8578459785     0.7811323608
   10      N      -0.5388819100    -2.5911707238     2.1618856685
   11      N       2.9485165797    -3.1089153018    -0.0036411326
   12      C       0.7290644715    -3.6336603545     0.3916220318
   13      C      -0.4967894377    -3.4762249840     1.1646092874
   14      S       2.6459986169    -4.3234594144    -0.9668428147
   15      N       1.0617933031    -4.6286699745    -0.4995302452
   16      C      -1.5500117887    -4.5131368928     0.9650663783
   17      S      -1.8016974589    -5.7468196676    -0.2181711865
   18      C      -2.8140906743    -4.3386205818     1.5905914602
   19      C      -3.4597475351    -6.0948195140     0.2396530720
   20      S      -3.3721000259    -3.0021060654     2.5796574394
   21      C      -3.8832054563    -5.1173587138     1.0937881743
   22      C      -4.1965756201    -7.0983222943    -0.3412656341
   23      C      -5.0624529893    -3.5341930130     2.3431910796
   24      C      -5.1576327201    -4.6568832868     1.5175056868
   25      N      -5.2433248761    -7.4849561659     0.2776788259
   26      S      -3.6882054169    -8.0114462923    -1.7252372020
   27      C      -5.8208835309    -8.5690209582    -0.3828138134
   28      C      -5.1955140015    -8.8814846059    -1.5492140108
   29      C       6.2154681646     1.4971507613     2.8683617862
   30      H       3.8403426024     2.3764737211     2.1376712251
   31      H       1.6525611875     0.9084557485     2.0203310674
   32      H       4.3881499948    -2.4731585710     2.4529642508
   33      H       0.1979699541    -0.9091161503     3.0343733430
   34      H      -5.8315251397    -2.9380234422     2.8174883180
   35      H      -6.0927454516    -5.1523713645     1.2823488365
   36      H      -6.7103756539    -8.9088733503     0.1306996866
   37      H      -5.4454299414    -9.5880827086    -2.3294570141
   38      H       5.7443101863     2.3231039332     3.4155194575
   39      C       6.9772323662     2.1092782271     1.7563836988
   40      H       6.8687362297     0.8623090304     3.4801671571
   41      H       6.4238654236     2.7888709005     1.0955669124
   42      H       7.0934925188     1.2054675022     1.1455492282
   43      C       8.4382787185     2.6901350221     2.1254622001
   44      H       8.4046998500     3.6595682590     2.6370671833
   45      C       9.2684818154     2.9558424220     0.8201107549
   46      H       9.0295439502     1.9871711082     2.7244606656
   47      H       8.6661167270     3.7070403196     0.2942305224
   48      H       9.2872835254     2.0471232869     0.2048311199
   49      C      10.6742006732     3.5087510162     1.1505658639
   50      H      10.6210037688     4.5655611501     1.4410455194
   51      C      11.5703042837     3.5021588555    -0.1730084116
   52      H      11.2309187920     3.0200640237     1.9603886591
   53      H      12.0170525905     2.5127846680    -0.3320891066
   54      H      12.4107340831     4.1893442569    -0.0184510553
   55      H      10.8612368277     3.8925687790    -0.9139668682
   56      C      -5.7569479091     5.7107150632     1.3224396564
   57      C      -5.9176790728     4.4317056218     0.7488977296
   58      N      -4.5167089531     6.2958165272     1.5015837571
   59      C      -4.8226117024     3.7150331363     0.3903422906
   60      C      -3.4880804258     5.5114135109     1.1469596452
   61      C      -3.5146180504     4.2063533015     0.5818706220
   62      C      -2.2002459580     3.5663690176     0.1649340334
   63      C      -0.9814529564     4.2554789707    -0.0337317456
   64      C      -2.0811880018     2.1516218432     0.2105918452
   65      N       0.1830975309     3.6695949469    -0.3152776090
   66      N      -3.0540279080     1.3152044918     0.6938004246
   67      C      -0.8806733287     1.5396114443    -0.0430078223
   68      C       0.2388990641     2.3261575468    -0.5018148467
   69      S      -2.4582827241    -0.1732414598     0.4293569995
   70      N      -0.9322261754     0.1880621811    -0.0926756522
   71      C       1.4763144911     1.7100964228    -0.9941924988
   72      S       1.8141914827     0.0533663810    -1.5293931221
   73      C       2.7201459130     2.3634651176    -0.9973138073
   74      C       3.5012874604     0.3747364189    -1.9291898966
   75      S       3.0096496307     3.9373132790    -0.4184091846
   76      C       3.7970251825     1.6465732986    -1.5311922194
   77      C       4.4390114624    -0.4902675021    -2.5353152241
   78      C       4.7047630312     3.7341316622    -0.9060881670
   79      C       4.9548082181     2.4933254967    -1.4429926873
   80      N       3.9220693697    -1.7293629635    -2.7163298930
   81      S       5.6408550167    -0.0701760295    -3.7689664008
   82      C       4.5300473278    -2.3792720647    -3.7560134808
   83      C       5.4163342066    -1.6785701552    -4.4688040548
   84      C      -6.8916773386     6.6240233727     1.6617006971
   85      H      -6.8820775662     3.9802171692     0.5347022042
   86      H      -4.9016420808     2.7327392450    -0.0657310703
   87      H      -2.5010126113     5.9189060048     1.3599479009
   88      H      -1.0748496502     5.3404063678    -0.0094294679
   89      H       5.3906601728     4.5311655378    -0.6538222113
   90      H       5.9442235347     2.1792482175    -1.7548496962
   91      H       4.2132983365    -3.3588730007    -4.0898264265
   92      H       6.0424949173    -2.1210084972    -5.2332254556
   93      H      -7.5371124581     6.1731503737     2.4245906271
   94      C      -7.9178905624     6.8458818297     0.5679661569
   95      H      -6.6279711443     7.6520006291     1.9401765547
   96      H      -8.7269480977     7.5178361373     0.8818487991
   97      H      -8.4398704799     5.8824138677     0.5122754758
   98      C      -7.2352378482     7.2989916018    -0.7463427132
   99      H      -6.6189316902     8.2027515922    -0.6705891692
  100      C      -8.3304157754     7.5769922457    -1.8147410237
  101      H      -6.6129977488     6.4859988053    -1.1404898577
  102      H      -7.8487341278     8.1802204095    -2.5935276264
  103      H      -9.1302285215     8.2375781189    -1.4588310978
  104      C      -8.7736562146     6.2528980972    -2.5529094320
  105      H      -7.9694183307     5.8272799757    -3.1658593817
  106      C      -9.8998985520     6.5705399696    -3.5378656942
  107      H      -9.1818131492     5.5384220929    -1.8277887828
  108      H     -10.7042473951     7.0065720297    -2.9312826569
  109      H     -10.2392602434     5.8128056796    -4.2550646820
  110      H      -9.6475880048     7.3914039786    -4.2203894422
 ----------------------------------------------------------------
 Molecular Point Group                 C1    NOp =  1
 Largest Abelian Subgroup              C1    NOp =  1
 Nuclear Repulsion Energy = 12167.9644774373 hartrees
 There are      270 alpha and      270 beta electrons
 Requested basis set is 6-31G(d,p)
 There are 406 shells and 1262 basis functions

 Total QAlloc Memory Limit  20000 MB
 Mega-Array Size      4888 MB
 MEM_STATIC part      5000 MB
 A cutoff of  1.0D-08 yielded  14684 shell pairs
 There are    156097 function pairs
 
 -------------------------------------------------------
 OpenMP Integral Computing Module                       
 Release: version 1.0, May 2013, Q-Chem Inc. Pittsburgh 
 -------------------------------------------------------
 Integral Job Info:
 Integral job number is                      11
 Integral operator is                         1
 short-range coefficients                     0
 long-range coefficients              100000000
 Omega coefficients                           0
 if combine SR and LR in K                    0
 Integral screening is                        0
 Integral computing path is                   2
 max size of driver memory is            800000
 size of driver memory is                593474
 size of scratch memory is             15166112
 max col of scratch BK array               1296
 max len of scratch array in speh3          155
 max len of scratch index in speh4           18
 max int batch size is                      520
 min int batch size is                       52
 fixed nKL is                                52
 max L of basis functions is                  2
 order of int derivative is                   0
 number of shells is                        406
 number of basis is                        1262
 number of cartesian basis is              1262
 number of contracted shell pairs         14684
 number of primitive shell pairs          46261
 maxK2 (contraction) of shell pair           36
 max number of K2 of shell pair               1
 max number of CS2 of shell pair           1619
 max number of PS2 of shell pair           8958
 mem total for path MDJ                  342984
 -------------------------------------------------------
 Smallest overlap matrix eigenvalue = 5.28E-04

 Scale SEOQF with 1.000000e-02/1.000000e-02/1.000000e-01

 Standard Electronic Orientation quadrupole field applied
 Nucleus-field energy     =    -0.0000000651 hartrees
 Guess from superposition of atomic densities
 Warning:  Energy on first SCF cycle will be non-variational
 A restricted hybrid HF-DFT SCF calculation will be
 performed using Pulay DIIS extrapolation
 Exchange:     0.2000 Hartree-Fock + 0.0800 Slater + 0.7200 B88
 Correlation:  0.1900 VWN1RPA + 0.8100 LYP
 Using SG-1 standard quadrature grid
 SCF converges when DIIS error is below 1.0E-05
 using 16 threads for integral computing 
 -------------------------------------------------------
 OpenMP BLAS3 based DFT computing Module                
 Release: version 1.0, May 2013, Q-Chem Inc. Pittsburgh 
 -------------------------------------------------------
 ---------------------------------------
  Cycle       Energy         DIIS Error
 ---------------------------------------
    1   -5680.3022161267      2.15E-02
    2   -5662.4969107925      2.12E-03
    3   -5661.1949459413      3.25E-03
    4   -5663.3038456952      9.06E-04
    5   -5663.4422634341      4.08E-04
    6   -5663.4639589658      2.49E-04
    7   -5663.4757334436      7.07E-05
    8   -5663.4765620255      2.96E-05
    9   -5663.4767280115      1.14E-05
   10   -5663.4767557268      2.87E-06 Convergence criterion met
 ---------------------------------------
 SCF time:  CPU 1154.15 s  wall 104.08 s
 SCF   energy in the final basis set = -5663.4767557268
 Total energy in the final basis set = -5663.4767557268
 
 --------------------------------------------------------------
 
                    Orbital Energies (a.u.)
 --------------------------------------------------------------
 
 Alpha MOs
 -- Occupied --
-88.986 -88.981 -88.934 -88.926 -88.924 -88.922 -88.911 -88.905
-14.387 -14.382 -14.374 -14.368 -14.354 -14.349 -14.347 -14.336
-14.334 -14.322 -10.272 -10.269 -10.266 -10.258 -10.252 -10.252
-10.248 -10.248 -10.243 -10.243 -10.242 -10.241 -10.238 -10.235
-10.233 -10.233 -10.231 -10.231 -10.229 -10.228 -10.228 -10.227
-10.227 -10.225 -10.224 -10.224 -10.222 -10.217 -10.216 -10.215
-10.209 -10.209 -10.208 -10.206 -10.205 -10.199 -10.199 -10.192
-10.182 -10.181 -10.180 -10.180 -10.180 -10.178 -10.177 -10.177
-10.175 -10.173 -10.168 -10.168  -8.041  -8.036  -7.994  -7.986
 -7.984  -7.982  -7.971  -7.964  -6.006  -6.001  -6.000  -5.999
 -5.996  -5.994  -5.958  -5.955  -5.951  -5.950  -5.949  -5.947
 -5.947  -5.945  -5.943  -5.943  -5.941  -5.939  -5.935  -5.932
 -5.929  -5.928  -5.925  -5.921  -1.036  -1.019  -0.983  -0.969
 -0.960  -0.958  -0.936  -0.935  -0.918  -0.912  -0.901  -0.881
 -0.849  -0.842  -0.831  -0.828  -0.812  -0.811  -0.810  -0.804
 -0.803  -0.803  -0.802  -0.791  -0.784  -0.780  -0.773  -0.764
 -0.756  -0.746  -0.741  -0.735  -0.724  -0.718  -0.714  -0.706
 -0.700  -0.692  -0.677  -0.671  -0.652  -0.645  -0.645  -0.638
 -0.637  -0.629  -0.626  -0.621  -0.614  -0.604  -0.604  -0.598
 -0.597  -0.586  -0.584  -0.580  -0.580  -0.572  -0.568  -0.565
 -0.547  -0.546  -0.541  -0.533  -0.526  -0.520  -0.518  -0.513
 -0.507  -0.501  -0.500  -0.496  -0.490  -0.485  -0.481  -0.471
 -0.470  -0.468  -0.467  -0.462  -0.459  -0.456  -0.452  -0.449
 -0.445  -0.444  -0.443  -0.442  -0.440  -0.439  -0.436  -0.432
 -0.430  -0.429  -0.425  -0.424  -0.419  -0.417  -0.414  -0.412
 -0.412  -0.409  -0.405  -0.404  -0.402  -0.401  -0.398  -0.396
 -0.393  -0.391  -0.390  -0.387  -0.385  -0.384  -0.383  -0.383
 -0.379  -0.377  -0.377  -0.363  -0.359  -0.357  -0.356  -0.355
 -0.351  -0.349  -0.348  -0.346  -0.343  -0.339  -0.337  -0.337
 -0.336  -0.334  -0.331  -0.329  -0.326  -0.325  -0.323  -0.320
 -0.315  -0.308  -0.307  -0.306  -0.303  -0.301  -0.298  -0.297
 -0.295  -0.293  -0.291  -0.288  -0.287  -0.284  -0.281  -0.278
 -0.276  -0.269  -0.266  -0.261  -0.259  -0.257  -0.253  -0.247
 -0.245  -0.240  -0.233  -0.227  -0.197  -0.192
 -- Virtual --
 -0.115  -0.105  -0.080  -0.068  -0.044  -0.030  -0.027  -0.026
 -0.022  -0.018  -0.017  -0.010  -0.001   0.000   0.002   0.004
  0.007   0.009   0.020   0.030   0.036   0.037   0.039   0.041
  0.044   0.055   0.059   0.067   0.067   0.081   0.083   0.085
  0.095   0.098   0.099   0.102   0.105   0.108   0.109   0.110
  0.111   0.113   0.117   0.118   0.120   0.122   0.124   0.124
  0.125   0.127   0.130   0.132   0.135   0.142   0.144   0.145
  0.149   0.151   0.155   0.157   0.158   0.161   0.162   0.166
  0.169   0.169   0.172   0.175   0.175   0.177   0.178   0.180
  0.186   0.188   0.190   0.191   0.192   0.195   0.197   0.200
  0.202   0.202   0.205   0.209   0.211   0.212   0.219   0.220
  0.221   0.225   0.226   0.231   0.232   0.234   0.235   0.238
  0.241   0.244   0.244   0.247   0.250   0.252   0.253   0.257
  0.258   0.261   0.264   0.266   0.267   0.273   0.273   0.276
  0.279   0.283   0.290   0.293   0.297   0.301   0.304   0.306
  0.309   0.313   0.314   0.320   0.322   0.324   0.328   0.330
  0.332   0.333   0.338   0.339   0.340   0.346   0.348   0.353
  0.355   0.357   0.362   0.363   0.366   0.370   0.371   0.375
  0.376   0.383   0.390   0.390   0.393   0.398   0.405   0.407
  0.411   0.416   0.417   0.424   0.430   0.433   0.436   0.439
  0.450   0.454   0.455   0.460   0.466   0.468   0.472   0.476
  0.477   0.484   0.486   0.489   0.495   0.496   0.498   0.501
  0.503   0.505   0.510   0.511   0.514   0.516   0.518   0.520
  0.522   0.524   0.526   0.527   0.529   0.533   0.534   0.536
  0.539   0.542   0.543   0.543   0.546   0.548   0.550   0.553
  0.553   0.556   0.558   0.559   0.561   0.566   0.567   0.568
  0.570   0.571   0.576   0.578   0.578   0.581   0.585   0.588
  0.589   0.591   0.592   0.595   0.597   0.600   0.601   0.603
  0.604   0.607   0.611   0.612   0.612   0.615   0.616   0.617
  0.619   0.620   0.623   0.624   0.626   0.630   0.631   0.634
  0.636   0.637   0.639   0.640   0.645   0.647   0.651   0.652
  0.657   0.658   0.664   0.665   0.666   0.672   0.673   0.678
  0.681   0.684   0.689   0.691   0.692   0.695   0.698   0.700
  0.703   0.706   0.711   0.714   0.716   0.719   0.725   0.727
  0.730   0.735   0.740   0.742   0.743   0.750   0.751   0.754
  0.756   0.759   0.760   0.762   0.764   0.768   0.770   0.774
  0.778   0.778   0.784   0.786   0.787   0.788   0.791   0.793
  0.796   0.798   0.803   0.805   0.806   0.810   0.812   0.812
  0.814   0.818   0.819   0.821   0.822   0.823   0.825   0.827
  0.828   0.831   0.833   0.834   0.837   0.839   0.840   0.844
  0.846   0.847   0.850   0.851   0.852   0.855   0.857   0.859
  0.860   0.862   0.864   0.867   0.868   0.871   0.873   0.876
  0.877   0.879   0.881   0.884   0.887   0.889   0.893   0.893
  0.898   0.900   0.901   0.905   0.907   0.909   0.913   0.916
  0.916   0.918   0.921   0.924   0.927   0.932   0.933   0.935
  0.937   0.938   0.939   0.941   0.945   0.946   0.948   0.951
  0.952   0.957   0.959   0.961   0.962   0.965   0.966   0.968
  0.971   0.976   0.978   0.980   0.985   0.987   0.989   0.990
  0.993   0.994   0.995   1.000   1.005   1.007   1.008   1.012
  1.012   1.014   1.019   1.020   1.022   1.028   1.031   1.032
  1.036   1.038   1.042   1.044   1.049   1.049   1.053   1.062
  1.064   1.066   1.072   1.074   1.078   1.079   1.080   1.085
  1.091   1.092   1.099   1.100   1.106   1.108   1.115   1.125
  1.126   1.129   1.132   1.135   1.141   1.142   1.147   1.158
  1.162   1.168   1.173   1.173   1.178   1.183   1.185   1.191
  1.195   1.199   1.205   1.211   1.214   1.220   1.226   1.230
  1.231   1.241   1.246   1.250   1.250   1.252   1.257   1.267
  1.273   1.275   1.283   1.286   1.288   1.291   1.295   1.298
  1.301   1.306   1.309   1.313   1.325   1.328   1.331   1.332
  1.336   1.340   1.344   1.351   1.357   1.362   1.366   1.371
  1.378   1.380   1.395   1.396   1.397   1.400   1.401   1.409
  1.411   1.412   1.417   1.418   1.421   1.430   1.434   1.436
  1.438   1.443   1.447   1.449   1.450   1.456   1.463   1.469
  1.478   1.480   1.486   1.496   1.499   1.518   1.519   1.523
  1.530   1.532   1.535   1.544   1.551   1.553   1.563   1.568
  1.568   1.575   1.590   1.592   1.603   1.605   1.608   1.612
  1.620   1.622   1.629   1.631   1.639   1.640   1.648   1.652
  1.653   1.660   1.665   1.673   1.676   1.680   1.690   1.692
  1.694   1.695   1.700   1.700   1.703   1.706   1.708   1.713
  1.717   1.721   1.729   1.731   1.733   1.737   1.742   1.747
  1.750   1.760   1.764   1.765   1.774   1.777   1.781   1.781
  1.786   1.791   1.792   1.796   1.797   1.799   1.809   1.813
  1.820   1.823   1.828   1.829   1.830   1.836   1.838   1.840
  1.851   1.856   1.857   1.864   1.868   1.872   1.873   1.878
  1.883   1.884   1.888   1.890   1.891   1.895   1.902   1.905
  1.907   1.910   1.911   1.916   1.917   1.920   1.920   1.927
  1.928   1.932   1.935   1.941   1.948   1.951   1.954   1.961
  1.966   1.968   1.969   1.972   1.976   1.977   1.979   1.983
  1.988   1.992   2.000   2.006   2.018   2.020   2.025   2.028
  2.035   2.042   2.050   2.051   2.054   2.054   2.056   2.072
  2.073   2.075   2.080   2.081   2.085   2.092   2.101   2.102
  2.105   2.108   2.113   2.116   2.123   2.127   2.128   2.133
  2.137   2.142   2.142   2.146   2.147   2.153   2.159   2.163
  2.166   2.170   2.173   2.174   2.179   2.179   2.181   2.183
  2.188   2.190   2.192   2.202   2.205   2.206   2.210   2.216
  2.223   2.228   2.231   2.236   2.239   2.244   2.246   2.252
  2.257   2.257   2.261   2.267   2.269   2.273   2.276   2.282
  2.288   2.292   2.294   2.304   2.305   2.312   2.314   2.315
  2.318   2.319   2.320   2.320   2.328   2.331   2.339   2.344
  2.345   2.353   2.355   2.356   2.359   2.362   2.363   2.369
  2.370   2.372   2.377   2.382   2.383   2.389   2.391   2.395
  2.396   2.400   2.404   2.409   2.413   2.415   2.419   2.421
  2.423   2.429   2.430   2.433   2.435   2.436   2.445   2.445
  2.447   2.452   2.456   2.462   2.466   2.471   2.473   2.477
  2.478   2.481   2.484   2.486   2.491   2.499   2.507   2.510
  2.512   2.514   2.518   2.520   2.526   2.532   2.533   2.537
  2.541   2.546   2.548   2.558   2.561   2.566   2.568   2.569
  2.573   2.575   2.577   2.578   2.587   2.595   2.596   2.599
  2.604   2.607   2.609   2.610   2.615   2.635   2.639   2.641
  2.650   2.652   2.654   2.657   2.660   2.664   2.669   2.674
  2.678   2.685   2.688   2.692   2.695   2.699   2.703   2.708
  2.713   2.720   2.723   2.725   2.730   2.731   2.736   2.738
  2.748   2.750   2.757   2.759   2.767   2.771   2.781   2.782
  2.789   2.797   2.798   2.804   2.814   2.825   2.827   2.828
  2.844   2.845   2.848   2.856   2.860   2.864   2.869   2.872
  2.878   2.887   2.889   2.894   2.895   2.897   2.900   2.909
  2.920   2.925   2.933   2.934   2.935   2.937   2.941   2.949
  2.949   2.951   2.967   2.969   2.984   2.998   3.010   3.024
  3.049   3.054   3.055   3.064   3.084   3.093   3.101   3.117
  3.164   3.186   3.187   3.188   3.195   3.208   3.229   3.241
  3.243   3.247   3.250   3.258   3.260   3.262   3.278   3.283
  3.290   3.299   3.303   3.309   3.309   3.318   3.323   3.336
  3.340   3.353   3.368   3.371   3.380   3.389   3.423   3.441
  3.443   3.446   3.462   3.486   3.486   3.497   3.532   3.539
  3.550   3.553   3.559   3.565   3.568   3.573   3.584   3.625
  3.626   3.644   3.723   3.743   3.871   3.877   3.908   3.915
  3.917   3.923   3.945   3.952   3.967   3.969   3.993   3.999
  4.012   4.074   4.075   4.085   4.101   4.112   4.118   4.125
  4.139   4.144   4.151   4.160   4.167   4.176   4.187   4.202
  4.218   4.229   4.240   4.252   4.258   4.263   4.272   4.279
  4.280   4.294   4.333   4.359   4.369   4.377   4.383   4.404
  4.413   4.433   4.441   4.451   4.473   4.476   4.479   4.489
  4.518   4.533   4.539   4.553   4.575   4.599   4.657   4.667
  4.691   4.700   4.719   4.724   4.749   4.770   4.797   4.801
 --------------------------------------------------------------
 
          Ground-State Mulliken Net Atomic Charges

     Atom                 Charge (a.u.)
  ----------------------------------------
      1 C                     0.296257
      2 C                    -0.124319
      3 N                    -0.493845
      4 C                    -0.071104
      5 C                     0.095686
      6 C                     0.019733
      7 C                     0.024512
      8 C                     0.058869
      9 C                     0.208651
     10 N                    -0.508648
     11 N                    -0.514125
     12 C                     0.208996
     13 C                     0.288338
     14 S                     0.619576
     15 N                    -0.580393
     16 C                    -0.191081
     17 S                     0.332637
     18 C                    -0.168029
     19 C                    -0.245894
     20 S                     0.276571
     21 C                     0.174741
     22 C                     0.079187
     23 C                    -0.326048
     24 C                    -0.038845
     25 N                    -0.433701
     26 S                     0.261944
     27 C                     0.121488
     28 C                    -0.309336
     29 C                    -0.215055
     30 H                     0.101628
     31 H                     0.108148
     32 H                     0.110007
     33 H                     0.109866
     34 H                     0.131949
     35 H                     0.117920
     36 H                     0.116986
     37 H                     0.135057
     38 H                     0.089769
     39 C                    -0.190176
     40 H                     0.118584
     41 H                     0.090736
     42 H                     0.103103
     43 C                    -0.184540
     44 H                     0.091364
     45 C                    -0.171707
     46 H                     0.095328
     47 H                     0.085799
     48 H                     0.096686
     49 C                    -0.187594
     50 H                     0.094242
     51 C                    -0.320628
     52 H                     0.093877
     53 H                     0.107712
     54 H                     0.096816
     55 H                     0.105298
     56 C                     0.265971
     57 C                    -0.108978
     58 N                    -0.481060
     59 C                    -0.061841
     60 C                     0.058691
     61 C                     0.064510
     62 C                     0.018828
     63 C                     0.077766
     64 C                     0.199624
     65 N                    -0.535709
     66 N                    -0.541252
     67 C                     0.192835
     68 C                     0.284631
     69 S                     0.643035
     70 N                    -0.558075
     71 C                    -0.219738
     72 S                     0.362062
     73 C                    -0.142799
     74 C                    -0.222160
     75 S                     0.291144
     76 C                     0.184891
     77 C                     0.040878
     78 C                    -0.312843
     79 C                    -0.082333
     80 N                    -0.424551
     81 S                     0.276709
     82 C                     0.127298
     83 C                    -0.301976
     84 C                    -0.232916
     85 H                     0.096980
     86 H                     0.109769
     87 H                     0.088418
     88 H                     0.115619
     89 H                     0.130799
     90 H                     0.109528
     91 H                     0.116363
     92 H                     0.138896
     93 H                     0.103054
     94 C                    -0.183372
     95 H                     0.120627
     96 H                     0.094776
     97 H                     0.088863
     98 C                    -0.174180
     99 H                     0.097790
    100 C                    -0.181028
    101 H                     0.102770
    102 H                     0.086057
    103 H                     0.089591
    104 C                    -0.173706
    105 H                     0.098387
    106 C                    -0.320202
    107 H                     0.096681
    108 H                     0.099133
    109 H                     0.095834
    110 H                     0.096923
  ----------------------------------------
  Sum of atomic charges =     0.000000

 -----------------------------------------------------------------
                    Cartesian Multipole Moments
 -----------------------------------------------------------------
    Charge (ESU x 10^10)
                 0.0000
    Dipole Moment (Debye)
         X      -1.0086      Y      -1.1051      Z      -4.0917
       Tot       4.3566
    Quadrupole Moments (Debye-Ang)
        XX    -406.8203     XY      14.4120     YY    -431.7143
        XZ     -10.4838     YZ      20.6963     ZZ    -442.8342
    Octopole Moments (Debye-Ang^2)
       XXX    -153.3247    XXY     -52.0453    XYY     -83.7551
       YYY    -312.7215    XXZ     -88.8093    XYZ      10.7610
       YYZ    -174.2039    XZZ      65.5469    YZZ     -75.8262
       ZZZ    -106.0739
    Hexadecapole Moments (Debye-Ang^3)
      XXXX  -63590.1298   XXXY     577.9379   XXYY  -17187.4835
      XYYY    1856.2172   YYYY  -47034.5613   XXXZ    -884.6527
      XXYZ     787.0486   XYYZ     531.0707   YYYZ    1078.2305
      XXZZ  -12078.5434   XYZZ    -113.8478   YYZZ   -9615.1279
      XZZZ    -422.2242   YZZZ     367.8311   ZZZZ   -8659.3819
 -----------------------------------------------------------------
Archival summary:
1\1\mn426\SP\ProcedureUnspecified\6-31G**\8105042\afmv_a\SatOct609:16:482018SatOct609:16:482018\0\\#,ProcedureUnspecified,6-31G**,\\0,1\S\C,1,1.76335\C,2,1.36508,1,108.118\C,3,1.39951,2,114.947,1,3.09271,0\C,4,1.405,3,116.349,2,2.66891,0\C,2,1.41243,1,128.381,3,-179.166,0\N,6,1.35475,2,111.355,1,4.75893,0\C,7,1.36856,6,111.49,2,-153.923,0\H,8,1.0823,7,122.284,6,176.364,0\C,8,1.33587,7,116.808,6,5.37418,0\H,10,1.08267,8,123.099,7,-172.381,0\C,3,1.43709,2,137.851,1,-173.52,0\H,12,1.0839,3,123.163,2,-1.06184,0\C,12,1.37491,3,114.154,2,177.899,0\H,14,1.08137,12,129.86,3,-174.65,0\C,5,1.46737,4,123.509,3,178.513,0\N,16,1.35747,5,119.754,4,-15.5146,0\C,17,1.33368,16,119.977,5,-171.443,0\H,18,1.08921,17,121.142,16,171.879,0\C,18,1.41414,17,124.621,16,-3.62517,0\C,20,1.42048,18,114.684,17,-7.5832,0\N,21,1.37095,20,124.021,18,-164.229,0\C,21,1.37117,20,120.796,18,5.52466,0\N,23,1.35344,21,114.781,20,173.981,0\C,20,1.52019,18,125.349,17,-175.447,0\C,25,1.41029,20,128.169,18,-157.513,0\H,26,1.08589,25,116.084,20,-3.49366,0\C,26,1.35696,25,121.91,20,176.171,0\H,28,1.08618,26,116.416,25,-178.292,0\C,28,1.4109,26,119.62,25,-0.449177,0\N,30,1.38298,28,122.571,26,-2.08816,0\C,31,1.34131,30,113.958,28,3.29078,0\H,32,1.08891,31,115.125,30,174.947,0\C,30,1.49561,28,124.011,26,-175.387,0\H,34,1.0963,30,110.695,28,-62.7811,0\H,34,1.09719,30,116.574,28,169.807,0\C,34,1.51611,30,116.057,28,49.5212,0\H,37,1.09719,34,103.305,30,-70.7737,0\H,37,1.09755,34,112.472,30,-179.547,0\C,37,1.54878,34,110.895,30,53.014,0\H,40,1.09652,37,115.483,34,56.6917,0\H,40,1.09704,37,109.76,34,-66.2746,0\C,40,1.55505,37,108.961,34,177.383,0\H,43,1.09654,40,106.077,37,-162.622,0\H,43,1.0967,40,113.474,37,-50.6478,0\C,43,1.57942,40,111.646,37,83.9792,0\H,46,1.09675,43,109.973,40,-60.1649,0\H,46,1.09711,43,112.372,40,66.5407,0\C,46,1.52953,43,109.482,40,-177.069,0\H,49,1.09696,46,112.75,43,-52.4333,0\H,49,1.09713,46,120.351,43,-170.68,0\H,49,1.09774,46,105.437,43,58.531,0\S,22,1.6249,21,103.965,20,-176.452,0\S,4,1.70175,3,118.204,2,-177.649,0\S,10,1.76836,8,110.496,7,-3.89867,0\H,15,2.67647,14,85.2695,12,62.808,0\C,56,1.09761,15,172.388,14,-130.431,0\H,57,1.09705,56,103.197,15,84.2093,0\C,57,1.48036,56,116.668,15,-170.149,0\H,59,1.09707,57,106.518,56,53.4671,0\H,59,1.09731,57,110.59,56,178.341,0\C,59,1.47655,57,113.446,56,-58.4484,0\N,62,1.32424,59,112.29,57,-102.595,0\C,62,1.35268,59,120.573,57,88.9657,0\H,64,1.0859,62,116.628,59,-19.9265,0\C,63,1.3691,62,116.704,59,-169.89,0\H,66,1.08905,63,115.202,62,170.511,0\C,66,1.43426,63,122.335,62,0.563051,0\C,68,1.42288,66,119.389,63,4.55861,0\H,69,1.08565,68,121.404,66,176.664,0\C,68,1.49785,66,120.586,63,-176.659,0\C,71,1.41969,68,121.225,66,49.1003,0\N,72,1.37371,71,125.958,68,-0.0573433,0\C,72,1.41726,71,121.576,68,171.939,0\N,74,1.37656,72,112.491,71,175.416,0\C,71,1.42133,68,123.955,66,-138.366,0\H,76,1.08888,71,122.4,68,1.75925,0\N,76,1.33769,71,123.829,68,174.621,0\C,78,1.33404,76,120.788,71,18.8641,0\C,79,1.4914,78,122.616,76,-178.034,0\C,80,1.42114,79,118.939,78,-18.4123,0\C,81,1.41289,80,116.783,79,-162.866,0\C,82,1.36539,81,112.325,80,-11.1272,0\C,83,1.37383,82,128.396,81,-174.129,0\N,84,1.27603,83,117.141,82,26.4819,0\C,85,1.39464,84,110.213,83,175.519,0\H,86,1.08185,85,111.093,84,-179.983,0\C,86,1.35986,85,113.227,84,4.28889,0\H,88,1.0819,86,131.485,85,173.238,0\C,82,1.41977,81,113.299,80,164.84,0\H,90,1.08409,82,124.146,81,176.727,0\C,90,1.39687,82,112.081,81,0.388345,0\H,92,1.08252,90,130.784,82,-179.033,0\S,73,1.57936,72,109.614,71,179.942,0\C,57,1.61501,56,111.777,15,-32.9277,0\H,95,1.09661,57,112.461,56,175.768,0\H,95,1.09666,57,113.381,56,-59.7718,0\C,95,1.56964,57,110.446,56,57.429,0\H,98,1.09713,95,102.952,57,-61.3181,0\H,98,1.09759,95,109.578,57,53.313,0\C,98,1.54627,95,111.324,57,179.818,0\H,101,1.09729,98,110.909,95,75.8632,0\H,101,1.09753,98,117.362,95,-44.7213,0\C,101,1.5984,98,109.343,95,-169.419,0\H,104,1.09656,101,108.082,98,-161.015,0\H,104,1.09716,101,110.613,98,83.5068,0\H,104,1.09737,101,101.268,98,-43.6803,0\S,80,1.72782,79,133.703,78,-178.241,0\S,84,1.73425,83,124.39,82,-162.334,0\S,81,1.75382,80,128.668,79,-1.84869,0\\\@

 Total job time:  108.02s(wall), 1164.43s(cpu) 
 Sat Oct  6 09:16:48 2018

        *************************************************************
        *                                                           *
        *  Thank you very much for using Q-Chem.  Have a nice day.  *
        *                                                           *
        *************************************************************


