
Running Job 1 of 1 ./8/81.qcin
qchem ./8/81.qcin_15787.0 /tmpu/cab_g/afmv_a/scratch_qchem/qchem15787/ 1
/tmpu/appuserlic/qchem4.4/serial-multicore/exe/qcprog.exe_s ./8/81.qcin_15787.0 /tmpu/cab_g/afmv_a/scratch_qchem/qchem15787/
Check license passed

                  Welcome to Q-Chem
     A Quantum Leap Into The Future Of Chemistry


 Q-Chem 4.4, Q-Chem, Inc., Pleasanton, CA (2016)

 Y. Shao,  Z. Gan,  E. Epifanovsky,  A. T. B. Gilbert,  M. Wormit,  
 J. Kussmann,  A. W. Lange,  A. Behn,  J. Deng,  X. Feng,  D. Ghosh,  
 M. Goldey,  P. R. Horn,  L. D. Jacobson,  I. Kaliman,  F. Rob,  
 R. Z. Khaliullin,  T. Kus,  A. Landau,  J. Liu,  E. I. Proynov,  Y. M. Rhee,  
 R. M. Richard,  M. A. Rohrdanz,  R. P. Steele,  E. J. Sundstrom,  
 H. L. Woodcock III,  P. M. Zimmerman,  D. Zuev,  B. Albrecht,  E. Alguire,  
 B. Austin,  S. A. Baeppler,  G. J. O. Beran,  Y. A. Bernard,  E. Berquist,  
 K. Brandhorst,  K. B. Bravaya,  S. T. Brown,  D. Casanova,  C.-M. Chang,  
 Y. Chen,  S. H. Chien,  K. D. Closser,  M. P. Coons,  D. L. Crittenden,  
 S. Dasgupta,  M. Diedenhofen,  R. A. DiStasio Jr.,  H. Do,  A. D. Dutoi,  
 R. G. Edgar,  P.-T. Fang,  S. Fatehi,  Q. Feng,  L. Fusti-Molnar,  
 A. Ghysels,  A. Golubeva-Zadorozhnaya,  J. Gomes,  A. Gunina,  
 M. W. D. Hanson-Heine,  P. H. P. Harbach,  A. W. Hauser,  J. E. Herr,  
 E. G. Hohenstein,  Z. C. Holden,  K. Hui,  T.-C. Jagau,  H. Ji,  B. Kaduk,  
 K. Khistyaev,  Jaehoon Kim,  Jihan Kim,  R. A. King,  P. Klunzinger,  
 K. Koh,  D. Kosenkov,  T. Kowalczyk,  C. M. Krauter,  A. Kunitsa,  
 K. U. Lao,  A. Laurent,  K. V. Lawler,  J. Lee,  D. Lefrancois,  S. Lehtola,  
 S. V. Levchenko,  C. Y. Lin,  Y.-S. Lin,  F. Liu,  E. Livshits,  
 R. C. Lochan,  A. Luenser,  P. Manohar,  S. F. Manzer,  S.-P. Mao,  Y. Mao,  
 N. Mardirossian,  A. V. Marenich,  L. A. Martinez-Martinez,  S. A. Maurer,  
 N. J. Mayhall,  J.-M. Mewes,  A. F. Morrison,  K. Nanda,  T. S. Nguyen-Beck,  
 C. M. Oana,  R. Olivares-Amaya,  D. P. O'Neill,  J. A. Parkhill,  
 T. M. Perrine,  R. Peverati,  P. A. Pieniazek,  F. Plasser,  A. Prociuk,  
 D. R. Rehn,  E. Rosta,  N. J. Russ,  N. Sergueev,  S. M. Sharada,  
 S. Sharma,  D. W. Small,  A. Sodt,  T. Stauch,  T. Stein,  D. Stuck,  
 Y.-C. Su,  A. J. W. Thom,  T. Tsuchimochi,  L. Vogt,  O. Vydrov,  T. Wang,  
 M. A. Watson,  J. Wenzel,  A. White,  C. F. Williams,  V. Vanovschi,  
 K. Yao,  S. Yeganeh,  S. R. Yost,  Z.-Q. You,  I. Y. Zhang,  X. Zhang,  
 Y. Zhao,  B. R. Brooks,  G. K. L. Chan,  D. M. Chipman,  C. J. Cramer,  
 W. A. Goddard III,  M. S. Gordon,  W. J. Hehre,  A. Klamt,  
 H. F. Schaefer III,  M. W. Schmidt,  C. D. Sherrill,  D. G. Truhlar,  
 A. Warshel,  X. Xu,  A. Aspuru-Guzik,  R. Baer,  A. T. Bell,  N. A. Besley,  
 J.-D. Chai,  A. Dreuw,  B. D. Dunietz,  T. R. Furlani,  S. R. Gwaltney,  
 C.-P. Hsu,  Y. Jung,  J. Kong,  D. S. Lambrecht,  W. Liang,  C. Ochsenfeld,  
 V. A. Rassolov,  L. V. Slipchenko,  J. E. Subotnik,  T. Van Voorhis,  
 J. M. Herbert,  A. I. Krylov,  P. M. W. Gill,  M. Head-Gordon

 Contributors to earlier versions of Q-Chem not listed above: 
 R. D. Adamson,  J. Baker,  E. F. C. Byrd,  A. K. Chakraborty,  C.-L. Cheng,  
 H. Dachsel,  R. J. Doerksen,  G. Hawkins,  A. Heyden,  S. Hirata,  
 G. Kedziora,  F. J. Keil,  C. Kelley,  P. P. Korambath,  W. Kurlancheek,  
 A. M. Lee,  M. S. Lee,  D. Liotard,  I. Lotan,  P. E. Maslen,  N. Nair,  
 D. Neuhauser,  R. Olson,  B. Peters,  J. Ritchie,  N. E. Schultz,  
 N. Shenvi,  A. C. Simmonett,  K. S. Thanthiriwatte,  Q. Wu,  W. Zhang

 Please cite Q-Chem as follows:
 Y. Shao et al., Mol. Phys. 113, 184-215 (2015)
 DOI: 10.1080/00268976.2014.952696

 Q-Chem 4.4.2 for Intel X86 Linux

 Parts of Q-Chem use Armadillo 5.200.1 (Boston Tea Smuggler).
 http://arma.sourceforge.net/

 Q-Chem begins on Sat Oct  6 09:42:31 2018  

Host: 
0

     Scratch files written to /tmpu/cab_g/afmv_a/scratch_qchem/qchem15787//
 Dec716 11556_ 22328  22283 4050   
Processing $rem in /tmpu/appuserlic/qchem4.4/serial-multicore/config/preferences.
 MEM_TOTAL  2000 
FILE_GEOM_ORG=        593

Checking the input file for inconsistencies... 	...done.

--------------------------------------------------------------
User input:
--------------------------------------------------------------
$comment
SP
$end

$rem
MEM_STATIC 5000
MEM_TOTAL 20000
JOBTYPE SP
EXCHANGE B3LYP
BASIS 6-31g(d,p)
$end

$molecule
0 1
C          27.418000     30.489000      0.667000
C          26.132000     30.591000      1.281000
N          27.671000     29.632000     -0.297000
C          25.078000     29.781000      0.806000
C          26.662000     28.883000     -0.761000
C          25.332000     28.872000     -0.227000
C          24.325000     27.888000     -0.786000
C          24.727000     26.691000     -1.276000
C          22.912000     28.164000     -0.929000
N          24.056000     25.861000     -1.983000
N          22.313000     29.244000     -0.456000
C          22.143000     27.277000     -1.694000
C          22.717000     26.061000     -2.175000
S          20.757000     29.067000     -0.839000
N          20.839000     27.735000     -1.808000
C          21.923000     25.062000     -3.008000
S          20.164000     24.927000     -3.022000
C          22.528000     24.328000     -4.008000
C          20.343000     23.578000     -4.141000
S          24.158000     24.243000     -4.587000
C          21.640000     23.477000     -4.616000
C          19.285000     23.206000     -5.058000
C          23.677000     23.060000     -5.769000
C          22.339000     22.772000     -5.647000
N          18.430000     24.138000     -5.347000
S          19.088000     21.719000     -5.972000
C          17.733000     23.793000     -6.447000
C          17.794000     22.428000     -6.707000
C          28.530000     31.422000      1.035000
H          26.035000     31.254000      2.135000
H          24.156000     29.713000      1.377000
H          26.857000     28.245000     -1.621000
H          25.758000     26.356000     -1.171000
H          24.405000     22.716000     -6.491000
H          21.844000     22.065000     -6.303000
H          16.957000     24.438000     -6.838000
H          17.368000     21.815000     -7.490000
H          29.209000     31.507000      0.178000
C          29.216000     31.129000      2.387000
H          28.113000     32.419000      1.226000
H          29.349000     30.043000      2.471000
H          28.555000     31.316000      3.243000
C          30.525000     31.818000      2.528000
H          31.317000     31.515000      1.831000
C          31.316000     31.670000      3.911000
H          30.369000     32.839000      2.158000
H          30.514000     31.906000      4.620000
H          32.227000     32.266000      4.044000
C          31.803000     30.179000      4.134000
H          30.889000     29.604000      4.326000
C          32.667000     30.023000      5.402000
H          32.159000     29.770000      3.181000
H          32.715000     29.018000      5.839000
H          32.256000     30.636000      6.214000
H          33.683000     30.376000      5.184000
C          19.574000     17.638000     -1.632000
C          18.489000     17.283000     -0.829000
N          19.565000     18.704000     -2.472000
C          17.305000     18.014000     -0.929000
C          18.431000     19.438000     -2.442000
C          17.198000     19.094000     -1.782000
C          16.031000     19.969000     -1.826000
C          14.710000     19.526000     -1.753000
C          16.018000     21.403000     -1.939000
N          13.587000     20.207000     -1.660000
N          17.167000     22.119000     -2.051000
C          14.894000     22.150000     -1.847000
C          13.621000     21.551000     -1.671000
S          16.748000     23.663000     -2.115000
N          15.168000     23.482000     -1.848000
C          12.308000     22.281000     -1.527000
S          12.109000     23.986000     -2.136000
C          11.121000     21.718000     -1.166000
C          10.379000     23.937000     -1.697000
S          10.694000     20.107000     -0.792000
C          10.073000     22.618000     -1.298000
C           9.447000     25.054000     -1.687000
C           9.013000     20.609000     -1.012000
C           8.799000     21.964000     -1.146000
N           9.819000     26.135000     -2.340000
S           7.901000     25.138000     -0.787000
C           8.878000     27.132000     -2.246000
C           7.792000     26.740000     -1.513000
C          20.911000     16.938000     -1.576000
H          18.608000     16.453000     -0.140000
H          16.428000     17.741000     -0.350000
H          18.456000     20.333000     -3.061000
H          14.592000     18.446000     -1.676000
H           8.205000     19.892000     -1.077000
H           7.872000     22.489000     -1.346000
H           8.992000     28.068000     -2.777000
H           6.875000     27.279000     -1.314000
H          21.624000     17.697000     -1.231000
C          21.134000     16.170000     -2.882000
H          20.837000     16.138000     -0.829000
H          20.184000     15.980000     -3.397000
H          21.565000     15.174000     -2.718000
C          22.157000     16.889000     -3.795000
H          22.048000     17.980000     -3.778000
C          21.901000     16.476000     -5.271000
H          23.209000     16.734000     -3.526000
H          22.636000     17.027000     -5.870000
H          20.900000     16.779000     -5.603000
C          22.211000     14.993000     -5.538000
H          23.188000     14.917000     -5.046000
C          22.309000     14.488000     -7.002000
H          21.627000     14.283000     -4.939000
H          22.947000     13.629000     -7.245000
H          22.750000     15.266000     -7.637000
H          21.358000     14.158000     -7.438000
$end

--------------------------------------------------------------
 ----------------------------------------------------------------
             Standard Nuclear Orientation (Angstroms)
    I     Atom           X                Y                Z
 ----------------------------------------------------------------
    1      C      10.4543888827     2.5498770588    -0.0667715588
    2      C       9.4573286226     3.4391159015     0.4395101004
    3      N      10.1527889130     1.3933704935    -0.6138401311
    4      C       8.0956221123     3.0922654196     0.3050068552
    5      C       8.8589145819     1.0795783434    -0.7614941242
    6      C       7.7612007447     1.8684232653    -0.2851276467
    7      C       6.3531028316     1.3283920579    -0.4280001847
    8      C       6.1186387506    -0.0053790936    -0.4036258123
    9      C       5.1903383554     2.1490841376    -0.6880718735
   10      N       5.0500628600    -0.6260326579    -0.7381773316
   11      N       5.1969690818     3.4715352227    -0.6850451763
   12      C       4.0006321235     1.5062061463    -1.0550350463
   13      C       3.9125147060     0.0814550880    -1.0124587322
   14      S       3.6739148978     3.9031186296    -0.9903249098
   15      N       3.0171505963     2.4357322818    -1.3582202190
   16      C       2.6414855418    -0.6654360318    -1.3984179517
   17      S       1.0176757950     0.0241481879    -1.3836697221
   18      C       2.6992048511    -1.8954331702    -2.0217609719
   19      C       0.4147744450    -1.5546804239    -1.8814780955
   20      S       4.0152304904    -2.9157530178    -2.4975654752
   21      C       1.4453396614    -2.3988290804    -2.2601380755
   22      C      -0.8380462969    -1.6993317564    -2.5943267335
   23      C       2.8856401860    -4.0796593285    -3.1279001834
   24      C       1.5937907124    -3.6591744050    -2.9220134023
   25      N      -1.2497835275    -0.6507592081    -3.2378623300
   26      S      -1.7996666931    -3.1459744187    -2.8548746580
   27      C      -2.2008055399    -1.0034434488    -4.1244315367
   28      C      -2.7714548135    -2.2366337068    -3.8275356054
   29      C      11.9021110605     2.9325383019    -0.0780794734
   30      H       9.7965765133     4.3270496627     0.9637032942
   31      H       7.3425989024     3.6611211368     0.8436238048
   32      H       8.6164418904     0.1650730241    -1.2995982173
   33      H       6.9102619117    -0.7129196551    -0.1608705346
   34      H       3.2654066415    -4.9492914710    -3.6466692805
   35      H       0.7426307009    -4.2419485441    -3.2553464755
   36      H      -2.6816219980    -0.2612179574    -4.7481292629
   37      H      -3.5425211945    -2.8193707667    -4.3135481107
   38      H      12.3983781726     2.3872512938    -0.8899267696
   39      C      12.6138902832     2.8594020000     1.2902663964
   40      H      11.9879479060     4.0040231927    -0.2992833719
   41      H      12.2837344615     1.9428053756     1.7952305154
   42      H      12.2492950619     3.6178966628     1.9948103418
   43      C      14.0948101259     2.8724614629     1.1686568988
   44      H      14.5531314757     2.0158539158     0.6577292615
   45      C      14.9668940285     2.8805276005     2.5101779028
   46      H      14.3288964878     3.6451254368     0.4257767210
   47      H      14.4731598774     3.6913325709     3.0582681218
   48      H      16.0529956444     2.9969747605     2.4119468545
   49      C      14.8023119820     1.5210564718     3.3068773443
   50      H      13.7769615623     1.5383907567     3.6957745537
   51      C      15.7166191962     1.4484130233     4.5468052646
   52      H      14.7849231734     0.6866472589     2.5957620972
   53      H      15.4045514585     0.7619656464     5.3434869613
   54      H      15.7483486077     2.4243124864     5.0474523283
   55      H      16.7337603531     1.1941723852     4.2224989821
   56      C      -2.3780502330    -5.1565482481     2.7441808300
   57      C      -3.3593370269    -4.6648619778     3.6063756106
   58      N      -2.0728783581    -4.5811534650     1.5534550134
   59      C      -4.1175157710    -3.5626505601     3.2107596572
   60      C      -2.7635330803    -3.4532535916     1.2769592082
   61      C      -3.8956950806    -2.9356222971     2.0011774406
   62      C      -4.5680476175    -1.7039012539     1.6008583956
   63      C      -5.9190042365    -1.4349654770     1.8226888751
   64      C      -3.9878566609    -0.5687154036     0.9345059819
   65      N      -6.6118895718    -0.3329674884     1.6250798034
   66      N      -2.6801055201    -0.5501944156     0.5672936090
   67      C      -4.6536916547     0.5872035090     0.7100862224
   68      C      -6.0111406707     0.7435121212     1.0885116269
   69      S      -2.4058410692     0.8777896430    -0.1029552548
   70      N      -3.8429869009     1.5476601584     0.1908735235
   71      C      -6.8435439787     1.9904701325     0.9158690750
   72      S      -6.3964587900     3.2557773566    -0.3156419736
   73      C      -8.0781880059     2.2024183409     1.4515845621
   74      C      -7.8819291830     4.1629124098     0.0824857782
   75      S      -9.0812242251     1.2167573076     2.4210775586
   76      C      -8.6488382777     3.3688743011     0.9622311518
   77      C      -8.2332266767     5.5036240830    -0.3596627039
   78      C     -10.3989352883     2.3170155949     1.9977168907
   79      C     -10.0346217878     3.4722784776     1.3401301320
   80      N      -7.5515657877     5.9832997891    -1.3787817594
   81      S      -9.4211867154     6.5985699915     0.4130056622
   82      C      -7.9478893987     7.2600738905    -1.6967463630
   83      C      -8.9575554843     7.6972161351    -0.8844471240
   84      C      -1.4780086428    -6.3190772323     3.0893713525
   85      H      -3.4915111188    -5.1516973022     4.5672623762
   86      H      -4.9164897149    -3.1787043757     3.8377564390
   87      H      -2.4639105659    -2.9544558760     0.3570471539
   88      H      -6.4709486284    -2.2343357196     2.3152511590
   89      H     -11.4335887224     2.0789068278     2.2074178360
   90      H     -10.6687851708     4.2534779822     0.9369947483
   91      H      -7.5369240096     7.7828078411    -2.5505084293
   92      H      -9.5099864652     8.6267919447    -0.9259179027
   93      H      -0.4630031235    -5.9039413289     3.1193876416
   94      C      -1.8257052866    -7.5106030801     2.1923974409
   95      H      -1.7592861997    -6.6725902767     4.0890695387
   96      H      -2.8376111967    -7.4136510324     1.7795152187
   97      H      -1.8391646050    -8.4617498099     2.7399481190
   98      C      -0.7629672668    -7.7161322182     1.0854174616
   99      H      -0.3924138331    -6.7706098842     0.6717404515
  100      C      -1.4138677057    -8.4593716406    -0.1140010557
  101      H       0.1514723363    -8.2283273741     1.4087537176
  102      H      -0.6261114412    -8.5587673088    -0.8704318647
  103      H      -2.2304937635    -7.8721701372    -0.5525786158
  104      C      -1.8145501614    -9.9051674059     0.2263020077
  105      H      -0.8957731150   -10.2395326092     0.7227067315
  106      C      -2.1878684253   -10.8811024417    -0.9209160535
  107      H      -2.5357610290   -10.0044978020     1.0472437576
  108      H      -2.0271552952   -11.9595977223    -0.7984692507
  109      H      -1.5708778574   -10.6736794267    -1.8036891455
  110      H      -3.2470428318   -10.8698296342    -1.2062570782
 ----------------------------------------------------------------
 Molecular Point Group                 C1    NOp =  1
 Largest Abelian Subgroup              C1    NOp =  1
 Nuclear Repulsion Energy = 11083.1054954965 hartrees
 There are      270 alpha and      270 beta electrons
 Requested basis set is 6-31G(d,p)
 There are 406 shells and 1262 basis functions

 Total QAlloc Memory Limit  20000 MB
 Mega-Array Size      4888 MB
 MEM_STATIC part      5000 MB
 A cutoff of  1.0D-08 yielded  12841 shell pairs
 There are    135449 function pairs
 
 -------------------------------------------------------
 OpenMP Integral Computing Module                       
 Release: version 1.0, May 2013, Q-Chem Inc. Pittsburgh 
 -------------------------------------------------------
 Integral Job Info:
 Integral job number is                      11
 Integral operator is                         1
 short-range coefficients                     0
 long-range coefficients              100000000
 Omega coefficients                           0
 if combine SR and LR in K                    0
 Integral screening is                        0
 Integral computing path is                   2
 max size of driver memory is            800000
 size of driver memory is                593474
 size of scratch memory is             15166112
 max col of scratch BK array               1296
 max len of scratch array in speh3          155
 max len of scratch index in speh4           18
 max int batch size is                      520
 min int batch size is                       52
 fixed nKL is                                52
 max L of basis functions is                  2
 order of int derivative is                   0
 number of shells is                        406
 number of basis is                        1262
 number of cartesian basis is              1262
 number of contracted shell pairs         12841
 number of primitive shell pairs          41950
 maxK2 (contraction) of shell pair           36
 max number of K2 of shell pair               1
 max number of CS2 of shell pair           1316
 max number of PS2 of shell pair           7758
 mem total for path MDJ                  280792
 -------------------------------------------------------
 Smallest overlap matrix eigenvalue = 3.61E-04

 Scale SEOQF with 1.000000e-03/1.000000e-02/1.000000e-02

 Standard Electronic Orientation quadrupole field applied
 Nucleus-field energy     =     0.0000000493 hartrees
 Guess from superposition of atomic densities
 Warning:  Energy on first SCF cycle will be non-variational
 A restricted hybrid HF-DFT SCF calculation will be
 performed using Pulay DIIS extrapolation
 Exchange:     0.2000 Hartree-Fock + 0.0800 Slater + 0.7200 B88
 Correlation:  0.1900 VWN1RPA + 0.8100 LYP
 Using SG-1 standard quadrature grid
 SCF converges when DIIS error is below 1.0E-05
 using 16 threads for integral computing 
 -------------------------------------------------------
 OpenMP BLAS3 based DFT computing Module                
 Release: version 1.0, May 2013, Q-Chem Inc. Pittsburgh 
 -------------------------------------------------------
 ---------------------------------------
  Cycle       Energy         DIIS Error
 ---------------------------------------
    1   -5680.5064161806      2.17E-02
    2   -5662.4285425429      2.20E-03
    3   -5660.9527321164      3.40E-03
    4   -5663.2902110022      9.37E-04
    5   -5663.4396285907      4.41E-04
    6   -5663.4676933448      2.39E-04
    7   -5663.4783583970      6.99E-05
    8   -5663.4791785928      3.07E-05
    9   -5663.4793680217      1.06E-05
   10   -5663.4793942759      3.20E-06 Convergence criterion met
 ---------------------------------------
 SCF time:  CPU 1006.00 s  wall 91.16 s
 SCF   energy in the final basis set = -5663.4793942759
 Total energy in the final basis set = -5663.4793942759
 
 --------------------------------------------------------------
 
                    Orbital Energies (a.u.)
 --------------------------------------------------------------
 
 Alpha MOs
 -- Occupied --
-88.990 -88.986 -88.929 -88.929 -88.925 -88.920 -88.914 -88.907
-14.389 -14.381 -14.374 -14.368 -14.345 -14.344 -14.340 -14.338
-14.329 -14.327 -10.269 -10.266 -10.262 -10.261 -10.256 -10.255
-10.247 -10.245 -10.241 -10.240 -10.239 -10.236 -10.229 -10.229
-10.228 -10.227 -10.227 -10.226 -10.226 -10.226 -10.225 -10.224
-10.224 -10.223 -10.223 -10.221 -10.220 -10.220 -10.216 -10.212
-10.209 -10.209 -10.208 -10.206 -10.203 -10.201 -10.200 -10.196
-10.183 -10.183 -10.182 -10.182 -10.179 -10.178 -10.177 -10.175
-10.174 -10.172 -10.171 -10.170  -8.045  -8.041  -7.989  -7.988
 -7.987  -7.978  -7.974  -7.968  -6.010  -6.006  -6.005  -6.003
 -6.000  -5.999  -5.953  -5.952  -5.951  -5.950  -5.948  -5.948
 -5.946  -5.945  -5.944  -5.942  -5.939  -5.938  -5.935  -5.934
 -5.933  -5.930  -5.929  -5.924  -1.040  -1.040  -0.986  -0.967
 -0.966  -0.963  -0.945  -0.936  -0.919  -0.911  -0.902  -0.892
 -0.851  -0.839  -0.836  -0.830  -0.824  -0.809  -0.809  -0.805
 -0.803  -0.801  -0.795  -0.794  -0.780  -0.779  -0.767  -0.766
 -0.747  -0.746  -0.741  -0.739  -0.731  -0.721  -0.710  -0.709
 -0.693  -0.691  -0.676  -0.671  -0.653  -0.652  -0.644  -0.640
 -0.632  -0.630  -0.624  -0.622  -0.612  -0.607  -0.602  -0.600
 -0.600  -0.593  -0.587  -0.585  -0.577  -0.575  -0.565  -0.558
 -0.543  -0.542  -0.542  -0.539  -0.526  -0.524  -0.518  -0.516
 -0.508  -0.508  -0.499  -0.494  -0.488  -0.485  -0.474  -0.474
 -0.471  -0.470  -0.467  -0.466  -0.463  -0.455  -0.453  -0.444
 -0.444  -0.442  -0.440  -0.438  -0.434  -0.434  -0.429  -0.427
 -0.427  -0.423  -0.421  -0.418  -0.416  -0.414  -0.413  -0.413
 -0.409  -0.407  -0.405  -0.402  -0.400  -0.399  -0.396  -0.396
 -0.394  -0.393  -0.391  -0.388  -0.386  -0.385  -0.383  -0.382
 -0.380  -0.378  -0.375  -0.375  -0.369  -0.366  -0.361  -0.361
 -0.354  -0.353  -0.350  -0.347  -0.346  -0.344  -0.341  -0.340
 -0.338  -0.337  -0.335  -0.329  -0.327  -0.325  -0.321  -0.314
 -0.312  -0.308  -0.304  -0.304  -0.300  -0.300  -0.297  -0.295
 -0.295  -0.294  -0.290  -0.290  -0.288  -0.287  -0.281  -0.281
 -0.274  -0.269  -0.265  -0.263  -0.255  -0.251  -0.250  -0.248
 -0.245  -0.243  -0.232  -0.231  -0.192  -0.191
 -- Virtual --
 -0.113  -0.105  -0.070  -0.068  -0.036  -0.034  -0.024  -0.023
 -0.020  -0.015  -0.011  -0.010  -0.007  -0.001   0.001   0.007
  0.010   0.014   0.017   0.022   0.030   0.032   0.036   0.037
  0.048   0.056   0.061   0.064   0.080   0.088   0.089   0.092
  0.096   0.099   0.101   0.103   0.106   0.107   0.113   0.116
  0.116   0.119   0.120   0.122   0.122   0.125   0.126   0.128
  0.129   0.130   0.132   0.135   0.137   0.140   0.145   0.146
  0.151   0.151   0.154   0.159   0.160   0.160   0.161   0.163
  0.165   0.167   0.168   0.171   0.172   0.174   0.176   0.179
  0.181   0.182   0.189   0.191   0.192   0.195   0.197   0.203
  0.203   0.205   0.206   0.212   0.214   0.215   0.224   0.225
  0.228   0.229   0.231   0.234   0.237   0.240   0.241   0.242
  0.246   0.248   0.251   0.253   0.255   0.257   0.259   0.263
  0.265   0.266   0.267   0.275   0.277   0.277   0.278   0.281
  0.282   0.287   0.293   0.295   0.297   0.298   0.302   0.306
  0.308   0.309   0.311   0.315   0.317   0.322   0.324   0.326
  0.331   0.336   0.339   0.340   0.344   0.345   0.348   0.351
  0.354   0.357   0.360   0.365   0.367   0.369   0.370   0.377
  0.378   0.383   0.384   0.388   0.390   0.397   0.401   0.409
  0.412   0.420   0.422   0.423   0.431   0.433   0.436   0.441
  0.442   0.446   0.449   0.451   0.458   0.461   0.473   0.475
  0.476   0.478   0.481   0.486   0.491   0.493   0.500   0.501
  0.505   0.505   0.508   0.511   0.512   0.520   0.520   0.524
  0.527   0.528   0.530   0.532   0.536   0.537   0.538   0.540
  0.541   0.545   0.547   0.548   0.550   0.552   0.554   0.555
  0.556   0.557   0.558   0.561   0.562   0.564   0.566   0.567
  0.569   0.571   0.574   0.576   0.577   0.580   0.584   0.585
  0.587   0.589   0.590   0.591   0.595   0.597   0.597   0.600
  0.604   0.606   0.608   0.610   0.612   0.614   0.617   0.619
  0.619   0.620   0.622   0.626   0.626   0.629   0.631   0.633
  0.635   0.635   0.636   0.640   0.645   0.647   0.648   0.650
  0.653   0.659   0.660   0.663   0.666   0.667   0.669   0.672
  0.680   0.681   0.681   0.685   0.691   0.691   0.692   0.695
  0.698   0.700   0.703   0.706   0.711   0.717   0.723   0.724
  0.725   0.727   0.731   0.732   0.736   0.741   0.742   0.744
  0.748   0.753   0.755   0.762   0.764   0.766   0.767   0.770
  0.773   0.776   0.778   0.780   0.785   0.787   0.790   0.793
  0.797   0.799   0.801   0.803   0.806   0.807   0.808   0.811
  0.812   0.817   0.817   0.820   0.824   0.825   0.826   0.829
  0.830   0.830   0.831   0.834   0.837   0.839   0.840   0.841
  0.845   0.846   0.848   0.849   0.850   0.852   0.854   0.858
  0.860   0.862   0.863   0.863   0.866   0.867   0.869   0.870
  0.872   0.875   0.875   0.877   0.878   0.882   0.882   0.886
  0.886   0.887   0.892   0.895   0.899   0.904   0.904   0.906
  0.907   0.908   0.915   0.919   0.920   0.921   0.924   0.925
  0.929   0.931   0.932   0.935   0.936   0.940   0.944   0.944
  0.947   0.948   0.949   0.952   0.958   0.961   0.963   0.964
  0.964   0.966   0.967   0.968   0.972   0.976   0.978   0.980
  0.986   0.989   0.989   0.993   0.994   0.996   0.999   1.001
  1.005   1.008   1.014   1.018   1.019   1.021   1.023   1.025
  1.028   1.029   1.033   1.036   1.038   1.040   1.041   1.043
  1.046   1.051   1.053   1.057   1.067   1.076   1.079   1.083
  1.084   1.087   1.088   1.089   1.096   1.100   1.102   1.107
  1.112   1.118   1.125   1.125   1.131   1.142   1.147   1.151
  1.157   1.163   1.164   1.167   1.172   1.174   1.175   1.180
  1.183   1.188   1.193   1.199   1.206   1.211   1.220   1.221
  1.224   1.232   1.237   1.246   1.249   1.254   1.258   1.264
  1.273   1.273   1.280   1.281   1.285   1.287   1.297   1.302
  1.303   1.307   1.308   1.315   1.322   1.328   1.334   1.338
  1.341   1.343   1.350   1.353   1.356   1.359   1.361   1.368
  1.369   1.379   1.382   1.384   1.387   1.395   1.396   1.400
  1.405   1.406   1.412   1.415   1.415   1.423   1.427   1.428
  1.429   1.437   1.439   1.442   1.447   1.450   1.455   1.459
  1.473   1.477   1.478   1.498   1.500   1.503   1.508   1.512
  1.517   1.525   1.527   1.533   1.536   1.548   1.553   1.559
  1.568   1.572   1.573   1.585   1.589   1.593   1.596   1.601
  1.607   1.618   1.621   1.622   1.629   1.636   1.639   1.650
  1.661   1.662   1.663   1.671   1.680   1.683   1.685   1.686
  1.688   1.692   1.699   1.701   1.704   1.705   1.708   1.715
  1.720   1.722   1.732   1.734   1.741   1.742   1.745   1.751
  1.755   1.758   1.759   1.766   1.777   1.779   1.784   1.789
  1.797   1.797   1.800   1.804   1.808   1.808   1.812   1.822
  1.825   1.827   1.831   1.838   1.839   1.845   1.848   1.850
  1.852   1.858   1.860   1.863   1.868   1.868   1.870   1.873
  1.875   1.876   1.878   1.880   1.887   1.888   1.894   1.897
  1.905   1.910   1.916   1.918   1.922   1.924   1.927   1.929
  1.935   1.938   1.944   1.947   1.950   1.954   1.956   1.961
  1.964   1.969   1.971   1.974   1.978   1.980   1.986   1.993
  1.994   1.995   1.999   2.009   2.018   2.026   2.030   2.038
  2.041   2.043   2.048   2.052   2.053   2.054   2.065   2.072
  2.076   2.083   2.089   2.094   2.098   2.100   2.108   2.111
  2.113   2.117   2.121   2.125   2.126   2.131   2.140   2.144
  2.145   2.145   2.148   2.155   2.158   2.160   2.166   2.170
  2.172   2.177   2.184   2.186   2.189   2.191   2.197   2.200
  2.201   2.205   2.209   2.209   2.216   2.223   2.224   2.229
  2.232   2.237   2.242   2.248   2.250   2.254   2.255   2.258
  2.263   2.264   2.269   2.278   2.283   2.285   2.293   2.294
  2.295   2.297   2.298   2.300   2.303   2.305   2.311   2.312
  2.313   2.316   2.326   2.328   2.329   2.330   2.334   2.337
  2.338   2.345   2.348   2.350   2.352   2.353   2.361   2.362
  2.369   2.369   2.371   2.372   2.378   2.380   2.383   2.393
  2.397   2.399   2.402   2.402   2.411   2.415   2.418   2.422
  2.423   2.426   2.427   2.434   2.435   2.440   2.440   2.449
  2.449   2.450   2.451   2.459   2.465   2.469   2.474   2.482
  2.483   2.487   2.490   2.493   2.498   2.500   2.502   2.508
  2.511   2.516   2.521   2.521   2.522   2.528   2.530   2.531
  2.531   2.539   2.549   2.553   2.554   2.556   2.560   2.568
  2.577   2.579   2.581   2.583   2.586   2.593   2.593   2.598
  2.602   2.610   2.616   2.619   2.621   2.626   2.636   2.646
  2.654   2.658   2.665   2.666   2.669   2.674   2.675   2.677
  2.679   2.684   2.685   2.692   2.693   2.694   2.699   2.704
  2.709   2.710   2.714   2.724   2.727   2.733   2.743   2.750
  2.756   2.763   2.767   2.770   2.777   2.778   2.788   2.790
  2.797   2.806   2.810   2.813   2.817   2.819   2.822   2.830
  2.832   2.836   2.844   2.848   2.854   2.854   2.869   2.873
  2.874   2.877   2.878   2.892   2.894   2.903   2.908   2.908
  2.917   2.918   2.922   2.925   2.926   2.929   2.940   2.942
  2.964   2.967   2.979   2.979   2.986   3.003   3.032   3.050
  3.051   3.058   3.063   3.079   3.087   3.093   3.096   3.129
  3.163   3.166   3.166   3.178   3.189   3.200   3.221   3.239
  3.241   3.243   3.259   3.262   3.266   3.269   3.271   3.280
  3.285   3.298   3.303   3.312   3.328   3.330   3.340   3.351
  3.352   3.365   3.374   3.374   3.391   3.401   3.418   3.436
  3.449   3.461   3.473   3.473   3.486   3.496   3.533   3.534
  3.555   3.558   3.560   3.583   3.585   3.594   3.597   3.599
  3.613   3.624   3.734   3.743   3.846   3.863   3.922   3.930
  3.931   3.944   3.956   3.958   3.972   3.983   3.994   4.003
  4.023   4.032   4.069   4.084   4.089   4.093   4.113   4.119
  4.120   4.132   4.143   4.147   4.155   4.178   4.180   4.193
  4.205   4.212   4.249   4.252   4.259   4.267   4.272   4.273
  4.288   4.302   4.327   4.334   4.378   4.379   4.387   4.392
  4.423   4.433   4.453   4.455   4.471   4.496   4.504   4.506
  4.515   4.518   4.526   4.542   4.566   4.610   4.656   4.673
  4.681   4.682   4.706   4.708   4.745   4.764   4.789   4.812
 --------------------------------------------------------------
 
          Ground-State Mulliken Net Atomic Charges

     Atom                 Charge (a.u.)
  ----------------------------------------
      1 C                     0.282468
      2 C                    -0.124785
      3 N                    -0.481356
      4 C                    -0.065079
      5 C                     0.066666
      6 C                     0.039975
      7 C                     0.062822
      8 C                     0.032440
      9 C                     0.216564
     10 N                    -0.488978
     11 N                    -0.549303
     12 C                     0.213209
     13 C                     0.261762
     14 S                     0.608211
     15 N                    -0.561361
     16 C                    -0.229552
     17 S                     0.371516
     18 C                    -0.105184
     19 C                    -0.223135
     20 S                     0.283548
     21 C                     0.146543
     22 C                     0.038413
     23 C                    -0.302206
     24 C                    -0.081209
     25 N                    -0.393975
     26 S                     0.289286
     27 C                     0.085881
     28 C                    -0.294704
     29 C                    -0.231564
     30 H                     0.090176
     31 H                     0.110675
     32 H                     0.102226
     33 H                     0.106323
     34 H                     0.139267
     35 H                     0.099963
     36 H                     0.112727
     37 H                     0.135008
     38 H                     0.121393
     39 C                    -0.175999
     40 H                     0.104735
     41 H                     0.106578
     42 H                     0.091164
     43 C                    -0.185172
     44 H                     0.096299
     45 C                    -0.187078
     46 H                     0.083734
     47 H                     0.091801
     48 H                     0.094795
     49 C                    -0.176262
     50 H                     0.095784
     51 C                    -0.325515
     52 H                     0.097264
     53 H                     0.103571
     54 H                     0.106211
     55 H                     0.103951
     56 C                     0.248362
     57 C                    -0.116352
     58 N                    -0.476208
     59 C                    -0.078348
     60 C                     0.083587
     61 C                     0.042101
     62 C                     0.071584
     63 C                     0.038340
     64 C                     0.198166
     65 N                    -0.522548
     66 N                    -0.559070
     67 C                     0.201500
     68 C                     0.300847
     69 S                     0.639518
     70 N                    -0.568983
     71 C                    -0.225572
     72 S                     0.345978
     73 C                    -0.083684
     74 C                    -0.204111
     75 S                     0.294328
     76 C                     0.102980
     77 C                     0.060944
     78 C                    -0.313219
     79 C                    -0.068364
     80 N                    -0.432282
     81 S                     0.260372
     82 C                     0.134834
     83 C                    -0.307942
     84 C                    -0.215696
     85 H                     0.091405
     86 H                     0.097427
     87 H                     0.124861
     88 H                     0.092437
     89 H                     0.124700
     90 H                     0.114383
     91 H                     0.121148
     92 H                     0.126746
     93 H                     0.125326
     94 C                    -0.172874
     95 H                     0.086184
     96 H                     0.107278
     97 H                     0.097779
     98 C                    -0.181745
     99 H                     0.116156
    100 C                    -0.180189
    101 H                     0.088119
    102 H                     0.081540
    103 H                     0.094267
    104 C                    -0.170692
    105 H                     0.090808
    106 C                    -0.329024
    107 H                     0.090308
    108 H                     0.101124
    109 H                     0.099001
    110 H                     0.101934
  ----------------------------------------
  Sum of atomic charges =     0.000000

 -----------------------------------------------------------------
                    Cartesian Multipole Moments
 -----------------------------------------------------------------
    Charge (ESU x 10^10)
                 0.0000
    Dipole Moment (Debye)
         X      -2.9647      Y       1.0604      Z       0.6955
       Tot       3.2245
    Quadrupole Moments (Debye-Ang)
        XX    -418.9794     XY      -1.8911     YY    -405.5386
        XZ       7.0614     YZ       2.1106     ZZ    -431.2058
    Octopole Moments (Debye-Ang^2)
       XXX    -519.6147    XXY     338.3271    XYY    -172.4991
       YYY     222.0721    XXZ     127.6043    XYZ      88.5398
       YYZ     -44.3955    XZZ     -50.5270    YZZ     -81.4595
       ZZZ     -17.2012
    Hexadecapole Moments (Debye-Ang^3)
      XXXX -120931.6458   XXXY   -1918.9267   XXYY  -25143.2763
      XYYY   -2180.2657   YYYY  -40079.9291   XXXZ     208.4945
      XXYZ     120.0848   XYYZ     227.4983   YYYZ    -507.2861
      XXZZ  -22521.2365   XYZZ     156.6368   YYZZ   -8278.9697
      XZZZ     148.8370   YZZZ    -112.1710   ZZZZ   -9808.7270
 -----------------------------------------------------------------
Archival summary:
1\1\mn426\SP\ProcedureUnspecified\6-31G**\8105042\afmv_a\SatOct609:44:072018SatOct609:44:072018\0\\#,ProcedureUnspecified,6-31G**,\\0,1\S\C,1,1.76182\C,2,1.38493,1,111.643\C,3,1.37201,2,114.136,1,-7.25708,0\C,4,1.38014,3,111.546,2,-2.51339,0\C,3,1.43129,2,137.761,1,168.016,0\H,6,1.08407,3,122.285,2,2.01416,0\C,6,1.37407,3,115.866,2,-177.088,0\H,8,1.08148,6,130.397,3,175.971,0\C,2,1.44867,1,121.632,3,144.16,0\N,10,1.29737,2,115.966,1,-22.9004,0\C,11,1.34716,10,109.809,2,-163.761,0\H,12,1.08217,11,120.89,10,-178.991,0\C,12,1.39088,11,112.413,10,-19.1796,0\H,14,1.08182,12,132.386,11,179.678,0\C,5,1.52392,4,121.085,3,-179.038,0\N,16,1.3674,5,119.411,4,27.9767,0\C,17,1.28023,16,119.733,5,179.481,0\H,18,1.08913,17,110.486,16,-176.5,0\C,18,1.35444,17,128.111,16,8.79589,0\C,16,1.42811,5,122.2,4,-145.6,0\N,21,1.38679,16,129.158,5,-3.6166,0\C,21,1.4012,16,120.153,5,-179.872,0\N,23,1.32247,21,117.623,16,176.86,0\C,20,1.51486,18,120.681,17,166.652,0\C,25,1.39924,20,125.011,18,148.771,0\H,26,1.08662,25,120.087,20,-9.77343,0\C,26,1.41161,25,119.055,20,-176.475,0\H,28,1.08549,26,123.263,25,174.406,0\C,28,1.4287,26,119.111,25,-1.87337,0\N,30,1.31444,28,122.343,26,2.45692,0\C,31,1.33954,30,118.269,28,-3.64295,0\H,32,1.08843,31,117.807,30,-174.315,0\C,30,1.49748,28,121.219,26,-173.597,0\H,34,1.09668,30,108.422,28,153.136,0\H,34,1.09744,30,109.064,28,36.3533,0\C,34,1.54413,30,115.267,28,-76.2292,0\H,37,1.09733,34,107.979,30,-41.9685,0\H,37,1.09755,34,112.519,30,68.0043,0\C,37,1.48596,34,112.734,30,-163.911,0\H,40,1.09712,37,105.917,34,-43.7199,0\H,40,1.09767,37,116.574,34,64.4375,0\C,40,1.60009,37,118.334,34,-176.788,0\H,43,1.09617,40,100.221,37,49.0675,0\H,43,1.09673,40,117.722,37,173.68,0\C,43,1.58429,40,111.141,37,-66.8006,0\H,46,1.09646,43,109.179,40,-40.0113,0\H,46,1.09676,43,105.181,40,70.0847,0\C,46,1.54229,43,112.527,40,-175.377,0\H,49,1.09695,46,116.405,43,-156.967,0\H,49,1.09728,46,110.003,43,-39.7041,0\H,49,1.09745,46,108.831,43,78.8035,0\S,24,1.61219,23,105.22,21,-5.76721,0\S,14,1.64844,12,111.912,11,20.6921,0\S,4,1.73187,3,115.503,2,179.38,0\H,54,3.28547,14,115.182,12,-95.5471,0\C,56,1.08849,54,148.776,14,-118.705,0\N,57,1.35115,56,114.505,54,-49.4524,0\C,58,1.35722,57,114.74,56,-175.661,0\C,59,1.39573,58,123.415,57,-2.26023,0\H,60,1.08526,59,118.33,58,176.089,0\C,60,1.39507,59,119.028,58,-3.1176,0\H,62,1.08577,60,121.034,59,-177.458,0\C,62,1.38038,60,121.335,59,1.42459,0\C,64,1.45926,62,123.35,60,173.704,0\C,65,1.39521,64,124.417,62,41.2495,0\H,66,1.08915,65,114.906,64,1.07773,0\N,66,1.31664,65,130.318,64,-173.074,0\C,68,1.34447,66,119.663,65,-2.35404,0\C,69,1.41785,68,116.49,66,-2.80599,0\C,70,1.35272,69,121.411,68,2.82126,0\N,71,1.35846,70,114.667,69,177.44,0\N,70,1.35989,69,126.498,68,177.788,0\C,69,1.50917,68,117.436,66,178.514,0\C,74,1.36245,69,125.689,68,-11.6197,0\C,75,1.38771,74,111.392,69,171.999,0\C,76,1.41159,75,117.982,74,3.15262,0\C,76,1.4401,75,111.317,74,-169.828,0\H,78,1.08395,76,121.14,75,171.97,0\C,78,1.37832,76,108.624,75,4.42057,0\H,80,1.08221,78,121.976,76,167.877,0\C,77,1.45479,76,125.214,75,170.019,0\N,82,1.31657,77,116.488,76,166.648,0\C,83,1.37416,82,111.611,77,178.946,0\H,84,1.08215,83,121.456,82,175.98,0\C,84,1.36761,83,111.869,82,0.726506,0\H,86,1.08213,84,128.955,83,176.159,0\C,59,1.5102,58,113.134,57,173.36,0\H,88,1.09703,59,105.448,58,-59.5562,0\H,88,1.09703,59,107.671,58,-176.427,0\C,88,1.5314,59,109.253,58,72.3997,0\H,91,1.09719,88,111.165,59,20.8484,0\H,91,1.09758,88,112.634,59,137.937,0\C,91,1.54824,88,111.483,59,-104.981,0\H,94,1.09656,91,112.782,88,38.8167,0\H,94,1.09685,91,115.055,88,-79.4939,0\C,94,1.55392,91,109.138,88,155.396,0\H,97,1.09664,94,105.954,91,-178.89,0\H,97,1.09728,94,111.364,91,-61.816,0\C,97,1.5384,94,112.822,91,67.0642,0\H,100,1.09653,97,99.6996,94,46.9758,0\H,100,1.09725,97,114.947,94,-59.635,0\C,100,1.55175,97,119.353,94,166.784,0\H,103,1.09681,100,109.923,97,-35.235,0\H,103,1.09699,100,114.716,97,88.5033,0\H,103,1.09726,100,120.029,97,-151.786,0\S,72,1.60112,71,106.871,70,3.09026,0\S,75,1.70808,74,131.725,69,0.937673,0\S,86,1.7622,84,115.612,83,-4.05748,0\S,77,1.7855,76,107.769,75,-7.52565,0\\\@

 Total job time:  95.25s(wall), 1017.60s(cpu) 
 Sat Oct  6 09:44:07 2018

        *************************************************************
        *                                                           *
        *  Thank you very much for using Q-Chem.  Have a nice day.  *
        *                                                           *
        *************************************************************


