
Running Job 1 of 1 ./8/83.qcin
qchem ./8/83.qcin_15882.0 /tmpu/cab_g/afmv_a/scratch_qchem/qchem15882/ 1
/tmpu/appuserlic/qchem4.4/serial-multicore/exe/qcprog.exe_s ./8/83.qcin_15882.0 /tmpu/cab_g/afmv_a/scratch_qchem/qchem15882/
Check license passed

                  Welcome to Q-Chem
     A Quantum Leap Into The Future Of Chemistry


 Q-Chem 4.4, Q-Chem, Inc., Pleasanton, CA (2016)

 Y. Shao,  Z. Gan,  E. Epifanovsky,  A. T. B. Gilbert,  M. Wormit,  
 J. Kussmann,  A. W. Lange,  A. Behn,  J. Deng,  X. Feng,  D. Ghosh,  
 M. Goldey,  P. R. Horn,  L. D. Jacobson,  I. Kaliman,  F. Rob,  
 R. Z. Khaliullin,  T. Kus,  A. Landau,  J. Liu,  E. I. Proynov,  Y. M. Rhee,  
 R. M. Richard,  M. A. Rohrdanz,  R. P. Steele,  E. J. Sundstrom,  
 H. L. Woodcock III,  P. M. Zimmerman,  D. Zuev,  B. Albrecht,  E. Alguire,  
 B. Austin,  S. A. Baeppler,  G. J. O. Beran,  Y. A. Bernard,  E. Berquist,  
 K. Brandhorst,  K. B. Bravaya,  S. T. Brown,  D. Casanova,  C.-M. Chang,  
 Y. Chen,  S. H. Chien,  K. D. Closser,  M. P. Coons,  D. L. Crittenden,  
 S. Dasgupta,  M. Diedenhofen,  R. A. DiStasio Jr.,  H. Do,  A. D. Dutoi,  
 R. G. Edgar,  P.-T. Fang,  S. Fatehi,  Q. Feng,  L. Fusti-Molnar,  
 A. Ghysels,  A. Golubeva-Zadorozhnaya,  J. Gomes,  A. Gunina,  
 M. W. D. Hanson-Heine,  P. H. P. Harbach,  A. W. Hauser,  J. E. Herr,  
 E. G. Hohenstein,  Z. C. Holden,  K. Hui,  T.-C. Jagau,  H. Ji,  B. Kaduk,  
 K. Khistyaev,  Jaehoon Kim,  Jihan Kim,  R. A. King,  P. Klunzinger,  
 K. Koh,  D. Kosenkov,  T. Kowalczyk,  C. M. Krauter,  A. Kunitsa,  
 K. U. Lao,  A. Laurent,  K. V. Lawler,  J. Lee,  D. Lefrancois,  S. Lehtola,  
 S. V. Levchenko,  C. Y. Lin,  Y.-S. Lin,  F. Liu,  E. Livshits,  
 R. C. Lochan,  A. Luenser,  P. Manohar,  S. F. Manzer,  S.-P. Mao,  Y. Mao,  
 N. Mardirossian,  A. V. Marenich,  L. A. Martinez-Martinez,  S. A. Maurer,  
 N. J. Mayhall,  J.-M. Mewes,  A. F. Morrison,  K. Nanda,  T. S. Nguyen-Beck,  
 C. M. Oana,  R. Olivares-Amaya,  D. P. O'Neill,  J. A. Parkhill,  
 T. M. Perrine,  R. Peverati,  P. A. Pieniazek,  F. Plasser,  A. Prociuk,  
 D. R. Rehn,  E. Rosta,  N. J. Russ,  N. Sergueev,  S. M. Sharada,  
 S. Sharma,  D. W. Small,  A. Sodt,  T. Stauch,  T. Stein,  D. Stuck,  
 Y.-C. Su,  A. J. W. Thom,  T. Tsuchimochi,  L. Vogt,  O. Vydrov,  T. Wang,  
 M. A. Watson,  J. Wenzel,  A. White,  C. F. Williams,  V. Vanovschi,  
 K. Yao,  S. Yeganeh,  S. R. Yost,  Z.-Q. You,  I. Y. Zhang,  X. Zhang,  
 Y. Zhao,  B. R. Brooks,  G. K. L. Chan,  D. M. Chipman,  C. J. Cramer,  
 W. A. Goddard III,  M. S. Gordon,  W. J. Hehre,  A. Klamt,  
 H. F. Schaefer III,  M. W. Schmidt,  C. D. Sherrill,  D. G. Truhlar,  
 A. Warshel,  X. Xu,  A. Aspuru-Guzik,  R. Baer,  A. T. Bell,  N. A. Besley,  
 J.-D. Chai,  A. Dreuw,  B. D. Dunietz,  T. R. Furlani,  S. R. Gwaltney,  
 C.-P. Hsu,  Y. Jung,  J. Kong,  D. S. Lambrecht,  W. Liang,  C. Ochsenfeld,  
 V. A. Rassolov,  L. V. Slipchenko,  J. E. Subotnik,  T. Van Voorhis,  
 J. M. Herbert,  A. I. Krylov,  P. M. W. Gill,  M. Head-Gordon

 Contributors to earlier versions of Q-Chem not listed above: 
 R. D. Adamson,  J. Baker,  E. F. C. Byrd,  A. K. Chakraborty,  C.-L. Cheng,  
 H. Dachsel,  R. J. Doerksen,  G. Hawkins,  A. Heyden,  S. Hirata,  
 G. Kedziora,  F. J. Keil,  C. Kelley,  P. P. Korambath,  W. Kurlancheek,  
 A. M. Lee,  M. S. Lee,  D. Liotard,  I. Lotan,  P. E. Maslen,  N. Nair,  
 D. Neuhauser,  R. Olson,  B. Peters,  J. Ritchie,  N. E. Schultz,  
 N. Shenvi,  A. C. Simmonett,  K. S. Thanthiriwatte,  Q. Wu,  W. Zhang

 Please cite Q-Chem as follows:
 Y. Shao et al., Mol. Phys. 113, 184-215 (2015)
 DOI: 10.1080/00268976.2014.952696

 Q-Chem 4.4.2 for Intel X86 Linux

 Parts of Q-Chem use Armadillo 5.200.1 (Boston Tea Smuggler).
 http://arma.sourceforge.net/

 Q-Chem begins on Sat Oct  6 09:46:01 2018  

Host: 
0

     Scratch files written to /tmpu/cab_g/afmv_a/scratch_qchem/qchem15882//
 Dec716 11556_ 22328  22283 4050   
Processing $rem in /tmpu/appuserlic/qchem4.4/serial-multicore/config/preferences.
 MEM_TOTAL  2000 
FILE_GEOM_ORG=        593

Checking the input file for inconsistencies... 	...done.

--------------------------------------------------------------
User input:
--------------------------------------------------------------
$comment
SP
$end

$rem
MEM_STATIC 5000
MEM_TOTAL 20000
JOBTYPE SP
EXCHANGE B3LYP
BASIS 6-31g(d,p)
$end

$molecule
0 1
C           0.396000     14.313000     -4.655000
C           0.832000     14.452000     -5.973000
N           1.075000     14.728000     -3.611000
C           1.738000     15.477000     -6.214000
C           2.129000     15.575000     -3.872000
C           2.400000     16.066000     -5.157000
C           3.267000     17.311000     -5.245000
C           2.891000     18.313000     -6.108000
C           4.373000     17.670000     -4.436000
N           3.493000     19.493000     -6.262000
N           4.931000     16.715000     -3.621000
C           5.006000     18.899000     -4.507000
C           4.505000     19.850000     -5.420000
S           6.330000     17.379000     -3.139000
N           6.083000     18.945000     -3.680000
C           5.022000     21.181000     -5.686000
S           5.096000     22.073000     -7.228000
C           5.412000     22.054000     -4.695000
C           5.693000     23.559000     -6.426000
S           5.287000     21.791000     -3.005000
C           5.788000     23.359000     -5.055000
C           5.867000     24.821000     -7.158000
C           5.646000     23.501000     -2.757000
C           5.880000     24.224000     -3.937000
N           6.459000     25.836000     -6.569000
S           5.368000     24.916000     -8.802000
C           6.732000     26.752000     -7.590000
C           6.178000     26.497000     -8.806000
C          -0.836000     13.416000     -4.278000
H           0.210000     14.010000     -6.746000
H           1.948000     15.856000     -7.209000
H           2.546000     16.105000     -3.017000
H           2.103000     18.118000     -6.834000
H           5.521000     23.956000     -1.783000
H           5.912000     25.307000     -3.987000
H           7.315000     27.631000     -7.346000
H           6.300000     27.099000     -9.697000
H          -0.906000     12.711000     -5.116000
C          -2.118000     14.191000     -3.965000
H          -0.537000     12.798000     -3.422000
H          -2.350000     14.939000     -4.733000
H          -1.960000     14.787000     -3.058000
C          -3.340000     13.237000     -3.794000
H          -3.333000     12.635000     -4.711000
C          -4.672000     14.043000     -3.836000
H          -3.227000     12.560000     -2.939000
H          -4.846000     14.495000     -4.820000
H          -4.673000     14.882000     -3.129000
C          -5.973000     13.084000     -3.648000
H          -6.871000     13.540000     -4.083000
C          -6.256000     12.856000     -2.196000
H          -5.753000     12.166000     -4.206000
H          -5.317000     12.555000     -1.715000
H          -6.986000     12.061000     -1.998000
H          -6.494000     13.799000     -1.689000
C          19.574000     17.638000     -1.632000
C          18.489000     17.283000     -0.829000
N          19.565000     18.704000     -2.472000
C          17.305000     18.014000     -0.929000
C          18.431000     19.438000     -2.442000
C          17.198000     19.094000     -1.782000
C          16.031000     19.969000     -1.826000
C          14.710000     19.526000     -1.753000
C          16.018000     21.403000     -1.939000
N          13.587000     20.207000     -1.660000
N          17.167000     22.119000     -2.051000
C          14.894000     22.150000     -1.847000
C          13.621000     21.551000     -1.671000
S          16.748000     23.663000     -2.115000
N          15.168000     23.482000     -1.848000
C          12.308000     22.281000     -1.527000
S          12.109000     23.986000     -2.136000
C          11.121000     21.718000     -1.166000
C          10.379000     23.937000     -1.697000
S          10.694000     20.107000     -0.792000
C          10.073000     22.618000     -1.298000
C           9.447000     25.054000     -1.687000
C           9.013000     20.609000     -1.012000
C           8.799000     21.964000     -1.146000
N           9.819000     26.135000     -2.340000
S           7.901000     25.138000     -0.787000
C           8.878000     27.132000     -2.246000
C           7.792000     26.740000     -1.513000
C          20.911000     16.938000     -1.576000
H          18.608000     16.453000     -0.140000
H          16.428000     17.741000     -0.350000
H          18.456000     20.333000     -3.061000
H          14.592000     18.446000     -1.676000
H           8.205000     19.892000     -1.077000
H           7.872000     22.489000     -1.346000
H           8.992000     28.068000     -2.777000
H           6.875000     27.279000     -1.314000
H          21.624000     17.697000     -1.231000
C          21.134000     16.170000     -2.882000
H          20.837000     16.138000     -0.829000
H          20.184000     15.980000     -3.397000
H          21.565000     15.174000     -2.718000
C          22.157000     16.889000     -3.795000
H          22.048000     17.980000     -3.778000
C          21.901000     16.476000     -5.271000
H          23.209000     16.734000     -3.526000
H          22.636000     17.027000     -5.870000
H          20.900000     16.779000     -5.603000
C          22.211000     14.993000     -5.538000
H          23.188000     14.917000     -5.046000
C          22.309000     14.488000     -7.002000
H          21.627000     14.283000     -4.939000
H          22.947000     13.629000     -7.245000
H          22.750000     15.266000     -7.637000
H          21.358000     14.158000     -7.438000
$end

--------------------------------------------------------------
 ----------------------------------------------------------------
             Standard Nuclear Orientation (Angstroms)
    I     Atom           X                Y                Z
 ----------------------------------------------------------------
    1      C      -9.2639054225    -4.5500426301    -0.3164687868
    2      C      -8.9506973731    -4.4114158082    -1.6689569834
    3      N      -8.4317794682    -4.2735200647     0.6604158875
    4      C      -7.9446213652    -3.5039151423    -1.9752176693
    5      C      -7.3058270764    -3.5607700737     0.3130476941
    6      C      -7.1045154552    -3.0534028940    -0.9783852992
    7      C      -6.0915943534    -1.9296272173    -1.1218323972
    8      C      -6.4159452216    -0.8501792335    -1.9090665203
    9      C      -4.8702595534    -1.7540089262    -0.4260612265
   10      N      -5.6797180103     0.2467199597    -2.0915539259
   11      N      -4.3651340643    -2.8085633183     0.2953105738
   12      C      -4.0883746265    -0.6162705277    -0.5279351572
   13      C      -4.5479124949     0.4311828972    -1.3529425937
   14      S      -2.8475459293    -2.3547528280     0.6437403249
   15      N      -2.9358711384    -0.7476710407     0.1794852376
   16      C      -3.8866415993     1.6936609189    -1.6330783596
   17      S      -3.8519241770     2.6352168380    -3.1467398646
   18      C      -3.2831913737     2.4638826626    -0.6641014297
   19      C      -2.9814018192     3.9938628941    -2.3695135664
   20      S      -3.2683969050     2.1454880901     1.0209208313
   21      C      -2.7740282856     3.7231495773    -1.0232682255
   22      C      -2.7152718519     5.2532563755    -3.0779250990
   23      C      -2.6591498648     3.7814091398     1.2798906426
   24      C      -2.4523320368     4.5187839116     0.1037147067
   25      N      -1.9348727565     6.1554019440    -2.5259100401
   26      S      -3.3629505978     5.4847174554    -4.6551695349
   27      C      -1.6473495210     7.0718600819    -3.5425028153
   28      C      -2.3524022769     6.9450429877    -4.6989694322
   29      C     -10.5601179352    -5.2941665369     0.1638173086
   30      H      -9.7024760560    -4.7340266753    -2.3834694328
   31      H      -7.7887448376    -3.1122512012    -2.9752516015
   32      H      -6.7358475173    -3.1278300290     1.1337182856
   33      H      -7.2932913181    -0.9085327505    -2.5516423478
   34      H      -2.6212399653     4.2056146985     2.2748471660
   35      H      -2.2802685629     5.5894735897     0.0829596068
   36      H      -0.9295024733     7.8556304002    -3.3364307308
   37      H      -2.2425976689     7.5645040803    -5.5795260192
   38      H     -10.8098895370    -5.9464972553    -0.6824969243
   39      C     -11.6873063974    -4.3728947297     0.6358580145
   40      H     -10.2607311038    -5.9829139424     0.9638520181
   41      H     -11.8941475691    -3.5680011937    -0.0800436026
   42      H     -11.3583841354    -3.8430465298     1.5380220964
   43      C     -13.0024609821    -5.1657332986     0.9086517495
   44      H     -13.1705935504    -5.7226315326    -0.0213685709
   45      C     -14.2111765471    -4.1916361042     1.0342118500
   46      H     -12.8944315682    -5.8885854192     1.7259261572
   47      H     -14.4228205991    -3.6780069476     0.0885756172
   48      H     -14.0267984049    -3.3915581374     1.7619830693
   49      C     -15.6031213489    -4.9798574590     1.3322433325
   50      H     -16.4714773070    -4.3918355660     1.0101359228
   51      C     -15.7637576616    -5.2325003527     2.7987850275
   52      H     -15.5669951215    -5.8933242490     0.7266351100
   53      H     -14.8294275931    -5.6743746585     3.1668304337
   54      H     -16.5698478367    -5.9332886358     3.0502674559
   55      H     -15.8194939552    -4.2896814981     3.3563942751
   56      C      10.3950422016    -3.8938730864     0.7251923098
   57      C       9.3603057597    -4.1390716493     1.6292150753
   58      N      10.4433699362    -2.7999701286    -0.0767289763
   59      C       8.2814210114    -3.2560383731     1.6789838713
   60      C       9.4275039203    -1.9262043554     0.0969420099
   61      C       8.2337101587    -2.1349006658     0.8750983597
   62      C       7.1966917686    -1.1139200800     0.9829941528
   63      C       5.8426354947    -1.3833995340     1.1843183462
   64      C       7.3651472867     0.3130657105     0.9149626010
   65      N       4.8369456537    -0.5663317674     1.4178289640
   66      N       8.5823972726     0.8771152457     0.7015344081
   67      C       6.3672456751     1.1956785969     1.1495598440
   68      C       5.0500831640     0.7608949091     1.4434170615
   69      S       8.3705235157     2.4639172963     0.7291344708
   70      N       6.8163368855     2.4792402025     1.1589241017
   71      C       3.8689528552     1.6490665297     1.7495009814
   72      S       3.8396546311     3.3905413278     1.2166650389
   73      C       2.6603705804     1.2305839738     2.2190329137
   74      C       2.1730263919     3.5486388241     1.8374528400
   75      S       2.0612242918    -0.3257199552     2.5884484054
   76      C       1.7349724966     2.2646515951     2.2274317886
   77      C       1.4057080793     4.7762525800     1.9809800973
   78      C       0.4493926415     0.4006680946     2.5655544677
   79      C       0.4069654127     1.7765770717     2.4959023546
   80      N       1.8507461599     5.8270466359     1.3243775091
   81      S      -0.0143936437     5.0218068547     3.0440822535
   82      C       1.0670355473     6.9332906676     1.5487607036
   83      C       0.0191565746     6.6546499618     2.3822221698
   84      C      11.6243779155    -4.7642489217     0.6161757615
   85      H       9.4366429078    -5.0069574442     2.2763077168
   86      H       7.4397372116    -3.4373422999     2.3404944662
   87      H       9.5090145188    -1.0158170245    -0.4941264550
   88      H       5.5889844214    -2.4410734001     1.2412404515
   89      H      -0.4500625113    -0.2011273178     2.5663969302
   90      H      -0.4565859126     2.4264066057     2.4125075986
   91      H       1.2508051063     7.8687999847     1.0367997023
   92      H      -0.7917255531     7.2995158632     2.6946787975
   93      H      12.4645736722    -4.1207462329     0.9050535556
   94      C      11.6069028473    -5.4966853503    -0.7285994985
   95      H      11.5204805731    -5.5797653658     1.3425525725
   96      H      10.5922084207    -5.5381990719    -1.1439268772
   97      H      11.9145629820    -6.5466722713    -0.6417334681
   98      C      12.6182032963    -4.8780304433    -1.7243888879
   99      H      12.6592474375    -3.7839473020    -1.6631642322
  100      C      12.1589355474    -5.1888357017    -3.1759929062
  101      H      13.6617933017    -5.1807419367    -1.5748039538
  102      H      12.8960023023    -4.7127614014    -3.8338020423
  103      H      11.1790526302    -4.7434283791    -3.3892434294
  104      C      12.2376290590    -6.6864480509    -3.5189835513
  105      H      13.2408004447    -6.9109133280    -3.1373665832
  106      C      12.1161182384    -7.1351299723    -4.9994715296
  107      H      11.6280024381    -7.3397243766    -2.8821614212
  108      H      12.6044698292    -8.0585787083    -5.3352231579
  109      H      12.5902578046    -6.3942473709    -5.6546620689
  110      H      11.0897135059    -7.3186477694    -5.3403696716
 ----------------------------------------------------------------
 Molecular Point Group                 C1    NOp =  1
 Largest Abelian Subgroup              C1    NOp =  1
 Nuclear Repulsion Energy = 10872.5478331655 hartrees
 There are      270 alpha and      270 beta electrons
 Requested basis set is 6-31G(d,p)
 There are 406 shells and 1262 basis functions

 Total QAlloc Memory Limit  20000 MB
 Mega-Array Size      4888 MB
 MEM_STATIC part      5000 MB
 A cutoff of  1.0D-08 yielded  12943 shell pairs
 There are    135875 function pairs
 
 -------------------------------------------------------
 OpenMP Integral Computing Module                       
 Release: version 1.0, May 2013, Q-Chem Inc. Pittsburgh 
 -------------------------------------------------------
 Integral Job Info:
 Integral job number is                      11
 Integral operator is                         1
 short-range coefficients                     0
 long-range coefficients              100000000
 Omega coefficients                           0
 if combine SR and LR in K                    0
 Integral screening is                        0
 Integral computing path is                   2
 max size of driver memory is            800000
 size of driver memory is                593474
 size of scratch memory is             15166112
 max col of scratch BK array               1296
 max len of scratch array in speh3          155
 max len of scratch index in speh4           18
 max int batch size is                      520
 min int batch size is                       52
 fixed nKL is                                52
 max L of basis functions is                  2
 order of int derivative is                   0
 number of shells is                        406
 number of basis is                        1262
 number of cartesian basis is              1262
 number of contracted shell pairs         12943
 number of primitive shell pairs          42226
 maxK2 (contraction) of shell pair           36
 max number of K2 of shell pair               1
 max number of CS2 of shell pair           1316
 max number of PS2 of shell pair           7770
 mem total for path MDJ                  280168
 -------------------------------------------------------
 Smallest overlap matrix eigenvalue = 3.63E-04

 Scale SEOQF with 1.000000e-02/1.000000e-02/1.000000e-02

 Standard Electronic Orientation quadrupole field applied
 Nucleus-field energy     =     0.0000001378 hartrees
 Guess from superposition of atomic densities
 Warning:  Energy on first SCF cycle will be non-variational
 A restricted hybrid HF-DFT SCF calculation will be
 performed using Pulay DIIS extrapolation
 Exchange:     0.2000 Hartree-Fock + 0.0800 Slater + 0.7200 B88
 Correlation:  0.1900 VWN1RPA + 0.8100 LYP
 Using SG-1 standard quadrature grid
 SCF converges when DIIS error is below 1.0E-05
 using 16 threads for integral computing 
 -------------------------------------------------------
 OpenMP BLAS3 based DFT computing Module                
 Release: version 1.0, May 2013, Q-Chem Inc. Pittsburgh 
 -------------------------------------------------------
 ---------------------------------------
  Cycle       Energy         DIIS Error
 ---------------------------------------
    1   -5680.3146077334      2.16E-02
    2   -5662.4884630481      2.15E-03
    3   -5661.0879753328      3.32E-03
    4   -5663.3512494851      8.27E-04
    5   -5663.4713336646      3.62E-04
    6   -5663.4868497663      2.38E-04
    7   -5663.4973896028      7.69E-05
    8   -5663.4983733772      3.09E-05
    9   -5663.4985512351      1.18E-05
   10   -5663.4985836897      3.12E-06 Convergence criterion met
 ---------------------------------------
 SCF time:  CPU 1006.96 s  wall 89.99 s
 SCF   energy in the final basis set = -5663.4985836897
 Total energy in the final basis set = -5663.4985836897
 
 --------------------------------------------------------------
 
                    Orbital Energies (a.u.)
 --------------------------------------------------------------
 
 Alpha MOs
 -- Occupied --
-88.995 -88.988 -88.927 -88.926 -88.926 -88.919 -88.912 -88.911
-14.390 -14.389 -14.376 -14.371 -14.352 -14.345 -14.344 -14.338
-14.332 -14.329 -10.270 -10.268 -10.267 -10.262 -10.262 -10.261
-10.249 -10.247 -10.243 -10.240 -10.239 -10.238 -10.234 -10.230
-10.229 -10.229 -10.229 -10.229 -10.229 -10.229 -10.228 -10.228
-10.227 -10.225 -10.224 -10.223 -10.222 -10.221 -10.218 -10.216
-10.213 -10.211 -10.210 -10.205 -10.204 -10.203 -10.198 -10.197
-10.187 -10.184 -10.184 -10.183 -10.182 -10.180 -10.179 -10.174
-10.170 -10.169 -10.169 -10.168  -8.050  -8.044  -7.988  -7.987
 -7.985  -7.976  -7.972  -7.972  -6.015  -6.010  -6.009  -6.008
 -6.003  -6.002  -5.952  -5.951  -5.949  -5.949  -5.948  -5.946
 -5.945  -5.944  -5.941  -5.941  -5.937  -5.937  -5.936  -5.933
 -5.933  -5.933  -5.928  -5.928  -1.042  -1.037  -0.970  -0.964
 -0.963  -0.962  -0.947  -0.936  -0.915  -0.910  -0.902  -0.894
 -0.846  -0.838  -0.837  -0.836  -0.814  -0.811  -0.807  -0.804
 -0.802  -0.801  -0.800  -0.794  -0.783  -0.780  -0.769  -0.765
 -0.753  -0.747  -0.745  -0.738  -0.723  -0.719  -0.712  -0.709
 -0.697  -0.692  -0.677  -0.671  -0.655  -0.652  -0.650  -0.640
 -0.637  -0.633  -0.632  -0.623  -0.612  -0.610  -0.601  -0.597
 -0.592  -0.589  -0.585  -0.584  -0.580  -0.574  -0.570  -0.557
 -0.553  -0.546  -0.541  -0.539  -0.525  -0.523  -0.517  -0.516
 -0.511  -0.508  -0.504  -0.494  -0.489  -0.485  -0.477  -0.474
 -0.473  -0.472  -0.466  -0.466  -0.463  -0.454  -0.449  -0.444
 -0.444  -0.440  -0.436  -0.435  -0.432  -0.430  -0.430  -0.428
 -0.427  -0.426  -0.422  -0.418  -0.417  -0.416  -0.414  -0.413
 -0.412  -0.409  -0.408  -0.405  -0.402  -0.398  -0.397  -0.396
 -0.394  -0.392  -0.390  -0.389  -0.388  -0.384  -0.384  -0.382
 -0.381  -0.380  -0.377  -0.375  -0.369  -0.368  -0.363  -0.359
 -0.353  -0.352  -0.349  -0.346  -0.343  -0.341  -0.341  -0.339
 -0.339  -0.337  -0.335  -0.334  -0.328  -0.326  -0.324  -0.319
 -0.315  -0.311  -0.303  -0.303  -0.301  -0.300  -0.300  -0.298
 -0.297  -0.295  -0.290  -0.289  -0.288  -0.287  -0.283  -0.280
 -0.280  -0.274  -0.271  -0.266  -0.256  -0.254  -0.254  -0.250
 -0.247  -0.241  -0.237  -0.230  -0.195  -0.189
 -- Virtual --
 -0.119  -0.107  -0.078  -0.069  -0.042  -0.037  -0.036  -0.025
 -0.023  -0.021  -0.015  -0.010  -0.008  -0.001   0.001   0.002
  0.005   0.011   0.015   0.022   0.030   0.031   0.037   0.040
  0.041   0.056   0.057   0.063   0.070   0.081   0.089   0.092
  0.093   0.095   0.101   0.102   0.103   0.108   0.112   0.113
  0.114   0.115   0.117   0.119   0.121   0.122   0.126   0.127
  0.128   0.129   0.132   0.135   0.137   0.140   0.143   0.147
  0.154   0.154   0.155   0.155   0.157   0.160   0.163   0.165
  0.165   0.168   0.171   0.173   0.175   0.176   0.178   0.178
  0.183   0.187   0.190   0.193   0.193   0.196   0.196   0.199
  0.200   0.201   0.206   0.207   0.213   0.213   0.218   0.220
  0.225   0.226   0.228   0.230   0.233   0.234   0.240   0.241
  0.243   0.244   0.248   0.251   0.253   0.258   0.261   0.266
  0.268   0.270   0.272   0.274   0.275   0.277   0.277   0.282
  0.283   0.285   0.289   0.292   0.294   0.299   0.300   0.303
  0.306   0.307   0.311   0.313   0.317   0.318   0.322   0.324
  0.325   0.328   0.330   0.334   0.339   0.342   0.346   0.349
  0.350   0.351   0.354   0.357   0.364   0.366   0.368   0.369
  0.372   0.376   0.380   0.385   0.388   0.393   0.400   0.402
  0.408   0.411   0.415   0.422   0.423   0.425   0.432   0.437
  0.441   0.441   0.453   0.455   0.460   0.469   0.470   0.476
  0.478   0.480   0.484   0.486   0.494   0.495   0.498   0.499
  0.502   0.504   0.506   0.510   0.512   0.513   0.517   0.518
  0.520   0.524   0.525   0.526   0.529   0.530   0.530   0.535
  0.538   0.540   0.543   0.544   0.545   0.548   0.551   0.552
  0.553   0.556   0.558   0.559   0.564   0.565   0.566   0.567
  0.570   0.571   0.573   0.576   0.577   0.580   0.580   0.581
  0.585   0.588   0.590   0.593   0.595   0.597   0.600   0.601
  0.604   0.608   0.608   0.610   0.612   0.615   0.616   0.617
  0.619   0.621   0.623   0.627   0.628   0.630   0.632   0.634
  0.635   0.635   0.636   0.639   0.640   0.643   0.650   0.650
  0.653   0.656   0.658   0.660   0.661   0.665   0.666   0.667
  0.676   0.678   0.681   0.684   0.690   0.691   0.695   0.695
  0.702   0.703   0.706   0.707   0.711   0.719   0.720   0.723
  0.724   0.726   0.727   0.732   0.732   0.739   0.740   0.743
  0.751   0.752   0.754   0.755   0.761   0.765   0.766   0.769
  0.774   0.775   0.776   0.779   0.783   0.784   0.786   0.789
  0.794   0.794   0.798   0.798   0.801   0.805   0.808   0.809
  0.811   0.816   0.817   0.819   0.821   0.822   0.824   0.826
  0.830   0.831   0.833   0.836   0.837   0.840   0.841   0.843
  0.843   0.846   0.847   0.850   0.852   0.852   0.853   0.856
  0.857   0.858   0.861   0.864   0.867   0.869   0.870   0.872
  0.872   0.873   0.876   0.877   0.882   0.882   0.887   0.891
  0.892   0.892   0.894   0.895   0.896   0.902   0.902   0.904
  0.907   0.911   0.917   0.918   0.921   0.922   0.923   0.925
  0.930   0.930   0.932   0.934   0.937   0.938   0.941   0.945
  0.947   0.948   0.949   0.951   0.952   0.954   0.959   0.960
  0.962   0.964   0.967   0.971   0.975   0.978   0.979   0.980
  0.982   0.987   0.988   0.989   0.989   0.991   0.993   0.998
  1.001   1.004   1.006   1.009   1.014   1.017   1.019   1.022
  1.024   1.027   1.032   1.034   1.035   1.040   1.041   1.043
  1.045   1.049   1.051   1.052   1.056   1.060   1.070   1.073
  1.079   1.085   1.088   1.091   1.097   1.100   1.105   1.110
  1.113   1.116   1.126   1.129   1.134   1.136   1.145   1.149
  1.153   1.155   1.163   1.167   1.172   1.174   1.178   1.182
  1.188   1.193   1.199   1.207   1.212   1.214   1.220   1.221
  1.232   1.240   1.242   1.248   1.252   1.256   1.263   1.266
  1.270   1.277   1.280   1.284   1.286   1.287   1.294   1.303
  1.304   1.309   1.310   1.317   1.325   1.329   1.333   1.335
  1.341   1.344   1.350   1.353   1.358   1.362   1.367   1.369
  1.373   1.377   1.379   1.384   1.385   1.393   1.396   1.397
  1.401   1.404   1.408   1.414   1.416   1.421   1.428   1.431
  1.436   1.437   1.438   1.440   1.449   1.450   1.457   1.457
  1.469   1.473   1.480   1.484   1.496   1.500   1.503   1.516
  1.518   1.521   1.526   1.528   1.533   1.542   1.555   1.557
  1.571   1.574   1.585   1.586   1.592   1.601   1.603   1.603
  1.615   1.619   1.622   1.623   1.629   1.637   1.640   1.641
  1.643   1.661   1.662   1.667   1.672   1.675   1.681   1.683
  1.684   1.685   1.691   1.691   1.699   1.702   1.703   1.706
  1.718   1.719   1.721   1.724   1.733   1.741   1.743   1.746
  1.749   1.750   1.754   1.760   1.761   1.767   1.777   1.778
  1.795   1.799   1.804   1.809   1.812   1.813   1.820   1.826
  1.826   1.828   1.832   1.833   1.841   1.845   1.847   1.850
  1.855   1.856   1.859   1.866   1.869   1.870   1.872   1.875
  1.877   1.877   1.878   1.886   1.890   1.892   1.893   1.895
  1.903   1.905   1.909   1.918   1.923   1.925   1.928   1.937
  1.940   1.941   1.943   1.945   1.948   1.955   1.960   1.961
  1.971   1.974   1.976   1.979   1.981   1.984   1.988   1.995
  1.998   1.999   2.000   2.012   2.016   2.021   2.025   2.031
  2.032   2.040   2.044   2.049   2.056   2.063   2.065   2.067
  2.080   2.084   2.087   2.091   2.093   2.098   2.101   2.103
  2.112   2.113   2.118   2.120   2.122   2.123   2.129   2.129
  2.133   2.147   2.148   2.148   2.151   2.157   2.160   2.161
  2.162   2.168   2.170   2.174   2.177   2.185   2.188   2.194
  2.199   2.201   2.201   2.208   2.210   2.214   2.216   2.221
  2.224   2.229   2.231   2.236   2.238   2.240   2.248   2.252
  2.254   2.255   2.257   2.259   2.261   2.266   2.276   2.285
  2.294   2.295   2.298   2.299   2.302   2.304   2.304   2.310
  2.312   2.316   2.319   2.324   2.329   2.332   2.338   2.338
  2.343   2.345   2.345   2.349   2.353   2.355   2.361   2.367
  2.368   2.369   2.372   2.374   2.379   2.384   2.384   2.391
  2.397   2.398   2.400   2.403   2.405   2.407   2.412   2.417
  2.420   2.425   2.426   2.430   2.434   2.436   2.438   2.441
  2.443   2.451   2.458   2.460   2.462   2.465   2.467   2.471
  2.474   2.481   2.486   2.488   2.491   2.496   2.498   2.504
  2.507   2.509   2.514   2.520   2.521   2.524   2.529   2.537
  2.541   2.549   2.551   2.553   2.556   2.558   2.562   2.569
  2.570   2.577   2.577   2.581   2.582   2.584   2.592   2.597
  2.598   2.599   2.608   2.614   2.621   2.624   2.626   2.640
  2.647   2.649   2.650   2.657   2.664   2.667   2.669   2.671
  2.675   2.683   2.684   2.686   2.687   2.693   2.699   2.700
  2.701   2.709   2.714   2.719   2.722   2.727   2.733   2.744
  2.744   2.748   2.768   2.770   2.776   2.779   2.789   2.797
  2.803   2.808   2.814   2.815   2.819   2.820   2.826   2.833
  2.838   2.843   2.849   2.850   2.855   2.858   2.866   2.875
  2.878   2.879   2.880   2.894   2.897   2.900   2.902   2.904
  2.904   2.909   2.915   2.917   2.923   2.926   2.930   2.939
  2.944   2.968   2.969   2.981   2.992   3.002   3.020   3.033
  3.053   3.056   3.066   3.079   3.085   3.099   3.113   3.128
  3.147   3.160   3.165   3.195   3.199   3.202   3.229   3.240
  3.242   3.243   3.246   3.260   3.262   3.266   3.273   3.287
  3.289   3.292   3.299   3.303   3.313   3.318   3.329   3.336
  3.340   3.353   3.360   3.373   3.383   3.403   3.411   3.432
  3.443   3.455   3.457   3.487   3.487   3.498   3.534   3.542
  3.557   3.559   3.560   3.566   3.576   3.580   3.596   3.607
  3.607   3.632   3.741   3.744   3.835   3.857   3.898   3.924
  3.932   3.941   3.954   3.955   3.961   3.988   3.990   3.994
  4.026   4.064   4.070   4.072   4.083   4.093   4.099   4.114
  4.118   4.121   4.142   4.145   4.154   4.156   4.159   4.178
  4.205   4.208   4.230   4.244   4.251   4.255   4.271   4.275
  4.285   4.299   4.319   4.333   4.360   4.367   4.383   4.392
  4.422   4.434   4.443   4.452   4.463   4.482   4.492   4.504
  4.511   4.518   4.532   4.543   4.610   4.613   4.658   4.672
  4.675   4.686   4.708   4.713   4.745   4.748   4.790   4.811
 --------------------------------------------------------------
 
          Ground-State Mulliken Net Atomic Charges

     Atom                 Charge (a.u.)
  ----------------------------------------
      1 C                     0.251494
      2 C                    -0.119334
      3 N                    -0.463913
      4 C                    -0.085890
      5 C                     0.081662
      6 C                     0.065095
      7 C                     0.062449
      8 C                     0.054632
      9 C                     0.154053
     10 N                    -0.498311
     11 N                    -0.526909
     12 C                     0.279904
     13 C                     0.223826
     14 S                     0.612279
     15 N                    -0.577706
     16 C                    -0.176650
     17 S                     0.309461
     18 C                    -0.135440
     19 C                    -0.256792
     20 S                     0.271563
     21 C                     0.176143
     22 C                     0.086848
     23 C                    -0.311439
     24 C                    -0.052792
     25 N                    -0.439566
     26 S                     0.267696
     27 C                     0.119874
     28 C                    -0.303476
     29 C                    -0.218580
     30 H                     0.095550
     31 H                     0.102369
     32 H                     0.112645
     33 H                     0.100864
     34 H                     0.128481
     35 H                     0.131049
     36 H                     0.112098
     37 H                     0.130437
     38 H                     0.087031
     39 C                    -0.178481
     40 H                     0.119834
     41 H                     0.092292
     42 H                     0.111957
     43 C                    -0.170432
     44 H                     0.095100
     45 C                    -0.190191
     46 H                     0.100910
     47 H                     0.091437
     48 H                     0.091767
     49 C                    -0.179483
     50 H                     0.089918
     51 C                    -0.307544
     52 H                     0.092308
     53 H                     0.098347
     54 H                     0.098139
     55 H                     0.103468
     56 C                     0.248934
     57 C                    -0.116659
     58 N                    -0.473680
     59 C                    -0.078312
     60 C                     0.088965
     61 C                     0.041878
     62 C                     0.072277
     63 C                     0.039937
     64 C                     0.200395
     65 N                    -0.521812
     66 N                    -0.554252
     67 C                     0.205501
     68 C                     0.303141
     69 S                     0.613141
     70 N                    -0.562927
     71 C                    -0.226819
     72 S                     0.345031
     73 C                    -0.082175
     74 C                    -0.203470
     75 S                     0.289482
     76 C                     0.100368
     77 C                     0.069722
     78 C                    -0.319365
     79 C                    -0.053455
     80 N                    -0.432305
     81 S                     0.253151
     82 C                     0.139595
     83 C                    -0.311109
     84 C                    -0.216114
     85 H                     0.091704
     86 H                     0.097660
     87 H                     0.115783
     88 H                     0.093148
     89 H                     0.128442
     90 H                     0.113364
     91 H                     0.120294
     92 H                     0.124472
     93 H                     0.123652
     94 C                    -0.172816
     95 H                     0.086337
     96 H                     0.108121
     97 H                     0.097758
     98 C                    -0.181688
     99 H                     0.115568
    100 C                    -0.180840
    101 H                     0.087260
    102 H                     0.083251
    103 H                     0.096382
    104 C                    -0.170472
    105 H                     0.090093
    106 C                    -0.328973
    107 H                     0.089573
    108 H                     0.100398
    109 H                     0.100131
    110 H                     0.102276
  ----------------------------------------
  Sum of atomic charges =     0.000000

 -----------------------------------------------------------------
                    Cartesian Multipole Moments
 -----------------------------------------------------------------
    Charge (ESU x 10^10)
                 0.0000
    Dipole Moment (Debye)
         X      -3.0298      Y       0.6716      Z      -0.5889
       Tot       3.1587
    Quadrupole Moments (Debye-Ang)
        XX    -440.9356     XY      -5.6300     YY    -407.4272
        XZ      20.2264     YZ      -6.0286     ZZ    -434.5453
    Octopole Moments (Debye-Ang^2)
       XXX    -259.2727    XXY    -127.6124    XYY      21.9602
       YYY     286.2300    XXZ     -39.3556    XYZ    -156.9392
       YYZ     -74.5439    XZZ     -53.0363    YZZ      91.3861
       ZZZ     -78.6624
    Hexadecapole Moments (Debye-Ang^3)
      XXXX -142677.6478   XXXY    1379.4829   XXYY  -29862.6434
      XYYY    -610.3943   YYYY  -38623.7852   XXXZ    2587.7299
      XXYZ     108.6734   XYYZ     587.1403   YYYZ    -753.3459
      XXZZ  -25980.5711   XYZZ    -226.0567   YYZZ   -8069.4445
      XZZZ     252.6876   YZZZ    -572.4481   ZZZZ  -11748.8578
 -----------------------------------------------------------------
Archival summary:
1\1\mn426\SP\ProcedureUnspecified\6-31G**\8105042\afmv_a\SatOct609:47:342018SatOct609:47:342018\0\\#,ProcedureUnspecified,6-31G**,\\0,1\S\C,1,1.7149\C,2,1.37707,1,126.251\C,2,1.40499,1,114.485,3,-171.227,0\C,4,1.38876,2,111.618,1,171.741,0\C,4,1.41655,2,112.478,1,4.89129,0\H,6,1.08463,4,125.118,2,164.182,0\C,6,1.40353,4,109.765,2,-3.67541,0\H,8,1.08228,6,124.009,4,170.927,0\C,3,1.45245,2,123.364,1,3.6326,0\N,10,1.36402,3,113.009,2,-141.943,0\C,11,1.33361,10,119.683,3,177.843,0\H,12,1.08906,11,114.084,10,179.493,0\C,12,1.37483,11,126.434,10,7.00611,0\C,10,1.41031,3,127.593,2,44.1914,0\N,15,1.35867,10,130.754,3,1.72919,0\C,15,1.38426,10,117.998,3,178.482,0\N,17,1.3739,15,117.506,10,-175.032,0\C,5,1.46927,4,127.404,2,-173.242,0\N,19,1.31439,5,119.562,4,-16.7409,0\C,20,1.39858,19,105.459,5,-167.31,0\H,21,1.08262,20,118.187,19,173.842,0\C,21,1.36037,20,116.762,19,-9.50625,0\H,23,1.08221,21,125.857,20,179.33,0\C,14,1.51969,12,118.516,11,-176.439,0\C,25,1.37928,14,125.401,12,-36.2458,0\H,26,1.08525,25,117.426,14,-8.02613,0\C,26,1.38908,25,119.683,14,171.192,0\H,28,1.08618,26,123.388,25,-174.054,0\C,28,1.39518,26,116.183,25,-15.8724,0\N,30,1.31271,28,123.929,26,24.2391,0\C,31,1.37712,30,116.078,28,-13.4335,0\H,32,1.08895,31,116.336,30,-166.089,0\C,30,1.56989,28,121.94,26,-166.898,0\H,34,1.0973,30,107.175,28,-132.878,0\H,34,1.09735,30,103.518,28,-22.7082,0\C,34,1.5304,30,114.655,28,103.791,0\H,37,1.09674,34,108.884,30,65.2526,0\H,37,1.09688,34,112.291,30,-49.1497,0\C,37,1.55969,34,111.654,30,-172.13,0\H,40,1.09641,37,112.484,34,-63.689,0\H,40,1.09697,37,103.829,34,53.0568,0\C,40,1.55744,37,110.523,34,165.741,0\H,43,1.09674,40,111.911,37,-65.7424,0\H,43,1.09716,40,112.281,37,52.3554,0\S,18,1.62186,17,104.007,15,6.82917,0\C,43,1.62715,40,112.067,37,179.512,0\H,47,1.09658,43,105.914,40,38.8469,0\H,47,1.09707,43,111.327,40,156.094,0\C,47,1.49679,43,110.673,40,-84.9768,0\H,50,1.09679,47,111.007,43,-62.2722,0\H,50,1.09712,47,107.774,43,49.4059,0\H,50,1.09733,47,114.279,43,168.118,0\S,19,1.72069,5,119.28,4,166.564,0\S,3,1.78295,2,107.066,1,-169.706,0\H,9,2.8054,8,79.8373,6,116.126,0\C,56,1.08395,9,177.073,8,-142.484,0\C,57,1.37832,56,128.819,9,-146.783,0\H,58,1.08221,57,121.976,56,1.57685,0\C,57,1.4401,56,121.14,9,48.4188,0\C,60,1.38771,57,111.317,56,171.97,0\C,61,1.36245,60,111.392,57,-169.828,0\C,60,1.41159,57,130.237,56,0.0971239,0\C,63,1.45479,60,125.214,57,-18.557,0\N,64,1.31657,63,116.488,60,166.648,0\C,65,1.37416,64,111.611,63,178.946,0\H,66,1.08215,65,121.456,64,175.98,0\C,66,1.36761,65,111.869,64,0.726506,0\H,68,1.08213,66,128.955,65,176.159,0\C,62,1.50917,61,125.689,60,171.999,0\N,70,1.34447,62,117.436,61,-11.6197,0\C,71,1.31664,70,119.663,62,178.514,0\H,72,1.08915,71,114.549,70,-176.522,0\C,72,1.39521,71,130.318,70,-2.35404,0\C,70,1.41785,62,126.059,61,169.842,0\C,75,1.35272,70,121.411,62,-178.628,0\N,76,1.35846,75,114.667,70,177.44,0\N,75,1.35989,70,126.498,62,-3.66139,0\C,74,1.45926,72,124.417,71,-173.074,0\C,79,1.38038,74,123.35,72,41.2495,0\H,80,1.08577,79,117.622,74,-7.3766,0\C,80,1.39507,79,121.335,74,173.704,0\H,82,1.08526,80,122.637,79,-177.746,0\C,82,1.39573,80,119.028,79,1.42459,0\N,84,1.35722,82,123.415,80,-3.1176,0\C,85,1.35115,84,114.74,82,-2.26023,0\H,86,1.08849,85,114.505,84,-175.661,0\C,84,1.5102,82,123.298,80,-178.298,0\H,88,1.09703,84,105.448,82,116.07,0\H,88,1.09703,84,107.671,82,-0.800317,0\C,88,1.5314,84,109.253,82,-111.974,0\H,91,1.09719,88,111.165,84,20.8484,0\H,91,1.09758,88,112.634,84,137.937,0\C,91,1.54824,88,111.483,84,-104.981,0\H,94,1.09656,91,112.782,88,38.8167,0\H,94,1.09685,91,115.055,88,-79.4939,0\C,94,1.55392,91,109.138,88,155.396,0\H,97,1.09664,94,105.954,91,-178.89,0\H,97,1.09728,94,111.364,91,-61.816,0\C,97,1.5384,94,112.822,91,67.0642,0\H,100,1.09653,97,99.6996,94,46.9758,0\H,100,1.09725,97,114.947,94,-59.635,0\C,100,1.55175,97,119.353,94,166.784,0\H,103,1.09681,100,109.923,97,-35.235,0\H,103,1.09699,100,114.716,97,88.5033,0\H,103,1.09726,100,120.029,97,-151.786,0\S,77,1.60112,76,106.871,75,3.09026,0\S,61,1.70808,60,116.342,57,2.73678,0\S,68,1.7622,66,115.612,65,-4.05748,0\S,63,1.7855,60,107.769,57,163.898,0\\\@

 Total job time:  93.93s(wall), 1017.94s(cpu) 
 Sat Oct  6 09:47:34 2018

        *************************************************************
        *                                                           *
        *  Thank you very much for using Q-Chem.  Have a nice day.  *
        *                                                           *
        *************************************************************


