
Running Job 1 of 1 ./8/85.qcin
qchem ./8/85.qcin_16004.0 /tmpu/cab_g/afmv_a/scratch_qchem/qchem16004/ 1
/tmpu/appuserlic/qchem4.4/serial-multicore/exe/qcprog.exe_s ./8/85.qcin_16004.0 /tmpu/cab_g/afmv_a/scratch_qchem/qchem16004/
Check license passed

                  Welcome to Q-Chem
     A Quantum Leap Into The Future Of Chemistry


 Q-Chem 4.4, Q-Chem, Inc., Pleasanton, CA (2016)

 Y. Shao,  Z. Gan,  E. Epifanovsky,  A. T. B. Gilbert,  M. Wormit,  
 J. Kussmann,  A. W. Lange,  A. Behn,  J. Deng,  X. Feng,  D. Ghosh,  
 M. Goldey,  P. R. Horn,  L. D. Jacobson,  I. Kaliman,  F. Rob,  
 R. Z. Khaliullin,  T. Kus,  A. Landau,  J. Liu,  E. I. Proynov,  Y. M. Rhee,  
 R. M. Richard,  M. A. Rohrdanz,  R. P. Steele,  E. J. Sundstrom,  
 H. L. Woodcock III,  P. M. Zimmerman,  D. Zuev,  B. Albrecht,  E. Alguire,  
 B. Austin,  S. A. Baeppler,  G. J. O. Beran,  Y. A. Bernard,  E. Berquist,  
 K. Brandhorst,  K. B. Bravaya,  S. T. Brown,  D. Casanova,  C.-M. Chang,  
 Y. Chen,  S. H. Chien,  K. D. Closser,  M. P. Coons,  D. L. Crittenden,  
 S. Dasgupta,  M. Diedenhofen,  R. A. DiStasio Jr.,  H. Do,  A. D. Dutoi,  
 R. G. Edgar,  P.-T. Fang,  S. Fatehi,  Q. Feng,  L. Fusti-Molnar,  
 A. Ghysels,  A. Golubeva-Zadorozhnaya,  J. Gomes,  A. Gunina,  
 M. W. D. Hanson-Heine,  P. H. P. Harbach,  A. W. Hauser,  J. E. Herr,  
 E. G. Hohenstein,  Z. C. Holden,  K. Hui,  T.-C. Jagau,  H. Ji,  B. Kaduk,  
 K. Khistyaev,  Jaehoon Kim,  Jihan Kim,  R. A. King,  P. Klunzinger,  
 K. Koh,  D. Kosenkov,  T. Kowalczyk,  C. M. Krauter,  A. Kunitsa,  
 K. U. Lao,  A. Laurent,  K. V. Lawler,  J. Lee,  D. Lefrancois,  S. Lehtola,  
 S. V. Levchenko,  C. Y. Lin,  Y.-S. Lin,  F. Liu,  E. Livshits,  
 R. C. Lochan,  A. Luenser,  P. Manohar,  S. F. Manzer,  S.-P. Mao,  Y. Mao,  
 N. Mardirossian,  A. V. Marenich,  L. A. Martinez-Martinez,  S. A. Maurer,  
 N. J. Mayhall,  J.-M. Mewes,  A. F. Morrison,  K. Nanda,  T. S. Nguyen-Beck,  
 C. M. Oana,  R. Olivares-Amaya,  D. P. O'Neill,  J. A. Parkhill,  
 T. M. Perrine,  R. Peverati,  P. A. Pieniazek,  F. Plasser,  A. Prociuk,  
 D. R. Rehn,  E. Rosta,  N. J. Russ,  N. Sergueev,  S. M. Sharada,  
 S. Sharma,  D. W. Small,  A. Sodt,  T. Stauch,  T. Stein,  D. Stuck,  
 Y.-C. Su,  A. J. W. Thom,  T. Tsuchimochi,  L. Vogt,  O. Vydrov,  T. Wang,  
 M. A. Watson,  J. Wenzel,  A. White,  C. F. Williams,  V. Vanovschi,  
 K. Yao,  S. Yeganeh,  S. R. Yost,  Z.-Q. You,  I. Y. Zhang,  X. Zhang,  
 Y. Zhao,  B. R. Brooks,  G. K. L. Chan,  D. M. Chipman,  C. J. Cramer,  
 W. A. Goddard III,  M. S. Gordon,  W. J. Hehre,  A. Klamt,  
 H. F. Schaefer III,  M. W. Schmidt,  C. D. Sherrill,  D. G. Truhlar,  
 A. Warshel,  X. Xu,  A. Aspuru-Guzik,  R. Baer,  A. T. Bell,  N. A. Besley,  
 J.-D. Chai,  A. Dreuw,  B. D. Dunietz,  T. R. Furlani,  S. R. Gwaltney,  
 C.-P. Hsu,  Y. Jung,  J. Kong,  D. S. Lambrecht,  W. Liang,  C. Ochsenfeld,  
 V. A. Rassolov,  L. V. Slipchenko,  J. E. Subotnik,  T. Van Voorhis,  
 J. M. Herbert,  A. I. Krylov,  P. M. W. Gill,  M. Head-Gordon

 Contributors to earlier versions of Q-Chem not listed above: 
 R. D. Adamson,  J. Baker,  E. F. C. Byrd,  A. K. Chakraborty,  C.-L. Cheng,  
 H. Dachsel,  R. J. Doerksen,  G. Hawkins,  A. Heyden,  S. Hirata,  
 G. Kedziora,  F. J. Keil,  C. Kelley,  P. P. Korambath,  W. Kurlancheek,  
 A. M. Lee,  M. S. Lee,  D. Liotard,  I. Lotan,  P. E. Maslen,  N. Nair,  
 D. Neuhauser,  R. Olson,  B. Peters,  J. Ritchie,  N. E. Schultz,  
 N. Shenvi,  A. C. Simmonett,  K. S. Thanthiriwatte,  Q. Wu,  W. Zhang

 Please cite Q-Chem as follows:
 Y. Shao et al., Mol. Phys. 113, 184-215 (2015)
 DOI: 10.1080/00268976.2014.952696

 Q-Chem 4.4.2 for Intel X86 Linux

 Parts of Q-Chem use Armadillo 5.200.1 (Boston Tea Smuggler).
 http://arma.sourceforge.net/

 Q-Chem begins on Sat Oct  6 09:49:10 2018  

Host: 
0

     Scratch files written to /tmpu/cab_g/afmv_a/scratch_qchem/qchem16004//
 Dec716 11556_ 22328  22283 4050   
Processing $rem in /tmpu/appuserlic/qchem4.4/serial-multicore/config/preferences.
 MEM_TOTAL  2000 
FILE_GEOM_ORG=        593

Checking the input file for inconsistencies... 	...done.

--------------------------------------------------------------
User input:
--------------------------------------------------------------
$comment
SP
$end

$rem
MEM_STATIC 5000
MEM_TOTAL 20000
JOBTYPE SP
EXCHANGE B3LYP
BASIS 6-31g(d,p)
$end

$molecule
0 1
C          27.418000     30.489000      0.667000
C          26.132000     30.591000      1.281000
N          27.671000     29.632000     -0.297000
C          25.078000     29.781000      0.806000
C          26.662000     28.883000     -0.761000
C          25.332000     28.872000     -0.227000
C          24.325000     27.888000     -0.786000
C          24.727000     26.691000     -1.276000
C          22.912000     28.164000     -0.929000
N          24.056000     25.861000     -1.983000
N          22.313000     29.244000     -0.456000
C          22.143000     27.277000     -1.694000
C          22.717000     26.061000     -2.175000
S          20.757000     29.067000     -0.839000
N          20.839000     27.735000     -1.808000
C          21.923000     25.062000     -3.008000
S          20.164000     24.927000     -3.022000
C          22.528000     24.328000     -4.008000
C          20.343000     23.578000     -4.141000
S          24.158000     24.243000     -4.587000
C          21.640000     23.477000     -4.616000
C          19.285000     23.206000     -5.058000
C          23.677000     23.060000     -5.769000
C          22.339000     22.772000     -5.647000
N          18.430000     24.138000     -5.347000
S          19.088000     21.719000     -5.972000
C          17.733000     23.793000     -6.447000
C          17.794000     22.428000     -6.707000
C          28.530000     31.422000      1.035000
H          26.035000     31.254000      2.135000
H          24.156000     29.713000      1.377000
H          26.857000     28.245000     -1.621000
H          25.758000     26.356000     -1.171000
H          24.405000     22.716000     -6.491000
H          21.844000     22.065000     -6.303000
H          16.957000     24.438000     -6.838000
H          17.368000     21.815000     -7.490000
H          29.209000     31.507000      0.178000
C          29.216000     31.129000      2.387000
H          28.113000     32.419000      1.226000
H          29.349000     30.043000      2.471000
H          28.555000     31.316000      3.243000
C          30.525000     31.818000      2.528000
H          31.317000     31.515000      1.831000
C          31.316000     31.670000      3.911000
H          30.369000     32.839000      2.158000
H          30.514000     31.906000      4.620000
H          32.227000     32.266000      4.044000
C          31.803000     30.179000      4.134000
H          30.889000     29.604000      4.326000
C          32.667000     30.023000      5.402000
H          32.159000     29.770000      3.181000
H          32.715000     29.018000      5.839000
H          32.256000     30.636000      6.214000
H          33.683000     30.376000      5.184000
C          14.308000      7.777000     -3.066000
C          13.109000      8.488000     -2.997000
N          15.553000      8.360000     -3.050000
C          13.190000      9.879000     -2.859000
C          15.577000      9.693000     -2.938000
C          14.486000     10.515000     -2.972000
C          14.599000     12.091000     -3.141000
C          15.553000     12.579000     -4.037000
C          13.792000     13.049000     -2.559000
N          15.742000     13.892000     -4.274000
N          12.769000     12.744000     -1.738000
C          13.883000     14.441000     -2.782000
C          14.895000     14.827000     -3.762000
S          12.128000     14.145000     -1.266000
N          13.044000     15.243000     -2.143000
C          14.916000     16.260000     -4.295000
S          13.642000     17.538000     -4.280000
C          15.970000     16.751000     -4.989000
C          14.623000     18.668000     -5.213000
S          17.615000     16.280000     -5.035000
C          15.752000     18.033000     -5.584000
C          14.343000     20.063000     -5.277000
C          17.904000     17.654000     -6.136000
C          16.837000     18.512000     -6.333000
N          15.349000     20.934000     -5.476000
S          12.810000     20.699000     -4.963000
C          14.883000     22.249000     -5.307000
C          13.534000     22.291000     -5.018000
C          14.205000      6.301000     -3.462000
H          12.211000      7.887000     -3.107000
H          12.289000     10.480000     -2.941000
H          16.523000     10.232000     -2.933000
H          16.094000     11.810000     -4.587000
H          18.888000     17.673000     -6.584000
H          16.966000     19.511000     -6.733000
H          15.622000     23.039000     -5.286000
H          12.896000     23.141000     -4.818000
H          15.184000      5.837000     -3.289000
C          13.797000      6.130000     -4.959000
H          13.520000      5.746000     -2.810000
H          14.609000      6.452000     -5.622000
H          13.012000      6.860000     -5.194000
C          13.510000      4.670000     -5.434000
H          14.427000      4.108000     -5.217000
C          13.109000      4.352000     -6.836000
H          12.718000      4.272000     -4.787000
H          12.020000      4.486000     -6.846000
H          13.324000      3.286000     -6.983000
C          13.835000      5.188000     -7.986000
H          13.361000      6.176000     -7.957000
C          13.602000      4.547000     -9.343000
H          14.897000      5.407000     -7.818000
H          14.211000      3.656000     -9.539000
H          14.043000      5.241000    -10.070000
H          12.522000      4.449000     -9.508000
$end

--------------------------------------------------------------
 ----------------------------------------------------------------
             Standard Nuclear Orientation (Angstroms)
    I     Atom           X                Y                Z
 ----------------------------------------------------------------
    1      C     -13.6101616894    -1.4886037473    -0.1788159649
    2      C     -13.1268098814    -0.8470382853    -1.3603238098
    3      N     -12.8453925937    -1.7013364866     0.8688609948
    4      C     -11.7959977860    -0.3773344058    -1.3912823696
    5      C     -11.5909036045    -1.2322587711     0.8443360473
    6      C     -10.9748123787    -0.5883917386    -0.2781806990
    7      C      -9.5101278313    -0.2108980529    -0.1946122019
    8      C      -8.6505035754    -0.9392610827     0.5570835048
    9      C      -8.9383797795     0.9681189712    -0.8079775273
   10      N      -7.4616290596    -0.6318375650     0.9191030713
   11      N      -9.5925015711     1.7705580210    -1.6308664949
   12      C      -7.6377138974     1.3361257592    -0.4389324528
   13      C      -6.8577661220     0.4765046406     0.3930687492
   14      S      -8.5238853762     2.8987022575    -2.0604057943
   15      N      -7.2791812656     2.5321185412    -1.0424484985
   16      C      -5.4380232215     0.8289667431     0.8201829758
   17      S      -4.3720475712     1.9466413257    -0.0324608188
   18      C      -4.9563570028     0.4655248254     2.0614277648
   19      C      -3.1341763610     1.5745729246     1.1647204423
   20      S      -5.6473966451    -0.4150038655     3.3829796698
   21      C      -3.6538733373     0.8614916600     2.2321777777
   22      C      -2.0632851247     2.5031169007     1.4641115650
   23      C      -4.1734245749    -0.2169167646     4.2863853576
   24      C      -3.2401311899     0.4655511730     3.5439077676
   25      N      -2.2962343357     3.7482987584     1.1840637008
   26      S      -0.5530623454     2.2107812116     2.3121333818
   27      C      -1.4039965879     4.5335176065     1.8182380947
   28      C      -0.2719146426     3.8324521154     2.2200386002
   29      C     -15.0496480750    -1.8773640167    -0.0402468544
   30      H     -13.7949831579    -0.7995025814    -2.2144776774
   31      H     -11.3625362393    -0.0589281570    -2.3354632571
   32      H     -10.9948883609    -1.3289123027     1.7499258685
   33      H      -8.9591841744    -1.8762709602     1.0185374865
   34      H      -4.1346495428    -0.5696862687     5.3079792954
   35      H      -2.2574904083     0.7007031865     3.9367571341
   36      H      -1.4247096635     5.6086056430     1.6964239652
   37      H       0.6239242960     4.1338308819     2.7463250577
   38      H     -15.3044015504    -1.8888412300     1.0263758251
   39      C     -15.4708034781    -3.1373119313    -0.8273354001
   40      H     -15.6749220693    -1.1141883391    -0.5208447292
   41      H     -14.6777661879    -3.8874424637    -0.7153664724
   42      H     -15.4467439876    -2.9819437274    -1.9135710385
   43      C     -16.7703690117    -3.6931465689    -0.3687939303
   44      H     -16.8049307170    -4.0773310043     0.6588683722
   45      C     -17.3729144406    -4.9555109863    -1.1457425024
   46      H     -17.4372493670    -2.8316242288    -0.2394616086
   47      H     -17.2810114556    -4.6084770195    -2.1814559122
   48      H     -18.3794800364    -5.2919317545    -0.8692054017
   49      C     -16.4719981086    -6.2411247687    -0.9323743570
   50      H     -15.5500218541    -6.0418395364    -1.4919547197
   51      C     -17.0831338724    -7.5038916725    -1.5731464108
   52      H     -16.1296374240    -6.2723007806     0.1087996044
   53      H     -16.3849889481    -8.3144620626    -1.8157722695
   54      H     -17.5315567101    -7.2532810543    -2.5427573001
   55      H     -17.8743553031    -7.8869805179    -0.9161832580
   56      C      12.7547576748    -3.8865356459    -1.0638484680
   57      C      12.8117532079    -2.7018854787    -1.7995375943
   58      N      11.6026518554    -4.4016207453    -0.5184041341
   59      C      11.6075337298    -2.0251346051    -2.0283381699
   60      C      10.4820104401    -3.7074431684    -0.7470726931
   61      C      10.4121415198    -2.4843542148    -1.3522939300
   62      C       9.1054761470    -1.5805989810    -1.3213410472
   63      C       8.3823290510    -1.5292058163    -0.1274009230
   64      C       8.6400778445    -0.7581215484    -2.3286504798
   65      N       7.2627789432    -0.7956045456     0.0284699587
   66      N       9.2677829835    -0.6233339484    -3.5124636244
   67      C       7.5064256480     0.0803653522    -2.2423578687
   68      C       6.8526496156     0.0733014096    -0.9361928714
   69      S       8.3756423854     0.3915606886    -4.3902677192
   70      N       7.1730797790     0.8087148234    -3.2977410122
   71      C       5.7895459861     1.1267301086    -0.6229555026
   72      S       5.4376686431     2.7114982235    -1.4111669953
   73      C       4.9667941897     1.0183183149     0.4470722375
   74      C       4.1857769432     3.1290910855    -0.2414946594
   75      S       4.4680757722    -0.3410664562     1.3599440708
   76      C       4.1691709644     2.1756818409     0.7104728053
   77      C       3.2169114169     4.1459830870    -0.4776116841
   78      C       3.4285454838     0.7617589434     2.3016185992
   79      C       3.3510771747     2.0650456549     1.8445579809
   80      N       2.0059022428     4.0571134539     0.1019027406
   81      S       3.4637655577     5.3994212065    -1.5826623226
   82      C       1.1533096108     5.0455261042    -0.4187393983
   83      C       1.7887266882     5.8465084454    -1.3459709911
   84      C      14.0948966108    -4.4770347791    -0.6151398702
   85      H      13.8104461195    -2.3878060911    -2.0887980420
   86      H      11.6245980694    -1.0344968697    -2.4733906226
   87      H       9.5300529552    -4.0405750494    -0.3368750617
   88      H       8.8314016446    -2.0787481600     0.6989640195
   89      H       2.9751577715     0.3162231422     3.1764091068
   90      H       2.5540196545     2.7353918056     2.1445202249
   91      H       0.1060474041     4.9883758473    -0.1529618248
   92      H       1.4008217156     6.6707203305    -1.9288504819
   93      H      13.9048140513    -5.4843329914    -0.2241348420
   94      C      14.7735058195    -3.6028696510     0.4857864992
   95      H      14.7786515015    -4.6349923191    -1.4576852191
   96      H      14.2127103350    -3.6588751671     1.4265143061
   97      H      14.6553723408    -2.5456441450     0.2162151530
   98      C      16.2171553084    -4.0231588300     0.9086661029
   99      H      16.1309909105    -5.0650933943     1.2414874667
  100      C      16.9912804417    -3.2819978430     1.9473863103
  101      H      16.8323088101    -4.0166956598    -0.0000810549
  102      H      17.4746068685    -2.4649665124     1.3970842387
  103      H      17.7727624285    -3.9686373190     2.2966743495
  104      C      16.1627822185    -2.7593592978     3.2079066970
  105      H      15.6101791539    -1.8874677016     2.8389949225
  106      C      17.0989099688    -2.3373904674     4.3269358035
  107      H      15.3734644764    -3.4297239959     3.5706981984
  108      H      17.5350150485    -3.1673229095     4.8963236336
  109      H      16.4503234385    -1.9001902593     5.0968952120
  110      H      17.7989638112    -1.5870472032     3.9394585738
 ----------------------------------------------------------------
 Molecular Point Group                 C1    NOp =  1
 Largest Abelian Subgroup              C1    NOp =  1
 Nuclear Repulsion Energy = 10267.1773278444 hartrees
 There are      270 alpha and      270 beta electrons
 Requested basis set is 6-31G(d,p)
 There are 406 shells and 1262 basis functions

 Total QAlloc Memory Limit  20000 MB
 Mega-Array Size      4888 MB
 MEM_STATIC part      5000 MB
 A cutoff of  1.0D-08 yielded  12699 shell pairs
 There are    132295 function pairs
 
 -------------------------------------------------------
 OpenMP Integral Computing Module                       
 Release: version 1.0, May 2013, Q-Chem Inc. Pittsburgh 
 -------------------------------------------------------
 Integral Job Info:
 Integral job number is                      11
 Integral operator is                         1
 short-range coefficients                     0
 long-range coefficients              100000000
 Omega coefficients                           0
 if combine SR and LR in K                    0
 Integral screening is                        0
 Integral computing path is                   2
 max size of driver memory is            800000
 size of driver memory is                593474
 size of scratch memory is             15166112
 max col of scratch BK array               1296
 max len of scratch array in speh3          155
 max len of scratch index in speh4           18
 max int batch size is                      520
 min int batch size is                       52
 fixed nKL is                                52
 max L of basis functions is                  2
 order of int derivative is                   0
 number of shells is                        406
 number of basis is                        1262
 number of cartesian basis is              1262
 number of contracted shell pairs         12699
 number of primitive shell pairs          41714
 maxK2 (contraction) of shell pair           36
 max number of K2 of shell pair               1
 max number of CS2 of shell pair           1273
 max number of PS2 of shell pair           7638
 mem total for path MDJ                  278296
 -------------------------------------------------------
 Smallest overlap matrix eigenvalue = 4.14E-04

 Scale SEOQF with 1.000000e-03/1.000000e-02/1.000000e-02

 Standard Electronic Orientation quadrupole field applied
 Nucleus-field energy     =     0.0000000291 hartrees
 Guess from superposition of atomic densities
 Warning:  Energy on first SCF cycle will be non-variational
 A restricted hybrid HF-DFT SCF calculation will be
 performed using Pulay DIIS extrapolation
 Exchange:     0.2000 Hartree-Fock + 0.0800 Slater + 0.7200 B88
 Correlation:  0.1900 VWN1RPA + 0.8100 LYP
 Using SG-1 standard quadrature grid
 SCF converges when DIIS error is below 1.0E-05
 using 16 threads for integral computing 
 -------------------------------------------------------
 OpenMP BLAS3 based DFT computing Module                
 Release: version 1.0, May 2013, Q-Chem Inc. Pittsburgh 
 -------------------------------------------------------
 ---------------------------------------
  Cycle       Energy         DIIS Error
 ---------------------------------------
    1   -5680.3791195864      2.16E-02
    2   -5662.4438779826      2.16E-03
    3   -5660.9787225812      3.32E-03
    4   -5663.3040031050      8.22E-04
    5   -5663.4342385362      3.49E-04
    6   -5663.4498122134      2.12E-04
    7   -5663.4580713843      8.12E-05
    8   -5663.4592908981      2.75E-05
    9   -5663.4594221433      1.08E-05
   10   -5663.4594486071      3.52E-06 Convergence criterion met
 ---------------------------------------
 SCF time:  CPU 964.31 s  wall 88.35 s
 SCF   energy in the final basis set = -5663.4594486071
 Total energy in the final basis set = -5663.4594486071
 
 --------------------------------------------------------------
 
                    Orbital Energies (a.u.)
 --------------------------------------------------------------
 
 Alpha MOs
 -- Occupied --
-88.990 -88.987 -88.929 -88.928 -88.924 -88.922 -88.909 -88.908
-14.393 -14.389 -14.385 -14.381 -14.354 -14.344 -14.344 -14.338
-14.335 -14.327 -10.276 -10.267 -10.266 -10.262 -10.258 -10.256
-10.256 -10.255 -10.244 -10.242 -10.241 -10.236 -10.236 -10.233
-10.232 -10.231 -10.227 -10.227 -10.227 -10.227 -10.227 -10.226
-10.226 -10.224 -10.224 -10.223 -10.222 -10.222 -10.220 -10.217
-10.216 -10.209 -10.206 -10.205 -10.202 -10.202 -10.200 -10.198
-10.189 -10.185 -10.183 -10.183 -10.182 -10.182 -10.179 -10.179
-10.177 -10.177 -10.174 -10.173  -8.045  -8.043  -7.992  -7.987
 -7.986  -7.981  -7.970  -7.968  -6.011  -6.008  -6.005  -6.003
 -6.003  -6.001  -5.955  -5.952  -5.951  -5.950  -5.949  -5.948
 -5.947  -5.946  -5.945  -5.943  -5.942  -5.938  -5.934  -5.933
 -5.931  -5.929  -5.926  -5.925  -1.042  -1.040  -0.986  -0.967
 -0.965  -0.954  -0.945  -0.938  -0.919  -0.917  -0.913  -0.902
 -0.851  -0.845  -0.831  -0.828  -0.824  -0.809  -0.809  -0.807
 -0.806  -0.805  -0.797  -0.794  -0.789  -0.779  -0.768  -0.767
 -0.752  -0.747  -0.746  -0.741  -0.731  -0.719  -0.715  -0.709
 -0.699  -0.691  -0.676  -0.675  -0.653  -0.652  -0.648  -0.644
 -0.635  -0.630  -0.626  -0.624  -0.610  -0.607  -0.603  -0.600
 -0.600  -0.595  -0.588  -0.587  -0.584  -0.577  -0.565  -0.555
 -0.554  -0.544  -0.542  -0.538  -0.531  -0.526  -0.518  -0.513
 -0.508  -0.504  -0.500  -0.499  -0.493  -0.488  -0.475  -0.474
 -0.473  -0.470  -0.469  -0.467  -0.463  -0.461  -0.453  -0.450
 -0.444  -0.443  -0.443  -0.440  -0.437  -0.434  -0.431  -0.430
 -0.427  -0.427  -0.425  -0.422  -0.421  -0.420  -0.416  -0.413
 -0.411  -0.407  -0.406  -0.405  -0.402  -0.400  -0.397  -0.397
 -0.397  -0.396  -0.394  -0.393  -0.390  -0.388  -0.387  -0.383
 -0.380  -0.378  -0.375  -0.368  -0.366  -0.364  -0.361  -0.358
 -0.355  -0.354  -0.351  -0.350  -0.348  -0.347  -0.347  -0.343
 -0.340  -0.340  -0.338  -0.335  -0.333  -0.326  -0.324  -0.321
 -0.321  -0.314  -0.309  -0.308  -0.305  -0.304  -0.301  -0.300
 -0.296  -0.295  -0.294  -0.290  -0.287  -0.284  -0.283  -0.280
 -0.272  -0.269  -0.268  -0.263  -0.259  -0.254  -0.250  -0.248
 -0.245  -0.244  -0.236  -0.232  -0.197  -0.192
 -- Virtual --
 -0.114  -0.113  -0.073  -0.068  -0.039  -0.034  -0.028  -0.024
 -0.021  -0.019  -0.015  -0.010  -0.007  -0.002  -0.001   0.000
  0.002   0.012   0.018   0.019   0.028   0.032   0.037   0.039
  0.045   0.048   0.055   0.063   0.071   0.082   0.084   0.088
  0.091   0.095   0.099   0.099   0.104   0.107   0.110   0.113
  0.114   0.116   0.117   0.118   0.121   0.121   0.125   0.125
  0.130   0.133   0.133   0.135   0.137   0.138   0.141   0.145
  0.148   0.151   0.151   0.154   0.158   0.158   0.160   0.164
  0.165   0.165   0.167   0.169   0.172   0.175   0.178   0.181
  0.184   0.187   0.189   0.191   0.192   0.195   0.196   0.197
  0.203   0.203   0.205   0.206   0.214   0.215   0.215   0.217
  0.219   0.222   0.228   0.230   0.231   0.232   0.234   0.238
  0.242   0.246   0.247   0.250   0.251   0.255   0.256   0.259
  0.262   0.266   0.267   0.268   0.269   0.272   0.276   0.277
  0.278   0.282   0.283   0.292   0.295   0.297   0.303   0.304
  0.307   0.308   0.311   0.312   0.316   0.321   0.324   0.327
  0.330   0.332   0.333   0.334   0.339   0.340   0.343   0.346
  0.348   0.352   0.357   0.361   0.361   0.365   0.366   0.369
  0.373   0.378   0.379   0.383   0.387   0.391   0.393   0.400
  0.403   0.404   0.407   0.412   0.415   0.422   0.425   0.438
  0.441   0.445   0.447   0.450   0.456   0.461   0.465   0.466
  0.472   0.473   0.477   0.478   0.483   0.491   0.493   0.495
  0.496   0.501   0.502   0.507   0.510   0.511   0.514   0.515
  0.519   0.520   0.524   0.528   0.530   0.532   0.534   0.538
  0.539   0.542   0.544   0.546   0.548   0.548   0.550   0.551
  0.553   0.555   0.556   0.558   0.560   0.565   0.567   0.567
  0.569   0.572   0.573   0.574   0.575   0.578   0.581   0.583
  0.583   0.585   0.586   0.587   0.587   0.593   0.598   0.601
  0.604   0.604   0.606   0.608   0.608   0.609   0.614   0.618
  0.619   0.619   0.622   0.623   0.624   0.627   0.628   0.632
  0.634   0.636   0.638   0.639   0.643   0.646   0.647   0.650
  0.650   0.652   0.655   0.658   0.659   0.664   0.666   0.668
  0.672   0.674   0.679   0.680   0.681   0.683   0.685   0.689
  0.690   0.692   0.698   0.701   0.702   0.703   0.706   0.715
  0.717   0.725   0.731   0.732   0.734   0.738   0.744   0.749
  0.752   0.754   0.755   0.759   0.761   0.765   0.767   0.769
  0.772   0.774   0.776   0.779   0.784   0.788   0.790   0.791
  0.797   0.798   0.800   0.801   0.804   0.806   0.808   0.810
  0.812   0.813   0.817   0.818   0.822   0.823   0.825   0.826
  0.829   0.830   0.832   0.833   0.834   0.836   0.840   0.843
  0.844   0.846   0.846   0.849   0.850   0.850   0.851   0.858
  0.860   0.862   0.863   0.865   0.867   0.868   0.869   0.870
  0.871   0.874   0.876   0.879   0.881   0.884   0.885   0.886
  0.888   0.891   0.896   0.899   0.903   0.904   0.905   0.907
  0.908   0.910   0.914   0.918   0.918   0.920   0.921   0.922
  0.923   0.931   0.931   0.936   0.937   0.940   0.943   0.944
  0.947   0.949   0.950   0.952   0.960   0.962   0.963   0.965
  0.965   0.966   0.968   0.969   0.971   0.973   0.974   0.978
  0.982   0.987   0.994   0.995   0.999   1.002   1.003   1.007
  1.010   1.013   1.013   1.016   1.018   1.021   1.022   1.024
  1.029   1.031   1.035   1.037   1.039   1.042   1.045   1.049
  1.052   1.054   1.059   1.061   1.064   1.066   1.076   1.076
  1.083   1.086   1.088   1.094   1.097   1.100   1.104   1.106
  1.107   1.114   1.119   1.125   1.129   1.135   1.138   1.146
  1.148   1.151   1.156   1.166   1.166   1.167   1.169   1.174
  1.176   1.180   1.180   1.195   1.200   1.205   1.209   1.214
  1.223   1.228   1.229   1.237   1.242   1.245   1.249   1.254
  1.259   1.272   1.274   1.277   1.285   1.287   1.289   1.291
  1.303   1.306   1.307   1.313   1.319   1.322   1.325   1.327
  1.332   1.333   1.338   1.344   1.349   1.354   1.355   1.361
  1.362   1.365   1.366   1.380   1.384   1.385   1.395   1.400
  1.402   1.406   1.407   1.411   1.412   1.415   1.424   1.426
  1.430   1.434   1.437   1.447   1.448   1.451   1.455   1.458
  1.461   1.473   1.476   1.490   1.498   1.503   1.504   1.509
  1.512   1.517   1.527   1.533   1.535   1.540   1.548   1.557
  1.567   1.572   1.577   1.583   1.593   1.595   1.597   1.607
  1.613   1.618   1.619   1.623   1.626   1.629   1.638   1.647
  1.650   1.662   1.664   1.666   1.674   1.680   1.685   1.686
  1.687   1.688   1.691   1.692   1.697   1.700   1.702   1.705
  1.707   1.715   1.718   1.730   1.734   1.744   1.744   1.750
  1.754   1.755   1.758   1.759   1.763   1.766   1.773   1.779
  1.783   1.784   1.789   1.797   1.798   1.804   1.808   1.811
  1.826   1.828   1.830   1.835   1.838   1.840   1.842   1.846
  1.848   1.852   1.856   1.860   1.862   1.863   1.868   1.870
  1.871   1.872   1.876   1.878   1.880   1.885   1.887   1.888
  1.896   1.897   1.905   1.909   1.914   1.916   1.918   1.923
  1.928   1.929   1.931   1.940   1.943   1.951   1.951   1.955
  1.959   1.965   1.967   1.973   1.974   1.977   1.986   1.994
  1.996   2.000   2.006   2.017   2.018   2.019   2.020   2.024
  2.042   2.050   2.052   2.053   2.054   2.056   2.062   2.068
  2.072   2.076   2.077   2.094   2.095   2.097   2.102   2.108
  2.112   2.112   2.118   2.125   2.126   2.130   2.131   2.138
  2.140   2.145   2.148   2.155   2.156   2.159   2.161   2.165
  2.172   2.172   2.178   2.184   2.185   2.186   2.190   2.194
  2.195   2.200   2.202   2.208   2.211   2.212   2.216   2.222
  2.225   2.227   2.234   2.237   2.244   2.247   2.250   2.255
  2.256   2.258   2.261   2.265   2.269   2.272   2.275   2.278
  2.284   2.285   2.291   2.293   2.297   2.298   2.300   2.304
  2.307   2.312   2.313   2.316   2.317   2.325   2.326   2.329
  2.335   2.338   2.346   2.348   2.351   2.359   2.362   2.368
  2.369   2.371   2.372   2.377   2.379   2.384   2.392   2.393
  2.393   2.398   2.400   2.402   2.405   2.414   2.420   2.421
  2.422   2.425   2.426   2.433   2.435   2.438   2.443   2.445
  2.450   2.451   2.451   2.467   2.472   2.473   2.474   2.479
  2.482   2.486   2.487   2.491   2.496   2.498   2.502   2.506
  2.508   2.512   2.516   2.522   2.527   2.528   2.528   2.529
  2.531   2.533   2.539   2.548   2.553   2.555   2.557   2.575
  2.576   2.578   2.583   2.585   2.586   2.593   2.597   2.602
  2.613   2.616   2.621   2.628   2.632   2.637   2.638   2.651
  2.654   2.656   2.665   2.668   2.669   2.672   2.674   2.677
  2.678   2.684   2.687   2.692   2.692   2.694   2.695   2.703
  2.704   2.706   2.710   2.713   2.716   2.725   2.727   2.733
  2.746   2.751   2.755   2.763   2.766   2.770   2.778   2.788
  2.790   2.794   2.801   2.805   2.812   2.817   2.819   2.823
  2.828   2.831   2.833   2.844   2.847   2.853   2.854   2.856
  2.857   2.865   2.870   2.873   2.874   2.892   2.893   2.901
  2.910   2.918   2.925   2.929   2.930   2.933   2.941   2.945
  2.959   2.960   2.970   2.979   2.980   2.986   3.018   3.032
  3.041   3.046   3.050   3.057   3.067   3.087   3.092   3.103
  3.133   3.166   3.177   3.178   3.188   3.202   3.221   3.224
  3.235   3.240   3.241   3.254   3.262   3.271   3.271   3.285
  3.289   3.297   3.303   3.312   3.317   3.319   3.327   3.330
  3.351   3.365   3.365   3.374   3.387   3.391   3.418   3.425
  3.435   3.451   3.461   3.473   3.482   3.504   3.516   3.534
  3.538   3.545   3.555   3.583   3.586   3.595   3.597   3.619
  3.625   3.636   3.711   3.733   3.846   3.846   3.908   3.929
  3.945   3.951   3.956   3.959   3.965   3.971   3.983   3.988
  4.033   4.054   4.076   4.081   4.082   4.089   4.112   4.119
  4.134   4.135   4.142   4.155   4.168   4.183   4.192   4.199
  4.206   4.217   4.229   4.249   4.250   4.259   4.260   4.271
  4.273   4.301   4.328   4.329   4.370   4.377   4.383   4.387
  4.420   4.425   4.457   4.457   4.471   4.472   4.475   4.496
  4.509   4.522   4.525   4.552   4.566   4.576   4.637   4.655
  4.673   4.681   4.706   4.717   4.751   4.764   4.767   4.788
 --------------------------------------------------------------
 
          Ground-State Mulliken Net Atomic Charges

     Atom                 Charge (a.u.)
  ----------------------------------------
      1 C                     0.282427
      2 C                    -0.124780
      3 N                    -0.481267
      4 C                    -0.064881
      5 C                     0.066382
      6 C                     0.040228
      7 C                     0.062183
      8 C                     0.032763
      9 C                     0.216686
     10 N                    -0.489539
     11 N                    -0.549696
     12 C                     0.213577
     13 C                     0.260521
     14 S                     0.606698
     15 N                    -0.560325
     16 C                    -0.226057
     17 S                     0.372287
     18 C                    -0.102626
     19 C                    -0.229215
     20 S                     0.283317
     21 C                     0.145637
     22 C                     0.040002
     23 C                    -0.301981
     24 C                    -0.083338
     25 N                    -0.388893
     26 S                     0.285590
     27 C                     0.060546
     28 C                    -0.266735
     29 C                    -0.231855
     30 H                     0.090062
     31 H                     0.110484
     32 H                     0.102199
     33 H                     0.106252
     34 H                     0.138687
     35 H                     0.097223
     36 H                     0.108092
     37 H                     0.137245
     38 H                     0.121419
     39 C                    -0.175621
     40 H                     0.104677
     41 H                     0.106608
     42 H                     0.091000
     43 C                    -0.184562
     44 H                     0.096223
     45 C                    -0.187552
     46 H                     0.083557
     47 H                     0.091827
     48 H                     0.094825
     49 C                    -0.176559
     50 H                     0.095827
     51 C                    -0.325009
     52 H                     0.097327
     53 H                     0.103563
     54 H                     0.106094
     55 H                     0.103869
     56 C                     0.249233
     57 C                    -0.093567
     58 N                    -0.476611
     59 C                    -0.071269
     60 C                     0.071376
     61 C                     0.045636
     62 C                     0.045356
     63 C                     0.058695
     64 C                     0.200476
     65 N                    -0.515977
     66 N                    -0.534959
     67 C                     0.237888
     68 C                     0.269857
     69 S                     0.589523
     70 N                    -0.572962
     71 C                    -0.217645
     72 S                     0.297741
     73 C                    -0.080738
     74 C                    -0.237427
     75 S                     0.282867
     76 C                     0.133020
     77 C                     0.078027
     78 C                    -0.311794
     79 C                    -0.030978
     80 N                    -0.460775
     81 S                     0.279790
     82 C                     0.129998
     83 C                    -0.319307
     84 C                    -0.232886
     85 H                     0.099584
     86 H                     0.109287
     87 H                     0.097205
     88 H                     0.121555
     89 H                     0.124044
     90 H                     0.121642
     91 H                     0.129314
     92 H                     0.132404
     93 H                     0.117126
     94 C                    -0.182359
     95 H                     0.101525
     96 H                     0.108653
     97 H                     0.087808
     98 C                    -0.182550
     99 H                     0.093823
    100 C                    -0.174164
    101 H                     0.083014
    102 H                     0.091058
    103 H                     0.096268
    104 C                    -0.182884
    105 H                     0.098918
    106 C                    -0.314571
    107 H                     0.096257
    108 H                     0.105725
    109 H                     0.096451
    110 H                     0.106864
  ----------------------------------------
  Sum of atomic charges =     0.000000

 -----------------------------------------------------------------
                    Cartesian Multipole Moments
 -----------------------------------------------------------------
    Charge (ESU x 10^10)
                 0.0000
    Dipole Moment (Debye)
         X       1.9005      Y       3.4106      Z      -1.3115
       Tot       4.1187
    Quadrupole Moments (Debye-Ang)
        XX    -413.1608     XY       9.4457     YY    -441.6217
        XZ      14.0804     YZ      -5.6371     ZZ    -424.0260
    Octopole Moments (Debye-Ang^2)
       XXX     536.2196    XXY      91.5827    XYY     -74.0259
       YYY     216.0353    XXZ    -427.4219    XYZ     -35.2401
       YYZ     -38.1404    XZZ     -15.7372    YZZ      20.8169
       ZZZ      23.4734
    Hexadecapole Moments (Debye-Ang^3)
      XXXX -233910.5268   XXXY     -72.6158   XXYY  -46186.0722
      XYYY     633.6116   YYYY  -22288.0989   XXXZ    2081.4123
      XXYZ    -243.7131   XYYZ     236.8111   YYYZ    -328.1336
      XXZZ  -42160.5950   XYZZ     -27.0937   YYZZ   -5336.8137
      XZZZ    -194.7449   YZZZ    -232.7962   ZZZZ   -9504.0589
 -----------------------------------------------------------------
Archival summary:
1\1\mn426\SP\ProcedureUnspecified\6-31G**\8105042\afmv_a\SatOct609:50:422018SatOct609:50:422018\0\\#,ProcedureUnspecified,6-31G**,\\0,1\S\C,1,1.76182\C,2,1.38493,1,111.643\C,3,1.37201,2,114.136,1,-7.25708,0\C,4,1.38014,3,111.546,2,-2.51339,0\C,3,1.43129,2,137.761,1,168.016,0\H,6,1.08407,3,122.285,2,2.01416,0\C,6,1.37407,3,115.866,2,-177.088,0\H,8,1.08148,6,130.397,3,175.971,0\C,2,1.44867,1,121.632,3,144.16,0\N,10,1.29737,2,115.966,1,-22.9004,0\C,11,1.34716,10,109.809,2,-163.761,0\H,12,1.08217,11,120.89,10,-178.991,0\C,12,1.39088,11,112.413,10,-19.1796,0\H,14,1.08182,12,132.386,11,179.678,0\C,5,1.52392,4,121.085,3,-179.038,0\N,16,1.3674,5,119.411,4,27.9767,0\C,17,1.28023,16,119.733,5,179.481,0\H,18,1.08913,17,110.486,16,-176.5,0\C,18,1.35444,17,128.111,16,8.79589,0\C,16,1.42811,5,122.2,4,-145.6,0\N,21,1.38679,16,129.158,5,-3.6166,0\C,21,1.4012,16,120.153,5,-179.872,0\N,23,1.32247,21,117.623,16,176.86,0\C,20,1.51486,18,120.681,17,166.652,0\C,25,1.39924,20,125.011,18,148.771,0\H,26,1.08662,25,120.087,20,-9.77343,0\C,26,1.41161,25,119.055,20,-176.475,0\H,28,1.08549,26,123.263,25,174.406,0\C,28,1.4287,26,119.111,25,-1.87337,0\N,30,1.31444,28,122.343,26,2.45692,0\C,31,1.33954,30,118.269,28,-3.64295,0\H,32,1.08843,31,117.807,30,-174.315,0\C,30,1.49748,28,121.219,26,-173.597,0\H,34,1.09668,30,108.422,28,153.136,0\H,34,1.09744,30,109.064,28,36.3533,0\C,34,1.54413,30,115.267,28,-76.2292,0\H,37,1.09733,34,107.979,30,-41.9685,0\H,37,1.09755,34,112.519,30,68.0043,0\C,37,1.48596,34,112.734,30,-163.911,0\H,40,1.09712,37,105.917,34,-43.7199,0\H,40,1.09767,37,116.574,34,64.4375,0\C,40,1.60009,37,118.334,34,-176.788,0\H,43,1.09617,40,100.221,37,49.0675,0\H,43,1.09673,40,117.722,37,173.68,0\C,43,1.58429,40,111.141,37,-66.8006,0\H,46,1.09646,43,109.179,40,-40.0113,0\H,46,1.09676,43,105.181,40,70.0847,0\C,46,1.54229,43,112.527,40,-175.377,0\H,49,1.09695,46,116.405,43,-156.967,0\H,49,1.09728,46,110.003,43,-39.7041,0\H,49,1.09745,46,108.831,43,78.8035,0\S,24,1.61219,23,105.22,21,-5.76721,0\S,14,1.64844,12,111.912,11,20.6921,0\S,4,1.73187,3,115.503,2,179.38,0\H,15,2.45827,14,111.876,12,151.768,0\C,56,1.08381,15,175.577,14,14.0259,0\C,57,1.38328,56,122.173,15,60.813,0\H,58,1.08135,57,129.199,56,20.6184,0\C,57,1.40274,56,127.149,15,-98.3008,0\C,60,1.34741,57,129.361,56,-1.58942,0\C,61,1.42426,60,127.875,57,12.5316,0\N,62,1.34547,61,119.585,60,14.2711,0\C,63,1.40533,62,109.879,61,171.305,0\H,64,1.08197,63,117.327,62,-170.659,0\C,64,1.38025,63,112.194,62,1.39226,0\H,66,1.08145,64,129.734,63,-178.71,0\C,60,1.43006,57,114.228,56,169.168,0\C,68,1.35412,60,114.812,57,178.19,0\C,69,1.52906,68,121.949,60,-171.152,0\N,70,1.36154,69,120.262,68,18.5999,0\C,71,1.34754,70,121.047,69,165.517,0\H,72,1.08929,71,121.966,70,-167.87,0\C,72,1.39681,71,123.3,70,7.87126,0\C,74,1.38121,72,115.279,71,-3.68707,0\N,75,1.3467,74,122.931,72,-175.748,0\C,75,1.41268,74,125.4,72,1.3112,0\N,77,1.32493,75,118.655,74,179.491,0\C,74,1.58906,72,117.599,71,-179.658,0\C,79,1.36643,74,122.854,72,-39.9734,0\H,80,1.08879,79,113.33,74,-6.01954,0\N,80,1.33791,79,125.659,74,166.707,0\C,82,1.37483,80,116.086,79,6.83314,0\C,83,1.39567,82,124.15,80,-1.14232,0\H,84,1.08614,83,115.048,82,-174.969,0\C,84,1.40017,83,117.469,82,2.17239,0\H,86,1.08615,84,119.622,83,-171.487,0\C,83,1.53167,82,118.2,80,-168.334,0\H,88,1.09652,83,112.088,82,-136.845,0\H,88,1.09712,83,107.865,82,-22.3981,0\C,88,1.561,83,111.782,82,98.3573,0\H,91,1.09663,88,110.738,83,-69.2388,0\H,91,1.09743,88,108.63,83,41.7887,0\C,91,1.56192,88,116.236,83,173.58,0\H,94,1.09719,91,105.371,88,57.1474,0\H,94,1.0974,91,106.997,88,-57.0733,0\C,94,1.49249,91,122.29,88,-179.948,0\H,97,1.09726,94,104.43,91,85.647,0\H,97,1.09736,94,106.271,91,-160.113,0\C,97,1.59639,94,116.291,91,-38.8062,0\H,100,1.0962,97,104.85,94,75.6881,0\H,100,1.09728,97,115.746,94,-37.72,0\C,100,1.51876,97,110.662,94,-166.059,0\H,103,1.09689,100,114.665,97,76.9902,0\H,103,1.09692,100,108.854,97,-55.6037,0\H,103,1.09756,100,105.267,97,-174.242,0\S,76,1.61136,75,106.49,74,-178.696,0\S,62,1.68914,61,122.606,60,-171.866,0\S,68,1.71172,60,112.457,57,-13.2033,0\S,61,1.76345,60,108.048,57,179.865,0\\\@

 Total job time:  92.07s(wall), 975.20s(cpu) 
 Sat Oct  6 09:50:42 2018

        *************************************************************
        *                                                           *
        *  Thank you very much for using Q-Chem.  Have a nice day.  *
        *                                                           *
        *************************************************************


