
Running Job 1 of 1 ./8/93.qcin
qchem ./8/93.qcin_16751.0 /tmpu/cab_g/afmv_a/scratch_qchem/qchem16751/ 1
/tmpu/appuserlic/qchem4.4/serial-multicore/exe/qcprog.exe_s ./8/93.qcin_16751.0 /tmpu/cab_g/afmv_a/scratch_qchem/qchem16751/
Check license passed

                  Welcome to Q-Chem
     A Quantum Leap Into The Future Of Chemistry


 Q-Chem 4.4, Q-Chem, Inc., Pleasanton, CA (2016)

 Y. Shao,  Z. Gan,  E. Epifanovsky,  A. T. B. Gilbert,  M. Wormit,  
 J. Kussmann,  A. W. Lange,  A. Behn,  J. Deng,  X. Feng,  D. Ghosh,  
 M. Goldey,  P. R. Horn,  L. D. Jacobson,  I. Kaliman,  F. Rob,  
 R. Z. Khaliullin,  T. Kus,  A. Landau,  J. Liu,  E. I. Proynov,  Y. M. Rhee,  
 R. M. Richard,  M. A. Rohrdanz,  R. P. Steele,  E. J. Sundstrom,  
 H. L. Woodcock III,  P. M. Zimmerman,  D. Zuev,  B. Albrecht,  E. Alguire,  
 B. Austin,  S. A. Baeppler,  G. J. O. Beran,  Y. A. Bernard,  E. Berquist,  
 K. Brandhorst,  K. B. Bravaya,  S. T. Brown,  D. Casanova,  C.-M. Chang,  
 Y. Chen,  S. H. Chien,  K. D. Closser,  M. P. Coons,  D. L. Crittenden,  
 S. Dasgupta,  M. Diedenhofen,  R. A. DiStasio Jr.,  H. Do,  A. D. Dutoi,  
 R. G. Edgar,  P.-T. Fang,  S. Fatehi,  Q. Feng,  L. Fusti-Molnar,  
 A. Ghysels,  A. Golubeva-Zadorozhnaya,  J. Gomes,  A. Gunina,  
 M. W. D. Hanson-Heine,  P. H. P. Harbach,  A. W. Hauser,  J. E. Herr,  
 E. G. Hohenstein,  Z. C. Holden,  K. Hui,  T.-C. Jagau,  H. Ji,  B. Kaduk,  
 K. Khistyaev,  Jaehoon Kim,  Jihan Kim,  R. A. King,  P. Klunzinger,  
 K. Koh,  D. Kosenkov,  T. Kowalczyk,  C. M. Krauter,  A. Kunitsa,  
 K. U. Lao,  A. Laurent,  K. V. Lawler,  J. Lee,  D. Lefrancois,  S. Lehtola,  
 S. V. Levchenko,  C. Y. Lin,  Y.-S. Lin,  F. Liu,  E. Livshits,  
 R. C. Lochan,  A. Luenser,  P. Manohar,  S. F. Manzer,  S.-P. Mao,  Y. Mao,  
 N. Mardirossian,  A. V. Marenich,  L. A. Martinez-Martinez,  S. A. Maurer,  
 N. J. Mayhall,  J.-M. Mewes,  A. F. Morrison,  K. Nanda,  T. S. Nguyen-Beck,  
 C. M. Oana,  R. Olivares-Amaya,  D. P. O'Neill,  J. A. Parkhill,  
 T. M. Perrine,  R. Peverati,  P. A. Pieniazek,  F. Plasser,  A. Prociuk,  
 D. R. Rehn,  E. Rosta,  N. J. Russ,  N. Sergueev,  S. M. Sharada,  
 S. Sharma,  D. W. Small,  A. Sodt,  T. Stauch,  T. Stein,  D. Stuck,  
 Y.-C. Su,  A. J. W. Thom,  T. Tsuchimochi,  L. Vogt,  O. Vydrov,  T. Wang,  
 M. A. Watson,  J. Wenzel,  A. White,  C. F. Williams,  V. Vanovschi,  
 K. Yao,  S. Yeganeh,  S. R. Yost,  Z.-Q. You,  I. Y. Zhang,  X. Zhang,  
 Y. Zhao,  B. R. Brooks,  G. K. L. Chan,  D. M. Chipman,  C. J. Cramer,  
 W. A. Goddard III,  M. S. Gordon,  W. J. Hehre,  A. Klamt,  
 H. F. Schaefer III,  M. W. Schmidt,  C. D. Sherrill,  D. G. Truhlar,  
 A. Warshel,  X. Xu,  A. Aspuru-Guzik,  R. Baer,  A. T. Bell,  N. A. Besley,  
 J.-D. Chai,  A. Dreuw,  B. D. Dunietz,  T. R. Furlani,  S. R. Gwaltney,  
 C.-P. Hsu,  Y. Jung,  J. Kong,  D. S. Lambrecht,  W. Liang,  C. Ochsenfeld,  
 V. A. Rassolov,  L. V. Slipchenko,  J. E. Subotnik,  T. Van Voorhis,  
 J. M. Herbert,  A. I. Krylov,  P. M. W. Gill,  M. Head-Gordon

 Contributors to earlier versions of Q-Chem not listed above: 
 R. D. Adamson,  J. Baker,  E. F. C. Byrd,  A. K. Chakraborty,  C.-L. Cheng,  
 H. Dachsel,  R. J. Doerksen,  G. Hawkins,  A. Heyden,  S. Hirata,  
 G. Kedziora,  F. J. Keil,  C. Kelley,  P. P. Korambath,  W. Kurlancheek,  
 A. M. Lee,  M. S. Lee,  D. Liotard,  I. Lotan,  P. E. Maslen,  N. Nair,  
 D. Neuhauser,  R. Olson,  B. Peters,  J. Ritchie,  N. E. Schultz,  
 N. Shenvi,  A. C. Simmonett,  K. S. Thanthiriwatte,  Q. Wu,  W. Zhang

 Please cite Q-Chem as follows:
 Y. Shao et al., Mol. Phys. 113, 184-215 (2015)
 DOI: 10.1080/00268976.2014.952696

 Q-Chem 4.4.2 for Intel X86 Linux

 Parts of Q-Chem use Armadillo 5.200.1 (Boston Tea Smuggler).
 http://arma.sourceforge.net/

 Q-Chem begins on Sat Oct  6 10:04:38 2018  

Host: 
0

     Scratch files written to /tmpu/cab_g/afmv_a/scratch_qchem/qchem16751//
 Dec716 11556_ 22328  22283 4050   
Processing $rem in /tmpu/appuserlic/qchem4.4/serial-multicore/config/preferences.
 MEM_TOTAL  2000 
FILE_GEOM_ORG=        593

Checking the input file for inconsistencies... 	...done.

--------------------------------------------------------------
User input:
--------------------------------------------------------------
$comment
SP
$end

$rem
MEM_STATIC 5000
MEM_TOTAL 20000
JOBTYPE SP
EXCHANGE B3LYP
BASIS 6-31g(d,p)
$end

$molecule
0 1
C          14.807000     -3.174000     11.994000
C          16.139000     -3.604000     11.928000
N          14.245000     -2.628000     10.912000
C          16.965000     -3.354000     10.844000
C          14.964000     -2.261000      9.884000
C          16.326000     -2.688000      9.752000
C          17.077000     -2.409000      8.503000
C          18.448000     -2.156000      8.546000
C          16.553000     -2.550000      7.137000
N          19.226000     -1.918000      7.465000
N          15.178000     -2.685000      6.910000
C          17.329000     -2.342000      6.013000
C          18.640000     -1.967000      6.243000
S          15.114000     -2.691000      5.251000
N          16.700000     -2.420000      4.815000
C          19.568000     -1.733000      5.130000
S          19.521000     -2.418000      3.532000
C          20.595000     -0.803000      5.154000
C          20.860000     -1.519000      2.908000
S          21.191000      0.305000      6.507000
C          21.269000     -0.691000      3.941000
C          21.348000     -1.455000      1.563000
C          22.496000      0.752000      5.232000
C          22.392000      0.150000      4.011000
N          20.976000     -2.519000      0.834000
S          21.926000     -0.014000      0.748000
C          21.167000     -2.210000     -0.487000
C          21.667000     -0.934000     -0.680000
C          13.887000     -3.570000     13.118000
H          16.464000     -4.282000     12.712000
H          17.876000     -3.930000     10.713000
H          14.540000     -1.653000      9.086000
H          18.912000     -2.276000      9.524000
H          23.312000      1.392000      5.540000
H          23.015000      0.363000      3.150000
H          20.817000     -2.920000     -1.225000
H          21.958000     -0.539000     -1.644000
H          14.311000     -3.107000     14.018000
C          13.610000     -5.050000     13.478000
H          12.921000     -3.054000     13.063000
H          13.656000     -5.219000     14.561000
H          14.394000     -5.692000     13.058000
C          12.282000     -5.684000     13.017000
H          11.495000     -4.944000     12.828000
C          11.829000     -6.859000     13.780000
H          12.500000     -6.129000     12.038000
H          11.530000     -6.531000     14.783000
H          12.697000     -7.519000     13.899000
C          10.695000     -7.676000     13.178000
H          10.941000     -8.381000     12.375000
C           9.554000     -6.770000     12.754000
H          10.462000     -8.361000     14.003000
H           9.713000     -6.159000     11.857000
H           9.189000     -6.217000     13.628000
H           8.728000     -7.471000     12.582000
C          16.904000      0.983000     12.943000
C          17.900000      1.793000     12.333000
N          17.064000     -0.315000     13.077000
C          19.049000      1.173000     11.725000
C          18.175000     -0.878000     12.512000
C          19.223000     -0.220000     11.873000
C          20.419000     -1.057000     11.367000
C          21.204000     -0.558000     10.194000
C          21.058000     -2.065000     12.129000
N          22.380000     -1.117000      9.861000
N          20.533000     -2.527000     13.343000
C          22.206000     -2.623000     11.801000
C          22.875000     -2.138000     10.610000
S          21.644000     -3.508000     13.931000
N          22.654000     -3.560000     12.625000
C          24.120000     -2.812000     10.164000
S          24.955000     -4.192000     10.951000
C          24.905000     -2.507000      9.078000
C          26.372000     -4.142000      9.970000
S          24.452000     -1.649000      7.620000
C          26.108000     -3.244000      9.059000
C          27.572000     -4.922000     10.036000
C          26.138000     -1.950000      7.088000
C          26.841000     -2.856000      7.869000
N          27.364000     -6.043000     10.719000
S          29.173000     -4.581000      9.406000
C          28.556000     -6.748000     10.881000
C          29.640000     -6.108000     10.195000
C          15.521000      1.488000     13.338000
H          17.802000      2.874000     12.301000
H          19.733000      1.738000     11.098000
H          18.258000     -1.936000     12.757000
H          20.842000      0.193000      9.494000
H          26.438000     -1.623000      6.101000
H          27.821000     -3.180000      7.537000
H          28.561000     -7.649000     11.482000
H          30.633000     -6.536000     10.160000
H          14.617000      1.036000     12.911000
C          15.267000      3.031000     13.310000
H          15.433000      1.165000     14.383000
H          15.888000      3.342000     12.461000
H          15.864000      3.451000     14.129000
C          13.790000      3.489000     13.250000
H          13.275000      2.983000     12.424000
C          13.513000      5.036000     13.117000
H          13.358000      3.091000     14.177000
H          13.998000      5.297000     12.168000
H          13.980000      5.628000     13.915000
C          12.057000      5.409000     12.895000
H          11.550000      4.925000     12.051000
C          11.916000      6.881000     12.551000
H          11.581000      5.147000     13.848000
H          10.856000      7.005000     12.300000
H          12.579000      7.099000     11.705000
H          12.115000      7.544000     13.403000
$end

--------------------------------------------------------------
 ----------------------------------------------------------------
             Standard Nuclear Orientation (Angstroms)
    I     Atom           X                Y                Z
 ----------------------------------------------------------------
    1      C       5.3950910436     1.1639555161    -1.7375877877
    2      C       4.1177203417     1.7357055285    -1.8076307270
    3      N       5.5092114454    -0.1623167125    -1.6250599714
    4      C       2.9510440862     1.0148219502    -1.6100822989
    5      C       4.4786312032    -0.9112782437    -1.3328357611
    6      C       3.1465878275    -0.3870002133    -1.4076020110
    7      C       1.9800618931    -1.2888200550    -1.2409250257
    8      C       0.8117325086    -0.8261135894    -0.6356084341
    9      C       1.8407476853    -2.6290358992    -1.8281439308
   10      N      -0.3125509250    -1.5582603128    -0.4611465868
   11      N       2.9503880585    -3.2915236024    -2.3668342733
   12      C       0.6955207015    -3.3898405557    -1.6923226138
   13      C      -0.3216626914    -2.8251583819    -0.9448482078
   14      S       2.2941700738    -4.7607682435    -2.7756265691
   15      N       0.7309460622    -4.6423929265    -2.2088365076
   16      C      -1.5940345483    -3.5285696375    -0.7423847211
   17      S      -2.3356643598    -4.7210455849    -1.7685544622
   18      C      -2.3675633418    -3.4260665734     0.4027577711
   19      C      -3.6701333755    -5.0588428543    -0.7218532389
   20      S      -2.1606911076    -2.3800357615     1.9115693628
   21      C      -3.4736775523    -4.2714647786     0.4012651322
   22      C      -4.6738670813    -6.0727237500    -0.8476672969
   23      C      -3.8086066945    -3.1537739907     2.3743461676
   24      C      -4.3257117072    -4.0649055556     1.4988447814
   25      N      -4.8062929426    -6.5056754917    -2.1113670954
   26      S      -5.3346720169    -7.0315501917     0.4633547059
   27      C      -5.5000391783    -7.6866570305    -2.0797164162
   28      C      -5.8476033992    -8.0787649092    -0.7987497797
   29      C       6.6420411849     1.9317552218    -2.0871460189
   30      H       4.0682461205     2.7567045364    -2.1751607630
   31      H       2.0004921332     1.4211506325    -1.9420551694
   32      H       4.6004438734    -1.9586426094    -1.0600106178
   33      H       0.8008615690     0.2369230071    -0.3989335149
   34      H      -4.3131848070    -2.7885723941     3.2588509568
   35      H      -5.2208315456    -4.6543173907     1.6606260022
   36      H      -5.6056680671    -8.2326134125    -3.0081657507
   37      H      -6.4650086415    -8.9388517967    -0.5772473807
   38      H       6.7161582028     2.7254172209    -1.3329893384
   39      C       6.8334622796     2.6171796701    -3.4620206642
   40      H       7.5532463880     1.3620290036    -1.8690769610
   41      H       7.2335177178     3.6331953001    -3.3560306358
   42      H       5.8626922867     2.7455786961    -3.9563275638
   43      C       7.7298172885     1.9275410797    -4.5103561603
   44      H       8.4556527033     1.2353018595    -4.0668949865
   45      C       8.2945925542     2.8020276033    -5.5516559343
   46      H       7.0517607842     1.2962012887    -5.0982672467
   47      H       9.0385769758     3.4618427730    -5.0889193762
   48      H       7.4778193461     3.4374941355    -5.9153162332
   49      C       8.9313829216     2.1195387206    -6.7535527490
   50      H       8.2670054813     1.7352976353    -7.5366947573
   51      C       9.8955947025     1.0384475045    -6.3018554787
   52      H       9.3961761043     2.9725502948    -7.2639227634
   53      H       9.4553678103     0.1189728645    -5.8969139152
   54      H      10.6750028346     1.4893437773    -5.6756562176
   55      H      10.4588309373     0.8077379380    -7.2144337163
   56      C       4.5228806854     1.4359918667     2.9254481670
   57      C       3.4876880983     1.0122604952     3.8023997236
   58      N       4.2533592226     2.0273171670     1.7826215965
   59      C       2.1137811770     1.1043330952     3.3803009105
   60      C       2.9399051385     2.1246410611     1.4140006142
   61      C       1.8242919904     1.7434407075     2.1554064372
   62      C       0.4214479831     2.0112994945     1.5660836381
   63      C      -0.7115142314     1.1179483308     1.9654272481
   64      C       0.0356101174     3.2346187369     0.9663768993
   65      N      -1.9827401030     1.4404172023     1.6715827139
   66      N       0.9595529396     4.2478907912     0.6791933251
   67      C      -1.2083545882     3.5507933239     0.6673159665
   68      C      -2.2475802710     2.6033916255     1.0190360286
   69      S       0.0818721574     5.4850012378     0.1876038751
   70      N      -1.3871379619     4.7349780685     0.0986403156
   71      C      -3.6452058160     2.8895351747     0.6091803160
   72      S      -4.2479505177     4.3260601022    -0.2819363752
   73      C      -4.7683626486     2.1341712035     0.8470668444
   74      C      -5.9258883227     3.9772283409    -0.0932802735
   75      S      -4.8686075670     0.4202313755     1.1927519936
   76      C      -5.9541071819     2.7975410164     0.4666862545
   77      C      -7.0785625083     4.7274154146    -0.4949238671
   78      C      -6.6434912426     0.6747909043     1.2275138161
   79      C      -7.0637601221     1.9056775236     0.7445042928
   80      N      -6.7589766066     5.6052686105    -1.4402453034
   81      S      -8.7285331778     4.6596576651     0.0961663773
   82      C      -7.8526363978     6.4122670406    -1.7513639222
   83      C      -9.0230968192     6.0091075838    -1.0283584904
   84      C       5.9976755091     1.1084794370     3.1290527750
   85      H       3.7148946641     0.6022590510     4.7819225626
   86      H       1.3147463424     0.6289807603     3.9422559716
   87      H       2.8208145025     2.7075954019     0.5017179514
   88      H      -0.5825992360     0.1332240524     2.4112344032
   89      H      -7.2884591707    -0.1802829129     1.3823141351
   90      H      -8.1263733686     2.0814642187     0.6197961290
   91      H      -7.7269805016     7.2268110829    -2.4540413724
   92      H      -9.9845322042     6.4821149286    -1.1779046445
   93      H       6.5563370017     0.5468017334     2.3699319059
   94      C       6.4313523158     0.4965445612     4.5014991802
   95      H       6.4790461812     2.0911461311     3.0469160343
   96      H       5.5570895711    -0.1144934629     4.7573510638
   97      H       6.3102859815     1.2971581681     5.2417226567
   98      C       7.7879093226    -0.2476352851     4.5305240566
   99      H       7.8206219477    -0.9965655766     3.7295432187
  100      C       8.1975755221    -0.9609574576     5.8762476848
  101      H       8.5147505071     0.5290736311     4.2607423819
  102      H       7.3945586417    -1.6934581607     6.0264262774
  103      H       8.2078630955    -0.2816971904     6.7387189337
  104      C       9.4537604386    -1.8115368972     5.7934040222
  105      H       9.4747331899    -2.5802590228     5.0109288230
  106      C       9.6408690847    -2.6347572858     7.0552675434
  107      H      10.2503263590    -1.0719034666     5.6455726224
  108      H      10.4960576014    -3.2847702181     6.8359212674
  109      H       8.7172269228    -3.1979138760     7.2356804355
  110      H       9.9234483768    -2.0300385046     7.9267823965
 ----------------------------------------------------------------
 Molecular Point Group                 C1    NOp =  1
 Largest Abelian Subgroup              C1    NOp =  1
 Nuclear Repulsion Energy = 11772.1008986125 hartrees
 There are      270 alpha and      270 beta electrons
 Requested basis set is 6-31G(d,p)
 There are 406 shells and 1262 basis functions

 Total QAlloc Memory Limit  20000 MB
 Mega-Array Size      4888 MB
 MEM_STATIC part      5000 MB
 A cutoff of  1.0D-08 yielded  13906 shell pairs
 There are    145621 function pairs
 
 -------------------------------------------------------
 OpenMP Integral Computing Module                       
 Release: version 1.0, May 2013, Q-Chem Inc. Pittsburgh 
 -------------------------------------------------------
 Integral Job Info:
 Integral job number is                      11
 Integral operator is                         1
 short-range coefficients                     0
 long-range coefficients              100000000
 Omega coefficients                           0
 if combine SR and LR in K                    0
 Integral screening is                        0
 Integral computing path is                   2
 max size of driver memory is            800000
 size of driver memory is                593474
 size of scratch memory is             15166112
 max col of scratch BK array               1296
 max len of scratch array in speh3          155
 max len of scratch index in speh4           18
 max int batch size is                      520
 min int batch size is                       52
 fixed nKL is                                52
 max L of basis functions is                  2
 order of int derivative is                   0
 number of shells is                        406
 number of basis is                        1262
 number of cartesian basis is              1262
 number of contracted shell pairs         13906
 number of primitive shell pairs          44143
 maxK2 (contraction) of shell pair           36
 max number of K2 of shell pair               1
 max number of CS2 of shell pair           1445
 max number of PS2 of shell pair           8226
 mem total for path MDJ                  306792
 -------------------------------------------------------
 Smallest overlap matrix eigenvalue = 4.36E-04

 Scale SEOQF with 1.000000e-02/1.000000e-02/1.000000e-02

 Standard Electronic Orientation quadrupole field applied
 Nucleus-field energy     =     0.0000000643 hartrees
 Guess from superposition of atomic densities
 Warning:  Energy on first SCF cycle will be non-variational
 A restricted hybrid HF-DFT SCF calculation will be
 performed using Pulay DIIS extrapolation
 Exchange:     0.2000 Hartree-Fock + 0.0800 Slater + 0.7200 B88
 Correlation:  0.1900 VWN1RPA + 0.8100 LYP
 Using SG-1 standard quadrature grid
 SCF converges when DIIS error is below 1.0E-05
 using 16 threads for integral computing 
 -------------------------------------------------------
 OpenMP BLAS3 based DFT computing Module                
 Release: version 1.0, May 2013, Q-Chem Inc. Pittsburgh 
 -------------------------------------------------------
 ---------------------------------------
  Cycle       Energy         DIIS Error
 ---------------------------------------
    1   -5680.1466422769      2.15E-02
    2   -5662.4364518363      2.12E-03
    3   -5661.1984082379      3.18E-03
    4   -5663.3115354288      7.47E-04
    5   -5663.4006448827      3.67E-04
    6   -5663.4164238938      2.34E-04
    7   -5663.4266237062      7.20E-05
    8   -5663.4275483278      2.57E-05
    9   -5663.4276771509      7.65E-06 Convergence criterion met
 ---------------------------------------
 SCF time:  CPU 986.46 s  wall 88.69 s
 SCF   energy in the final basis set = -5663.4276771509
 Total energy in the final basis set = -5663.4276771509
 
 --------------------------------------------------------------
 
                    Orbital Energies (a.u.)
 --------------------------------------------------------------
 
 Alpha MOs
 -- Occupied --
-88.991 -88.987 -88.940 -88.935 -88.916 -88.910 -88.909 -88.905
-14.393 -14.391 -14.379 -14.379 -14.350 -14.350 -14.343 -14.341
-14.322 -14.318 -10.269 -10.266 -10.266 -10.259 -10.257 -10.251
-10.250 -10.247 -10.245 -10.238 -10.237 -10.235 -10.232 -10.230
-10.230 -10.230 -10.229 -10.228 -10.227 -10.227 -10.226 -10.226
-10.225 -10.222 -10.222 -10.220 -10.219 -10.216 -10.215 -10.215
-10.212 -10.209 -10.202 -10.199 -10.199 -10.197 -10.197 -10.193
-10.183 -10.181 -10.180 -10.179 -10.179 -10.178 -10.176 -10.174
-10.171 -10.168 -10.167 -10.164  -8.046  -8.042  -7.999  -7.996
 -7.975  -7.969  -7.966  -7.965  -6.011  -6.007  -6.006  -6.005
 -6.001  -6.000  -5.963  -5.960  -5.960  -5.957  -5.956  -5.953
 -5.940  -5.936  -5.934  -5.932  -5.931  -5.930  -5.929  -5.928
 -5.926  -5.926  -5.921  -5.921  -1.043  -1.027  -0.968  -0.963
 -0.953  -0.950  -0.941  -0.936  -0.913  -0.908  -0.898  -0.898
 -0.836  -0.832  -0.831  -0.825  -0.814  -0.810  -0.808  -0.806
 -0.805  -0.801  -0.795  -0.794  -0.786  -0.781  -0.765  -0.759
 -0.746  -0.745  -0.736  -0.734  -0.714  -0.711  -0.710  -0.708
 -0.692  -0.692  -0.675  -0.670  -0.655  -0.653  -0.641  -0.640
 -0.635  -0.634  -0.624  -0.621  -0.614  -0.611  -0.600  -0.599
 -0.589  -0.589  -0.581  -0.575  -0.572  -0.572  -0.570  -0.552
 -0.544  -0.542  -0.536  -0.534  -0.523  -0.519  -0.517  -0.514
 -0.507  -0.501  -0.497  -0.492  -0.483  -0.480  -0.476  -0.475
 -0.473  -0.469  -0.466  -0.464  -0.458  -0.455  -0.446  -0.445
 -0.442  -0.439  -0.438  -0.437  -0.432  -0.430  -0.429  -0.427
 -0.425  -0.424  -0.422  -0.419  -0.418  -0.416  -0.415  -0.412
 -0.407  -0.405  -0.403  -0.401  -0.399  -0.395  -0.395  -0.393
 -0.393  -0.391  -0.389  -0.387  -0.386  -0.383  -0.382  -0.381
 -0.379  -0.376  -0.372  -0.370  -0.367  -0.362  -0.355  -0.354
 -0.353  -0.352  -0.348  -0.347  -0.340  -0.338  -0.335  -0.332
 -0.331  -0.330  -0.329  -0.327  -0.325  -0.324  -0.319  -0.317
 -0.316  -0.309  -0.307  -0.303  -0.300  -0.299  -0.298  -0.297
 -0.296  -0.295  -0.293  -0.291  -0.288  -0.285  -0.283  -0.280
 -0.276  -0.272  -0.263  -0.257  -0.249  -0.248  -0.246  -0.240
 -0.235  -0.235  -0.227  -0.223  -0.192  -0.192
 -- Virtual --
 -0.114  -0.112  -0.071  -0.069  -0.042  -0.039  -0.030  -0.021
 -0.020  -0.017  -0.014  -0.011  -0.004  -0.002   0.000   0.000
  0.007   0.008   0.010   0.021   0.031   0.031   0.034   0.039
  0.045   0.049   0.051   0.058   0.073   0.075   0.084   0.091
  0.093   0.099   0.102   0.104   0.105   0.107   0.114   0.116
  0.117   0.119   0.121   0.122   0.123   0.125   0.127   0.130
  0.131   0.133   0.133   0.135   0.136   0.139   0.140   0.147
  0.150   0.152   0.155   0.158   0.159   0.163   0.165   0.167
  0.170   0.171   0.172   0.175   0.177   0.183   0.183   0.184
  0.187   0.187   0.193   0.198   0.199   0.201   0.204   0.205
  0.205   0.207   0.209   0.211   0.212   0.213   0.216   0.216
  0.218   0.221   0.224   0.225   0.230   0.233   0.235   0.240
  0.244   0.246   0.249   0.252   0.254   0.258   0.259   0.260
  0.261   0.271   0.272   0.275   0.277   0.282   0.283   0.284
  0.287   0.291   0.296   0.299   0.300   0.303   0.305   0.307
  0.310   0.313   0.317   0.321   0.322   0.325   0.327   0.328
  0.330   0.333   0.336   0.339   0.344   0.347   0.348   0.349
  0.353   0.355   0.358   0.359   0.362   0.362   0.365   0.369
  0.372   0.377   0.382   0.387   0.390   0.398   0.404   0.406
  0.407   0.414   0.415   0.422   0.423   0.428   0.428   0.439
  0.444   0.448   0.449   0.458   0.459   0.462   0.469   0.475
  0.479   0.482   0.490   0.493   0.495   0.498   0.499   0.502
  0.505   0.507   0.510   0.512   0.512   0.517   0.518   0.520
  0.523   0.523   0.528   0.531   0.532   0.534   0.536   0.540
  0.541   0.543   0.544   0.546   0.547   0.549   0.553   0.555
  0.557   0.558   0.559   0.561   0.562   0.564   0.567   0.568
  0.572   0.573   0.574   0.577   0.580   0.583   0.586   0.587
  0.590   0.592   0.594   0.596   0.598   0.603   0.603   0.604
  0.605   0.609   0.612   0.614   0.617   0.618   0.618   0.621
  0.622   0.624   0.626   0.627   0.629   0.630   0.631   0.633
  0.639   0.640   0.644   0.646   0.648   0.650   0.651   0.654
  0.658   0.660   0.663   0.666   0.672   0.674   0.676   0.680
  0.681   0.684   0.689   0.693   0.695   0.698   0.699   0.701
  0.707   0.708   0.713   0.713   0.717   0.719   0.722   0.728
  0.731   0.736   0.740   0.741   0.744   0.746   0.749   0.753
  0.756   0.757   0.759   0.759   0.762   0.764   0.768   0.771
  0.774   0.779   0.780   0.783   0.786   0.788   0.794   0.796
  0.799   0.803   0.806   0.808   0.811   0.812   0.814   0.816
  0.818   0.820   0.822   0.825   0.827   0.828   0.830   0.830
  0.834   0.835   0.836   0.836   0.839   0.840   0.842   0.845
  0.846   0.848   0.848   0.849   0.854   0.855   0.858   0.859
  0.860   0.861   0.864   0.866   0.868   0.871   0.872   0.875
  0.877   0.881   0.883   0.884   0.885   0.889   0.893   0.895
  0.896   0.899   0.900   0.903   0.904   0.907   0.908   0.911
  0.913   0.915   0.917   0.917   0.921   0.922   0.926   0.928
  0.931   0.932   0.934   0.935   0.935   0.937   0.941   0.942
  0.944   0.947   0.948   0.950   0.955   0.957   0.961   0.962
  0.968   0.971   0.972   0.974   0.976   0.981   0.983   0.985
  0.986   0.989   0.994   0.995   0.997   0.998   1.000   1.005
  1.009   1.010   1.013   1.014   1.018   1.018   1.022   1.027
  1.027   1.031   1.032   1.033   1.037   1.042   1.046   1.052
  1.055   1.056   1.063   1.064   1.067   1.071   1.077   1.078
  1.079   1.084   1.089   1.091   1.096   1.104   1.109   1.112
  1.115   1.122   1.127   1.130   1.137   1.143   1.147   1.149
  1.154   1.157   1.160   1.167   1.172   1.177   1.183   1.187
  1.192   1.200   1.202   1.212   1.213   1.216   1.222   1.226
  1.232   1.238   1.243   1.252   1.253   1.263   1.269   1.273
  1.273   1.281   1.286   1.288   1.289   1.294   1.298   1.301
  1.306   1.311   1.312   1.317   1.321   1.323   1.330   1.335
  1.339   1.342   1.348   1.353   1.355   1.358   1.362   1.369
  1.374   1.378   1.381   1.384   1.390   1.394   1.404   1.408
  1.412   1.413   1.416   1.419   1.421   1.424   1.436   1.437
  1.441   1.448   1.451   1.453   1.463   1.469   1.472   1.477
  1.479   1.487   1.494   1.499   1.502   1.508   1.514   1.520
  1.520   1.540   1.542   1.546   1.548   1.553   1.558   1.563
  1.570   1.575   1.578   1.587   1.588   1.595   1.603   1.611
  1.618   1.622   1.631   1.634   1.640   1.646   1.650   1.657
  1.660   1.664   1.664   1.669   1.675   1.677   1.682   1.683
  1.687   1.689   1.694   1.702   1.708   1.711   1.716   1.720
  1.722   1.727   1.729   1.737   1.744   1.750   1.753   1.758
  1.759   1.767   1.768   1.771   1.772   1.775   1.779   1.780
  1.785   1.794   1.797   1.805   1.810   1.816   1.818   1.823
  1.825   1.830   1.832   1.836   1.840   1.843   1.845   1.847
  1.848   1.853   1.854   1.857   1.865   1.872   1.873   1.876
  1.879   1.885   1.888   1.889   1.893   1.893   1.899   1.902
  1.904   1.907   1.916   1.918   1.920   1.923   1.929   1.931
  1.932   1.940   1.941   1.945   1.951   1.952   1.955   1.958
  1.964   1.966   1.975   1.976   1.985   1.985   1.988   1.989
  1.997   2.001   2.003   2.015   2.015   2.018   2.025   2.034
  2.038   2.050   2.054   2.055   2.061   2.069   2.070   2.071
  2.075   2.079   2.080   2.087   2.092   2.095   2.096   2.097
  2.103   2.105   2.108   2.114   2.116   2.120   2.120   2.131
  2.134   2.137   2.142   2.147   2.149   2.151   2.152   2.158
  2.162   2.165   2.170   2.171   2.173   2.182   2.186   2.190
  2.190   2.195   2.199   2.207   2.208   2.213   2.218   2.221
  2.225   2.231   2.236   2.239   2.240   2.242   2.248   2.250
  2.252   2.261   2.268   2.274   2.275   2.279   2.281   2.286
  2.290   2.293   2.299   2.301   2.301   2.302   2.306   2.308
  2.312   2.316   2.319   2.321   2.323   2.332   2.334   2.338
  2.340   2.342   2.345   2.350   2.351   2.361   2.366   2.369
  2.375   2.380   2.381   2.386   2.387   2.390   2.396   2.399
  2.406   2.408   2.408   2.416   2.416   2.418   2.420   2.422
  2.424   2.426   2.427   2.432   2.434   2.435   2.437   2.442
  2.451   2.462   2.466   2.466   2.467   2.468   2.476   2.481
  2.485   2.486   2.491   2.492   2.506   2.507   2.509   2.513
  2.514   2.517   2.522   2.528   2.533   2.534   2.536   2.539
  2.540   2.546   2.548   2.551   2.557   2.559   2.563   2.566
  2.573   2.578   2.581   2.586   2.589   2.597   2.601   2.606
  2.620   2.622   2.624   2.627   2.637   2.640   2.647   2.650
  2.651   2.657   2.659   2.660   2.665   2.671   2.673   2.677
  2.682   2.687   2.688   2.692   2.695   2.697   2.700   2.702
  2.704   2.710   2.718   2.722   2.728   2.741   2.746   2.747
  2.758   2.762   2.765   2.775   2.780   2.783   2.786   2.789
  2.799   2.802   2.809   2.813   2.821   2.823   2.827   2.832
  2.839   2.849   2.854   2.857   2.863   2.870   2.879   2.885
  2.886   2.889   2.891   2.897   2.899   2.903   2.905   2.909
  2.913   2.915   2.918   2.934   2.936   2.942   2.951   2.964
  2.971   2.973   2.975   2.985   2.989   2.991   3.015   3.028
  3.041   3.048   3.057   3.064   3.077   3.094   3.103   3.113
  3.157   3.179   3.195   3.197   3.216   3.216   3.239   3.245
  3.251   3.254   3.254   3.262   3.267   3.268   3.285   3.286
  3.294   3.299   3.303   3.311   3.313   3.318   3.324   3.331
  3.337   3.359   3.372   3.378   3.403   3.410   3.423   3.446
  3.454   3.460   3.465   3.477   3.489   3.492   3.526   3.532
  3.540   3.550   3.561   3.567   3.571   3.579   3.585   3.603
  3.610   3.629   3.706   3.739   3.830   3.857   3.915   3.923
  3.929   3.938   3.952   3.957   3.960   3.974   3.985   3.985
  4.007   4.009   4.078   4.086   4.093   4.096   4.101   4.117
  4.127   4.137   4.148   4.153   4.162   4.167   4.174   4.193
  4.208   4.214   4.240   4.255   4.266   4.267   4.269   4.275
  4.288   4.305   4.313   4.343   4.375   4.385   4.388   4.408
  4.429   4.434   4.452   4.460   4.461   4.468   4.477   4.491
  4.494   4.502   4.524   4.538   4.578   4.604   4.650   4.667
  4.696   4.699   4.712   4.724   4.752   4.773   4.786   4.797
 --------------------------------------------------------------
 
          Ground-State Mulliken Net Atomic Charges

     Atom                 Charge (a.u.)
  ----------------------------------------
      1 C                     0.285754
      2 C                    -0.105868
      3 N                    -0.464917
      4 C                    -0.084457
      5 C                     0.106781
      6 C                     0.008101
      7 C                     0.040324
      8 C                     0.057098
      9 C                     0.172917
     10 N                    -0.505232
     11 N                    -0.519019
     12 C                     0.259331
     13 C                     0.246895
     14 S                     0.605340
     15 N                    -0.558480
     16 C                    -0.231405
     17 S                     0.350805
     18 C                    -0.106749
     19 C                    -0.190330
     20 S                     0.254803
     21 C                     0.116548
     22 C                     0.035332
     23 C                    -0.310820
     24 C                    -0.055117
     25 N                    -0.417970
     26 S                     0.297271
     27 C                     0.122981
     28 C                    -0.313716
     29 C                    -0.241579
     30 H                     0.088196
     31 H                     0.112892
     32 H                     0.116288
     33 H                     0.104986
     34 H                     0.120432
     35 H                     0.105129
     36 H                     0.118065
     37 H                     0.126837
     38 H                     0.116897
     39 C                    -0.187239
     40 H                     0.115492
     41 H                     0.092860
     42 H                     0.094140
     43 C                    -0.168230
     44 H                     0.096655
     45 C                    -0.171314
     46 H                     0.093526
     47 H                     0.085004
     48 H                     0.082590
     49 C                    -0.181157
     50 H                     0.092263
     51 C                    -0.315220
     52 H                     0.091966
     53 H                     0.117634
     54 H                     0.102882
     55 H                     0.094231
     56 C                     0.281052
     57 C                    -0.129155
     58 N                    -0.487539
     59 C                    -0.096644
     60 C                     0.068075
     61 C                     0.074620
     62 C                    -0.055070
     63 C                     0.078885
     64 C                     0.216639
     65 N                    -0.511001
     66 N                    -0.531966
     67 C                     0.266984
     68 C                     0.305606
     69 S                     0.613646
     70 N                    -0.586232
     71 C                    -0.246233
     72 S                     0.336283
     73 C                    -0.114590
     74 C                    -0.182613
     75 S                     0.310840
     76 C                     0.124497
     77 C                     0.046461
     78 C                    -0.306769
     79 C                    -0.089315
     80 N                    -0.418085
     81 S                     0.292850
     82 C                     0.117679
     83 C                    -0.315822
     84 C                    -0.231453
     85 H                     0.094700
     86 H                     0.099876
     87 H                     0.111996
     88 H                     0.127968
     89 H                     0.116930
     90 H                     0.107705
     91 H                     0.124923
     92 H                     0.129909
     93 H                     0.126722
     94 C                    -0.193658
     95 H                     0.118562
     96 H                     0.087556
     97 H                     0.093741
     98 C                    -0.185533
     99 H                     0.097321
    100 C                    -0.170870
    101 H                     0.093361
    102 H                     0.088681
    103 H                     0.093042
    104 C                    -0.174153
    105 H                     0.095685
    106 C                    -0.313030
    107 H                     0.093195
    108 H                     0.098725
    109 H                     0.103365
    110 H                     0.101226
  ----------------------------------------
  Sum of atomic charges =     0.000000

 -----------------------------------------------------------------
                    Cartesian Multipole Moments
 -----------------------------------------------------------------
    Charge (ESU x 10^10)
                 0.0000
    Dipole Moment (Debye)
         X      -3.2033      Y      -0.2680      Z       1.8166
       Tot       3.6923
    Quadrupole Moments (Debye-Ang)
        XX    -397.4310     XY       5.3974     YY    -408.7427
        XZ      -3.5075     YZ     -11.8162     ZZ    -436.4605
    Octopole Moments (Debye-Ang^2)
       XXX    -554.1510    XXY      84.0239    XYY    -279.1937
       YYY    -121.4127    XXZ      40.7878    XYZ      40.4155
       YYZ     -68.4462    XZZ      57.4661    YZZ       9.9627
       ZZZ      -2.2638
    Hexadecapole Moments (Debye-Ang^3)
      XXXX  -66974.8868   XXXY   -1267.1340   XXYY  -15145.3483
      XYYY     813.8486   YYYY  -32842.2756   XXXZ     374.5045
      XXYZ    -655.3957   XYYZ     226.1676   YYYZ     -42.7807
      XXZZ  -15046.6001   XYZZ     177.8838   YYZZ   -9097.8335
      XZZZ    -105.8022   YZZZ      48.6228   ZZZZ  -18931.3663
 -----------------------------------------------------------------
Archival summary:
1\1\mn426\SP\ProcedureUnspecified\6-31G**\8105042\afmv_a\SatOct610:06:102018SatOct610:06:102018\0\\#,ProcedureUnspecified,6-31G**,\\0,1\S\C,1,1.84756\C,2,1.38571,1,130.863\C,2,1.39219,1,115.699,3,-179.25,0\C,4,1.38562,2,117.296,1,-179.207,0\C,4,1.40475,2,113.065,1,-6.75151,0\H,6,1.08389,4,122.518,2,178.623,0\C,6,1.36531,4,111.681,2,5.10183,0\H,8,1.08181,6,124.954,4,-175.939,0\C,5,1.43222,4,124.948,2,-173.761,0\N,10,1.34236,5,112.343,4,-168.365,0\C,11,1.37004,10,107.832,5,-164.065,0\H,12,1.08224,11,117.675,10,173.561,0\C,12,1.38399,11,113.127,10,0.163162,0\H,14,1.08167,12,123.929,11,-174.838,0\C,3,1.46789,2,124.222,1,-4.188,0\N,16,1.35613,3,113.847,2,39.0302,0\C,17,1.35296,16,117.719,3,178.393,0\H,18,1.08912,17,119.464,16,-170.639,0\C,16,1.38284,3,121.096,2,-147.483,0\N,20,1.35533,16,127.057,3,6.57619,0\C,20,1.3816,16,115.976,3,-179.241,0\C,18,1.39481,17,124.925,16,2.04245,0\N,22,1.40014,20,115.735,16,-168.646,0\C,23,1.48386,18,120.373,17,-178.61,0\C,25,1.4298,23,120.282,18,31.785,0\H,26,1.08575,25,122.002,23,18.6947,0\C,26,1.38558,25,114.527,23,177.405,0\H,28,1.08626,26,119.928,25,-167.102,0\C,28,1.40124,26,123.241,25,3.65258,0\N,30,1.33592,28,119.155,26,-7.80409,0\C,31,1.30707,30,121.356,28,12.7839,0\H,32,1.08915,31,121.255,30,168.501,0\C,30,1.50552,28,122.367,26,-173.865,0\H,34,1.09656,30,112.155,28,-173.709,0\H,34,1.09734,30,105.38,28,-65.2328,0\C,34,1.54814,30,122.303,28,56.0777,0\H,37,1.09691,34,110.035,30,-18.7891,0\H,37,1.09707,34,111.674,30,-134.91,0\C,37,1.5421,34,118.529,30,102.124,0\H,40,1.09667,37,113.085,34,22.9931,0\H,40,1.09726,37,105.21,34,-91.3096,0\C,40,1.47241,37,115.984,34,157.413,0\H,43,1.09681,40,108.609,37,-69.2833,0\H,43,1.0969,40,107.033,37,46.2036,0\C,43,1.52179,40,116.917,37,167.444,0\H,46,1.09652,43,117.885,40,-79.2392,0\H,46,1.09733,43,101.3,40,171.319,0\C,46,1.5174,43,110.507,40,48.9457,0\H,49,1.09677,46,109.185,43,59.1923,0\H,49,1.09691,46,116.878,43,-73.1662,0\H,49,1.09693,46,103.207,43,166.376,0\S,24,1.66024,22,101.549,20,-6.04041,0\S,14,1.71833,12,115.607,11,0.534838,0\S,5,1.72931,4,105.676,2,-2.17208,0\C,19,2.67463,18,143.959,17,-60.6179,0\C,56,1.41599,19,107.496,18,155.551,0\C,57,1.3179,56,124.095,19,-86.9379,0\N,58,1.32576,57,116.035,56,179.448,0\N,57,1.40102,56,122.137,19,95.3808,0\C,58,1.44957,57,117.7,56,-2.25446,0\N,61,1.35958,58,122.402,57,-1.99519,0\C,62,1.344,61,119.631,58,2.52881,0\H,63,1.0886,62,114.745,61,175.026,0\C,61,1.48432,58,118.819,57,175.75,0\C,65,1.37428,61,128.008,58,179.558,0\C,66,1.41094,65,112.442,61,-172.089,0\C,67,1.30615,66,121.471,65,-2.45903,0\C,68,1.43274,67,125.149,66,179.195,0\N,69,1.32906,68,110.596,67,156.927,0\C,70,1.39432,69,110.633,68,174.98,0\H,71,1.08306,70,119.278,69,-175.491,0\C,71,1.43362,70,111.413,69,3.70404,0\H,73,1.08188,71,122.201,70,176.591,0\C,67,1.45049,66,107.589,65,-179.236,0\H,75,1.08425,67,128.905,66,-177.455,0\C,75,1.38745,67,112.361,66,2.83494,0\H,77,1.08217,75,124.768,67,171.961,0\C,56,1.545,19,92.087,18,-77.7417,0\C,79,1.39269,56,118.479,19,-67.1909,0\H,80,1.08916,79,120.319,56,-7.50358,0\N,80,1.36767,79,127.325,56,-176.995,0\C,82,1.31467,80,117.593,79,-4.58747,0\C,79,1.41161,56,126.562,19,110.901,0\H,84,1.08637,79,119.744,56,-8.23523,0\C,83,1.42134,82,121.407,80,5.18417,0\H,86,1.0859,83,121.112,82,174.687,0\C,83,1.52438,82,114.273,80,-167.912,0\H,88,1.0972,83,120.676,82,52.5707,0\H,88,1.09731,83,102.827,82,-58.1384,0\C,88,1.56402,83,118.004,82,-175.725,0\H,91,1.09689,88,101.632,83,-34.2352,0\H,91,1.09707,88,106.019,83,69.0809,0\C,91,1.54754,88,116.594,83,-160.388,0\H,94,1.09706,91,109.921,88,51.9767,0\H,94,1.09743,91,103.628,88,-61.5148,0\C,94,1.57722,91,117.463,88,175.737,0\H,97,1.09725,94,103.215,91,-60.652,0\H,97,1.09789,94,113.134,91,56.044,0\C,97,1.51933,94,114.925,91,-172.963,0\H,100,1.09701,97,103.312,94,-68.1574,0\H,100,1.09711,97,116.549,94,54.1565,0\C,100,1.51822,97,111.109,94,170.588,0\H,103,1.09635,100,104.556,97,-173.559,0\H,103,1.09673,100,108.141,97,-53.2888,0\H,103,1.09776,100,113.134,97,70.9262,0\S,60,1.5945,57,105.149,56,173.343,0\S,68,1.72417,67,104.517,66,-3.53386,0\S,66,1.75132,65,128.233,61,22.8493,0\S,69,1.75396,68,129.95,67,-24.7217,0\\\@

 Total job time:  92.63s(wall), 997.28s(cpu) 
 Sat Oct  6 10:06:10 2018

        *************************************************************
        *                                                           *
        *  Thank you very much for using Q-Chem.  Have a nice day.  *
        *                                                           *
        *************************************************************


