
Running Job 1 of 1 ./8/95.qcin
qchem ./8/95.qcin_17012.0 /tmpu/cab_g/afmv_a/scratch_qchem/qchem17012/ 1
/tmpu/appuserlic/qchem4.4/serial-multicore/exe/qcprog.exe_s ./8/95.qcin_17012.0 /tmpu/cab_g/afmv_a/scratch_qchem/qchem17012/
Check license passed

                  Welcome to Q-Chem
     A Quantum Leap Into The Future Of Chemistry


 Q-Chem 4.4, Q-Chem, Inc., Pleasanton, CA (2016)

 Y. Shao,  Z. Gan,  E. Epifanovsky,  A. T. B. Gilbert,  M. Wormit,  
 J. Kussmann,  A. W. Lange,  A. Behn,  J. Deng,  X. Feng,  D. Ghosh,  
 M. Goldey,  P. R. Horn,  L. D. Jacobson,  I. Kaliman,  F. Rob,  
 R. Z. Khaliullin,  T. Kus,  A. Landau,  J. Liu,  E. I. Proynov,  Y. M. Rhee,  
 R. M. Richard,  M. A. Rohrdanz,  R. P. Steele,  E. J. Sundstrom,  
 H. L. Woodcock III,  P. M. Zimmerman,  D. Zuev,  B. Albrecht,  E. Alguire,  
 B. Austin,  S. A. Baeppler,  G. J. O. Beran,  Y. A. Bernard,  E. Berquist,  
 K. Brandhorst,  K. B. Bravaya,  S. T. Brown,  D. Casanova,  C.-M. Chang,  
 Y. Chen,  S. H. Chien,  K. D. Closser,  M. P. Coons,  D. L. Crittenden,  
 S. Dasgupta,  M. Diedenhofen,  R. A. DiStasio Jr.,  H. Do,  A. D. Dutoi,  
 R. G. Edgar,  P.-T. Fang,  S. Fatehi,  Q. Feng,  L. Fusti-Molnar,  
 A. Ghysels,  A. Golubeva-Zadorozhnaya,  J. Gomes,  A. Gunina,  
 M. W. D. Hanson-Heine,  P. H. P. Harbach,  A. W. Hauser,  J. E. Herr,  
 E. G. Hohenstein,  Z. C. Holden,  K. Hui,  T.-C. Jagau,  H. Ji,  B. Kaduk,  
 K. Khistyaev,  Jaehoon Kim,  Jihan Kim,  R. A. King,  P. Klunzinger,  
 K. Koh,  D. Kosenkov,  T. Kowalczyk,  C. M. Krauter,  A. Kunitsa,  
 K. U. Lao,  A. Laurent,  K. V. Lawler,  J. Lee,  D. Lefrancois,  S. Lehtola,  
 S. V. Levchenko,  C. Y. Lin,  Y.-S. Lin,  F. Liu,  E. Livshits,  
 R. C. Lochan,  A. Luenser,  P. Manohar,  S. F. Manzer,  S.-P. Mao,  Y. Mao,  
 N. Mardirossian,  A. V. Marenich,  L. A. Martinez-Martinez,  S. A. Maurer,  
 N. J. Mayhall,  J.-M. Mewes,  A. F. Morrison,  K. Nanda,  T. S. Nguyen-Beck,  
 C. M. Oana,  R. Olivares-Amaya,  D. P. O'Neill,  J. A. Parkhill,  
 T. M. Perrine,  R. Peverati,  P. A. Pieniazek,  F. Plasser,  A. Prociuk,  
 D. R. Rehn,  E. Rosta,  N. J. Russ,  N. Sergueev,  S. M. Sharada,  
 S. Sharma,  D. W. Small,  A. Sodt,  T. Stauch,  T. Stein,  D. Stuck,  
 Y.-C. Su,  A. J. W. Thom,  T. Tsuchimochi,  L. Vogt,  O. Vydrov,  T. Wang,  
 M. A. Watson,  J. Wenzel,  A. White,  C. F. Williams,  V. Vanovschi,  
 K. Yao,  S. Yeganeh,  S. R. Yost,  Z.-Q. You,  I. Y. Zhang,  X. Zhang,  
 Y. Zhao,  B. R. Brooks,  G. K. L. Chan,  D. M. Chipman,  C. J. Cramer,  
 W. A. Goddard III,  M. S. Gordon,  W. J. Hehre,  A. Klamt,  
 H. F. Schaefer III,  M. W. Schmidt,  C. D. Sherrill,  D. G. Truhlar,  
 A. Warshel,  X. Xu,  A. Aspuru-Guzik,  R. Baer,  A. T. Bell,  N. A. Besley,  
 J.-D. Chai,  A. Dreuw,  B. D. Dunietz,  T. R. Furlani,  S. R. Gwaltney,  
 C.-P. Hsu,  Y. Jung,  J. Kong,  D. S. Lambrecht,  W. Liang,  C. Ochsenfeld,  
 V. A. Rassolov,  L. V. Slipchenko,  J. E. Subotnik,  T. Van Voorhis,  
 J. M. Herbert,  A. I. Krylov,  P. M. W. Gill,  M. Head-Gordon

 Contributors to earlier versions of Q-Chem not listed above: 
 R. D. Adamson,  J. Baker,  E. F. C. Byrd,  A. K. Chakraborty,  C.-L. Cheng,  
 H. Dachsel,  R. J. Doerksen,  G. Hawkins,  A. Heyden,  S. Hirata,  
 G. Kedziora,  F. J. Keil,  C. Kelley,  P. P. Korambath,  W. Kurlancheek,  
 A. M. Lee,  M. S. Lee,  D. Liotard,  I. Lotan,  P. E. Maslen,  N. Nair,  
 D. Neuhauser,  R. Olson,  B. Peters,  J. Ritchie,  N. E. Schultz,  
 N. Shenvi,  A. C. Simmonett,  K. S. Thanthiriwatte,  Q. Wu,  W. Zhang

 Please cite Q-Chem as follows:
 Y. Shao et al., Mol. Phys. 113, 184-215 (2015)
 DOI: 10.1080/00268976.2014.952696

 Q-Chem 4.4.2 for Intel X86 Linux

 Parts of Q-Chem use Armadillo 5.200.1 (Boston Tea Smuggler).
 http://arma.sourceforge.net/

 Q-Chem begins on Sat Oct  6 10:07:55 2018  

Host: 
0

     Scratch files written to /tmpu/cab_g/afmv_a/scratch_qchem/qchem17012//
 Dec716 11556_ 22328  22283 4050   
Processing $rem in /tmpu/appuserlic/qchem4.4/serial-multicore/config/preferences.
 MEM_TOTAL  2000 
FILE_GEOM_ORG=        593

Checking the input file for inconsistencies... 	...done.

--------------------------------------------------------------
User input:
--------------------------------------------------------------
$comment
SP
$end

$rem
MEM_STATIC 5000
MEM_TOTAL 20000
JOBTYPE SP
EXCHANGE B3LYP
BASIS 6-31g(d,p)
$end

$molecule
0 1
C          20.784000     12.354000      3.111000
C          20.010000     12.785000      4.185000
N          22.096000     11.977000      3.185000
C          20.649000     12.759000      5.442000
C          22.682000     12.030000      4.420000
C          22.020000     12.378000      5.603000
C          22.572000     12.172000      7.013000
C          21.874000     12.867000      8.120000
C          23.826000     11.579000      7.414000
N          22.349000     12.921000      9.381000
N          24.652000     10.936000      6.540000
C          24.265000     11.757000      8.769000
C          23.487000     12.338000      9.777000
S          25.982000     10.621000      7.515000
N          25.500000     11.267000      8.992000
C          23.910000     12.453000     11.151000
S          25.546000     12.310000     11.841000
C          23.052000     12.677000     12.196000
C          25.037000     12.643000     13.456000
S          21.329000     12.881000     12.169000
C          23.684000     12.871000     13.434000
C          25.816000     12.826000     14.612000
C          21.436000     13.254000     13.892000
C          22.728000     13.215000     14.448000
N          27.106000     12.485000     14.396000
S          25.513000     13.551000     16.208000
C          27.827000     12.812000     15.510000
C          27.081000     13.116000     16.621000
C          20.015000     12.156000      1.783000
H          18.966000     13.050000      4.049000
H          19.984000     13.080000      6.239000
H          23.696000     11.634000      4.456000
H          20.985000     13.483000      7.993000
H          20.449000     13.353000     14.322000
H          22.930000     13.409000     15.495000
H          28.894000     12.634000     15.550000
H          27.399000     13.491000     17.585000
H          20.475000     11.308000      1.260000
C          20.168000     13.362000      0.884000
H          18.938000     11.983000      1.901000
H          21.230000     13.630000      0.836000
H          19.632000     14.160000      1.413000
C          19.682000     13.100000     -0.582000
H          19.710000     14.089000     -1.057000
C          18.244000     12.564000     -0.674000
H          20.430000     12.468000     -1.077000
H          18.196000     11.522000     -0.334000
H          17.947000     12.452000     -1.724000
C          17.064000     13.353000      0.034000
H          17.519000     13.738000      0.955000
C          15.840000     12.491000      0.396000
H          16.766000     14.211000     -0.581000
H          14.998000     13.040000      0.837000
H          16.080000     11.673000      1.086000
H          15.487000     11.952000     -0.492000
C          20.406000      5.459000     14.964000
C          21.215000      6.602000     14.976000
N          20.726000      4.359000     14.222000
C          22.523000      6.460000     14.369000
C          21.881000      4.309000     13.512000
C          22.887000      5.328000     13.589000
C          24.246000      5.160000     12.926000
C          24.923000      3.871000     13.048000
C          25.054000      6.190000     12.306000
N          26.086000      3.575000     12.545000
N          24.647000      7.522000     12.151000
C          26.382000      5.880000     11.894000
C          26.845000      4.517000     11.902000
S          25.942000      8.282000     11.528000
N          26.975000      6.990000     11.364000
C          28.255000      4.173000     11.444000
S          29.234000      5.099000     10.310000
C          28.975000      3.056000     11.868000
C          30.449000      3.745000     10.248000
S          28.577000      1.984000     13.206000
C          30.145000      2.833000     11.230000
C          31.524000      3.660000      9.342000
C          30.219000      1.331000     12.971000
C          30.820000      1.703000     11.740000
N          31.962000      2.433000      9.044000
S          32.220000      4.988000      8.385000
C          32.859000      2.540000      8.050000
C          33.208000      3.835000      7.660000
C          19.238000      5.459000     15.833000
H          21.028000      7.506000     15.549000
H          23.173000      7.330000     14.352000
H          22.031000      3.390000     12.948000
H          24.391000      3.064000     13.550000
H          30.471000      0.606000     13.733000
H          31.697000      1.189000     11.364000
H          33.461000      1.695000      7.744000
H          33.970000      4.222000      6.996000
H          18.793000      6.461000     15.865000
C          19.473000      5.012000     17.327000
H          18.496000      4.763000     15.425000
H          20.327000      5.609000     17.669000
H          19.688000      3.949000     17.160000
C          18.189000      5.188000     18.121000
H          17.905000      6.242000     18.232000
C          18.437000      4.804000     19.634000
H          17.348000      4.603000     17.730000
H          18.836000      5.698000     20.130000
H          19.251000      4.069000     19.631000
C          17.169000      4.469000     20.429000
H          16.511000      5.347000     20.409000
C          17.417000      3.812000     21.737000
H          16.605000      3.767000     19.802000
H          17.688000      2.766000     21.549000
H          16.557000      3.830000     22.417000
H          18.239000      4.328000     22.249000
$end

--------------------------------------------------------------
 ----------------------------------------------------------------
             Standard Nuclear Orientation (Angstroms)
    I     Atom           X                Y                Z
 ----------------------------------------------------------------
    1      C       9.0385546432    -1.0525823423    -1.4976317879
    2      C       8.8171071542     0.2961285362    -1.2325790084
    3      N       8.2591392622    -2.0829027298    -1.0505293802
    4      C       7.6526044092     0.5852094446    -0.4913559751
    5      C       7.1766799876    -1.7471027622    -0.2844025626
    6      C       6.7855961964    -0.4366783691     0.0133865881
    7      C       5.4407939130    -0.0362492364     0.6186991752
    8      C       5.3190626400     1.3455580495     1.1397252034
    9      C       4.3241496337    -0.8794688733     0.9751429962
   10      N       4.2615099383     1.7802058627     1.8547955226
   11      N       4.2592189894    -2.1998637097     0.6405649225
   12      C       3.2848679350    -0.3277214602     1.7972733648
   13      C       3.1991635027     1.0228938537     2.1542075661
   14      S       2.8621843643    -2.6742290490     1.4418275393
   15      N       2.3629365742    -1.2389765240     2.1643030293
   16      C       2.1159736059     1.5816494324     2.9252599967
   17      S       0.9045202135     0.7497900949     3.9319554426
   18      C       1.8280344030     2.9206610377     2.9752993438
   19      C       0.1355089935     2.2075517297     4.4435683427
   20      S       2.6327350887     4.2402825460     2.1865472400
   21      C       0.8072325960     3.2611339802     3.8762687363
   22      C      -0.8897448029     2.3853761170     5.3890307376
   23      C       1.5708347081     5.3163191140     3.0996846261
   24      C       0.6489559043     4.6856171370     3.9554155928
   25      N      -1.4317022388     1.2028893990     5.7565144780
   26      S      -1.4979700216     3.7812014807     6.3090218448
   27      C      -2.3209967484     1.4359685811     6.7677490552
   28      C      -2.6533569578     2.7531565649     6.9621854373
   29      C      10.1746764074    -1.3473715168    -2.5058359734
   30      H       9.4723936060     1.0594517928    -1.6407386243
   31      H       7.5240383636     1.6538331993    -0.3430689463
   32      H       6.5289342886    -2.5839203068    -0.0265849790
   33      H       6.1110580439     2.0913150978     1.0897681709
   34      H       1.7018013311     6.3409895095     2.7806731462
   35      H      -0.0682704366     5.2289314510     4.5596050763
   36      H      -2.8659386569     0.6194726101     7.2239788720
   37      H      -3.2511657592     3.2067661548     7.7418699741
   38      H       9.8809358074    -2.2337743219    -3.0822382001
   39      C      11.4586752824    -1.6959951948    -1.7876059128
   40      H      10.4069221408    -0.5187356307    -3.1864287206
   41      H      11.2370023722    -2.4455199324    -1.0188108890
   42      H      11.7485968347    -0.7624833582    -1.2891662029
   43      C      12.5471822792    -2.3029769707    -2.7366694732
   44      H      13.4497138213    -2.3553491332    -2.1143962438
   45      C      12.8597795838    -1.4299667559    -3.9629402793
   46      H      12.2468619541    -3.3297804034    -2.9804632649
   47      H      12.0311851559    -1.4595080186    -4.6814293801
   48      H      13.6634165498    -1.8828469042    -4.5565059440
   49      C      13.2654333426     0.0904298761    -3.7628800148
   50      H      12.6512161389     0.4182951307    -2.9150990280
   51      C      12.9806588896     0.9971041473    -4.9749481964
   52      H      14.3188349208     0.1603454965    -3.4651386489
   53      H      13.3080820766     2.0389095227    -4.8641257421
   54      H      11.9190549522     1.0269158870    -5.2486859177
   55      H      13.4425471051     0.5730779562    -5.8752454060
   56      C      -3.3120040606     4.6915224480    -3.1244316714
   57      C      -2.9722273250     4.3972150958    -1.7981553230
   58      N      -3.5402601924     3.7086477204    -4.0435727966
   59      C      -3.1253818604     3.0136483348    -1.3959567324
   60      C      -3.5069966250     2.3999360736    -3.6874936472
   61      C      -3.3619334750     1.9662822700    -2.3283663312
   62      C      -3.5097044462     0.5035423434    -1.9369207444
   63      C      -4.6056089646    -0.2644264446    -2.5233942963
   64      C      -2.7814443445    -0.2076659937    -0.9063947013
   65      N      -4.8663898996    -1.5167123492    -2.2847160251
   66      N      -1.7415248883     0.3503714382    -0.1507097476
   67      C      -3.1795258724    -1.5305970266    -0.5588136613
   68      C      -4.1535926491    -2.2287018021    -1.3563383549
   69      S      -1.3560036386    -0.7961791739     0.9353607196
   70      N      -2.3862778886    -2.0054867866     0.4461173573
   71      C      -4.5701023073    -3.6498468272    -1.0055299709
   72      S      -3.5994303498    -4.8311914182    -0.1314053183
   73      C      -5.7997985335    -4.2192264314    -1.3364666077
   74      C      -4.8092686296    -6.1296670117    -0.5359266031
   75      S      -7.2263674630    -3.3835314980    -1.9400782938
   76      C      -5.9241577654    -5.5403950389    -1.0820628105
   77      C      -4.6246404759    -7.5083399669    -0.3148851422
   78      C      -8.0716171320    -4.9217339895    -1.6281743144
   79      C      -7.2056652451    -6.0269072733    -1.4192117764
   80      N      -5.2907171066    -8.3399063495    -1.1217409369
   81      S      -3.4386740214    -8.2646835348     0.7738191225
   82      C      -4.8628641398    -9.5896147886    -0.8782976045
   83      C      -3.9684934215    -9.7483007159     0.1827612038
   84      C      -3.4832732542     6.0943620657    -3.4738495733
   85      H      -2.7876671274     5.1258185797    -1.0135608439
   86      H      -2.8612599196     2.7481166066    -0.3764365013
   87      H      -3.6923701634     1.7004549268    -4.5008323076
   88      H      -5.2269827959     0.2275364537    -3.2704846981
   89      H      -9.1356969464    -4.8322074300    -1.7999070832
   90      H      -7.5730237147    -7.0456649715    -1.4625881204
   91      H      -5.3655725617   -10.4477309545    -1.3037219671
   92      H      -3.5630735825   -10.6213381647     0.6774827084
   93      H      -2.7538600771     6.7087041709    -2.9320071654
   94      C      -4.9051068617     6.7189534082    -3.1993594141
   95      H      -3.3060693247     6.2132518807    -4.5489811835
   96      H      -5.1356327738     6.4501516781    -2.1614324255
   97      H      -5.4838915122     6.1769131332    -3.9578339810
   98      C      -4.8757515678     8.2083791451    -3.5007184042
   99      H      -4.2352721697     8.7650409746    -2.8051562229
  100      C      -6.2797832852     8.8515206261    -3.1642767716
  101      H      -4.6081517651     8.4405819263    -4.5384366772
  102      H      -6.2726869324     9.0940271197    -2.0939528756
  103      H      -7.0183375624     8.0505066598    -3.2897526865
  104      C      -6.5531551949    10.1952943490    -3.8510183392
  105      H      -5.7757260978    10.9036666011    -3.5378718056
  106      C      -7.9681203251    10.6408234732    -3.7927561754
  107      H      -6.2912050263    10.0456812184    -4.9060192967
  108      H      -8.5436806398    10.0486777512    -4.5145558485
  109      H      -8.1126198234    11.7031163134    -4.0229252797
  110      H      -8.3551331350    10.4788941123    -2.7788114200
 ----------------------------------------------------------------
 Molecular Point Group                 C1    NOp =  1
 Largest Abelian Subgroup              C1    NOp =  1
 Nuclear Repulsion Energy = 10992.5438901559 hartrees
 There are      270 alpha and      270 beta electrons
 Requested basis set is 6-31G(d,p)
 There are 406 shells and 1262 basis functions

 Total QAlloc Memory Limit  20000 MB
 Mega-Array Size      4888 MB
 MEM_STATIC part      5000 MB
 A cutoff of  1.0D-08 yielded  12355 shell pairs
 There are    129641 function pairs
 
 -------------------------------------------------------
 OpenMP Integral Computing Module                       
 Release: version 1.0, May 2013, Q-Chem Inc. Pittsburgh 
 -------------------------------------------------------
 Integral Job Info:
 Integral job number is                      11
 Integral operator is                         1
 short-range coefficients                     0
 long-range coefficients              100000000
 Omega coefficients                           0
 if combine SR and LR in K                    0
 Integral screening is                        0
 Integral computing path is                   2
 max size of driver memory is            800000
 size of driver memory is                593474
 size of scratch memory is             15166112
 max col of scratch BK array               1296
 max len of scratch array in speh3          155
 max len of scratch index in speh4           18
 max int batch size is                      520
 min int batch size is                       52
 fixed nKL is                                52
 max L of basis functions is                  2
 order of int derivative is                   0
 number of shells is                        406
 number of basis is                        1262
 number of cartesian basis is              1262
 number of contracted shell pairs         12355
 number of primitive shell pairs          40878
 maxK2 (contraction) of shell pair           36
 max number of K2 of shell pair               1
 max number of CS2 of shell pair           1238
 max number of PS2 of shell pair           7428
 mem total for path MDJ                  275176
 -------------------------------------------------------
 Smallest overlap matrix eigenvalue = 4.43E-04

 Scale SEOQF with 1.000000e-02/1.000000e-02/1.000000e-02

 Standard Electronic Orientation quadrupole field applied
 Nucleus-field energy     =     0.0000000900 hartrees
 Guess from superposition of atomic densities
 Warning:  Energy on first SCF cycle will be non-variational
 A restricted hybrid HF-DFT SCF calculation will be
 performed using Pulay DIIS extrapolation
 Exchange:     0.2000 Hartree-Fock + 0.0800 Slater + 0.7200 B88
 Correlation:  0.1900 VWN1RPA + 0.8100 LYP
 Using SG-1 standard quadrature grid
 SCF converges when DIIS error is below 1.0E-05
 using 16 threads for integral computing 
 -------------------------------------------------------
 OpenMP BLAS3 based DFT computing Module                
 Release: version 1.0, May 2013, Q-Chem Inc. Pittsburgh 
 -------------------------------------------------------
 ---------------------------------------
  Cycle       Energy         DIIS Error
 ---------------------------------------
    1   -5679.6753115303      2.13E-02
    2   -5662.5040972690      2.12E-03
    3   -5659.9135366599      3.63E-03
    4   -5661.9482894682      1.88E-03
    5   -5663.4238243595      5.10E-04
    6   -5663.4494096239      4.29E-04
    7   -5663.4822974886      2.06E-04
    8   -5663.4902588751      6.35E-05
    9   -5663.4909558454      2.70E-05
   10   -5663.4910918428      9.51E-06 Convergence criterion met
 ---------------------------------------
 SCF time:  CPU 1000.47 s  wall 89.32 s
 SCF   energy in the final basis set = -5663.4910918428
 Total energy in the final basis set = -5663.4910918428
 
 --------------------------------------------------------------
 
                    Orbital Energies (a.u.)
 --------------------------------------------------------------
 
 Alpha MOs
 -- Occupied --
-88.987 -88.985 -88.936 -88.927 -88.926 -88.922 -88.914 -88.904
-14.397 -14.395 -14.379 -14.379 -14.350 -14.348 -14.347 -14.343
-14.335 -14.327 -10.271 -10.268 -10.268 -10.264 -10.263 -10.260
-10.257 -10.254 -10.250 -10.241 -10.241 -10.241 -10.238 -10.237
-10.236 -10.234 -10.231 -10.231 -10.229 -10.229 -10.228 -10.227
-10.227 -10.227 -10.225 -10.225 -10.225 -10.224 -10.223 -10.217
-10.217 -10.213 -10.210 -10.208 -10.202 -10.201 -10.200 -10.198
-10.186 -10.185 -10.183 -10.181 -10.181 -10.180 -10.178 -10.178
-10.176 -10.175 -10.174 -10.171  -8.041  -8.039  -7.997  -7.987
 -7.985  -7.981  -7.974  -7.964  -6.007  -6.004  -6.001  -5.999
 -5.999  -5.997  -5.961  -5.958  -5.954  -5.951  -5.950  -5.948
 -5.946  -5.945  -5.945  -5.942  -5.941  -5.938  -5.937  -5.935
 -5.930  -5.928  -5.925  -5.920  -1.027  -1.016  -0.974  -0.973
 -0.959  -0.954  -0.931  -0.925  -0.919  -0.912  -0.908  -0.884
 -0.850  -0.836  -0.825  -0.822  -0.819  -0.817  -0.810  -0.808
 -0.808  -0.798  -0.797  -0.787  -0.784  -0.782  -0.766  -0.761
 -0.751  -0.748  -0.744  -0.738  -0.726  -0.718  -0.712  -0.707
 -0.698  -0.686  -0.676  -0.669  -0.654  -0.648  -0.647  -0.639
 -0.635  -0.627  -0.624  -0.618  -0.617  -0.603  -0.603  -0.598
 -0.590  -0.589  -0.588  -0.584  -0.581  -0.572  -0.571  -0.552
 -0.551  -0.550  -0.544  -0.531  -0.528  -0.520  -0.517  -0.513
 -0.507  -0.504  -0.494  -0.493  -0.489  -0.487  -0.477  -0.473
 -0.470  -0.469  -0.468  -0.466  -0.461  -0.455  -0.453  -0.449
 -0.448  -0.443  -0.441  -0.438  -0.435  -0.435  -0.431  -0.430
 -0.429  -0.426  -0.425  -0.425  -0.424  -0.416  -0.414  -0.412
 -0.411  -0.408  -0.405  -0.401  -0.399  -0.398  -0.394  -0.394
 -0.391  -0.391  -0.390  -0.389  -0.387  -0.385  -0.385  -0.383
 -0.382  -0.378  -0.372  -0.371  -0.368  -0.363  -0.360  -0.356
 -0.353  -0.351  -0.348  -0.347  -0.346  -0.343  -0.342  -0.340
 -0.338  -0.335  -0.334  -0.331  -0.331  -0.325  -0.324  -0.324
 -0.322  -0.314  -0.309  -0.307  -0.305  -0.303  -0.303  -0.299
 -0.298  -0.297  -0.294  -0.292  -0.291  -0.287  -0.285  -0.275
 -0.273  -0.270  -0.266  -0.257  -0.257  -0.253  -0.249  -0.248
 -0.247  -0.240  -0.233  -0.225  -0.195  -0.185
 -- Virtual --
 -0.120  -0.111  -0.079  -0.070  -0.045  -0.035  -0.031  -0.025
 -0.018  -0.017  -0.012  -0.010  -0.006  -0.005  -0.004   0.000
  0.002   0.003   0.017   0.022   0.026   0.032   0.032   0.034
  0.044   0.048   0.050   0.060   0.066   0.070   0.080   0.086
  0.091   0.096   0.103   0.105   0.107   0.109   0.110   0.114
  0.114   0.117   0.118   0.119   0.121   0.122   0.123   0.123
  0.129   0.132   0.134   0.135   0.137   0.140   0.140   0.150
  0.150   0.151   0.152   0.156   0.157   0.158   0.160   0.161
  0.164   0.166   0.167   0.169   0.174   0.174   0.175   0.180
  0.183   0.186   0.187   0.190   0.191   0.192   0.193   0.195
  0.197   0.201   0.202   0.206   0.210   0.214   0.215   0.216
  0.218   0.218   0.221   0.224   0.227   0.230   0.233   0.236
  0.238   0.240   0.243   0.244   0.247   0.247   0.253   0.257
  0.258   0.262   0.265   0.265   0.270   0.274   0.276   0.280
  0.280   0.283   0.289   0.291   0.293   0.296   0.297   0.301
  0.307   0.308   0.311   0.313   0.316   0.320   0.324   0.330
  0.332   0.333   0.334   0.337   0.338   0.342   0.344   0.347
  0.348   0.353   0.357   0.360   0.361   0.364   0.368   0.369
  0.371   0.377   0.377   0.381   0.385   0.392   0.395   0.397
  0.402   0.405   0.410   0.412   0.419   0.425   0.430   0.437
  0.443   0.447   0.452   0.454   0.458   0.461   0.465   0.480
  0.481   0.482   0.485   0.486   0.489   0.490   0.495   0.496
  0.499   0.505   0.506   0.508   0.509   0.513   0.513   0.520
  0.521   0.523   0.523   0.524   0.526   0.530   0.532   0.535
  0.536   0.540   0.543   0.544   0.544   0.544   0.545   0.548
  0.550   0.551   0.553   0.553   0.555   0.557   0.559   0.562
  0.565   0.566   0.572   0.573   0.578   0.579   0.581   0.582
  0.585   0.585   0.586   0.590   0.593   0.594   0.595   0.597
  0.598   0.599   0.600   0.606   0.606   0.607   0.611   0.613
  0.614   0.617   0.618   0.620   0.624   0.625   0.626   0.628
  0.630   0.631   0.632   0.634   0.635   0.638   0.638   0.639
  0.642   0.643   0.648   0.652   0.653   0.657   0.658   0.663
  0.667   0.671   0.679   0.680   0.682   0.686   0.692   0.692
  0.696   0.696   0.702   0.705   0.707   0.709   0.714   0.717
  0.717   0.720   0.722   0.726   0.733   0.735   0.739   0.744
  0.748   0.751   0.752   0.755   0.757   0.760   0.763   0.765
  0.767   0.772   0.776   0.780   0.782   0.785   0.790   0.792
  0.793   0.794   0.797   0.799   0.803   0.805   0.807   0.807
  0.810   0.810   0.811   0.818   0.818   0.819   0.821   0.822
  0.827   0.829   0.831   0.832   0.833   0.834   0.838   0.838
  0.840   0.842   0.843   0.844   0.847   0.849   0.853   0.854
  0.857   0.859   0.861   0.864   0.865   0.868   0.869   0.870
  0.871   0.874   0.874   0.877   0.879   0.882   0.884   0.886
  0.887   0.892   0.893   0.894   0.899   0.900   0.903   0.905
  0.910   0.913   0.913   0.916   0.919   0.922   0.922   0.924
  0.927   0.929   0.931   0.932   0.939   0.940   0.942   0.944
  0.945   0.947   0.950   0.952   0.954   0.956   0.956   0.959
  0.962   0.965   0.973   0.974   0.974   0.977   0.982   0.983
  0.985   0.986   0.987   0.991   0.993   0.993   1.000   1.004
  1.005   1.007   1.013   1.014   1.016   1.019   1.022   1.025
  1.027   1.030   1.031   1.032   1.034   1.037   1.042   1.045
  1.047   1.048   1.053   1.056   1.057   1.064   1.065   1.071
  1.077   1.077   1.080   1.087   1.089   1.090   1.099   1.102
  1.104   1.105   1.110   1.118   1.129   1.132   1.138   1.150
  1.151   1.156   1.157   1.159   1.161   1.168   1.178   1.181
  1.184   1.186   1.193   1.197   1.200   1.210   1.214   1.218
  1.223   1.225   1.231   1.238   1.252   1.261   1.265   1.265
  1.268   1.277   1.279   1.281   1.289   1.290   1.294   1.301
  1.302   1.312   1.314   1.316   1.318   1.321   1.324   1.337
  1.339   1.344   1.346   1.348   1.359   1.360   1.366   1.369
  1.371   1.376   1.378   1.382   1.386   1.388   1.395   1.401
  1.401   1.404   1.407   1.411   1.413   1.417   1.421   1.424
  1.430   1.437   1.441   1.443   1.452   1.458   1.463   1.465
  1.472   1.472   1.478   1.480   1.482   1.485   1.486   1.498
  1.502   1.503   1.521   1.526   1.539   1.541   1.548   1.551
  1.562   1.563   1.575   1.580   1.584   1.591   1.598   1.600
  1.611   1.613   1.618   1.621   1.630   1.631   1.643   1.643
  1.652   1.652   1.660   1.662   1.669   1.682   1.683   1.684
  1.691   1.692   1.697   1.701   1.705   1.708   1.711   1.713
  1.714   1.721   1.726   1.735   1.737   1.738   1.743   1.744
  1.749   1.755   1.756   1.759   1.764   1.769   1.769   1.775
  1.777   1.780   1.781   1.787   1.791   1.797   1.798   1.803
  1.808   1.813   1.822   1.826   1.828   1.833   1.840   1.846
  1.848   1.853   1.855   1.858   1.861   1.861   1.866   1.868
  1.870   1.872   1.874   1.878   1.882   1.886   1.887   1.891
  1.893   1.894   1.897   1.900   1.904   1.913   1.918   1.921
  1.925   1.928   1.931   1.934   1.936   1.940   1.945   1.947
  1.952   1.955   1.962   1.963   1.975   1.978   1.982   1.990
  1.992   1.997   1.998   2.002   2.012   2.013   2.019   2.025
  2.036   2.038   2.039   2.042   2.045   2.046   2.047   2.063
  2.064   2.065   2.071   2.079   2.081   2.081   2.089   2.094
  2.102   2.102   2.107   2.109   2.115   2.118   2.122   2.122
  2.127   2.131   2.136   2.138   2.152   2.153   2.156   2.159
  2.161   2.163   2.164   2.169   2.171   2.180   2.183   2.183
  2.187   2.189   2.193   2.196   2.202   2.205   2.209   2.211
  2.211   2.222   2.224   2.230   2.232   2.238   2.239   2.243
  2.246   2.253   2.255   2.262   2.263   2.270   2.277   2.278
  2.281   2.283   2.283   2.292   2.294   2.295   2.302   2.306
  2.307   2.313   2.313   2.315   2.316   2.318   2.323   2.327
  2.327   2.328   2.333   2.335   2.338   2.343   2.355   2.357
  2.362   2.365   2.368   2.371   2.372   2.375   2.380   2.385
  2.390   2.392   2.393   2.397   2.403   2.407   2.412   2.414
  2.416   2.423   2.424   2.428   2.428   2.433   2.436   2.439
  2.442   2.443   2.452   2.454   2.459   2.464   2.464   2.470
  2.475   2.478   2.479   2.482   2.486   2.487   2.496   2.502
  2.503   2.507   2.511   2.513   2.515   2.522   2.529   2.530
  2.532   2.534   2.539   2.540   2.541   2.546   2.563   2.563
  2.572   2.572   2.575   2.578   2.585   2.589   2.593   2.599
  2.601   2.607   2.610   2.612   2.614   2.619   2.619   2.629
  2.630   2.645   2.647   2.650   2.651   2.652   2.655   2.663
  2.666   2.671   2.673   2.678   2.682   2.688   2.691   2.695
  2.698   2.702   2.713   2.714   2.718   2.722   2.728   2.728
  2.740   2.740   2.753   2.758   2.762   2.765   2.773   2.776
  2.776   2.786   2.791   2.799   2.815   2.816   2.819   2.822
  2.826   2.839   2.844   2.852   2.855   2.859   2.868   2.873
  2.881   2.885   2.886   2.892   2.896   2.905   2.905   2.907
  2.910   2.917   2.918   2.927   2.928   2.932   2.944   2.946
  2.948   2.953   2.955   2.965   2.977   2.986   2.987   3.013
  3.021   3.037   3.042   3.048   3.060   3.064   3.089   3.089
  3.147   3.154   3.174   3.176   3.187   3.193   3.217   3.222
  3.231   3.246   3.253   3.266   3.267   3.269   3.275   3.282
  3.284   3.294   3.308   3.314   3.324   3.327   3.329   3.339
  3.339   3.368   3.368   3.370   3.387   3.391   3.417   3.424
  3.433   3.434   3.455   3.474   3.478   3.490   3.509   3.522
  3.524   3.528   3.558   3.565   3.576   3.587   3.590   3.604
  3.625   3.637   3.692   3.697   3.826   3.853   3.906   3.921
  3.930   3.944   3.946   3.953   3.958   3.967   3.984   3.990
  3.997   4.048   4.050   4.075   4.076   4.085   4.108   4.111
  4.117   4.129   4.144   4.146   4.152   4.169   4.185   4.191
  4.196   4.211   4.223   4.226   4.239   4.250   4.253   4.253
  4.265   4.271   4.318   4.325   4.355   4.364   4.370   4.374
  4.407   4.410   4.431   4.439   4.463   4.464   4.475   4.494
  4.500   4.503   4.519   4.541   4.580   4.594   4.654   4.656
  4.672   4.687   4.715   4.734   4.752   4.758   4.779   4.779
 --------------------------------------------------------------
 
          Ground-State Mulliken Net Atomic Charges

     Atom                 Charge (a.u.)
  ----------------------------------------
      1 C                     0.269637
      2 C                    -0.104446
      3 N                    -0.486948
      4 C                    -0.094364
      5 C                     0.053231
      6 C                     0.058966
      7 C                     0.025872
      8 C                     0.060864
      9 C                     0.226755
     10 N                    -0.525187
     11 N                    -0.549373
     12 C                     0.205875
     13 C                     0.302942
     14 S                     0.592432
     15 N                    -0.568078
     16 C                    -0.203823
     17 S                     0.357171
     18 C                    -0.111875
     19 C                    -0.214828
     20 S                     0.292102
     21 C                     0.125659
     22 C                     0.052098
     23 C                    -0.307488
     24 C                    -0.085341
     25 N                    -0.424740
     26 S                     0.292569
     27 C                     0.105374
     28 C                    -0.295947
     29 C                    -0.227247
     30 H                     0.099231
     31 H                     0.096006
     32 H                     0.131670
     33 H                     0.117330
     34 H                     0.130882
     35 H                     0.115027
     36 H                     0.114551
     37 H                     0.135369
     38 H                     0.112568
     39 C                    -0.181647
     40 H                     0.104728
     41 H                     0.107629
     42 H                     0.089965
     43 C                    -0.182883
     44 H                     0.093904
     45 C                    -0.187802
     46 H                     0.103186
     47 H                     0.094845
     48 H                     0.089456
     49 C                    -0.174573
     50 H                     0.090713
     51 C                    -0.325791
     52 H                     0.098641
     53 H                     0.104116
     54 H                     0.103445
     55 H                     0.104898
     56 C                     0.288826
     57 C                    -0.113194
     58 N                    -0.487666
     59 C                    -0.091168
     60 C                     0.064494
     61 C                     0.042220
     62 C                     0.005876
     63 C                     0.074805
     64 C                     0.183831
     65 N                    -0.495768
     66 N                    -0.546481
     67 C                     0.229696
     68 C                     0.282853
     69 S                     0.637430
     70 N                    -0.576834
     71 C                    -0.220262
     72 S                     0.312709
     73 C                    -0.115299
     74 C                    -0.243179
     75 S                     0.277290
     76 C                     0.217317
     77 C                     0.029718
     78 C                    -0.302903
     79 C                    -0.075539
     80 N                    -0.420381
     81 S                     0.281944
     82 C                     0.118894
     83 C                    -0.306054
     84 C                    -0.248767
     85 H                     0.093793
     86 H                     0.114106
     87 H                     0.106347
     88 H                     0.113022
     89 H                     0.127831
     90 H                     0.124746
     91 H                     0.107938
     92 H                     0.138176
     93 H                     0.097184
     94 C                    -0.176567
     95 H                     0.111199
     96 H                     0.097976
     97 H                     0.116713
     98 C                    -0.173615
     99 H                     0.094523
    100 C                    -0.187624
    101 H                     0.097961
    102 H                     0.089600
    103 H                     0.093299
    104 C                    -0.175981
    105 H                     0.090568
    106 C                    -0.310300
    107 H                     0.089130
    108 H                     0.108660
    109 H                     0.099837
    110 H                     0.099745
  ----------------------------------------
  Sum of atomic charges =     0.000000

 -----------------------------------------------------------------
                    Cartesian Multipole Moments
 -----------------------------------------------------------------
    Charge (ESU x 10^10)
                 0.0000
    Dipole Moment (Debye)
         X       0.3890      Y       2.6404      Z       3.8623
       Tot       4.6947
    Quadrupole Moments (Debye-Ang)
        XX    -423.0699     XY      14.0704     YY    -392.9974
        XZ     -24.3502     YZ       5.5334     ZZ    -440.7959
    Octopole Moments (Debye-Ang^2)
       XXX     144.7321    XXY      67.7708    XYY    -169.5058
       YYY    -239.6000    XXZ     -59.1955    XYZ     -53.6722
       YYZ     137.6851    XZZ     -60.1710    YZZ      78.3796
       ZZZ     227.3831
    Hexadecapole Moments (Debye-Ang^3)
      XXXX  -83078.9338   XXXY    1831.8489   XXYY  -22968.1012
      XYYY    1487.2858   YYYY  -46435.1729   XXXZ   -1040.8209
      XXYZ      32.7507   XYYZ    -174.6158   YYYZ    -333.6252
      XXZZ  -18083.5797   XYZZ    -444.0762   YYZZ  -12516.1121
      XZZZ   -1211.8532   YZZZ     697.9851   ZZZZ  -21840.0160
 -----------------------------------------------------------------
Archival summary:
1\1\mn426\SP\ProcedureUnspecified\6-31G**\8105042\afmv_a\SatOct610:09:282018SatOct610:09:282018\0\\#,ProcedureUnspecified,6-31G**,\\0,1\S\N,1,1.62565\C,2,1.40139,1,104.797\C,3,1.42458,2,116.461,1,0.68044,0\N,4,1.36552,3,109.888,2,2.55011,0\C,4,1.43951,3,120.283,2,174.327,0\N,6,1.37,4,118.389,3,12.2753,0\C,7,1.30123,6,121.344,4,-5.3817,0\H,8,1.08916,7,116.499,6,179.458,0\C,3,1.4485,2,124.139,1,-175.265,0\C,10,1.52141,3,127.321,2,4.21973,0\C,11,1.42208,10,123.749,3,37.3985,0\H,12,1.08613,11,118.414,10,-11.2312,0\C,11,1.43399,10,121.654,3,-145.141,0\H,14,1.08865,11,122.075,10,2.26951,0\N,14,1.3567,11,122.885,10,-171.869,0\C,16,1.3649,14,120.917,11,-6.09676,0\C,17,1.40038,16,121.804,14,-3.12297,0\H,18,1.08651,17,125.746,16,179.31,0\C,17,1.45581,16,120.837,14,173.602,0\H,20,1.0961,17,108.719,16,27.7186,0\H,20,1.09684,17,110.055,16,146.352,0\C,6,1.52191,4,120.686,3,-179.079,0\C,23,1.39494,6,124.591,4,-153.974,0\C,24,1.35117,23,115.822,6,-172.309,0\C,25,1.37422,24,114.799,23,0.242191,0\C,26,1.40843,25,126.048,24,172.564,0\N,27,1.33648,26,116.678,25,-27.3554,0\C,28,1.34317,27,108.104,26,-172.198,0\H,29,1.0817,28,121.251,27,-170.505,0\C,29,1.39676,28,116.574,27,-5.57074,0\H,31,1.08227,29,132.747,28,-171.214,0\C,25,1.4116,24,112.06,23,-178.713,0\H,33,1.08384,25,129.883,24,-170.74,0\C,33,1.41949,25,108.702,24,13.5884,0\H,35,1.08156,33,133.473,25,172.792,0\C,20,1.57704,17,116.483,16,-91.7187,0\H,37,1.09667,20,104.902,17,-50.232,0\H,37,1.09731,20,99.1837,17,68.8219,0\C,37,1.51989,20,109.645,17,-174.952,0\H,40,1.09653,37,113.57,20,-59.7165,0\H,40,1.09722,37,112.504,20,66.7337,0\C,40,1.58055,37,109.84,20,177.425,0\H,43,1.09674,40,106.061,37,27.7537,0\H,43,1.09748,40,106.964,37,-85.1716,0\C,43,1.53365,40,114.807,37,159.848,0\H,46,1.09728,43,105.575,40,-48.0194,0\H,46,1.09738,43,108.152,40,59.5893,0\C,46,1.48459,43,114.536,40,-166.486,0\H,49,1.09651,46,114.086,43,-163.64,0\H,49,1.09677,46,108.199,43,75.6274,0\H,49,1.09731,46,109.155,43,-44.1625,0\S,31,1.68261,29,111.611,28,9.03276,0\S,24,1.76007,23,127.018,6,12.2201,0\S,23,1.76121,6,126.151,4,26.0846,0\N,1,3.94169,2,120.749,3,-146.507,0\C,56,1.34724,1,118.994,2,-7.89018,0\C,57,1.39961,56,122.774,1,-61.6646,0\N,58,1.33856,57,116.124,56,-172.443,0\C,59,1.34858,58,123.961,57,-6.26197,0\H,60,1.08899,59,111.959,58,174.745,0\C,57,1.43542,56,113.048,1,116.407,0\N,62,1.36367,57,118.57,56,-1.39054,0\C,58,1.44223,57,123.793,56,1.06292,0\C,64,1.37053,58,123.767,57,161.677,0\C,65,1.40346,64,114.41,58,174.711,0\C,66,1.37225,65,115.796,64,7.93188,0\C,67,1.40594,66,122.538,65,-178.406,0\N,68,1.35168,67,111.381,66,-177.467,0\C,69,1.36666,68,108.232,67,-174.016,0\H,70,1.08248,69,120.717,68,179.307,0\C,70,1.37232,69,115.222,68,-12.9539,0\H,72,1.08215,70,129.659,69,173.593,0\C,66,1.43543,65,110.876,64,-174.897,0\H,74,1.08381,66,126.955,65,-179.241,0\C,74,1.4071,66,109.818,65,-0.0212019,0\H,76,1.08114,74,133.128,66,-171.54,0\C,62,1.44394,57,118.479,56,174.249,0\C,78,1.52815,62,128.705,57,-166.353,0\C,79,1.39958,78,125.136,62,1.22666,0\H,80,1.08918,79,120.186,78,3.98454,0\N,80,1.368,79,124.757,78,-166.898,0\C,82,1.3671,80,116.698,79,-3.15239,0\C,83,1.39223,82,125.25,80,-0.129996,0\H,84,1.08566,83,120.9,82,178.805,0\C,84,1.41034,83,115.465,82,2.98385,0\H,86,1.0865,84,111.78,83,178.408,0\C,83,1.5473,82,119.218,80,172.678,0\H,88,1.09717,83,114.565,82,-150.347,0\H,88,1.09738,83,107.433,82,-27.9087,0\C,88,1.51197,83,110.975,82,88.615,0\H,91,1.09634,88,108.605,83,-48.2447,0\H,91,1.09724,88,104.123,83,67.1647,0\C,91,1.56652,88,113.056,83,-167.441,0\H,94,1.09725,91,107.88,88,73.9266,0\H,94,1.09751,91,104.264,88,-171.604,0\C,94,1.5374,91,113.859,88,-53.9194,0\H,97,1.09693,94,110.251,91,-177.036,0\H,97,1.09712,94,110.702,91,72.2657,0\C,97,1.58625,94,119.714,91,-53.6672,0\H,100,1.0969,97,109.933,94,-79.1258,0\H,100,1.09704,97,103.93,94,36.2438,0\C,100,1.54022,97,114.689,94,155.371,0\H,103,1.09673,100,113.041,97,-60.127,0\H,103,1.09712,100,109.902,97,53.4752,0\H,103,1.09765,100,115.094,97,176.853,0\S,72,1.67881,70,111.467,69,20.766,0\S,63,1.67891,62,101.309,57,1.21236,0\S,67,1.72574,66,107.931,65,-5.02384,0\S,65,1.73524,64,128.974,58,0.3271,0\\\@

 Total job time:  93.09s(wall), 1011.41s(cpu) 
 Sat Oct  6 10:09:28 2018

        *************************************************************
        *                                                           *
        *  Thank you very much for using Q-Chem.  Have a nice day.  *
        *                                                           *
        *************************************************************


