
Running Job 1 of 1 ./8/99.qcin
qchem ./8/99.qcin_17197.0 /tmpu/cab_g/afmv_a/scratch_qchem/qchem17197/ 1
/tmpu/appuserlic/qchem4.4/serial-multicore/exe/qcprog.exe_s ./8/99.qcin_17197.0 /tmpu/cab_g/afmv_a/scratch_qchem/qchem17197/
Check license passed

                  Welcome to Q-Chem
     A Quantum Leap Into The Future Of Chemistry


 Q-Chem 4.4, Q-Chem, Inc., Pleasanton, CA (2016)

 Y. Shao,  Z. Gan,  E. Epifanovsky,  A. T. B. Gilbert,  M. Wormit,  
 J. Kussmann,  A. W. Lange,  A. Behn,  J. Deng,  X. Feng,  D. Ghosh,  
 M. Goldey,  P. R. Horn,  L. D. Jacobson,  I. Kaliman,  F. Rob,  
 R. Z. Khaliullin,  T. Kus,  A. Landau,  J. Liu,  E. I. Proynov,  Y. M. Rhee,  
 R. M. Richard,  M. A. Rohrdanz,  R. P. Steele,  E. J. Sundstrom,  
 H. L. Woodcock III,  P. M. Zimmerman,  D. Zuev,  B. Albrecht,  E. Alguire,  
 B. Austin,  S. A. Baeppler,  G. J. O. Beran,  Y. A. Bernard,  E. Berquist,  
 K. Brandhorst,  K. B. Bravaya,  S. T. Brown,  D. Casanova,  C.-M. Chang,  
 Y. Chen,  S. H. Chien,  K. D. Closser,  M. P. Coons,  D. L. Crittenden,  
 S. Dasgupta,  M. Diedenhofen,  R. A. DiStasio Jr.,  H. Do,  A. D. Dutoi,  
 R. G. Edgar,  P.-T. Fang,  S. Fatehi,  Q. Feng,  L. Fusti-Molnar,  
 A. Ghysels,  A. Golubeva-Zadorozhnaya,  J. Gomes,  A. Gunina,  
 M. W. D. Hanson-Heine,  P. H. P. Harbach,  A. W. Hauser,  J. E. Herr,  
 E. G. Hohenstein,  Z. C. Holden,  K. Hui,  T.-C. Jagau,  H. Ji,  B. Kaduk,  
 K. Khistyaev,  Jaehoon Kim,  Jihan Kim,  R. A. King,  P. Klunzinger,  
 K. Koh,  D. Kosenkov,  T. Kowalczyk,  C. M. Krauter,  A. Kunitsa,  
 K. U. Lao,  A. Laurent,  K. V. Lawler,  J. Lee,  D. Lefrancois,  S. Lehtola,  
 S. V. Levchenko,  C. Y. Lin,  Y.-S. Lin,  F. Liu,  E. Livshits,  
 R. C. Lochan,  A. Luenser,  P. Manohar,  S. F. Manzer,  S.-P. Mao,  Y. Mao,  
 N. Mardirossian,  A. V. Marenich,  L. A. Martinez-Martinez,  S. A. Maurer,  
 N. J. Mayhall,  J.-M. Mewes,  A. F. Morrison,  K. Nanda,  T. S. Nguyen-Beck,  
 C. M. Oana,  R. Olivares-Amaya,  D. P. O'Neill,  J. A. Parkhill,  
 T. M. Perrine,  R. Peverati,  P. A. Pieniazek,  F. Plasser,  A. Prociuk,  
 D. R. Rehn,  E. Rosta,  N. J. Russ,  N. Sergueev,  S. M. Sharada,  
 S. Sharma,  D. W. Small,  A. Sodt,  T. Stauch,  T. Stein,  D. Stuck,  
 Y.-C. Su,  A. J. W. Thom,  T. Tsuchimochi,  L. Vogt,  O. Vydrov,  T. Wang,  
 M. A. Watson,  J. Wenzel,  A. White,  C. F. Williams,  V. Vanovschi,  
 K. Yao,  S. Yeganeh,  S. R. Yost,  Z.-Q. You,  I. Y. Zhang,  X. Zhang,  
 Y. Zhao,  B. R. Brooks,  G. K. L. Chan,  D. M. Chipman,  C. J. Cramer,  
 W. A. Goddard III,  M. S. Gordon,  W. J. Hehre,  A. Klamt,  
 H. F. Schaefer III,  M. W. Schmidt,  C. D. Sherrill,  D. G. Truhlar,  
 A. Warshel,  X. Xu,  A. Aspuru-Guzik,  R. Baer,  A. T. Bell,  N. A. Besley,  
 J.-D. Chai,  A. Dreuw,  B. D. Dunietz,  T. R. Furlani,  S. R. Gwaltney,  
 C.-P. Hsu,  Y. Jung,  J. Kong,  D. S. Lambrecht,  W. Liang,  C. Ochsenfeld,  
 V. A. Rassolov,  L. V. Slipchenko,  J. E. Subotnik,  T. Van Voorhis,  
 J. M. Herbert,  A. I. Krylov,  P. M. W. Gill,  M. Head-Gordon

 Contributors to earlier versions of Q-Chem not listed above: 
 R. D. Adamson,  J. Baker,  E. F. C. Byrd,  A. K. Chakraborty,  C.-L. Cheng,  
 H. Dachsel,  R. J. Doerksen,  G. Hawkins,  A. Heyden,  S. Hirata,  
 G. Kedziora,  F. J. Keil,  C. Kelley,  P. P. Korambath,  W. Kurlancheek,  
 A. M. Lee,  M. S. Lee,  D. Liotard,  I. Lotan,  P. E. Maslen,  N. Nair,  
 D. Neuhauser,  R. Olson,  B. Peters,  J. Ritchie,  N. E. Schultz,  
 N. Shenvi,  A. C. Simmonett,  K. S. Thanthiriwatte,  Q. Wu,  W. Zhang

 Please cite Q-Chem as follows:
 Y. Shao et al., Mol. Phys. 113, 184-215 (2015)
 DOI: 10.1080/00268976.2014.952696

 Q-Chem 4.4.2 for Intel X86 Linux

 Parts of Q-Chem use Armadillo 5.200.1 (Boston Tea Smuggler).
 http://arma.sourceforge.net/

 Q-Chem begins on Sat Oct  6 10:15:03 2018  

Host: 
0

     Scratch files written to /tmpu/cab_g/afmv_a/scratch_qchem/qchem17197//
 Dec716 11556_ 22328  22283 4050   
Processing $rem in /tmpu/appuserlic/qchem4.4/serial-multicore/config/preferences.
 MEM_TOTAL  2000 
FILE_GEOM_ORG=        593

Checking the input file for inconsistencies... 	...done.

--------------------------------------------------------------
User input:
--------------------------------------------------------------
$comment
SP
$end

$rem
MEM_STATIC 5000
MEM_TOTAL 20000
JOBTYPE SP
EXCHANGE B3LYP
BASIS 6-31g(d,p)
$end

$molecule
0 1
C           1.881000     19.603000     10.990000
C           3.262000     19.890000     11.033000
N           1.274000     18.867000     10.017000
C           4.061000     19.367000      9.974000
C           2.009000     18.528000      8.971000
C           3.456000     18.636000      8.947000
C           4.249000     18.107000      7.830000
C           5.451000     17.358000      8.074000
C           3.897000     18.088000      6.446000
N           6.313000     16.885000      7.147000
N           2.753000     18.551000      5.970000
C           4.766000     17.536000      5.425000
C           6.051000     17.064000      5.799000
S           2.736000     18.317000      4.322000
N           4.190000     17.589000      4.180000
C           7.107000     16.580000      4.924000
S           8.389000     15.450000      5.392000
C           7.349000     16.994000      3.582000
C           9.360000     15.859000      3.980000
S           6.436000     17.826000      2.390000
C           8.615000     16.623000      3.112000
C          10.737000     15.368000      3.807000
C           7.801000     17.938000      1.359000
C           8.844000     17.174000      1.825000
N          11.237000     15.402000      2.615000
S          11.740000     14.868000      5.081000
C          12.489000     14.919000      2.555000
C          12.998000     14.692000      3.867000
C           0.876000     20.133000     12.021000
H           3.644000     20.434000     11.892000
H           5.141000     19.483000      9.939000
H           1.435000     18.002000      8.210000
H           5.661000     17.181000      9.128000
H           7.725000     18.398000      0.382000
H           9.732000     16.906000      1.265000
H          12.992000     14.975000      1.599000
H          14.041000     14.491000      4.073000
H           1.237000     21.141000     12.259000
C           0.958000     19.260000     13.317000
H          -0.181000     20.220000     11.742000
H           0.539000     19.807000     14.171000
H           1.999000     19.108000     13.630000
C           0.389000     17.885000     13.086000
H          -0.699000     17.972000     12.979000
C           0.751000     16.796000     14.160000
H           0.578000     17.379000     12.130000
H           1.835000     16.629000     14.206000
H           0.321000     15.852000     13.804000
C           0.335000     17.093000     15.673000
H           0.879000     17.957000     16.073000
C           0.542000     15.839000     16.597000
H          -0.678000     17.513000     15.683000
H           1.575000     15.708000     16.941000
H           0.223000     14.963000     16.019000
H          -0.140000     15.914000     17.454000
C          11.427000     11.518000      1.449000
C          10.377000     11.744000      0.525000
N          11.340000     11.901000      2.782000
C           9.201000     12.327000      0.957000
C          10.222000     12.398000      3.228000
C           9.093000     12.593000      2.372000
C           7.810000     12.947000      3.021000
C           6.889000     13.748000      2.305000
C           7.274000     12.284000      4.159000
N           5.629000     14.095000      2.743000
N           7.806000     11.252000      4.756000
C           6.036000     12.648000      4.635000
C           5.235000     13.575000      3.934000
S           6.713000     10.669000      5.770000
N           5.630000     11.805000      5.639000
C           3.943000     14.128000      4.487000
S           2.557000     14.603000      3.388000
C           3.673000     14.310000      5.762000
C           1.525000     15.028000      4.776000
S           4.542000     14.133000      7.210000
C           2.372000     14.927000      5.858000
C           0.189000     15.642000      4.630000
C           3.183000     14.999000      7.983000
C           2.062000     15.206000      7.225000
N          -0.502000     15.355000      3.554000
S          -0.634000     16.641000      5.825000
C          -1.663000     16.039000      3.487000
C          -1.789000     17.002000      4.520000
C          12.736000     10.896000      1.138000
H          10.531000     11.496000     -0.522000
H           8.435000     12.553000      0.221000
H          10.117000     12.579000      4.297000
H           7.166000     14.012000      1.285000
H           3.173000     15.252000      9.034000
H           1.167000     15.584000      7.705000
H          -2.275000     15.824000      2.621000
H          -2.598000     17.650000      4.830000
H          13.040000     11.155000      0.116000
C          12.669000      9.360000      1.154000
H          13.524000     11.152000      1.858000
H          11.911000      8.914000      0.498000
H          12.332000      9.090000      2.163000
C          14.051000      8.662000      0.977000
H          14.646000      9.175000      0.211000
C          13.822000      7.226000      0.468000
H          14.655000      8.683000      1.893000
H          13.445000      7.268000     -0.561000
H          13.146000      6.589000      1.051000
C          15.136000      6.506000      0.316000
H          15.753000      6.975000     -0.460000
C          14.937000      5.090000     -0.092000
H          15.739000      6.542000      1.232000
H          15.877000      4.523000     -0.093000
H          14.435000      4.958000     -1.059000
H          14.275000      4.594000      0.628000
$end

--------------------------------------------------------------
 ----------------------------------------------------------------
             Standard Nuclear Orientation (Angstroms)
    I     Atom           X                Y                Z
 ----------------------------------------------------------------
    1      C      -7.9976847792     1.6804915719    -1.5510579457
    2      C      -7.1719505922     2.3475564606    -2.4808786202
    3      N      -7.5688878506     0.7178256611    -0.6871820645
    4      C      -5.7964829803     1.9721654332    -2.5049913812
    5      C      -6.3293092961     0.2818926524    -0.8377457353
    6      C      -5.3393887036     0.9641603385    -1.6505292397
    7      C      -3.9341454282     0.5384182441    -1.6708763773
    8      C      -2.8737184050     1.5058264734    -1.6004715021
    9      C      -3.4280482024    -0.7943203844    -1.5848859939
   10      N      -1.5475211039     1.2619944583    -1.6890642039
   11      N      -4.1923439647    -1.8659849671    -1.4542413998
   12      C      -2.0103004831    -1.0965544280    -1.6157402856
   13      C      -1.0868893355    -0.0377861423    -1.8162560443
   14      S      -3.2086576114    -3.2061128290    -1.3684074209
   15      N      -1.7707278971    -2.4404648052    -1.4704135015
   16      C       0.3537835767    -0.1384032935    -1.9875883208
   17      S       1.5229090215     1.1383985127    -1.6102677116
   18      C       1.0618941160    -1.2307220705    -2.5675393133
   19      C       2.7879592345     0.3539636900    -2.5526985938
   20      S       0.6804267763    -2.8657698715    -2.9249723238
   21      C       2.3815772950    -0.9106745360    -2.9100343974
   22      C       4.0804829535     1.0043277458    -2.8238959958
   23      C       2.1539500919    -3.0697196160    -3.7769485793
   24      C       2.9886159687    -1.9927011299    -3.5978813998
   25      N       5.0629900331     0.2483929716    -3.1916764407
   26      S       4.3308497518     2.6822398121    -2.7920751822
   27      C       6.2022591082     0.9291113614    -3.3992371510
   28      C       5.9579719337     2.3328155017    -3.3557347039
   29      C      -9.5072760609     1.9276278905    -1.4329740677
   30      H      -7.6116214989     3.1429019904    -3.0757365714
   31      H      -5.0644706586     2.4594958855    -3.1435428600
   32      H      -6.0868393488    -0.5314050240    -0.1558159630
   33      H      -3.2134321396     2.5326239962    -1.4715280035
   34      H       2.4186944435    -4.0253044631    -4.2113136659
   35      H       4.0421259694    -1.9596561487    -3.8488648805
   36      H       7.0495222269     0.3678332860    -3.7696330605
   37      H       6.6775080804     3.0714433009    -3.6834277125
   38      H      -9.8371825379     2.0925721203    -2.4659233004
   39      C      -9.7525490230     3.2419948479    -0.6201089649
   40      H     -10.1456049452     1.1451608453    -1.0052585563
   41      H     -10.7588190398     3.6309067390    -0.8207434442
   42      H      -9.1144221604     4.0588467461    -0.9810813788
   43      C      -9.4073665671     3.0571257975     0.8339954008
   44      H     -10.1605177141     2.4033176473     1.2901316221
   45      C      -9.2362643010     4.3719538456     1.6780287049
   46      H      -8.5277215010     2.4586143120     1.1054757121
   47      H      -8.4167210920     4.9897252963     1.2884541121
   48      H      -8.9206284367     4.0597979230     2.6808769891
   49      C     -10.4826798220     5.3683314938     1.7421686404
   50      H     -10.7049344623     5.7916427482     0.7553340764
   51      C     -10.2656388201     6.5149789676     2.7944204042
   52      H     -11.3969131055     4.7789964549     1.8819209759
   53      H      -9.6594465921     7.3493182999     2.4216002582
   54      H      -9.7823252856     6.0578114801     3.6665596796
   55      H     -11.2458247769     6.8754938699     3.1327434676
   56      C       7.5895334298     0.1967932391    -0.0144090721
   57      C       7.2412519561    -1.1526483563     0.2406583611
   58      N       6.6345264885     1.1888209622    -0.2014645145
   59      C       5.9096942713    -1.5047722829     0.3522463185
   60      C       5.3755601171     0.8959072875    -0.0431791558
   61      C       4.9486267328    -0.4295027942     0.2830385643
   62      C       3.5279834060    -0.6043676635     0.6622493440
   63      C       2.8979752985    -1.8377271347     0.3717115680
   64      C       2.8345206152     0.2227725929     1.5879152416
   65      N       1.6107097755    -2.1764616053     0.7295654931
   66      N       3.3577690086     1.2107356703     2.2621533868
   67      C       1.5346281143    -0.0767090758     1.9230364377
   68      C       0.9244324191    -1.2642762979     1.4651321829
   69      S       2.3000050880     1.6375417181     3.3854102968
   70      N       1.0873489844     0.7417642490     2.9297855606
   71      C      -0.5410735753    -1.5666992282     1.6693735877
   72      S      -1.1461178970    -3.2845738226     1.8623768181
   73      C      -1.5033188012    -0.6720600099     1.7425432140
   74      C      -2.8199087736    -2.7292158035     2.1117652139
   75      S      -1.5884521361     1.0154645712     1.5745935087
   76      C      -2.7575678531    -1.3758232665     1.8612133226
   77      C      -3.9669859224    -3.6527736204     2.2320273182
   78      C      -3.3622451337     0.7969504362     1.5579810303
   79      C      -3.8418499401    -0.4448538569     1.8772854733
   80      N      -3.7458933234    -4.8399380551     2.7413255291
   81      S      -5.6488750446    -3.2772003670     1.8665841464
   82      C      -4.8432959625    -5.6244947141     2.7202471890
   83      C      -5.9272078676    -5.0275823449     2.0280300225
   84      C       8.9677763472     0.7253850202    -0.1490314686
   85      H       8.0281281176    -1.9001803434     0.2994021676
   86      H       5.6612999455    -2.5542082657     0.4807468129
   87      H       4.6419540841     1.7007805825    -0.0665921287
   88      H       3.5251583485    -2.6104579992    -0.0714062864
   89      H      -4.0514482866     1.6189643426     1.4238089328
   90      H      -4.9070554816    -0.5720051720     2.0305130732
   91      H      -4.7122149174    -6.6113897252     3.1440171700
   92      H      -6.9621917366    -5.3118865507     1.8921458457
   93      H       9.6174517419    -0.0344161474    -0.6013643850
   94      C       9.6086254486     1.0337193483     1.2141572093
   95      H       9.0216887198     1.6693492973    -0.7066199366
   96      H       9.6276545045     0.1990889169     1.9260883422
   97      H       8.9475605264     1.7684288714     1.6913836599
   98      C      11.0007838756     1.7275089082     1.1192469326
   99      H      11.6033469982     1.2739085587     0.3223062784
  100      C      11.7647769563     1.4930833868     2.4364322830
  101      H      10.9250729478     2.7938037466     0.8710611693
  102      H      12.0338463771     0.4323891665     2.5089816995
  103      H      11.2598292998     1.7791693520     3.3669249937
  104      C      13.1052094699     2.1784443239     2.3961698625
  105      H      13.7487350402     1.7369008905     1.6256244474
  106      C      13.8268803877     2.0394589469     3.6888396391
  107      H      13.0219829557     3.2410296614     2.1355038924
  108      H      14.7512003324     2.6311788015     3.7131347722
  109      H      14.0528101151     1.0052869281     3.9785998742
  110      H      13.1939277443     2.4172658897     4.5008081515
 ----------------------------------------------------------------
 Molecular Point Group                 C1    NOp =  1
 Largest Abelian Subgroup              C1    NOp =  1
 Nuclear Repulsion Energy = 12709.3906996667 hartrees
 There are      270 alpha and      270 beta electrons
 Requested basis set is 6-31G(d,p)
 There are 406 shells and 1262 basis functions

 Total QAlloc Memory Limit  20000 MB
 Mega-Array Size      4888 MB
 MEM_STATIC part      5000 MB
 A cutoff of  1.0D-08 yielded  15748 shell pairs
 There are    173412 function pairs
 
 -------------------------------------------------------
 OpenMP Integral Computing Module                       
 Release: version 1.0, May 2013, Q-Chem Inc. Pittsburgh 
 -------------------------------------------------------
 Integral Job Info:
 Integral job number is                      11
 Integral operator is                         1
 short-range coefficients                     0
 long-range coefficients              100000000
 Omega coefficients                           0
 if combine SR and LR in K                    0
 Integral screening is                        0
 Integral computing path is                   2
 max size of driver memory is            800000
 size of driver memory is                593474
 size of scratch memory is             15166112
 max col of scratch BK array               1296
 max len of scratch array in speh3          155
 max len of scratch index in speh4           18
 max int batch size is                      520
 min int batch size is                       52
 fixed nKL is                                52
 max L of basis functions is                  2
 order of int derivative is                   0
 number of shells is                        406
 number of basis is                        1262
 number of cartesian basis is              1262
 number of contracted shell pairs         15748
 number of primitive shell pairs          49004
 maxK2 (contraction) of shell pair           36
 max number of K2 of shell pair               1
 max number of CS2 of shell pair           1961
 max number of PS2 of shell pair          10176
 mem total for path MDJ                  414120
 -------------------------------------------------------
 Smallest overlap matrix eigenvalue = 4.13E-04

 Scale SEOQF with 1.000000e-02/1.000000e-02/1.000000e-01

 Standard Electronic Orientation quadrupole field applied
 Nucleus-field energy     =    -0.0000001698 hartrees
 Guess from superposition of atomic densities
 Warning:  Energy on first SCF cycle will be non-variational
 A restricted hybrid HF-DFT SCF calculation will be
 performed using Pulay DIIS extrapolation
 Exchange:     0.2000 Hartree-Fock + 0.0800 Slater + 0.7200 B88
 Correlation:  0.1900 VWN1RPA + 0.8100 LYP
 Using SG-1 standard quadrature grid
 SCF converges when DIIS error is below 1.0E-05
 using 16 threads for integral computing 
 -------------------------------------------------------
 OpenMP BLAS3 based DFT computing Module                
 Release: version 1.0, May 2013, Q-Chem Inc. Pittsburgh 
 -------------------------------------------------------
 ---------------------------------------
  Cycle       Energy         DIIS Error
 ---------------------------------------
    1   -5680.2028858374      2.15E-02
    2   -5662.4391112592      2.18E-03
    3   -5660.7317850534      3.56E-03
    4   -5663.2439226040      1.05E-03
    5   -5663.4297116340      4.62E-04
    6   -5663.4534733326      3.05E-04
    7   -5663.4715684061      7.92E-05
    8   -5663.4726710325      3.18E-05
    9   -5663.4728561266      1.33E-05
   10   -5663.4728898864      4.52E-06 Convergence criterion met
 ---------------------------------------
 SCF time:  CPU 1340.27 s  wall 124.88 s
 SCF   energy in the final basis set = -5663.4728898864
 Total energy in the final basis set = -5663.4728898864
 
 --------------------------------------------------------------
 
                    Orbital Energies (a.u.)
 --------------------------------------------------------------
 
 Alpha MOs
 -- Occupied --
-88.988 -88.977 -88.931 -88.924 -88.923 -88.910 -88.907 -88.903
-14.378 -14.377 -14.367 -14.364 -14.348 -14.342 -14.335 -14.334
-14.326 -14.325 -10.268 -10.262 -10.258 -10.257 -10.253 -10.247
-10.246 -10.246 -10.239 -10.239 -10.233 -10.233 -10.232 -10.232
-10.232 -10.231 -10.231 -10.231 -10.230 -10.230 -10.227 -10.224
-10.220 -10.220 -10.219 -10.218 -10.216 -10.216 -10.215 -10.214
-10.214 -10.213 -10.207 -10.205 -10.202 -10.200 -10.195 -10.188
-10.186 -10.184 -10.182 -10.181 -10.180 -10.179 -10.178 -10.176
-10.174 -10.172 -10.171 -10.168  -8.045  -8.032  -7.992  -7.984
 -7.982  -7.970  -7.965  -7.964  -6.010  -6.004  -6.003  -5.997
 -5.991  -5.989  -5.956  -5.953  -5.950  -5.948  -5.946  -5.945
 -5.943  -5.941  -5.939  -5.934  -5.931  -5.930  -5.929  -5.926
 -5.926  -5.925  -5.921  -5.921  -1.053  -1.017  -0.981  -0.969
 -0.944  -0.939  -0.936  -0.936  -0.911  -0.909  -0.903  -0.889
 -0.849  -0.835  -0.827  -0.823  -0.813  -0.810  -0.809  -0.801
 -0.799  -0.797  -0.796  -0.790  -0.788  -0.773  -0.769  -0.758
 -0.745  -0.744  -0.742  -0.735  -0.723  -0.712  -0.710  -0.705
 -0.690  -0.688  -0.670  -0.665  -0.654  -0.645  -0.642  -0.637
 -0.626  -0.625  -0.622  -0.620  -0.608  -0.608  -0.601  -0.599
 -0.591  -0.587  -0.586  -0.580  -0.576  -0.574  -0.567  -0.560
 -0.543  -0.541  -0.537  -0.533  -0.524  -0.516  -0.516  -0.508
 -0.507  -0.503  -0.501  -0.495  -0.483  -0.480  -0.478  -0.474
 -0.472  -0.470  -0.468  -0.465  -0.458  -0.447  -0.446  -0.442
 -0.442  -0.440  -0.438  -0.435  -0.433  -0.432  -0.428  -0.427
 -0.426  -0.421  -0.419  -0.419  -0.417  -0.417  -0.412  -0.411
 -0.410  -0.405  -0.403  -0.402  -0.400  -0.397  -0.396  -0.395
 -0.391  -0.391  -0.389  -0.387  -0.386  -0.384  -0.381  -0.378
 -0.376  -0.375  -0.373  -0.373  -0.365  -0.364  -0.360  -0.356
 -0.353  -0.351  -0.347  -0.343  -0.341  -0.340  -0.338  -0.336
 -0.333  -0.332  -0.325  -0.323  -0.323  -0.321  -0.318  -0.318
 -0.316  -0.313  -0.305  -0.303  -0.296  -0.294  -0.293  -0.292
 -0.291  -0.290  -0.287  -0.286  -0.285  -0.281  -0.278  -0.276
 -0.275  -0.272  -0.265  -0.261  -0.250  -0.250  -0.246  -0.241
 -0.240  -0.234  -0.224  -0.222  -0.190  -0.184
 -- Virtual --
 -0.108  -0.101  -0.068  -0.068  -0.039  -0.032  -0.025  -0.022
 -0.018  -0.016  -0.010  -0.007  -0.004   0.001   0.002   0.004
  0.006   0.011   0.020   0.025   0.029   0.037   0.039   0.051
  0.055   0.060   0.061   0.074   0.080   0.085   0.088   0.093
  0.096   0.097   0.102   0.102   0.105   0.110   0.111   0.114
  0.116   0.118   0.119   0.122   0.124   0.124   0.125   0.126
  0.129   0.132   0.134   0.136   0.138   0.140   0.142   0.144
  0.148   0.149   0.153   0.154   0.158   0.159   0.161   0.163
  0.166   0.167   0.172   0.174   0.177   0.180   0.182   0.183
  0.184   0.190   0.191   0.192   0.193   0.197   0.198   0.200
  0.201   0.203   0.208   0.209   0.211   0.215   0.215   0.218
  0.219   0.225   0.229   0.232   0.233   0.235   0.235   0.238
  0.245   0.247   0.251   0.252   0.254   0.254   0.259   0.260
  0.263   0.265   0.267   0.269   0.276   0.277   0.278   0.279
  0.288   0.289   0.292   0.297   0.297   0.299   0.301   0.303
  0.305   0.309   0.311   0.313   0.315   0.320   0.324   0.327
  0.332   0.335   0.339   0.340   0.345   0.347   0.350   0.353
  0.355   0.360   0.363   0.367   0.369   0.373   0.378   0.381
  0.382   0.384   0.390   0.394   0.396   0.399   0.402   0.407
  0.410   0.415   0.419   0.430   0.432   0.437   0.439   0.442
  0.446   0.449   0.457   0.460   0.462   0.465   0.467   0.476
  0.480   0.484   0.487   0.491   0.495   0.499   0.499   0.500
  0.502   0.504   0.506   0.507   0.510   0.514   0.519   0.521
  0.523   0.527   0.528   0.530   0.531   0.532   0.534   0.539
  0.539   0.542   0.545   0.546   0.547   0.548   0.552   0.553
  0.557   0.557   0.561   0.562   0.564   0.567   0.568   0.570
  0.576   0.578   0.580   0.582   0.583   0.585   0.587   0.590
  0.591   0.593   0.594   0.597   0.598   0.601   0.602   0.603
  0.608   0.611   0.612   0.616   0.618   0.619   0.623   0.624
  0.625   0.626   0.627   0.631   0.632   0.635   0.640   0.641
  0.641   0.651   0.651   0.653   0.656   0.658   0.661   0.661
  0.664   0.670   0.673   0.677   0.679   0.682   0.687   0.690
  0.693   0.698   0.701   0.704   0.705   0.709   0.710   0.719
  0.722   0.725   0.726   0.727   0.730   0.733   0.738   0.739
  0.743   0.745   0.747   0.747   0.752   0.754   0.756   0.758
  0.760   0.761   0.764   0.768   0.771   0.775   0.776   0.779
  0.784   0.789   0.791   0.793   0.796   0.797   0.799   0.799
  0.802   0.807   0.808   0.810   0.811   0.817   0.817   0.821
  0.822   0.825   0.827   0.830   0.831   0.832   0.833   0.835
  0.836   0.837   0.840   0.841   0.843   0.846   0.848   0.849
  0.853   0.855   0.856   0.860   0.861   0.863   0.865   0.867
  0.868   0.869   0.872   0.875   0.877   0.878   0.879   0.881
  0.885   0.886   0.888   0.890   0.891   0.895   0.898   0.900
  0.901   0.905   0.906   0.908   0.910   0.914   0.917   0.920
  0.921   0.925   0.926   0.928   0.928   0.930   0.932   0.933
  0.936   0.938   0.941   0.944   0.945   0.949   0.950   0.953
  0.954   0.956   0.957   0.959   0.963   0.966   0.968   0.970
  0.973   0.978   0.981   0.984   0.985   0.987   0.988   0.992
  0.993   0.997   1.002   1.005   1.007   1.007   1.008   1.011
  1.020   1.022   1.024   1.029   1.030   1.034   1.037   1.039
  1.043   1.048   1.049   1.050   1.052   1.058   1.062   1.065
  1.071   1.072   1.074   1.076   1.086   1.089   1.093   1.097
  1.101   1.107   1.109   1.117   1.119   1.122   1.126   1.131
  1.133   1.140   1.146   1.150   1.153   1.158   1.168   1.168
  1.173   1.176   1.181   1.188   1.190   1.195   1.200   1.206
  1.213   1.215   1.217   1.222   1.228   1.229   1.240   1.244
  1.250   1.253   1.256   1.264   1.264   1.270   1.273   1.281
  1.282   1.288   1.293   1.296   1.297   1.302   1.309   1.314
  1.321   1.323   1.326   1.334   1.336   1.340   1.344   1.347
  1.354   1.360   1.365   1.368   1.371   1.375   1.378   1.378
  1.382   1.388   1.394   1.396   1.400   1.402   1.407   1.408
  1.412   1.420   1.421   1.425   1.427   1.434   1.438   1.440
  1.446   1.447   1.453   1.463   1.469   1.471   1.477   1.486
  1.487   1.491   1.494   1.499   1.503   1.509   1.518   1.522
  1.524   1.532   1.536   1.546   1.550   1.553   1.559   1.561
  1.567   1.584   1.588   1.593   1.602   1.613   1.615   1.619
  1.631   1.637   1.641   1.646   1.648   1.654   1.660   1.663
  1.675   1.676   1.679   1.685   1.686   1.690   1.696   1.700
  1.703   1.706   1.709   1.714   1.715   1.719   1.722   1.728
  1.729   1.734   1.739   1.740   1.747   1.750   1.752   1.756
  1.762   1.766   1.767   1.778   1.782   1.785   1.788   1.790
  1.791   1.796   1.801   1.809   1.810   1.812   1.816   1.819
  1.825   1.829   1.835   1.841   1.845   1.846   1.849   1.853
  1.857   1.861   1.863   1.866   1.869   1.872   1.873   1.877
  1.878   1.885   1.888   1.890   1.894   1.896   1.902   1.907
  1.909   1.910   1.913   1.918   1.924   1.928   1.931   1.937
  1.939   1.940   1.949   1.952   1.954   1.959   1.964   1.966
  1.970   1.974   1.979   1.985   1.988   1.988   1.992   2.005
  2.006   2.012   2.020   2.024   2.027   2.029   2.034   2.036
  2.036   2.039   2.043   2.050   2.053   2.056   2.061   2.062
  2.072   2.077   2.079   2.083   2.087   2.092   2.095   2.096
  2.106   2.108   2.111   2.113   2.126   2.130   2.132   2.136
  2.139   2.140   2.147   2.152   2.153   2.158   2.162   2.164
  2.167   2.169   2.176   2.183   2.185   2.193   2.198   2.201
  2.205   2.205   2.208   2.213   2.218   2.227   2.227   2.232
  2.233   2.238   2.244   2.249   2.253   2.255   2.258   2.266
  2.267   2.270   2.275   2.277   2.278   2.281   2.288   2.290
  2.296   2.300   2.302   2.304   2.306   2.311   2.313   2.315
  2.318   2.323   2.327   2.329   2.335   2.337   2.340   2.341
  2.344   2.350   2.352   2.358   2.366   2.369   2.371   2.374
  2.376   2.379   2.382   2.383   2.389   2.390   2.397   2.401
  2.405   2.406   2.413   2.416   2.417   2.419   2.421   2.425
  2.429   2.434   2.435   2.440   2.441   2.449   2.450   2.453
  2.457   2.458   2.460   2.466   2.472   2.475   2.477   2.479
  2.482   2.486   2.489   2.496   2.500   2.501   2.506   2.509
  2.513   2.514   2.522   2.526   2.527   2.533   2.537   2.540
  2.548   2.548   2.554   2.555   2.558   2.562   2.567   2.569
  2.572   2.578   2.583   2.586   2.593   2.596   2.600   2.601
  2.606   2.608   2.621   2.631   2.636   2.638   2.642   2.646
  2.650   2.652   2.656   2.657   2.664   2.668   2.669   2.675
  2.676   2.685   2.688   2.692   2.694   2.698   2.699   2.708
  2.711   2.715   2.720   2.725   2.737   2.740   2.745   2.755
  2.761   2.763   2.767   2.771   2.772   2.781   2.784   2.793
  2.798   2.804   2.812   2.819   2.826   2.830   2.830   2.836
  2.845   2.847   2.852   2.860   2.863   2.868   2.870   2.872
  2.876   2.884   2.886   2.894   2.900   2.901   2.906   2.918
  2.923   2.926   2.930   2.933   2.935   2.945   2.947   2.954
  2.957   2.962   2.971   2.977   3.002   3.015   3.025   3.035
  3.041   3.045   3.065   3.073   3.090   3.093   3.118   3.119
  3.156   3.182   3.186   3.191   3.193   3.208   3.227   3.241
  3.247   3.251   3.254   3.257   3.263   3.267   3.268   3.279
  3.287   3.290   3.303   3.305   3.307   3.319   3.321   3.329
  3.330   3.349   3.349   3.374   3.379   3.395   3.414   3.426
  3.447   3.455   3.464   3.473   3.480   3.485   3.525   3.534
  3.539   3.551   3.570   3.573   3.579   3.599   3.602   3.605
  3.619   3.638   3.725   3.740   3.886   3.893   3.917   3.934
  3.941   3.953   3.956   3.965   3.989   3.999   4.007   4.022
  4.034   4.054   4.078   4.103   4.112   4.126   4.129   4.136
  4.147   4.157   4.170   4.179   4.185   4.207   4.208   4.229
  4.239   4.249   4.253   4.259   4.266   4.279   4.291   4.302
  4.312   4.325   4.338   4.355   4.377   4.395   4.404   4.410
  4.433   4.445   4.458   4.471   4.475   4.498   4.512   4.519
  4.529   4.530   4.553   4.561   4.583   4.602   4.663   4.676
  4.691   4.703   4.727   4.736   4.748   4.787   4.797   4.809
 --------------------------------------------------------------
 
          Ground-State Mulliken Net Atomic Charges

     Atom                 Charge (a.u.)
  ----------------------------------------
      1 C                     0.260573
      2 C                    -0.113004
      3 N                    -0.464680
      4 C                    -0.085624
      5 C                     0.089433
      6 C                     0.020935
      7 C                     0.059445
      8 C                     0.048058
      9 C                     0.227481
     10 N                    -0.500134
     11 N                    -0.588815
     12 C                     0.249378
     13 C                     0.270426
     14 S                     0.615135
     15 N                    -0.566666
     16 C                    -0.231651
     17 S                     0.291791
     18 C                    -0.120188
     19 C                    -0.231765
     20 S                     0.319159
     21 C                     0.165306
     22 C                     0.063960
     23 C                    -0.323992
     24 C                    -0.062562
     25 N                    -0.412904
     26 S                     0.280448
     27 C                     0.130166
     28 C                    -0.301074
     29 C                    -0.219607
     30 H                     0.097026
     31 H                     0.104296
     32 H                     0.116663
     33 H                     0.100720
     34 H                     0.130535
     35 H                     0.116868
     36 H                     0.115564
     37 H                     0.127993
     38 H                     0.092078
     39 C                    -0.182242
     40 H                     0.118103
     41 H                     0.094634
     42 H                     0.089735
     43 C                    -0.175411
     44 H                     0.087617
     45 C                    -0.183129
     46 H                     0.111832
     47 H                     0.089207
     48 H                     0.086880
     49 C                    -0.183332
     50 H                     0.090881
     51 C                    -0.321779
     52 H                     0.091796
     53 H                     0.107675
     54 H                     0.105855
     55 H                     0.102829
     56 C                     0.264393
     57 C                    -0.120587
     58 N                    -0.483687
     59 C                    -0.057146
     60 C                     0.111834
     61 C                     0.021030
     62 C                     0.028950
     63 C                     0.054151
     64 C                     0.241805
     65 N                    -0.491110
     66 N                    -0.556940
     67 C                     0.183610
     68 C                     0.254467
     69 S                     0.612710
     70 N                    -0.521912
     71 C                    -0.220081
     72 S                     0.299205
     73 C                    -0.044815
     74 C                    -0.191253
     75 S                     0.289439
     76 C                     0.071200
     77 C                     0.043414
     78 C                    -0.301343
     79 C                    -0.081862
     80 N                    -0.405082
     81 S                     0.273285
     82 C                     0.118691
     83 C                    -0.320209
     84 C                    -0.223601
     85 H                     0.091121
     86 H                     0.106098
     87 H                     0.115284
     88 H                     0.110142
     89 H                     0.119212
     90 H                     0.119525
     91 H                     0.118983
     92 H                     0.131323
     93 H                     0.091671
     94 C                    -0.188061
     95 H                     0.119085
     96 H                     0.094139
     97 H                     0.110866
     98 C                    -0.176983
     99 H                     0.090273
    100 C                    -0.169669
    101 H                     0.097141
    102 H                     0.093810
    103 H                     0.093487
    104 C                    -0.171252
    105 H                     0.089895
    106 C                    -0.316819
    107 H                     0.089320
    108 H                     0.095854
    109 H                     0.098473
    110 H                     0.096602
  ----------------------------------------
  Sum of atomic charges =     0.000000

 -----------------------------------------------------------------
                    Cartesian Multipole Moments
 -----------------------------------------------------------------
    Charge (ESU x 10^10)
                 0.0000
    Dipole Moment (Debye)
         X       2.1106      Y       0.9068      Z      -1.5519
       Tot       2.7722
    Quadrupole Moments (Debye-Ang)
        XX    -393.7185     XY      -5.4467     YY    -427.5734
        XZ      -3.5838     YZ      -0.1737     ZZ    -444.0052
    Octopole Moments (Debye-Ang^2)
       XXX     173.6260    XXY     -54.9210    XYY     -51.1828
       YYY     -62.5234    XXZ    -101.0557    XYZ      46.2413
       YYZ     -39.6798    XZZ      33.8019    YZZ      23.4496
       ZZZ     -12.3141
    Hexadecapole Moments (Debye-Ang^3)
      XXXX  -88456.5594   XXXY    -126.5298   XXYY  -16972.9864
      XYYY     609.8568   YYYY  -15389.7181   XXXZ    -524.3355
      XXYZ    -745.5020   XYYZ    -166.3634   YYYZ     -91.3246
      XXZZ  -17133.0082   XYZZ      49.9640   YYZZ   -4533.3815
      XZZZ      -6.7079   YZZZ     113.4359   ZZZZ  -12436.7652
 -----------------------------------------------------------------
Archival summary:
1\1\mn426\SP\ProcedureUnspecified\6-31G**\8105042\afmv_a\SatOct610:17:112018SatOct610:17:112018\0\\#,ProcedureUnspecified,6-31G**,\\0,1\S\C,1,1.76178\C,2,1.37555,1,109.644\C,3,1.40046,2,115.148,1,-5.52471,0\C,3,1.41859,2,134.49,1,176.596,0\H,5,1.0835,3,120.34,2,-8.37723,0\C,5,1.3743,3,113.643,2,177.224,0\H,7,1.08255,5,126.55,3,175.53,0\C,4,1.4251,3,113.115,2,-4.07357,0\C,9,1.45431,4,126.384,3,-164.532,0\N,10,1.38484,9,113.907,4,157.847,0\C,11,1.35133,10,120.12,9,-176.216,0\H,12,1.08919,11,118.944,10,-178.221,0\C,10,1.41911,9,127.562,4,-30.0008,0\N,14,1.37281,10,129.181,9,-3.55215,0\C,12,1.43713,11,126.833,10,2.43082,0\C,16,1.42819,12,111.33,11,-11.6306,0\N,17,1.32276,16,123.864,12,-171.115,0\C,16,1.46846,12,120.682,11,175.773,0\C,19,1.39825,16,120.889,12,-49.8293,0\H,20,1.08678,19,117.525,16,3.06327,0\C,20,1.42598,19,119.655,16,-178.822,0\H,22,1.08616,20,125.027,19,-177.429,0\C,22,1.41116,20,116.816,19,-1.40102,0\N,24,1.36267,22,124.578,20,-0.140796,0\C,25,1.3226,24,117.104,22,7.77853,0\H,26,1.0887,25,112.56,24,176.065,0\C,2,1.47212,1,122.16,3,177.687,0\N,28,1.29307,2,117.468,1,-161.55,0\C,29,1.34328,28,113.087,2,179.22,0\H,30,1.0817,29,117.018,28,176.241,0\C,30,1.42547,29,110.424,28,9.02493,0\H,32,1.08198,30,123.301,29,167.662,0\C,24,1.53424,22,123.389,20,177.631,0\H,34,1.09666,24,119.196,22,-156.105,0\H,34,1.09683,24,104.341,22,-36.3028,0\C,34,1.56476,24,109.239,22,79.4459,0\H,37,1.09731,34,110.271,24,-159.792,0\H,37,1.09761,34,111.294,24,-47.2502,0\C,37,1.5059,34,111.258,24,70.7246,0\H,40,1.09671,37,108.505,34,70.6983,0\H,40,1.09804,37,119.293,34,-38.9185,0\C,40,1.57176,37,116.154,34,-164.155,0\H,43,1.09671,40,106.515,37,176.084,0\H,43,1.09775,40,111.19,37,61.4518,0\C,43,1.59701,40,117.292,37,-58.3294,0\H,46,1.09655,43,111.278,40,65.09,0\H,46,1.09666,43,108.692,40,-42.6852,0\C,46,1.57135,43,111.985,40,-170.781,0\H,49,1.09662,46,113.821,43,-81.7583,0\H,49,1.09691,46,106.807,43,39.9763,0\H,49,1.09782,46,108.825,43,154.671,0\S,15,1.63226,14,108.184,10,176.247,0\S,28,1.69679,2,124.261,1,23.0001,0\S,7,1.71427,5,111.349,3,7.68018,0\H,27,2.48467,26,131.999,25,97.8326,0\C,56,1.08366,27,109.901,26,74.6421,0\C,57,1.36896,56,118.934,27,-74.6097,0\H,58,1.08107,57,119.692,56,2.50442,0\C,57,1.42921,56,132.137,27,100.963,0\C,60,1.3778,57,127.119,56,3.28507,0\C,60,1.44309,57,110.038,56,174.386,0\C,62,1.31592,60,107.973,57,177.137,0\C,61,1.47757,60,131.599,57,-11.9431,0\N,64,1.31058,61,117.83,60,166.434,0\C,65,1.34917,64,112.548,61,175.896,0\H,66,1.082,65,115.197,64,179.177,0\C,66,1.41786,65,112.621,64,-6.20006,0\H,68,1.08189,66,133.001,65,173.38,0\C,63,1.51026,62,125.517,60,-176.652,0\N,70,1.35798,63,115.413,62,145.658,0\C,71,1.37835,70,116.585,63,-171.332,0\H,72,1.08941,71,117.966,70,-170.004,0\C,70,1.4115,63,122.963,62,-30.2353,0\N,74,1.37241,70,126.787,63,-22.2599,0\C,74,1.3754,70,120.846,63,172.809,0\N,76,1.30555,74,114.691,70,168.105,0\C,72,1.4151,71,125.217,70,2.77264,0\C,78,1.48075,72,118.521,71,-176.104,0\C,79,1.43018,78,117.017,72,-149.856,0\H,80,1.08929,79,119.251,78,4.04578,0\N,80,1.30225,79,121.653,78,-170.003,0\C,82,1.38966,80,119.173,79,1.71145,0\C,83,1.41681,82,122.359,80,-5.0806,0\H,84,1.08694,83,119.131,82,-175.121,0\C,84,1.38184,83,119.612,82,2.08891,0\H,86,1.08606,84,118.436,83,-175.922,0\C,83,1.48226,82,111.851,80,176.321,0\H,88,1.09726,83,109.94,82,145.469,0\H,88,1.09767,83,113.483,82,20.6013,0\C,88,1.53754,83,112.243,82,-98.1459,0\H,91,1.09719,88,115.466,83,-55.2065,0\H,91,1.09752,88,105.587,83,58.7474,0\C,91,1.55835,88,114.056,83,174.061,0\H,94,1.09725,91,110.535,88,41.4494,0\H,94,1.09741,91,112.627,88,-76.8857,0\C,94,1.54066,91,108.856,88,158.216,0\H,97,1.09665,94,117.219,91,53.9954,0\H,97,1.09669,94,108.989,91,-69.0052,0\C,97,1.50602,94,110.442,91,178.627,0\H,100,1.09673,97,110.966,94,64.7373,0\H,100,1.09725,97,112.305,94,-53.0901,0\C,100,1.48698,97,111.481,94,-176.404,0\H,103,1.09666,100,109.35,97,55.4399,0\H,103,1.0975,100,114.677,97,-61.3403,0\H,103,1.09777,100,112.179,97,173.35,0\S,75,1.57497,74,107.486,70,-161.715,0\S,62,1.698,60,116.694,57,2.95472,0\S,64,1.76163,61,126.231,60,-8.65973,0\S,61,1.78107,60,103.786,57,-177.807,0\\\@

 Total job time:  128.77s(wall), 1352.02s(cpu) 
 Sat Oct  6 10:17:11 2018

        *************************************************************
        *                                                           *
        *  Thank you very much for using Q-Chem.  Have a nice day.  *
        *                                                           *
        *************************************************************


