
Running Job 1 of 1 C271_1/C271_180.qcin
qchem C271_1/C271_180.qcin_18519.0 /tmpu/cab_g/afmv_a/scratch_qchem/qchem18519/ 1
/tmpu/appuserlic/qchem4.4/parallel-MPICH/bin/mpi/mpirun_qchem -machinefile /tmpu/appuserlic/qchem4.4/parallel-MPICH/bin/mpi/machines -np 1 /tmpu/appuserlic/qchem4.4/parallel-MPICH/exe/qcprog.exe C271_1/C271_180.qcin_18519.0 /tmpu/cab_g/afmv_a/scratch_qchem/qchem18519/

Process 0 of 1 is on mn169 - thread support 0
initial socket setup ...start
initial socket setup ...done 
now start server 0 ... 
Check license passed

                  Welcome to Q-Chem
     A Quantum Leap Into The Future Of Chemistry


 Q-Chem 4.4, Q-Chem, Inc., Pleasanton, CA (2016)

 Y. Shao,  Z. Gan,  E. Epifanovsky,  A. T. B. Gilbert,  M. Wormit,  
 J. Kussmann,  A. W. Lange,  A. Behn,  J. Deng,  X. Feng,  D. Ghosh,  
 M. Goldey,  P. R. Horn,  L. D. Jacobson,  I. Kaliman,  F. Rob,  
 R. Z. Khaliullin,  T. Kus,  A. Landau,  J. Liu,  E. I. Proynov,  Y. M. Rhee,  
 R. M. Richard,  M. A. Rohrdanz,  R. P. Steele,  E. J. Sundstrom,  
 H. L. Woodcock III,  P. M. Zimmerman,  D. Zuev,  B. Albrecht,  E. Alguire,  
 B. Austin,  S. A. Baeppler,  G. J. O. Beran,  Y. A. Bernard,  E. Berquist,  
 K. Brandhorst,  K. B. Bravaya,  S. T. Brown,  D. Casanova,  C.-M. Chang,  
 Y. Chen,  S. H. Chien,  K. D. Closser,  M. P. Coons,  D. L. Crittenden,  
 S. Dasgupta,  M. Diedenhofen,  R. A. DiStasio Jr.,  H. Do,  A. D. Dutoi,  
 R. G. Edgar,  P.-T. Fang,  S. Fatehi,  Q. Feng,  L. Fusti-Molnar,  
 A. Ghysels,  A. Golubeva-Zadorozhnaya,  J. Gomes,  A. Gunina,  
 M. W. D. Hanson-Heine,  P. H. P. Harbach,  A. W. Hauser,  J. E. Herr,  
 E. G. Hohenstein,  Z. C. Holden,  K. Hui,  T.-C. Jagau,  H. Ji,  B. Kaduk,  
 K. Khistyaev,  Jaehoon Kim,  Jihan Kim,  R. A. King,  P. Klunzinger,  
 K. Koh,  D. Kosenkov,  T. Kowalczyk,  C. M. Krauter,  A. Kunitsa,  
 K. U. Lao,  A. Laurent,  K. V. Lawler,  J. Lee,  D. Lefrancois,  S. Lehtola,  
 S. V. Levchenko,  C. Y. Lin,  Y.-S. Lin,  F. Liu,  E. Livshits,  
 R. C. Lochan,  A. Luenser,  P. Manohar,  S. F. Manzer,  S.-P. Mao,  Y. Mao,  
 N. Mardirossian,  A. V. Marenich,  L. A. Martinez-Martinez,  S. A. Maurer,  
 N. J. Mayhall,  J.-M. Mewes,  A. F. Morrison,  K. Nanda,  T. S. Nguyen-Beck,  
 C. M. Oana,  R. Olivares-Amaya,  D. P. O'Neill,  J. A. Parkhill,  
 T. M. Perrine,  R. Peverati,  P. A. Pieniazek,  F. Plasser,  A. Prociuk,  
 D. R. Rehn,  E. Rosta,  N. J. Russ,  N. Sergueev,  S. M. Sharada,  
 S. Sharma,  D. W. Small,  A. Sodt,  T. Stauch,  T. Stein,  D. Stuck,  
 Y.-C. Su,  A. J. W. Thom,  T. Tsuchimochi,  L. Vogt,  O. Vydrov,  T. Wang,  
 M. A. Watson,  J. Wenzel,  A. White,  C. F. Williams,  V. Vanovschi,  
 K. Yao,  S. Yeganeh,  S. R. Yost,  Z.-Q. You,  I. Y. Zhang,  X. Zhang,  
 Y. Zhao,  B. R. Brooks,  G. K. L. Chan,  D. M. Chipman,  C. J. Cramer,  
 W. A. Goddard III,  M. S. Gordon,  W. J. Hehre,  A. Klamt,  
 H. F. Schaefer III,  M. W. Schmidt,  C. D. Sherrill,  D. G. Truhlar,  
 A. Warshel,  X. Xu,  A. Aspuru-Guzik,  R. Baer,  A. T. Bell,  N. A. Besley,  
 J.-D. Chai,  A. Dreuw,  B. D. Dunietz,  T. R. Furlani,  S. R. Gwaltney,  
 C.-P. Hsu,  Y. Jung,  J. Kong,  D. S. Lambrecht,  W. Liang,  C. Ochsenfeld,  
 V. A. Rassolov,  L. V. Slipchenko,  J. E. Subotnik,  T. Van Voorhis,  
 J. M. Herbert,  A. I. Krylov,  P. M. W. Gill,  M. Head-Gordon

 Contributors to earlier versions of Q-Chem not listed above: 
 R. D. Adamson,  J. Baker,  E. F. C. Byrd,  A. K. Chakraborty,  C.-L. Cheng,  
 H. Dachsel,  R. J. Doerksen,  G. Hawkins,  A. Heyden,  S. Hirata,  
 G. Kedziora,  F. J. Keil,  C. Kelley,  P. P. Korambath,  W. Kurlancheek,  
 A. M. Lee,  M. S. Lee,  D. Liotard,  I. Lotan,  P. E. Maslen,  N. Nair,  
 D. Neuhauser,  R. Olson,  B. Peters,  J. Ritchie,  N. E. Schultz,  
 N. Shenvi,  A. C. Simmonett,  K. S. Thanthiriwatte,  Q. Wu,  W. Zhang

 Please cite Q-Chem as follows:
 Y. Shao et al., Mol. Phys. 113, 184-215 (2015)
 DOI: 10.1080/00268976.2014.952696

 Q-Chem 4.4.2 for Intel X86 Linux

 Parts of Q-Chem use Armadillo 5.200.1 (Boston Tea Smuggler).
 http://arma.sourceforge.net/

 Q-Chem begins on Sat Jun  3 02:25:45 2017  

Host: 
0

     Scratch files written to /tmpu/cab_g/afmv_a/scratch_qchem/qchem18519//
 Dec716 11556_ 22328  22283 4050   
 Parallel job on  1  processors
Processing $rem in /tmpu/appuserlic/qchem4.4/parallel-MPICH/config/preferences.
 MEM_TOTAL  2000 
FILE_GEOM_ORG=        593

Checking the input file for inconsistencies... 	...done.

--------------------------------------------------------------
User input:
--------------------------------------------------------------
$comment
OPTIMIZATION
$end

$rem
JOBTYPE OPT
EXCHANGE omegaB97X-D
BASIS cc-pVTZ
$end

$molecule
0 1
C          0.00000        0.00000        0.00000
C          1.38508        0.00000        0.00000
N         -0.72771       -1.11322        0.00000
C          2.04720       -1.21160       -0.00386
C         -0.08136       -2.27149       -0.00595
C          1.30925       -2.38901       -0.00649
C          1.96927       -3.70493        0.02329
C          1.25546       -4.87157        0.02106
C          3.38466       -3.86983        0.06160
N          1.76934       -6.12526        0.06193
N          4.31651       -2.91495        0.08058
C          3.93919       -5.18531        0.10823
C          3.06506       -6.32048        0.10457
S          5.74115       -3.66278        0.14328
N          5.26821       -5.20141        0.15664
C          3.51327       -7.69275        0.14508
S          5.16097       -8.21647        0.22622
C          2.68709       -8.79291        0.12805
C          4.72941       -9.88243        0.23686
S          0.96930       -8.99245        0.05994
C          3.36027      -10.03979        0.18030
C          5.72491      -10.93128        0.30804
C          1.17282      -10.73098        0.10143
C          2.44875      -11.15153        0.16196
N          5.42641      -12.19847        0.33176
S          7.43607      -10.60956        0.37151
C          6.54993      -12.96669        0.40730
C          7.72822      -12.29769        0.43930
H         -0.55134        0.93273        0.00000
H          1.92494        0.93597       -0.01293
H          3.12873       -1.25416       -0.02668
H         -0.69553       -3.16348       -0.00579
H          0.17432       -4.83735       -0.02461
H          0.29353      -11.35606        0.08334
H          2.76993      -12.17856        0.19957
H          6.45978      -14.04180        0.43800
H          8.72590      -12.69588        0.49860
$end

$opt
CONSTRAINT
tors 4 6 7 8 180.00000
tors 10 13 16 17 -179.11427
tors 17 19 22 25 179.21698
ENDCONSTRAINT
$end
--------------------------------------------------------------
 ----------------------------------------------------------------
             Standard Nuclear Orientation (Angstroms)
    I     Atom           X                Y                Z
 ----------------------------------------------------------------
    1      C       7.5992363609    -0.5400409350    -0.0817231555
    2      C       7.0491001170     0.7301684455    -0.0330934408
    3      N       6.8671180347    -1.6503374083    -0.0897922404
    4      C       5.6748245461     0.8551928021     0.0130359374
    5      C       5.5480849544    -1.5186100051    -0.0429655142
    6      C       4.8879666129    -0.2901032520     0.0082433409
    7      C       3.4178781364    -0.2076389669     0.0223219868
    8      C       2.6313000622    -1.3265013967     0.0178081157
    9      C       2.7033536865     1.0257495702     0.0363235999
   10      N       1.2760254315    -1.3530084320     0.0146968584
   11      N       3.2086066081     2.2607469050     0.0350803865
   12      C       1.2750900765     1.0120852445     0.0298540839
   13      C       0.5810970440    -0.2413167131     0.0206462064
   14      S       1.9549951544     3.2713099442     0.0341883959
   15      N       0.7310782407     2.2257350662     0.0283941825
   16      C      -0.8568573890    -0.3752385431     0.0174510584
   17      S      -1.9940127320     0.9295350681     0.0024451406
   18      C      -1.5374016091    -1.5710842948     0.0227370453
   19      C      -3.3510877652    -0.1288255405     0.0028211803
   20      S      -1.0362227010    -3.2275742449     0.0336189146
   21      C      -2.9500242304    -1.4484976050     0.0137402446
   22      C      -4.7106161492     0.3686354301    -0.0168846714
   23      C      -2.7129870762    -3.7315984540     0.0266047818
   24      C      -3.6072576395    -2.7272473252     0.0175208397
   25      N      -5.7551207137    -0.4086943303    -0.0311690327
   26      S      -5.0969544829     2.0675388803    -0.0252813091
   27      C      -6.9081991136     0.3179423572    -0.0551435711
   28      C      -6.7634358418     1.6655308265    -0.0562556284
   29      H       8.6738138714    -0.6745324456    -0.1157269224
   30      H       7.6936056749     1.5973324241    -0.0159159694
   31      H       5.2068616849     1.8295000904     0.0744795319
   32      H       4.9737994828    -2.4367535815    -0.0506820400
   33      H       3.0934008221    -2.3055480552     0.0249484984
   34      H      -2.9366162232    -4.7871477355     0.0236252620
   35      H      -4.6779868045    -2.8403719424     0.0073423570
   36      H      -7.8594609041    -0.1917088760    -0.0721038442
   37      H      -7.5266433274     2.4235732880    -0.0742308618
 ----------------------------------------------------------------
 Molecular Point Group                 C1    NOp =  1
 Largest Abelian Subgroup              C1    NOp =  1
 Nuclear Repulsion Energy =  2968.9884814217 hartrees
 There are      111 alpha and      111 beta electrons
 Requested basis set is cc-pVTZ
 There are 342 shells and 982 basis functions

 Total QAlloc Memory Limit   2000 MB
 Mega-Array Size        61 MB
 MEM_STATIC part        62 MB
 A cutoff of  1.0D-11 yielded  29223 shell pairs
 There are    231639 function pairs (    302607 Cartesian)
 
 -------------------------------------------------------
 OpenMP Integral Computing Module                       
 Release: version 1.0, May 2013, Q-Chem Inc. Pittsburgh 
 -------------------------------------------------------
 Integral Job Info:
 Integral job number is                      11
 Integral operator is                         1
 short-range coefficients              22203600
 long-range coefficients              100000000
 Omega coefficients                         200
 if combine SR and LR in K                    1
 Integral screening is                        0
 Integral computing path is                   2
 max size of driver memory is            800000
 size of driver memory is                776718
 size of scratch memory is             26248924
 max col of scratch BK array              10000
 max len of scratch array in speh3          662
 max len of scratch index in speh4           32
 max int batch size is                      520
 min int batch size is                       52
 fixed nKL is                                52
 max L of basis functions is                  3
 order of int derivative is                   0
 number of shells is                        342
 number of basis is                        1131
 number of cartesian basis is              1131
 number of contracted shell pairs         29223
 number of primitive shell pairs          92631
 maxK2 (contraction) of shell pair          121
 max number of K2 of shell pair               1
 max number of CS2 of shell pair           3951
 max number of PS2 of shell pair          11711
 mem total for path MDJ                  805980
 -------------------------------------------------------
 Smallest overlap matrix eigenvalue = 1.89E-05

 Scale SEOQF with 1.000000e-02/1.000000e-01/1.000000e+00

 Standard Electronic Orientation quadrupole field applied
 Nucleus-field energy     =     0.0000000705 hartrees
 Guess from superposition of atomic densities
 Warning:  Energy on first SCF cycle will be non-variational
 Long-range K will be added via erf
 Coulomb attenuation parameter = 0.2 bohr**(-1)
 A restricted hybrid HF-DFT SCF calculation will be
 performed using Pulay DIIS extrapolation
 Exchange:     0.2220 Hartree-Fock + 1.0000 wB97X-D + LR-HF
 Correlation:  1.0000 wB97X-D
 Using SG-2 standard quadrature grid
 Dispersion:   Grimme D
 SCF converges when DIIS error is below 1.0E-08
 using 16 threads for integral computing 
 using 16 threads for integral computing 
 K construction time:  CPU 72.42 s  wall 4.72 s
 -------------------------------------------------------
 OpenMP BLAS3 based DFT computing Module                
 Release: version 1.0, May 2013, Q-Chem Inc. Pittsburgh 
 -------------------------------------------------------
 ---------------------------------------
  Cycle       Energy         DIIS Error
 ---------------------------------------
    1   -2605.9070835868      1.87E-02
 K construction time:  CPU 1107.05 s  wall 72.22 s
    2   -2595.6548081441      1.38E-03
 K construction time:  CPU 1058.28 s  wall 69.12 s
    3   -2595.6526035048      1.50E-03
 K construction time:  CPU 1010.18 s  wall 65.91 s
    4   -2595.8937696088      2.54E-04
 K construction time:  CPU 933.84 s  wall 60.93 s
    5   -2595.9000297181      1.34E-04
 K construction time:  CPU 886.52 s  wall 57.77 s
    6   -2595.9020400317      4.08E-05
 K construction time:  CPU 832.09 s  wall 54.25 s
    7   -2595.9022315826      1.93E-05
 K construction time:  CPU 784.38 s  wall 51.10 s
    8   -2595.9022852577      6.70E-06
 K construction time:  CPU 755.11 s  wall 49.11 s
    9   -2595.9022979888      3.51E-06
 K construction time:  CPU 721.81 s  wall 46.98 s
   10   -2595.9023018096      1.05E-06
 K construction time:  CPU 649.58 s  wall 42.21 s
   11   -2595.9023022124      7.26E-07
 K construction time:  CPU 603.21 s  wall 39.12 s
   12   -2595.9023023342      2.20E-07
 K construction time:  CPU 542.85 s  wall 35.23 s
   13   -2595.9023023487      9.30E-08
 K construction time:  CPU 481.03 s  wall 31.13 s
   14   -2595.9023023505      3.30E-08
 K construction time:  CPU 406.10 s  wall 26.38 s
   15   -2595.9023023503      1.48E-08
 K construction time:  CPU 1106.93 s  wall 72.16 s
   16   -2595.9023023473      6.05E-09 Convergence criterion met
 ---------------------------------------
 SCF time:  CPU 15861.68 s  wall 1056.37 s
 SCF   energy in the final basis set = -2595.9023023473
 Total energy in the final basis set = -2595.9023023473
 
 --------------------------------------------------------------
 
                    Orbital Energies (a.u.)
 --------------------------------------------------------------
 
 Alpha MOs
 -- Occupied --
-89.159 -89.095 -89.094 -89.075 -14.499 -14.492 -14.453 -14.446
-14.435 -10.375 -10.371 -10.366 -10.363 -10.347 -10.342 -10.341
-10.335 -10.329 -10.328 -10.328 -10.327 -10.323 -10.322 -10.317
-10.314 -10.302 -10.298 -10.296  -8.169  -8.110  -8.109  -8.090
 -6.119  -6.114  -6.113  -6.059  -6.058  -6.055  -6.054  -6.053
 -6.052  -6.039  -6.035  -6.032  -1.157  -1.084  -1.074  -1.053
 -1.026  -1.019  -0.957  -0.946  -0.913  -0.911  -0.905  -0.887
 -0.860  -0.845  -0.830  -0.808  -0.777  -0.758  -0.745  -0.726
 -0.722  -0.696  -0.690  -0.680  -0.650  -0.640  -0.624  -0.621
 -0.610  -0.597  -0.582  -0.580  -0.569  -0.562  -0.546  -0.537
 -0.527  -0.524  -0.517  -0.516  -0.511  -0.507  -0.495  -0.491
 -0.489  -0.486  -0.476  -0.458  -0.457  -0.454  -0.439  -0.434
 -0.432  -0.424  -0.402  -0.401  -0.385  -0.373  -0.371  -0.370
 -0.362  -0.361  -0.341  -0.337  -0.326  -0.316  -0.267
 -- Virtual --
 -0.062  -0.012   0.024   0.034   0.049   0.056   0.063   0.070
  0.073   0.102   0.107   0.116   0.120   0.129   0.131   0.132
  0.140   0.146   0.151   0.167   0.169   0.170   0.176   0.189
  0.198   0.199   0.204   0.214   0.226   0.229   0.240   0.247
  0.254   0.261   0.263   0.268   0.275   0.288   0.289   0.292
  0.295   0.303   0.304   0.312   0.316   0.318   0.320   0.326
  0.333   0.334   0.340   0.343   0.344   0.352   0.354   0.361
  0.363   0.368   0.369   0.377   0.378   0.382   0.383   0.390
  0.392   0.394   0.400   0.401   0.403   0.407   0.408   0.409
  0.415   0.429   0.431   0.433   0.434   0.437   0.441   0.450
  0.450   0.454   0.458   0.458   0.462   0.464   0.466   0.468
  0.471   0.475   0.478   0.485   0.485   0.486   0.493   0.495
  0.496   0.501   0.503   0.508   0.516   0.517   0.522   0.524
  0.527   0.530   0.534   0.540   0.544   0.547   0.553   0.557
  0.568   0.576   0.578   0.584   0.589   0.591   0.598   0.602
  0.609   0.620   0.631   0.637   0.646   0.650   0.653   0.655
  0.659   0.664   0.667   0.670   0.674   0.680   0.686   0.690
  0.692   0.699   0.706   0.708   0.717   0.721   0.723   0.733
  0.737   0.744   0.747   0.751   0.760   0.761   0.769   0.770
  0.772   0.776   0.778   0.781   0.790   0.798   0.804   0.809
  0.810   0.814   0.817   0.819   0.823   0.825   0.830   0.835
  0.838   0.839   0.849   0.852   0.858   0.861   0.867   0.874
  0.877   0.884   0.888   0.897   0.903   0.905   0.915   0.919
  0.921   0.926   0.932   0.941   0.945   0.949   0.957   0.958
  0.970   0.972   0.973   0.977   0.982   0.985   0.992   0.995
  1.000   1.002   1.013   1.023   1.028   1.029   1.035   1.041
  1.048   1.050   1.063   1.065   1.069   1.070   1.079   1.083
  1.088   1.090   1.095   1.103   1.113   1.116   1.129   1.133
  1.133   1.138   1.143   1.153   1.163   1.166   1.174   1.176
  1.182   1.191   1.197   1.205   1.209   1.215   1.222   1.227
  1.229   1.242   1.255   1.258   1.267   1.268   1.279   1.286
  1.289   1.296   1.300   1.310   1.320   1.321   1.330   1.337
  1.347   1.349   1.364   1.366   1.367   1.368   1.378   1.387
  1.388   1.406   1.412   1.416   1.421   1.427   1.434   1.438
  1.450   1.452   1.454   1.463   1.477   1.486   1.492   1.498
  1.504   1.517   1.530   1.535   1.536   1.541   1.543   1.549
  1.566   1.568   1.577   1.581   1.584   1.591   1.601   1.604
  1.612   1.623   1.626   1.627   1.629   1.635   1.637   1.654
  1.657   1.665   1.666   1.668   1.679   1.687   1.688   1.691
  1.699   1.710   1.711   1.717   1.728   1.732   1.743   1.751
  1.755   1.769   1.770   1.775   1.781   1.782   1.794   1.804
  1.815   1.824   1.838   1.840   1.849   1.862   1.866   1.873
  1.878   1.884   1.890   1.898   1.916   1.921   1.922   1.929
  1.939   1.945   1.957   1.958   1.960   1.971   1.973   1.988
  1.994   1.995   2.002   2.016   2.022   2.027   2.030   2.034
  2.045   2.058   2.060   2.074   2.078   2.087   2.100   2.111
  2.117   2.121   2.133   2.144   2.146   2.154   2.166   2.173
  2.176   2.183   2.189   2.199   2.207   2.221   2.232   2.233
  2.241   2.255   2.263   2.271   2.274   2.280   2.290   2.305
  2.320   2.326   2.329   2.349   2.356   2.362   2.368   2.373
  2.377   2.387   2.395   2.399   2.408   2.412   2.416   2.419
  2.422   2.434   2.439   2.448   2.456   2.464   2.472   2.478
  2.482   2.484   2.491   2.497   2.499   2.514   2.520   2.524
  2.534   2.543   2.555   2.561   2.564   2.575   2.585   2.604
  2.605   2.608   2.613   2.614   2.621   2.626   2.628   2.635
  2.653   2.656   2.657   2.667   2.669   2.685   2.702   2.706
  2.714   2.739   2.745   2.752   2.760   2.762   2.777   2.779
  2.782   2.787   2.790   2.800   2.802   2.810   2.812   2.819
  2.828   2.834   2.847   2.858   2.864   2.867   2.872   2.889
  2.893   2.901   2.906   2.917   2.935   2.935   2.938   2.939
  2.950   2.953   2.958   2.961   2.962   2.971   2.974   2.978
  2.981   2.983   2.986   2.993   2.999   3.012   3.016   3.028
  3.029   3.037   3.040   3.045   3.058   3.059   3.066   3.066
  3.072   3.079   3.087   3.087   3.090   3.093   3.093   3.107
  3.115   3.116   3.117   3.121   3.124   3.132   3.137   3.143
  3.145   3.151   3.166   3.171   3.175   3.180   3.182   3.189
  3.191   3.193   3.195   3.203   3.204   3.206   3.211   3.214
  3.224   3.226   3.231   3.237   3.239   3.246   3.249   3.255
  3.258   3.265   3.269   3.270   3.279   3.281   3.286   3.296
  3.299   3.304   3.305   3.311   3.313   3.322   3.328   3.329
  3.333   3.336   3.345   3.346   3.354   3.357   3.359   3.371
  3.376   3.380   3.387   3.389   3.403   3.407   3.412   3.424
  3.426   3.431   3.431   3.443   3.447   3.461   3.464   3.475
  3.484   3.486   3.491   3.496   3.501   3.505   3.513   3.516
  3.532   3.537   3.544   3.550   3.560   3.571   3.573   3.580
  3.583   3.591   3.595   3.599   3.614   3.623   3.630   3.636
  3.642   3.653   3.668   3.674   3.678   3.684   3.703   3.712
  3.721   3.730   3.731   3.733   3.743   3.753   3.754   3.765
  3.770   3.786   3.793   3.796   3.796   3.803   3.808   3.825
  3.828   3.831   3.843   3.847   3.859   3.861   3.863   3.866
  3.876   3.891   3.893   3.914   3.924   3.925   3.939   3.942
  3.944   3.957   3.965   3.966   3.974   3.980   3.985   3.989
  4.001   4.004   4.018   4.020   4.030   4.040   4.045   4.059
  4.070   4.080   4.083   4.093   4.099   4.105   4.119   4.126
  4.130   4.134   4.144   4.149   4.172   4.173   4.179   4.184
  4.193   4.204   4.210   4.219   4.232   4.245   4.252   4.253
  4.263   4.275   4.285   4.296   4.301   4.307   4.309   4.321
  4.331   4.334   4.349   4.352   4.378   4.382   4.385   4.391
  4.405   4.407   4.412   4.416   4.428   4.447   4.451   4.466
  4.474   4.478   4.489   4.493   4.510   4.526   4.538   4.541
  4.567   4.573   4.576   4.577   4.580   4.601   4.608   4.627
  4.629   4.642   4.646   4.674   4.677   4.694   4.695   4.709
  4.713   4.733   4.744   4.770   4.771   4.780   4.796   4.813
  4.815   4.824   4.836   4.847   4.848   4.870   4.871   4.879
  4.887   4.926   4.933   4.937   4.944   4.950   4.955   4.957
  4.962   4.975   4.982   4.987   4.999   5.005   5.009   5.014
  5.034   5.036   5.064   5.077   5.090   5.100   5.105   5.122
  5.130   5.145   5.158   5.172   5.180   5.196   5.209   5.232
  5.233   5.239   5.243   5.250   5.279   5.280   5.282   5.302
  5.319   5.323   5.336   5.368   5.374   5.392   5.399   5.409
  5.432   5.458   5.461   5.470   5.488   5.490   5.524   5.529
  5.550   5.553   5.572   5.628   5.641   5.660   5.679   5.690
  5.701   5.709   5.733   5.750   5.782   5.798   5.831   5.860
  5.894   5.915   5.933   5.953   5.973   6.020   6.085   6.115
  6.136   6.156   6.189   6.204   6.212   6.235   6.284   6.344
  6.347   6.387   6.399   6.445   6.568   6.840   7.103   8.051
  8.889  10.013  10.261  10.955  11.221  11.274  11.694  12.091
 12.251  12.581  12.711  12.837  12.949  13.237  13.421  13.476
 13.559  13.750  13.839  14.267  14.658  15.085  15.274
 --------------------------------------------------------------
 
          Ground-State Mulliken Net Atomic Charges

     Atom                 Charge (a.u.)
  ----------------------------------------
      1 C                    -0.080828
      2 C                    -0.109397
      3 N                    -0.159187
      4 C                    -0.153005
      5 C                    -0.110911
      6 C                     0.109942
      7 C                     0.070191
      8 C                    -0.083552
      9 C                     0.041585
     10 N                    -0.191838
     11 N                    -0.292127
     12 C                     0.019459
     13 C                     0.111073
     14 S                     0.400945
     15 N                    -0.279267
     16 C                    -0.055323
     17 S                     0.128015
     18 C                    -0.005580
     19 C                    -0.020170
     20 S                     0.094667
     21 C                     0.019160
     22 C                     0.037364
     23 C                    -0.161759
     24 C                    -0.159357
     25 N                    -0.183126
     26 S                     0.099562
     27 C                    -0.074693
     28 C                    -0.202917
     29 H                     0.122907
     30 H                     0.128373
     31 H                     0.140815
     32 H                     0.123380
     33 H                     0.126862
     34 H                     0.131496
     35 H                     0.142072
     36 H                     0.129320
     37 H                     0.145849
  ----------------------------------------
  Sum of atomic charges =     0.000000

 -----------------------------------------------------------------
                    Cartesian Multipole Moments
 -----------------------------------------------------------------
    Charge (ESU x 10^10)
                 0.0000
    Dipole Moment (Debye)
         X      -2.0951      Y       3.1003      Z       0.0591
       Tot       3.7423
    Quadrupole Moments (Debye-Ang)
        XX    -168.9374     XY       9.4954     YY    -172.8498
        XZ       0.8212     YZ      -0.1680     ZZ    -190.0189
    Octopole Moments (Debye-Ang^2)
       XXX    -218.0998    XXY     152.3878    XYY     -50.3913
       YYY      10.7053    XXZ      -0.5188    XYZ      -0.1531
       YYZ       0.7477    XZZ       2.7770    YZZ      10.3654
       ZZZ       0.2240
    Hexadecapole Moments (Debye-Ang^3)
      XXXX  -17181.4314   XXXY     339.9555   XXYY   -3773.6129
      XYYY     190.5721   YYYY   -3656.4586   XXXZ      35.7678
      XXYZ     -12.5335   XYYZ       7.0031   YYYZ      -1.3306
      XXZZ   -3426.9207   XYZZ      -0.4021   YYZZ    -740.9997
      XZZZ       0.2880   YZZZ       1.2524   ZZZZ    -214.7565
 -----------------------------------------------------------------
 Calculating analytic gradient of the SCF energy
 K construction time:  CPU 3033.90 s  wall 191.60 s
 Gradient of SCF Energy
            1           2           3           4           5           6
    1  -0.0001842  -0.0025659   0.0028795  -0.0046184  -0.0034868   0.0028638
    2  -0.0011781   0.0037514   0.0019732  -0.0050756  -0.0022837  -0.0010986
    3   0.0006445  -0.0012304  -0.0009480  -0.0026280   0.0007942   0.0018764
            7           8           9          10          11          12
    1  -0.0041382   0.0055984  -0.0003329  -0.0014626   0.0082216  -0.0004393
    2   0.0022484  -0.0000990   0.0023482  -0.0000142  -0.0030154  -0.0006746
    3  -0.0015520  -0.0008956   0.0020089  -0.0005674  -0.0006897  -0.0001165
           13          14          15          16          17          18
    1   0.0011756   0.0028027  -0.0005680   0.0002839  -0.0009536  -0.0005293
    2   0.0004000  -0.0015399  -0.0000329   0.0000314   0.0003480   0.0006883
    3   0.0001471   0.0001185  -0.0002874  -0.0000881  -0.0000822   0.0002121
           19          20          21          22          23          24
    1  -0.0002375   0.0005502   0.0003548   0.0000542   0.0009565  -0.0007307
    2  -0.0006460  -0.0003271   0.0006103  -0.0002998   0.0006371  -0.0017773
    3   0.0002426   0.0001191  -0.0003388  -0.0003773   0.0001177   0.0003692
           25          26          27          28          29          30
    1   0.0007021   0.0002417   0.0004129  -0.0006252  -0.0002584   0.0007826
    2  -0.0001360   0.0007560  -0.0005992  -0.0003468   0.0003732  -0.0007054
    3   0.0003929   0.0002343  -0.0001057  -0.0001192   0.0001952   0.0004922
           31          32          33          34          35          36
    1  -0.0049495  -0.0045267   0.0035346  -0.0003436   0.0001482  -0.0005145
    2   0.0043843   0.0011825  -0.0012148  -0.0002402   0.0007286   0.0007685
    3   0.0016427   0.0002431   0.0006184  -0.0002483  -0.0001040  -0.0000878
           37
    1  -0.0000983
    2   0.0000749
    3  -0.0000026
 Max gradient component =       8.222E-03
 RMS gradient           =       1.846E-03
 Gradient time:  CPU 3485.57 s  wall 221.76 s
 Geometry Optimization Parameters
   NAtoms,    NIC,     NZ,  NCons,   NDum,   NFix, NCnnct, MaxDiis
       37     280       0       3       0       0       0       0


** CONSTRAINED OPTIMIZATION IN DELOCALIZED INTERNAL COORDINATES **
   Searching for a Minimum

   Optimization Cycle:   1

                       Coordinates (Angstroms)
     ATOM                X               Y               Z
      1  C         7.5992363609   -0.5400409350   -0.0817231555
      2  C         7.0491001170    0.7301684455   -0.0330934408
      3  N         6.8671180347   -1.6503374083   -0.0897922404
      4  C         5.6748245461    0.8551928021    0.0130359374
      5  C         5.5480849544   -1.5186100051   -0.0429655142
      6  C         4.8879666129   -0.2901032520    0.0082433409
      7  C         3.4178781364   -0.2076389669    0.0223219868
      8  C         2.6313000622   -1.3265013967    0.0178081157
      9  C         2.7033536865    1.0257495702    0.0363235999
     10  N         1.2760254315   -1.3530084320    0.0146968584
     11  N         3.2086066081    2.2607469050    0.0350803865
     12  C         1.2750900765    1.0120852445    0.0298540839
     13  C         0.5810970440   -0.2413167131    0.0206462064
     14  S         1.9549951544    3.2713099442    0.0341883959
     15  N         0.7310782407    2.2257350662    0.0283941825
     16  C        -0.8568573890   -0.3752385431    0.0174510584
     17  S        -1.9940127320    0.9295350681    0.0024451406
     18  C        -1.5374016091   -1.5710842948    0.0227370453
     19  C        -3.3510877652   -0.1288255405    0.0028211803
     20  S        -1.0362227010   -3.2275742449    0.0336189146
     21  C        -2.9500242304   -1.4484976050    0.0137402446
     22  C        -4.7106161492    0.3686354301   -0.0168846714
     23  C        -2.7129870762   -3.7315984540    0.0266047818
     24  C        -3.6072576395   -2.7272473252    0.0175208397
     25  N        -5.7551207137   -0.4086943303   -0.0311690327
     26  S        -5.0969544829    2.0675388803   -0.0252813091
     27  C        -6.9081991136    0.3179423572   -0.0551435711
     28  C        -6.7634358418    1.6655308265   -0.0562556284
     29  H         8.6738138714   -0.6745324456   -0.1157269224
     30  H         7.6936056749    1.5973324241   -0.0159159694
     31  H         5.2068616849    1.8295000904    0.0744795319
     32  H         4.9737994828   -2.4367535815   -0.0506820400
     33  H         3.0934008221   -2.3055480552    0.0249484984
     34  H        -2.9366162232   -4.7871477355    0.0236252620
     35  H        -4.6779868045   -2.8403719424    0.0073423570
     36  H        -7.8594609041   -0.1917088760   -0.0721038442
     37  H        -7.5266433274    2.4235732880   -0.0742308618
   Point Group: c1    Number of degrees of freedom:   105


   Energy is  -2595.902302347

              Constraints and their Current Values
                                        Value     Constraint
   Dihedral:        4   6   7   8     -180.000      180.000
   Dihedral:       10  13  16  17     -179.124     -179.114
   Dihedral:       17  19  22  25      179.259      179.217

 Attempting to Generate Delocalized Internal Coordinates

   Using Lagrange Multiplier Algorithm


108 Hessian modes will be used to form the next step
  Hessian Eigenvalues:
    -0.977753   -0.977753   -0.977753    0.045000    0.045000    0.045000
     0.045000    0.045000    0.045000    0.045000    0.045000    0.045000
     0.045000    0.045000    0.045000    0.045000    0.045000    0.045000
     0.045000    0.045000    0.045000    0.045000    0.045000    0.045000
     0.045001    0.045001    0.045001    0.045001    0.045001    0.045003
     0.045005    0.045007    0.045009    0.045012    0.159961    0.159984
     0.159995    0.159997    0.159998    0.159999    0.160000    0.160000
     0.160000    0.220002    0.224572    0.225458    0.231978    0.233022
     0.234404    0.247446    0.247715    0.249914    0.249956    0.249989
     0.249992    0.249998    0.249998    0.249998    0.249999    0.249999
     0.249999    0.250000    0.250000    0.297515    0.305115    0.316328
     0.317279    0.326674    0.334470    0.354466    0.355754    0.356364
     0.356766    0.356811    0.359242    0.360766    0.361175    0.363915
     0.365014    0.372826    0.385324    0.386478    0.390175    0.393203
     0.397174    0.410402    0.431175    0.455299    0.463158    0.473302
     0.473331    0.475013    0.483101    0.491316    0.496876    0.499416
     0.517640    0.525710    0.538134    0.558618    0.574891    0.584514
     0.591081    0.623447    0.638959    1.022753    1.022753    1.022753

 Minimum Search - Taking P-RFO Step
 Searching for Lamda that Maximizes Along the Constraint modes Only
 Value Taken    Lamda =   0.00000118
 Searching for Lamda that Minimizes Along All other modes
 Value Taken    Lamda =  -0.00643263
 Step Taken.  Stepsize is  0.159476

                             Maximum     Tolerance    Cnvgd?
         Gradient            0.024004       0.000300      NO
         Displacement        0.087724       0.001200      NO
         Energy change     *********       0.000001      NO


 New Cartesian Coordinates Obtained by Inverse Iteration

 Displacement from previous Coordinates is:  1.083358
 ----------------------------------------------------------------
             Standard Nuclear Orientation (Angstroms)
    I     Atom           X                Y                Z
 ----------------------------------------------------------------
    1      C       7.6363571095    -0.6585964487    -0.0705431097
    2      C       7.1654488748     0.6397909648    -0.0277438374
    3      N       6.8287848234    -1.7124420483    -0.0747447396
    4      C       5.8003881957     0.8607604444     0.0117925008
    5      C       5.5244371221    -1.4881406654    -0.0371158101
    6      C       4.9188308394    -0.2246617428     0.0070712502
    7      C       3.4303674792    -0.1068892080     0.0208189824
    8      C       2.6437263812    -1.2342903607     0.0148332185
    9      C       2.6627115029     1.1120421420     0.0309495727
   10      N       1.2922269293    -1.3041260217     0.0111822788
   11      N       3.0855493259     2.3805121598     0.0344340675
   12      C       1.2298317541     1.0485984702     0.0265931734
   13      C       0.5664870257    -0.2169960351     0.0174033765
   14      S       1.7908683391     3.3398278350     0.0336188746
   15      N       0.6269977158     2.2340577520     0.0277254069
   16      C      -0.8686232072    -0.3749291760     0.0137123445
   17      S      -2.0113404170     0.9233903095    -0.0012412629
   18      C      -1.5422279920    -1.5754006610     0.0168722776
   19      C      -3.3633082921    -0.1402958534    -0.0002604322
   20      S      -1.0370863464    -3.2300946732     0.0256132936
   21      C      -2.9560402517    -1.4581463568     0.0090872449
   22      C      -4.7256612891     0.3498396167    -0.0168009677
   23      C      -2.7120915338    -3.7401862143     0.0211027058
   24      C      -3.6087627946    -2.7382201990     0.0122097229
   25      N      -5.7665570117    -0.4324386662    -0.0313319733
   26      S      -5.1206216457     2.0457334658    -0.0227675200
   27      C      -6.9231839622     0.2878581259    -0.0482970740
   28      C      -6.7848791157     1.6362882598    -0.0468019831
   29      H       8.6997746421    -0.8659474487    -0.1035196230
   30      H       7.8597847855     1.4678953640    -0.0186295339
   31      H       5.4253171602     1.8657293679     0.0564196480
   32      H       4.9232491960    -2.3864589913    -0.0435240726
   33      H       3.1055203167    -2.2092991052     0.0158816228
   34      H      -2.9305521091    -4.7963704965     0.0209300681
   35      H      -4.6789863308    -2.8590777026     0.0042768279
   36      H      -7.8688870397    -0.2318497715    -0.0622458279
   37      H      -7.5514982801     2.3907298276    -0.0600009441
 ----------------------------------------------------------------
 Molecular Point Group                 C1    NOp =  1
 Largest Abelian Subgroup              C1    NOp =  1
 Nuclear Repulsion Energy =  2961.7529413486 hartrees
 There are      111 alpha and      111 beta electrons
 Applying Cartesian multipole field
    Component          Value
    ---------          -----
     (2,0,0)        1.00000E-12
     (0,2,0)        2.00000E-11
     (0,0,2)       -3.00000E-10
 Nucleus-field energy     =     0.0000000714 hartrees
 Requested basis set is cc-pVTZ
 There are 342 shells and 982 basis functions
 A cutoff of  1.0D-11 yielded  29084 shell pairs
 There are    230492 function pairs (    301092 Cartesian)
 Smallest overlap matrix eigenvalue = 1.94E-05
 Guess MOs from SCF MO coefficient file
 Reading MOs from coefficient file
 Reading MOs from coefficient file
 Long-range K will be added via erf
 Coulomb attenuation parameter = 0.2 bohr**(-1)
 A restricted hybrid HF-DFT SCF calculation will be
 performed using Pulay DIIS extrapolation
 Exchange:     0.2220 Hartree-Fock + 1.0000 wB97X-D + LR-HF
 Correlation:  1.0000 wB97X-D
 Using SG-2 standard quadrature grid
 Dispersion:   Grimme D
 SCF converges when DIIS error is below 1.0E-08
 Geometry optimization detected.  Setting ReadMinima to 0
 Setting SaveMinima to 0
 using 16 threads for integral computing 
 using 16 threads for integral computing 
 K construction time:  CPU 1095.64 s  wall 71.46 s
 -------------------------------------------------------
 OpenMP BLAS3 based DFT computing Module                
 Release: version 1.0, May 2013, Q-Chem Inc. Pittsburgh 
 -------------------------------------------------------
 ---------------------------------------
  Cycle       Energy         DIIS Error
 ---------------------------------------
    1   -2595.9086064488      6.40E-04
 K construction time:  CPU 1091.78 s  wall 71.30 s
    2   -2595.9011754892      8.46E-05
 K construction time:  CPU 864.36 s  wall 56.46 s
    3   -2595.9010574045      1.02E-04
 K construction time:  CPU 821.15 s  wall 53.61 s
    4   -2595.9021599071      2.21E-05
 K construction time:  CPU 761.32 s  wall 49.70 s
    5   -2595.9022027704      1.19E-05
 K construction time:  CPU 713.98 s  wall 46.50 s
    6   -2595.9022188980      2.18E-06
 K construction time:  CPU 642.08 s  wall 41.89 s
    7   -2595.9022194772      1.04E-06
 K construction time:  CPU 595.64 s  wall 38.83 s
    8   -2595.9022196328      3.11E-07
 K construction time:  CPU 548.52 s  wall 35.80 s
    9   -2595.9022196549      1.80E-07
 K construction time:  CPU 494.65 s  wall 32.10 s
   10   -2595.9022196622      6.14E-08
 K construction time:  CPU 448.29 s  wall 29.10 s
   11   -2595.9022196636      2.86E-08
 K construction time:  CPU 409.54 s  wall 26.46 s
   12   -2595.9022196643      1.55E-08
 K construction time:  CPU 379.94 s  wall 24.66 s
   13   -2595.9022196637      6.26E-09 Convergence criterion met
 ---------------------------------------
 SCF time:  CPU 11880.14 s  wall 792.19 s
 SCF   energy in the final basis set = -2595.9022196637
 Total energy in the final basis set = -2595.9022196637
 
 --------------------------------------------------------------
 
                    Orbital Energies (a.u.)
 --------------------------------------------------------------
 
 Alpha MOs
 -- Occupied --
-89.158 -89.094 -89.093 -89.076 -14.497 -14.490 -14.452 -14.446
-14.436 -10.375 -10.369 -10.369 -10.362 -10.346 -10.341 -10.340
-10.335 -10.334 -10.329 -10.328 -10.328 -10.324 -10.324 -10.323
-10.314 -10.309 -10.300 -10.296  -8.168  -8.109  -8.109  -8.090
 -6.119  -6.113  -6.112  -6.058  -6.058  -6.055  -6.054  -6.052
 -6.052  -6.039  -6.036  -6.032  -1.154  -1.084  -1.075  -1.055
 -1.025  -1.016  -0.957  -0.943  -0.913  -0.911  -0.906  -0.887
 -0.861  -0.845  -0.830  -0.808  -0.777  -0.754  -0.745  -0.727
 -0.722  -0.696  -0.690  -0.679  -0.650  -0.640  -0.625  -0.621
 -0.610  -0.596  -0.581  -0.578  -0.570  -0.563  -0.546  -0.537
 -0.527  -0.524  -0.518  -0.515  -0.508  -0.507  -0.494  -0.491
 -0.489  -0.486  -0.476  -0.459  -0.458  -0.452  -0.441  -0.434
 -0.431  -0.424  -0.401  -0.399  -0.385  -0.373  -0.371  -0.370
 -0.362  -0.361  -0.343  -0.337  -0.326  -0.316  -0.267
 -- Virtual --
 -0.061  -0.011   0.023   0.034   0.050   0.057   0.064   0.070
  0.071   0.101   0.107   0.117   0.119   0.128   0.131   0.133
  0.141   0.146   0.152   0.167   0.169   0.170   0.176   0.189
  0.197   0.200   0.203   0.212   0.225   0.230   0.241   0.247
  0.253   0.261   0.264   0.266   0.277   0.282   0.289   0.291
  0.294   0.304   0.305   0.312   0.313   0.318   0.320   0.324
  0.332   0.334   0.339   0.342   0.343   0.353   0.356   0.361
  0.363   0.365   0.369   0.376   0.377   0.382   0.383   0.388
  0.392   0.393   0.399   0.401   0.403   0.407   0.407   0.411
  0.415   0.429   0.431   0.433   0.434   0.438   0.440   0.450
  0.451   0.454   0.456   0.456   0.462   0.464   0.465   0.469
  0.469   0.475   0.481   0.483   0.486   0.486   0.494   0.496
  0.496   0.502   0.505   0.509   0.513   0.518   0.521   0.524
  0.525   0.530   0.534   0.539   0.544   0.549   0.552   0.557
  0.559   0.573   0.577   0.578   0.587   0.591   0.597   0.601
  0.603   0.620   0.627   0.637   0.639   0.645   0.649   0.655
  0.661   0.665   0.665   0.671   0.674   0.680   0.683   0.688
  0.692   0.693   0.702   0.705   0.717   0.720   0.722   0.731
  0.738   0.744   0.747   0.749   0.757   0.760   0.762   0.768
  0.769   0.773   0.777   0.781   0.788   0.798   0.802   0.806
  0.807   0.812   0.816   0.817   0.819   0.825   0.831   0.835
  0.836   0.839   0.846   0.851   0.856   0.861   0.867   0.876
  0.877   0.883   0.890   0.897   0.900   0.901   0.907   0.914
  0.918   0.925   0.931   0.941   0.943   0.950   0.956   0.958
  0.968   0.972   0.973   0.976   0.985   0.986   0.992   0.995
  0.998   1.005   1.018   1.024   1.027   1.030   1.033   1.041
  1.041   1.049   1.061   1.064   1.069   1.070   1.080   1.081
  1.087   1.089   1.094   1.105   1.117   1.120   1.128   1.129
  1.130   1.137   1.141   1.151   1.157   1.162   1.169   1.176
  1.183   1.192   1.196   1.201   1.211   1.221   1.223   1.226
  1.233   1.240   1.256   1.257   1.263   1.268   1.273   1.285
  1.288   1.294   1.298   1.307   1.316   1.322   1.326   1.337
  1.346   1.349   1.360   1.365   1.366   1.371   1.378   1.387
  1.397   1.400   1.403   1.417   1.421   1.425   1.431   1.438
  1.444   1.451   1.456   1.465   1.474   1.482   1.485   1.487
  1.493   1.508   1.517   1.533   1.535   1.536   1.546   1.548
  1.560   1.562   1.571   1.578   1.584   1.591   1.600   1.601
  1.612   1.620   1.621   1.624   1.629   1.638   1.641   1.646
  1.659   1.663   1.665   1.666   1.679   1.687   1.688   1.692
  1.698   1.705   1.708   1.718   1.726   1.731   1.744   1.750
  1.751   1.768   1.769   1.780   1.782   1.782   1.792   1.804
  1.816   1.821   1.839   1.840   1.849   1.861   1.869   1.875
  1.880   1.882   1.890   1.895   1.915   1.921   1.923   1.928
  1.944   1.945   1.950   1.959   1.964   1.965   1.973   1.987
  1.994   1.997   2.003   2.016   2.023   2.026   2.030   2.038
  2.055   2.060   2.060   2.073   2.075   2.077   2.101   2.107
  2.113   2.119   2.132   2.134   2.140   2.145   2.165   2.166
  2.176   2.182   2.191   2.197   2.204   2.218   2.232   2.237
  2.254   2.255   2.262   2.267   2.271   2.279   2.289   2.301
  2.306   2.314   2.328   2.350   2.353   2.356   2.361   2.372
  2.377   2.388   2.396   2.397   2.400   2.406   2.414   2.417
  2.422   2.434   2.437   2.439   2.452   2.460   2.466   2.477
  2.479   2.482   2.485   2.496   2.497   2.509   2.520   2.523
  2.528   2.543   2.551   2.560   2.564   2.574   2.584   2.597
  2.602   2.605   2.605   2.614   2.617   2.625   2.627   2.632
  2.652   2.654   2.657   2.661   2.664   2.665   2.695   2.699
  2.715   2.733   2.741   2.758   2.760   2.761   2.774   2.776
  2.782   2.786   2.791   2.797   2.803   2.805   2.811   2.812
  2.826   2.832   2.836   2.841   2.862   2.865   2.868   2.879
  2.887   2.891   2.899   2.915   2.934   2.934   2.938   2.940
  2.948   2.953   2.956   2.959   2.960   2.962   2.968   2.970
  2.975   2.981   2.985   2.985   2.997   3.012   3.014   3.024
  3.032   3.035   3.038   3.044   3.053   3.059   3.059   3.067
  3.074   3.075   3.084   3.086   3.086   3.092   3.094   3.106
  3.109   3.113   3.116   3.117   3.124   3.134   3.140   3.140
  3.143   3.145   3.165   3.166   3.171   3.174   3.181   3.186
  3.191   3.192   3.193   3.203   3.205   3.208   3.209   3.212
  3.221   3.225   3.226   3.229   3.240   3.241   3.245   3.246
  3.257   3.264   3.268   3.269   3.273   3.282   3.288   3.293
  3.296   3.297   3.303   3.309   3.312   3.317   3.324   3.326
  3.330   3.333   3.338   3.347   3.351   3.353   3.357   3.371
  3.379   3.379   3.382   3.390   3.394   3.404   3.409   3.422
  3.424   3.430   3.431   3.440   3.455   3.459   3.463   3.472
  3.477   3.487   3.495   3.497   3.500   3.506   3.517   3.518
  3.526   3.529   3.550   3.551   3.556   3.566   3.573   3.580
  3.586   3.590   3.592   3.596   3.609   3.620   3.625   3.629
  3.643   3.650   3.660   3.668   3.679   3.682   3.697   3.704
  3.718   3.729   3.730   3.731   3.746   3.751   3.754   3.759
  3.773   3.786   3.792   3.794   3.796   3.803   3.808   3.818
  3.824   3.830   3.839   3.844   3.853   3.855   3.860   3.866
  3.869   3.880   3.904   3.913   3.919   3.922   3.929   3.940
  3.945   3.956   3.959   3.967   3.969   3.972   3.982   3.986
  3.992   3.993   4.011   4.012   4.025   4.034   4.049   4.052
  4.063   4.075   4.081   4.085   4.098   4.107   4.111   4.113
  4.114   4.128   4.140   4.158   4.173   4.174   4.176   4.186
  4.190   4.203   4.204   4.216   4.224   4.229   4.241   4.245
  4.254   4.257   4.280   4.287   4.292   4.299   4.302   4.320
  4.327   4.328   4.344   4.353   4.372   4.381   4.383   4.389
  4.395   4.399   4.407   4.413   4.423   4.433   4.452   4.466
  4.473   4.479   4.480   4.496   4.513   4.527   4.532   4.543
  4.566   4.575   4.579   4.583   4.588   4.600   4.606   4.622
  4.632   4.640   4.643   4.669   4.670   4.676   4.696   4.705
  4.711   4.722   4.732   4.756   4.757   4.780   4.796   4.808
  4.812   4.815   4.839   4.846   4.849   4.862   4.870   4.880
  4.883   4.896   4.931   4.933   4.937   4.939   4.947   4.953
  4.962   4.967   4.970   4.986   4.987   4.987   5.010   5.020
  5.029   5.037   5.063   5.079   5.083   5.095   5.103   5.108
  5.134   5.152   5.160   5.164   5.170   5.184   5.189   5.216
  5.230   5.234   5.240   5.249   5.251   5.280   5.281   5.283
  5.314   5.318   5.332   5.351   5.373   5.396   5.402   5.410
  5.440   5.458   5.459   5.470   5.489   5.500   5.522   5.531
  5.544   5.556   5.570   5.607   5.628   5.655   5.663   5.667
  5.703   5.707   5.731   5.740   5.771   5.796   5.838   5.845
  5.871   5.902   5.915   5.947   5.968   6.002   6.077   6.099
  6.139   6.155   6.171   6.192   6.203   6.236   6.275   6.333
  6.346   6.388   6.398   6.419   6.559   6.825   7.073   8.071
  8.898   9.881  10.194  10.952  11.189  11.234  11.592  12.008
 12.123  12.513  12.671  12.839  12.846  13.210  13.353  13.447
 13.540  13.555  13.842  14.272  14.595  14.901  15.136
 --------------------------------------------------------------
 
          Ground-State Mulliken Net Atomic Charges

     Atom                 Charge (a.u.)
  ----------------------------------------
      1 C                    -0.080494
      2 C                    -0.103727
      3 N                    -0.159200
      4 C                    -0.147744
      5 C                    -0.107725
      6 C                     0.103656
      7 C                     0.039763
      8 C                    -0.077025
      9 C                     0.039777
     10 N                    -0.192321
     11 N                    -0.298353
     12 C                     0.033296
     13 C                     0.111461
     14 S                     0.408176
     15 N                    -0.284548
     16 C                    -0.053397
     17 S                     0.130340
     18 C                    -0.009661
     19 C                    -0.020407
     20 S                     0.094408
     21 C                     0.021077
     22 C                     0.037727
     23 C                    -0.162299
     24 C                    -0.159433
     25 N                    -0.183100
     26 S                     0.100104
     27 C                    -0.074643
     28 C                    -0.203152
     29 H                     0.122815
     30 H                     0.129338
     31 H                     0.133903
     32 H                     0.129567
     33 H                     0.132833
     34 H                     0.131729
     35 H                     0.142239
     36 H                     0.129243
     37 H                     0.145775
  ----------------------------------------
  Sum of atomic charges =     0.000000

 -----------------------------------------------------------------
                    Cartesian Multipole Moments
 -----------------------------------------------------------------
    Charge (ESU x 10^10)
                 0.0000
    Dipole Moment (Debye)
         X      -1.9085      Y       3.0638      Z       0.0385
       Tot       3.6098
    Quadrupole Moments (Debye-Ang)
        XX    -165.3100     XY       8.8172     YY    -173.3908
        XZ       0.5354     YZ      -0.1580     ZZ    -190.0977
    Octopole Moments (Debye-Ang^2)
       XXX    -170.7794    XXY     143.7929    XYY     -52.7846
       YYY       8.7224    XXZ      -1.0102    XYZ      -0.0718
       YYZ       0.7707    XZZ       5.3844    YZZ       8.9657
       ZZZ       0.5189
    Hexadecapole Moments (Debye-Ang^3)
      XXXX  -16894.7695   XXXY     300.8530   XXYY   -3818.6138
      XYYY     204.7194   YYYY   -3698.0760   XXXZ      19.2694
      XXYZ     -10.5357   XYYZ       4.6268   YYYZ      -3.3668
      XXZZ   -3445.4307   XYZZ       2.2375   YYZZ    -748.1711
      XZZZ      -1.9920   YZZZ      -1.0858   ZZZZ    -214.5315
 -----------------------------------------------------------------
 Calculating analytic gradient of the SCF energy
 K construction time:  CPU 2998.65 s  wall 189.28 s
 Gradient of SCF Energy
            1           2           3           4           5           6
    1  -0.0008182  -0.0003962   0.0010710   0.0046526   0.0004478   0.0009668
    2  -0.0012347   0.0000671   0.0003758   0.0027028   0.0008923  -0.0017635
    3   0.0002439  -0.0006026  -0.0002867  -0.0011760   0.0000959   0.0014221
            7           8           9          10          11          12
    1  -0.0006841   0.0004671  -0.0003822  -0.0001925  -0.0076042   0.0007655
    2  -0.0006898   0.0002442  -0.0036683   0.0013724   0.0013531  -0.0000935
    3  -0.0006153  -0.0005123   0.0008767  -0.0004858  -0.0001702   0.0000067
           13          14          15          16          17          18
    1   0.0021726  -0.0031449  -0.0005686  -0.0001316   0.0008416  -0.0003201
    2  -0.0009292   0.0038761   0.0018457   0.0004046   0.0001086   0.0000660
    3   0.0001718  -0.0000927  -0.0001025   0.0000815  -0.0002363   0.0001103
           19          20          21          22          23          24
    1  -0.0004468  -0.0000064   0.0002150  -0.0000805   0.0002705  -0.0002920
    2  -0.0004142  -0.0002402   0.0004702  -0.0000365   0.0003627  -0.0008332
    3   0.0003236  -0.0000297  -0.0001806   0.0000043   0.0001532   0.0001421
           25          26          27          28          29          30
    1   0.0001868   0.0001547   0.0002167  -0.0002569   0.0000940   0.0007030
    2   0.0001005   0.0002893  -0.0002179  -0.0001383  -0.0001577  -0.0005857
    3  -0.0000259  -0.0000199   0.0000053   0.0000188   0.0000042   0.0001865
           31          32          33          34          35          36
    1   0.0029820  -0.0012361   0.0007171  -0.0001988  -0.0000400  -0.0001195
    2  -0.0039591   0.0002461  -0.0002545  -0.0000062   0.0002669   0.0001924
    3   0.0005406   0.0001634   0.0002527  -0.0001313  -0.0000767  -0.0000506
           37
    1  -0.0000050
    2  -0.0000143
    3  -0.0000086
 Max gradient component =       7.604E-03
 RMS gradient           =       1.294E-03
 Gradient time:  CPU 3446.37 s  wall 219.19 s
 Geometry Optimization Parameters
   NAtoms,    NIC,     NZ,  NCons,   NDum,   NFix, NCnnct, MaxDiis
       37     280       0       3       0       0       0       0

 Cartesian Hessian Update
 Hessian Updated using BFGS Update


** CONSTRAINED OPTIMIZATION IN DELOCALIZED INTERNAL COORDINATES **
   Searching for a Minimum

   Optimization Cycle:   2

                       Coordinates (Angstroms)
     ATOM                X               Y               Z
      1  C         7.6363571095   -0.6585964487   -0.0705431097
      2  C         7.1654488748    0.6397909648   -0.0277438374
      3  N         6.8287848234   -1.7124420483   -0.0747447396
      4  C         5.8003881957    0.8607604444    0.0117925008
      5  C         5.5244371221   -1.4881406654   -0.0371158101
      6  C         4.9188308394   -0.2246617428    0.0070712502
      7  C         3.4303674792   -0.1068892080    0.0208189824
      8  C         2.6437263812   -1.2342903607    0.0148332185
      9  C         2.6627115029    1.1120421420    0.0309495727
     10  N         1.2922269293   -1.3041260217    0.0111822788
     11  N         3.0855493259    2.3805121598    0.0344340675
     12  C         1.2298317541    1.0485984702    0.0265931734
     13  C         0.5664870257   -0.2169960351    0.0174033765
     14  S         1.7908683391    3.3398278350    0.0336188746
     15  N         0.6269977158    2.2340577520    0.0277254069
     16  C        -0.8686232072   -0.3749291760    0.0137123445
     17  S        -2.0113404170    0.9233903095   -0.0012412629
     18  C        -1.5422279920   -1.5754006610    0.0168722776
     19  C        -3.3633082921   -0.1402958534   -0.0002604322
     20  S        -1.0370863464   -3.2300946732    0.0256132936
     21  C        -2.9560402517   -1.4581463568    0.0090872449
     22  C        -4.7256612891    0.3498396167   -0.0168009677
     23  C        -2.7120915338   -3.7401862143    0.0211027058
     24  C        -3.6087627946   -2.7382201990    0.0122097229
     25  N        -5.7665570117   -0.4324386662   -0.0313319733
     26  S        -5.1206216457    2.0457334658   -0.0227675200
     27  C        -6.9231839622    0.2878581259   -0.0482970740
     28  C        -6.7848791157    1.6362882598   -0.0468019831
     29  H         8.6997746421   -0.8659474487   -0.1035196230
     30  H         7.8597847855    1.4678953640   -0.0186295339
     31  H         5.4253171602    1.8657293679    0.0564196480
     32  H         4.9232491960   -2.3864589913   -0.0435240726
     33  H         3.1055203167   -2.2092991052    0.0158816228
     34  H        -2.9305521091   -4.7963704965    0.0209300681
     35  H        -4.6789863308   -2.8590777026    0.0042768279
     36  H        -7.8688870397   -0.2318497715   -0.0622458279
     37  H        -7.5514982801    2.3907298276   -0.0600009441
   Point Group: c1    Number of degrees of freedom:   105


   Energy is  -2595.902219664

              Constraints and their Current Values
                                        Value     Constraint
   Dihedral:        4   6   7   8      180.000      180.000
   Dihedral:       10  13  16  17     -179.114     -179.114
   Dihedral:       17  19  22  25      179.217      179.217
 Hessian Updated using BFGS Update

   Using Lagrange Multiplier Algorithm


106 Hessian modes will be used to form the next step
  Hessian Eigenvalues:
    -0.977753   -0.977753    0.044439    0.045000    0.045000    0.045000
     0.045000    0.045000    0.045000    0.045000    0.045000    0.045000
     0.045000    0.045000    0.045000    0.045000    0.045000    0.045000
     0.045000    0.045000    0.045000    0.045000    0.045001    0.045001
     0.045001    0.045001    0.045001    0.045002    0.045003    0.045006
     0.045008    0.045008    0.045011    0.150997    0.159985    0.159995
     0.159997    0.159998    0.160000    0.160000    0.160000    0.160236
     0.218983    0.222917    0.224572    0.225546    0.232058    0.233652
     0.246439    0.247461    0.247728    0.249940    0.249965    0.249992
     0.249995    0.249998    0.249998    0.249999    0.249999    0.250000
     0.250000    0.297514    0.305080    0.316321    0.317218    0.326609
     0.333722    0.334489    0.355751    0.355902    0.356356    0.356540
     0.359242    0.360766    0.361170    0.363913    0.365013    0.371274
     0.383008    0.385323    0.386451    0.390172    0.397129    0.405133
     0.427837    0.449773    0.463136    0.472514    0.473023    0.473409
     0.482885    0.491303    0.494180    0.499410    0.517631    0.524686
     0.538118    0.558511    0.565481    0.577079    0.590544    0.613013
     0.638920    0.652074    1.022753    1.022754

 Minimum Search - Taking P-RFO Step
 Searching for Lamda that Maximizes Along the Constraint modes Only
 Value Taken    Lamda =   0.00000000
 Searching for Lamda that Minimizes Along All other modes
 Value Taken    Lamda =  -0.00318692
 Step Taken.  Stepsize is  0.077486

                             Maximum     Tolerance    Cnvgd?
         Gradient            0.026792       0.000300      NO
         Displacement        0.045448       0.001200      NO
         Energy change      0.000083       0.000001      NO


 New Cartesian Coordinates Obtained by Inverse Iteration

 Displacement from previous Coordinates is:  0.845499
 ----------------------------------------------------------------
             Standard Nuclear Orientation (Angstroms)
    I     Atom           X                Y                Z
 ----------------------------------------------------------------
    1      C       7.6512639179    -0.5520198871    -0.0626924260
    2      C       7.1105623998     0.7188442876    -0.0239841908
    3      N       6.9014445877    -1.6490250893    -0.0670501474
    4      C       5.7356451289     0.8636328354     0.0099449045
    5      C       5.5864673304    -1.4984855445    -0.0355609790
    6      C       4.9162323118    -0.2670278434     0.0043681311
    7      C       3.4299018844    -0.1854426398     0.0174786101
    8      C       2.6306142227    -1.3050392800     0.0118568716
    9      C       2.6829705281     1.0398487209     0.0259103380
   10      N       1.2776281309    -1.3547346307     0.0091009384
   11      N       3.1419136989     2.2944003682     0.0306475783
   12      C       1.2502484044     0.9993471754     0.0231404082
   13      C       0.5663706565    -0.2566513950     0.0149532832
   14      S       1.8649695488     3.2748049641     0.0311281735
   15      N       0.6741516794     2.1965557461     0.0254636172
   16      C      -0.8705214734    -0.3971841539     0.0117302465
   17      S      -1.9998542442     0.9130459501    -0.0036004830
   18      C      -1.5565193150    -1.5904580655     0.0152545051
   19      C      -3.3624976122    -0.1364480627    -0.0016313118
   20      S      -1.0684818747    -3.2499916722     0.0247176902
   21      C      -2.9690533615    -1.4585968260     0.0081581421
   22      C      -4.7197400966     0.3678335723    -0.0168013204
   23      C      -2.7485407477    -3.7431038310     0.0217488717
   24      C      -3.6346356164    -2.7316758610     0.0123778642
   25      N      -5.7693139167    -0.4029089643    -0.0305710493
   26      S      -5.0961843717     2.0676346827    -0.0221934992
   27      C      -6.9179740200     0.3300603624    -0.0452138303
   28      C      -6.7647276188     1.6769334039    -0.0435635901
   29      H       8.7244250287    -0.7012455536    -0.0927073821
   30      H       7.7549281946     1.5864316115    -0.0172744490
   31      H       5.3015658613     1.8478682354     0.0462636645
   32      H       5.0418517791    -2.4314593452    -0.0424668255
   33      H       3.0756044637    -2.2868631045     0.0108302778
   34      H      -2.9769823279    -4.7970787637     0.0239201521
   35      H      -4.7059358014    -2.8429852462     0.0059188461
   36      H      -7.8686082743    -0.1805533034    -0.0574603907
   37      H      -7.5228371859     2.4399334058    -0.0551814926
 ----------------------------------------------------------------
 Molecular Point Group                 C1    NOp =  1
 Largest Abelian Subgroup              C1    NOp =  1
 Nuclear Repulsion Energy =  2963.5405498872 hartrees
 There are      111 alpha and      111 beta electrons
 Applying Cartesian multipole field
    Component          Value
    ---------          -----
     (2,0,0)        1.00000E-12
     (0,2,0)        2.00000E-11
     (0,0,2)       -3.00000E-10
 Nucleus-field energy     =     0.0000000710 hartrees
 Requested basis set is cc-pVTZ
 There are 342 shells and 982 basis functions
 A cutoff of  1.0D-11 yielded  29119 shell pairs
 There are    230695 function pairs (    301387 Cartesian)
 Smallest overlap matrix eigenvalue = 1.91E-05
 Guess MOs from SCF MO coefficient file
 Reading MOs from coefficient file
 Reading MOs from coefficient file
 Long-range K will be added via erf
 Coulomb attenuation parameter = 0.2 bohr**(-1)
 A restricted hybrid HF-DFT SCF calculation will be
 performed using Pulay DIIS extrapolation
 Exchange:     0.2220 Hartree-Fock + 1.0000 wB97X-D + LR-HF
 Correlation:  1.0000 wB97X-D
 Using SG-2 standard quadrature grid
 Dispersion:   Grimme D
 SCF converges when DIIS error is below 1.0E-08
 Geometry optimization detected.  Setting ReadMinima to 0
 Setting SaveMinima to 0
 using 16 threads for integral computing 
 using 16 threads for integral computing 
 K construction time:  CPU 1096.98 s  wall 71.53 s
 -------------------------------------------------------
 OpenMP BLAS3 based DFT computing Module                
 Release: version 1.0, May 2013, Q-Chem Inc. Pittsburgh 
 -------------------------------------------------------
 ---------------------------------------
  Cycle       Energy         DIIS Error
 ---------------------------------------
    1   -2595.8954592066      4.24E-04
 K construction time:  CPU 1095.70 s  wall 71.54 s
    2   -2595.9032592870      6.35E-05
 K construction time:  CPU 853.18 s  wall 55.66 s
    3   -2595.9032944793      6.99E-05
 K construction time:  CPU 813.99 s  wall 53.05 s
    4   -2595.9038389409      1.75E-05
 K construction time:  CPU 745.36 s  wall 48.75 s
    5   -2595.9038673076      7.95E-06
 K construction time:  CPU 700.79 s  wall 45.78 s
    6   -2595.9038740216      2.70E-06
 K construction time:  CPU 629.65 s  wall 41.04 s
    7   -2595.9038748320      6.81E-07
 K construction time:  CPU 581.61 s  wall 37.91 s
    8   -2595.9038749129      2.64E-07
 K construction time:  CPU 532.26 s  wall 34.61 s
    9   -2595.9038749297      1.22E-07
 K construction time:  CPU 499.05 s  wall 32.33 s
   10   -2595.9038749342      5.56E-08
 K construction time:  CPU 441.39 s  wall 28.58 s
   11   -2595.9038749353      2.82E-08
 K construction time:  CPU 415.76 s  wall 26.83 s
   12   -2595.9038749358      1.27E-08
 K construction time:  CPU 373.57 s  wall 24.17 s
   13   -2595.9038749376      5.79E-09 Convergence criterion met
 ---------------------------------------
 SCF time:  CPU 11776.45 s  wall 784.89 s
 SCF   energy in the final basis set = -2595.9038749376
 Total energy in the final basis set = -2595.9038749376
 
 --------------------------------------------------------------
 
                    Orbital Energies (a.u.)
 --------------------------------------------------------------
 
 Alpha MOs
 -- Occupied --
-89.158 -89.095 -89.094 -89.076 -14.497 -14.491 -14.453 -14.446
-14.435 -10.375 -10.370 -10.368 -10.362 -10.346 -10.342 -10.341
-10.335 -10.333 -10.329 -10.328 -10.328 -10.323 -10.323 -10.322
-10.315 -10.306 -10.299 -10.296  -8.168  -8.110  -8.109  -8.090
 -6.119  -6.113  -6.112  -6.059  -6.058  -6.055  -6.055  -6.052
 -6.052  -6.040  -6.036  -6.032  -1.156  -1.085  -1.075  -1.054
 -1.025  -1.018  -0.958  -0.943  -0.913  -0.911  -0.905  -0.886
 -0.861  -0.845  -0.830  -0.808  -0.777  -0.755  -0.745  -0.727
 -0.722  -0.697  -0.690  -0.680  -0.650  -0.639  -0.623  -0.621
 -0.610  -0.597  -0.582  -0.579  -0.570  -0.563  -0.544  -0.537
 -0.527  -0.524  -0.518  -0.516  -0.510  -0.506  -0.494  -0.492
 -0.489  -0.485  -0.476  -0.459  -0.458  -0.453  -0.440  -0.434
 -0.432  -0.424  -0.402  -0.400  -0.385  -0.373  -0.371  -0.370
 -0.362  -0.361  -0.342  -0.338  -0.326  -0.316  -0.267
 -- Virtual --
 -0.061  -0.011   0.023   0.035   0.049   0.057   0.063   0.071
  0.072   0.101   0.107   0.117   0.120   0.129   0.131   0.133
  0.140   0.146   0.151   0.167   0.169   0.170   0.176   0.189
  0.197   0.200   0.203   0.213   0.224   0.229   0.240   0.247
  0.252   0.261   0.264   0.267   0.276   0.285   0.288   0.291
  0.294   0.302   0.304   0.312   0.313   0.318   0.319   0.324
  0.332   0.334   0.340   0.342   0.343   0.353   0.355   0.363
  0.363   0.366   0.368   0.377   0.378   0.382   0.383   0.389
  0.392   0.393   0.399   0.401   0.403   0.407   0.408   0.410
  0.415   0.429   0.431   0.433   0.434   0.438   0.440   0.450
  0.450   0.454   0.457   0.458   0.462   0.463   0.465   0.469
  0.469   0.475   0.479   0.484   0.485   0.485   0.492   0.496
  0.496   0.502   0.504   0.508   0.514   0.517   0.521   0.523
  0.526   0.529   0.532   0.539   0.544   0.547   0.552   0.559
  0.563   0.573   0.577   0.582   0.587   0.591   0.596   0.601
  0.607   0.619   0.629   0.637   0.644   0.646   0.651   0.656
  0.659   0.664   0.665   0.671   0.673   0.680   0.685   0.688
  0.692   0.696   0.703   0.707   0.714   0.721   0.722   0.732
  0.737   0.743   0.747   0.750   0.758   0.761   0.768   0.770
  0.771   0.774   0.776   0.781   0.786   0.798   0.805   0.808
  0.809   0.811   0.817   0.818   0.821   0.825   0.831   0.834
  0.837   0.838   0.847   0.851   0.857   0.862   0.867   0.875
  0.876   0.883   0.889   0.897   0.902   0.903   0.912   0.917
  0.919   0.925   0.932   0.941   0.944   0.948   0.956   0.958
  0.969   0.971   0.973   0.975   0.984   0.985   0.991   0.995
  0.998   1.004   1.016   1.024   1.028   1.032   1.035   1.041
  1.042   1.048   1.062   1.064   1.068   1.070   1.079   1.083
  1.087   1.089   1.094   1.103   1.115   1.116   1.126   1.130
  1.131   1.137   1.141   1.152   1.161   1.162   1.172   1.176
  1.181   1.190   1.196   1.201   1.214   1.217   1.222   1.226
  1.229   1.239   1.253   1.257   1.262   1.267   1.274   1.284
  1.287   1.296   1.299   1.310   1.317   1.320   1.329   1.337
  1.347   1.348   1.363   1.365   1.366   1.369   1.376   1.387
  1.390   1.402   1.411   1.416   1.421   1.426   1.432   1.440
  1.447   1.451   1.455   1.461   1.474   1.485   1.488   1.492
  1.497   1.511   1.524   1.533   1.535   1.538   1.544   1.546
  1.563   1.564   1.568   1.577   1.582   1.590   1.597   1.601
  1.611   1.620   1.623   1.624   1.627   1.636   1.639   1.650
  1.658   1.663   1.665   1.667   1.679   1.686   1.687   1.690
  1.698   1.703   1.708   1.713   1.729   1.731   1.741   1.749
  1.751   1.765   1.769   1.770   1.782   1.783   1.793   1.798
  1.816   1.824   1.836   1.839   1.850   1.861   1.867   1.874
  1.877   1.879   1.885   1.895   1.916   1.921   1.923   1.929
  1.941   1.944   1.951   1.959   1.960   1.961   1.973   1.984
  1.994   1.996   2.003   2.015   2.022   2.026   2.030   2.036
  2.049   2.058   2.060   2.073   2.077   2.083   2.101   2.107
  2.112   2.120   2.132   2.137   2.145   2.148   2.166   2.169
  2.176   2.182   2.191   2.198   2.204   2.220   2.232   2.236
  2.242   2.255   2.263   2.265   2.271   2.278   2.296   2.305
  2.314   2.315   2.327   2.350   2.353   2.360   2.363   2.373
  2.377   2.387   2.396   2.397   2.405   2.406   2.413   2.417
  2.422   2.434   2.437   2.441   2.453   2.461   2.467   2.477
  2.478   2.483   2.486   2.497   2.498   2.511   2.520   2.523
  2.531   2.542   2.552   2.563   2.563   2.575   2.584   2.599
  2.604   2.605   2.607   2.614   2.618   2.623   2.627   2.629
  2.652   2.652   2.656   2.661   2.664   2.672   2.697   2.701
  2.714   2.735   2.742   2.755   2.759   2.760   2.775   2.777
  2.783   2.786   2.791   2.800   2.801   2.807   2.811   2.813
  2.828   2.835   2.842   2.843   2.863   2.865   2.868   2.883
  2.889   2.895   2.899   2.915   2.933   2.934   2.939   2.939
  2.947   2.952   2.956   2.960   2.961   2.965   2.970   2.975
  2.977   2.981   2.984   2.986   2.999   3.012   3.014   3.024
  3.029   3.034   3.035   3.044   3.055   3.058   3.059   3.067
  3.070   3.076   3.083   3.085   3.085   3.092   3.093   3.105
  3.111   3.114   3.116   3.117   3.124   3.130   3.137   3.142
  3.144   3.146   3.166   3.167   3.174   3.177   3.180   3.186
  3.191   3.192   3.192   3.202   3.204   3.206   3.209   3.211
  3.225   3.226   3.229   3.233   3.239   3.244   3.246   3.246
  3.256   3.263   3.267   3.267   3.273   3.280   3.287   3.293
  3.294   3.302   3.302   3.309   3.312   3.318   3.324   3.326
  3.330   3.335   3.340   3.342   3.351   3.355   3.357   3.368
  3.377   3.378   3.385   3.389   3.395   3.405   3.411   3.421
  3.425   3.428   3.430   3.439   3.449   3.461   3.463   3.473
  3.477   3.487   3.492   3.498   3.501   3.505   3.516   3.518
  3.527   3.531   3.548   3.550   3.557   3.565   3.573   3.577
  3.589   3.591   3.592   3.596   3.609   3.623   3.627   3.631
  3.642   3.645   3.662   3.670   3.674   3.684   3.703   3.707
  3.721   3.728   3.730   3.730   3.747   3.750   3.754   3.758
  3.772   3.785   3.793   3.794   3.796   3.802   3.808   3.817
  3.827   3.831   3.839   3.844   3.856   3.859   3.859   3.865
  3.870   3.882   3.897   3.913   3.920   3.922   3.932   3.938
  3.943   3.957   3.962   3.966   3.974   3.979   3.984   3.987
  3.990   3.996   4.011   4.014   4.027   4.034   4.045   4.051
  4.063   4.077   4.080   4.084   4.090   4.103   4.109   4.116
  4.117   4.129   4.139   4.150   4.165   4.172   4.173   4.185
  4.190   4.202   4.204   4.209   4.218   4.236   4.242   4.247
  4.256   4.266   4.280   4.290   4.296   4.299   4.304   4.321
  4.325   4.327   4.343   4.350   4.374   4.380   4.383   4.389
  4.397   4.400   4.408   4.415   4.426   4.435   4.452   4.463
  4.471   4.478   4.483   4.493   4.500   4.526   4.533   4.543
  4.568   4.574   4.577   4.580   4.588   4.601   4.604   4.627
  4.633   4.642   4.644   4.672   4.674   4.681   4.688   4.703
  4.713   4.728   4.737   4.761   4.761   4.773   4.783   4.811
  4.812   4.820   4.838   4.844   4.849   4.867   4.870   4.872
  4.883   4.905   4.933   4.933   4.938   4.944   4.953   4.953
  4.960   4.966   4.969   4.987   4.991   4.992   5.008   5.015
  5.028   5.035   5.063   5.080   5.083   5.100   5.111   5.117
  5.134   5.149   5.162   5.164   5.170   5.182   5.191   5.224
  5.233   5.234   5.242   5.251   5.261   5.281   5.283   5.288
  5.318   5.319   5.330   5.355   5.369   5.392   5.395   5.409
  5.439   5.459   5.461   5.470   5.487   5.490   5.520   5.530
  5.546   5.556   5.566   5.620   5.635   5.661   5.664   5.672
  5.704   5.708   5.729   5.743   5.773   5.799   5.839   5.848
  5.884   5.903   5.920   5.949   5.969   6.003   6.076   6.108
  6.136   6.151   6.179   6.190   6.204   6.235   6.282   6.335
  6.347   6.387   6.396   6.426   6.552   6.827   7.079   8.065
  8.884   9.903  10.202  10.951  11.218  11.240  11.619  12.046
 12.166  12.512  12.656  12.836  12.866  13.217  13.369  13.452
 13.555  13.598  13.842  14.272  14.595  14.922  15.149
 --------------------------------------------------------------
 
          Ground-State Mulliken Net Atomic Charges

     Atom                 Charge (a.u.)
  ----------------------------------------
      1 C                    -0.080491
      2 C                    -0.105177
      3 N                    -0.157803
      4 C                    -0.150451
      5 C                    -0.109400
      6 C                     0.103674
      7 C                     0.049334
      8 C                    -0.079284
      9 C                     0.041430
     10 N                    -0.190516
     11 N                    -0.295395
     12 C                     0.027683
     13 C                     0.113405
     14 S                     0.402828
     15 N                    -0.281895
     16 C                    -0.054230
     17 S                     0.129854
     18 C                    -0.009306
     19 C                    -0.020318
     20 S                     0.094517
     21 C                     0.020925
     22 C                     0.037419
     23 C                    -0.162001
     24 C                    -0.159648
     25 N                    -0.182959
     26 S                     0.100348
     27 C                    -0.074603
     28 C                    -0.203135
     29 H                     0.122546
     30 H                     0.128504
     31 H                     0.136884
     32 H                     0.127576
     33 H                     0.130439
     34 H                     0.131847
     35 H                     0.142205
     36 H                     0.129361
     37 H                     0.145833
  ----------------------------------------
  Sum of atomic charges =     0.000000

 -----------------------------------------------------------------
                    Cartesian Multipole Moments
 -----------------------------------------------------------------
    Charge (ESU x 10^10)
                 0.0000
    Dipole Moment (Debye)
         X      -2.0686      Y       3.0652      Z       0.0322
       Tot       3.6981
    Quadrupole Moments (Debye-Ang)
        XX    -167.5914     XY       9.1103     YY    -172.8959
        XZ       0.4380     YZ      -0.1649     ZZ    -190.0872
    Octopole Moments (Debye-Ang^2)
       XXX    -198.1292    XXY     150.4263    XYY     -51.4647
       YYY      11.7067    XXZ      -0.8353    XYZ      -0.0194
       YYZ       0.8173    XZZ       4.1356    YZZ      10.6615
       ZZZ       0.7888
    Hexadecapole Moments (Debye-Ang^3)
      XXXX  -17173.6081   XXXY     332.6728   XXYY   -3794.6256
      XYYY     189.5370   YYYY   -3668.5022   XXXZ      16.2464
      XXYZ     -10.2641   XYYZ       3.5568   YYYZ      -2.2080
      XXZZ   -3449.7644   XYZZ      -0.5979   YYZZ    -743.8300
      XZZZ      -2.2281   YZZZ       0.2583   ZZZZ    -214.3367
 -----------------------------------------------------------------
 Calculating analytic gradient of the SCF energy
 K construction time:  CPU 3007.30 s  wall 189.86 s
 Gradient of SCF Energy
            1           2           3           4           5           6
    1  -0.0004657  -0.0004484   0.0002011   0.0012267   0.0016018   0.0009771
    2  -0.0008845   0.0003336   0.0000200   0.0004066  -0.0000080  -0.0001902
    3   0.0001653  -0.0003610  -0.0000269  -0.0009268  -0.0002348   0.0011498
            7           8           9          10          11          12
    1  -0.0007971  -0.0016316  -0.0003310  -0.0002415  -0.0006841   0.0000315
    2   0.0007521  -0.0003630  -0.0005454   0.0003685   0.0001755   0.0001596
    3  -0.0002427  -0.0003192   0.0004090  -0.0004233  -0.0000419   0.0000660
           13          14          15          16          17          18
    1   0.0007423  -0.0003720  -0.0005274  -0.0002385   0.0002273  -0.0001941
    2  -0.0007460  -0.0000296  -0.0000025   0.0001691  -0.0000098   0.0000684
    3   0.0001709  -0.0000845  -0.0000862   0.0001139  -0.0002610   0.0000646
           19          20          21          22          23          24
    1  -0.0001448  -0.0001018   0.0001171  -0.0000051   0.0001253  -0.0000585
    2  -0.0002003  -0.0001272   0.0002284  -0.0000656   0.0001667  -0.0004695
    3   0.0002966  -0.0000493  -0.0001121   0.0001069   0.0001253   0.0000685
           25          26          27          28          29          30
    1   0.0000046   0.0000698   0.0001178  -0.0001075   0.0000894   0.0003301
    2   0.0000866   0.0000952  -0.0001037  -0.0000090   0.0000418  -0.0003059
    3  -0.0001317  -0.0000659   0.0000239   0.0000346  -0.0000592   0.0001225
           31          32          33          34          35          36
    1   0.0005559   0.0020458  -0.0019200  -0.0000841  -0.0000702  -0.0000381
    2  -0.0006849   0.0004436   0.0009911   0.0000243   0.0001550   0.0000724
    3   0.0004165   0.0000676   0.0001939  -0.0000793  -0.0000559  -0.0000243
           37
    1  -0.0000023
    2  -0.0000133
    3  -0.0000098
 Max gradient component =       2.046E-03
 RMS gradient           =       4.969E-04
 Gradient time:  CPU 3456.43 s  wall 219.89 s
 Geometry Optimization Parameters
   NAtoms,    NIC,     NZ,  NCons,   NDum,   NFix, NCnnct, MaxDiis
       37     280       0       3       0       0       0       0

 Cartesian Hessian Update
 Hessian Updated using BFGS Update


** CONSTRAINED OPTIMIZATION IN DELOCALIZED INTERNAL COORDINATES **
   Searching for a Minimum

   Optimization Cycle:   3

                       Coordinates (Angstroms)
     ATOM                X               Y               Z
      1  C         7.6512639179   -0.5520198871   -0.0626924260
      2  C         7.1105623998    0.7188442876   -0.0239841908
      3  N         6.9014445877   -1.6490250893   -0.0670501474
      4  C         5.7356451289    0.8636328354    0.0099449045
      5  C         5.5864673304   -1.4984855445   -0.0355609790
      6  C         4.9162323118   -0.2670278434    0.0043681311
      7  C         3.4299018844   -0.1854426398    0.0174786101
      8  C         2.6306142227   -1.3050392800    0.0118568716
      9  C         2.6829705281    1.0398487209    0.0259103380
     10  N         1.2776281309   -1.3547346307    0.0091009384
     11  N         3.1419136989    2.2944003682    0.0306475783
     12  C         1.2502484044    0.9993471754    0.0231404082
     13  C         0.5663706565   -0.2566513950    0.0149532832
     14  S         1.8649695488    3.2748049641    0.0311281735
     15  N         0.6741516794    2.1965557461    0.0254636172
     16  C        -0.8705214734   -0.3971841539    0.0117302465
     17  S        -1.9998542442    0.9130459501   -0.0036004830
     18  C        -1.5565193150   -1.5904580655    0.0152545051
     19  C        -3.3624976122   -0.1364480627   -0.0016313118
     20  S        -1.0684818747   -3.2499916722    0.0247176902
     21  C        -2.9690533615   -1.4585968260    0.0081581421
     22  C        -4.7197400966    0.3678335723   -0.0168013204
     23  C        -2.7485407477   -3.7431038310    0.0217488717
     24  C        -3.6346356164   -2.7316758610    0.0123778642
     25  N        -5.7693139167   -0.4029089643   -0.0305710493
     26  S        -5.0961843717    2.0676346827   -0.0221934992
     27  C        -6.9179740200    0.3300603624   -0.0452138303
     28  C        -6.7647276188    1.6769334039   -0.0435635901
     29  H         8.7244250287   -0.7012455536   -0.0927073821
     30  H         7.7549281946    1.5864316115   -0.0172744490
     31  H         5.3015658613    1.8478682354    0.0462636645
     32  H         5.0418517791   -2.4314593452   -0.0424668255
     33  H         3.0756044637   -2.2868631045    0.0108302778
     34  H        -2.9769823279   -4.7970787637    0.0239201521
     35  H        -4.7059358014   -2.8429852462    0.0059188461
     36  H        -7.8686082743   -0.1805533034   -0.0574603907
     37  H        -7.5228371859    2.4399334058   -0.0551814926
   Point Group: c1    Number of degrees of freedom:   105


   Energy is  -2595.903874938

              Constraints and their Current Values
                                        Value     Constraint
   Dihedral:        4   6   7   8     -180.000      180.000
   Dihedral:       10  13  16  17     -179.114     -179.114
   Dihedral:       17  19  22  25      179.217      179.217
 Hessian Updated using BFGS Update

101 Hessian modes will be used to form the next step
  Hessian Eigenvalues:
     0.044201    0.044997    0.045000    0.045000    0.045000    0.045000
     0.045000    0.045000    0.045000    0.045000    0.045000    0.045000
     0.045000    0.045000    0.045000    0.045000    0.045000    0.045000
     0.045000    0.045000    0.045001    0.045001    0.045001    0.045001
     0.045002    0.045003    0.045003    0.045006    0.045009    0.045013
     0.154320    0.159443    0.159992    0.159997    0.159998    0.159999
     0.160000    0.160000    0.160399    0.219153    0.223273    0.224572
[...]
     27  C        -6.9152702942    0.3234407753   -0.0353126209
     28  C        -6.7649611794    1.6706389231   -0.0266927542
     29  H         8.7085959698   -0.7186892701   -0.0429937041
     30  H         7.7483345333    1.5778411608   -0.0135342381
     31  H         5.2947658295    1.8496760271    0.0068378393
     32  H         5.0081177912   -2.4273410350   -0.0299811094
     33  H         3.0857460694   -2.2823185616   -0.0086180555
     34  H        -2.9615397435   -4.7951488447    0.0198238841
     35  H        -4.6955194152   -2.8465230952    0.0036903086
     36  H        -7.8644398769   -0.1898930287   -0.0464866609
     37  H        -7.5246817981    2.4321367990   -0.0304059503
   Point Group: c1    Number of degrees of freedom:   105


   Energy is  -2595.904034834

              Constraints and their Current Values
                                        Value     Constraint
   Dihedral:        4   6   7   8     -180.000      180.000
   Dihedral:       10  13  16  17     -179.114     -179.114
   Dihedral:       17  19  22  25      179.217      179.217
 Hessian Updated using BFGS Update

 98 Hessian modes will be used to form the next step
  Hessian Eigenvalues:
     0.008184    0.032040    0.044948    0.044999    0.045000    0.045000
     0.045000    0.045000    0.045000    0.045000    0.045000    0.045000
     0.045000    0.045000    0.045000    0.045001    0.045001    0.045001
     0.045001    0.045001    0.045002    0.045003    0.045005    0.045007
     0.045008    0.045010    0.045934    0.156237    0.159850    0.159962
     0.159998    0.160000    0.160007    0.160075    0.160323    0.165150
     0.219965    0.224574    0.225372    0.231744    0.233838    0.244417
     0.247376    0.247620    0.248392    0.249643    0.249837    0.249982
     0.249991    0.249994    0.249998    0.250000    0.251626    0.268926
     0.297370    0.304998    0.314529    0.316259    0.326163    0.334095
     0.336235    0.353223    0.355721    0.356383    0.356547    0.359242
     0.360766    0.361166    0.363938    0.365013    0.375013    0.385352
     0.386297    0.388753    0.396837    0.400634    0.407871    0.434331
     0.447450    0.462605    0.466814    0.473110    0.475406    0.479556
     0.484202    0.492906    0.499374    0.516953    0.518800    0.531946
     0.538112    0.559305    0.577357    0.582228    0.588072    0.615964
     0.638869    0.640483

 Minimum Search - Taking Simple RFO Step
 Searching for Lamda that Minimizes Along All modes
 Value Taken    Lamda =   0.00000000
 Step Taken.  Stepsize is  0.007294

                             Maximum     Tolerance    Cnvgd?
         Gradient           0.000048      0.000300     YES
         Displacement       0.003510      0.001200      NO
         Energy change     -0.000001      0.000001     YES

 Final energy is   -2595.90403483418     


 ******************************
 **  OPTIMIZATION CONVERGED  **
 ******************************

                       Coordinates (Angstroms)
     ATOM                X               Y               Z
      1  C         7.6362212674   -0.5626613443   -0.0325749175
      2  C         7.1023091702    0.7113866240   -0.0161726645
      3  N         6.8806379110   -1.6574837225   -0.0370271182
      4  C         5.7274253279    0.8633268268   -0.0044025368
      5  C         5.5662346511   -1.5007192268   -0.0252039903
      6  C         4.9068147805   -0.2645728995   -0.0082590195
      7  C         3.4275601957   -0.1814375474    0.0013722652
      8  C         2.6329184167   -1.3021554192   -0.0025855695
      9  C         2.6859469189    1.0452686812    0.0102949351
     10  N         1.2800000159   -1.3494901081    0.0000816791
     11  N         3.1506216540    2.2975407344    0.0174888684
     12  C         1.2541704216    1.0072277358    0.0134628958
     13  C         0.5698511050   -0.2491632764    0.0073004870
     14  S         1.8764232049    3.2814261936    0.0268304910
     15  N         0.6822957373    2.2066074684    0.0226884487
     16  C        -0.8662501310   -0.3907688506    0.0070302658
     17  S        -1.9981652301    0.9173982330   -0.0061069227
     18  C        -1.5495610344   -1.5853947809    0.0092122326
     19  C        -3.3584520402   -0.1348985842   -0.0051236807
     20  S        -1.0572159364   -3.2432313396    0.0174737691
     21  C        -2.9624263292   -1.4564783519    0.0032586375
     22  C        -4.7169567476    0.3661884600   -0.0142588396
     23  C        -2.7362577771   -3.7405022969    0.0154337923
     24  C        -3.6247243984   -2.7308983158    0.0074477003
     25  N        -5.7648033984   -0.4070211176   -0.0286154169
     26  S        -5.0974137416    2.0648826334   -0.0084129828
     27  C        -6.9152702942    0.3234407753   -0.0353126209
     28  C        -6.7649611794    1.6706389231   -0.0266927542
     29  H         8.7085959698   -0.7186892701   -0.0429937041
     30  H         7.7483345333    1.5778411608   -0.0135342381
     31  H         5.2947658295    1.8496760271    0.0068378393
     32  H         5.0081177912   -2.4273410350   -0.0299811094
     33  H         3.0857460694   -2.2823185616   -0.0086180555
     34  H        -2.9615397435   -4.7951488447    0.0198238841
     35  H        -4.6955194152   -2.8465230952    0.0036903086
     36  H        -7.8644398769   -0.1898930287   -0.0464866609
     37  H        -7.5246817981    2.4321367990   -0.0304059503

Z-matrix Print:
$molecule
0 1
S 
C  1 1.719799
C  2 1.379667 1 111.043369
C  3 1.418747 2 111.895860 1 -0.020388 0
C  4 1.376245 3 114.554829 2 -0.068816 0
C  3 1.436246 2 135.858439 1 179.980088 0
H  6 1.077026 3 123.622106 2 -0.023522 0
C  6 1.344893 3 111.192054 2 -179.972467 0
H  8 1.078448 6 126.594682 3 179.990554 0
C  5 1.443066 4 125.400336 3 179.771874 0
N  10 1.309612 5 117.206210 4 -0.479697 0
C  11 1.353749 10 120.834467 5 -179.882635 0
H  12 1.079726 11 112.793031 10 -180.000000 0
C  12 1.373856 11 127.341558 10 0.006688 0
C  10 1.430681 5 124.206926 4 179.589811 0
N  15 1.328773 10 125.932685 5 -0.157639 0
C  15 1.432285 10 120.096750 5 179.865270 0
N  17 1.335724 15 111.878955 10 179.975275 0
C  2 1.448001 1 122.027464 3 179.913523 0
N  19 1.302322 2 123.331397 1 -179.216979 0
C  20 1.362789 19 111.165426 2 179.959851 0
H  21 1.079148 20 119.183101 19 179.953976 0
C  21 1.355585 20 116.043393 19 -0.025191 0
H  23 1.075671 21 128.697871 20 -179.946143 0
C  14 1.481620 12 122.119574 11 179.724532 0
C  25 1.394838 14 122.819164 12 180.000000 0
H  26 1.077128 25 120.277433 14 -0.054512 0
C  26 1.383304 25 119.728895 14 179.893483 0
H  28 1.080786 26 120.399139 25 -179.987355 0
C  28 1.381495 26 119.046442 25 -0.046563 0
H  30 1.083716 28 121.018893 26 -179.946144 0
N  30 1.330249 28 122.651734 26 0.028304 0
C  32 1.323771 30 117.806543 28 -0.005396 0
H  33 1.081733 32 114.256015 30 -179.978564 0
S  16 1.606609 15 106.498362 10 -179.980248 0
S  23 1.713615 21 109.670502 20 0.027406 0
S  4 1.729420 3 111.754664 2 179.920209 0
$end

 
 --------------------------------------------------------------
 
                    Orbital Energies (a.u.)
 --------------------------------------------------------------
 
 Alpha MOs
 -- Occupied --
-89.158 -89.095 -89.094 -89.076 -14.498 -14.491 -14.453 -14.446
-14.435 -10.375 -10.370 -10.367 -10.362 -10.346 -10.342 -10.341
-10.335 -10.331 -10.329 -10.328 -10.327 -10.323 -10.323 -10.321
-10.315 -10.306 -10.299 -10.296  -8.169  -8.110  -8.109  -8.090
 -6.119  -6.113  -6.112  -6.059  -6.058  -6.055  -6.055  -6.052
 -6.052  -6.040  -6.036  -6.032  -1.156  -1.085  -1.074  -1.054
 -1.025  -1.018  -0.958  -0.944  -0.913  -0.911  -0.905  -0.887
 -0.861  -0.845  -0.830  -0.808  -0.777  -0.755  -0.745  -0.726
 -0.722  -0.696  -0.690  -0.680  -0.650  -0.640  -0.623  -0.621
 -0.610  -0.597  -0.582  -0.579  -0.570  -0.562  -0.544  -0.537
 -0.527  -0.524  -0.518  -0.516  -0.510  -0.507  -0.494  -0.492
 -0.489  -0.485  -0.476  -0.459  -0.458  -0.453  -0.440  -0.434
 -0.432  -0.424  -0.402  -0.400  -0.385  -0.373  -0.371  -0.370
 -0.362  -0.361  -0.342  -0.338  -0.326  -0.316  -0.267
 -- Virtual --
 -0.061  -0.011   0.024   0.035   0.049   0.057   0.063   0.071
  0.072   0.102   0.107   0.117   0.120   0.129   0.131   0.132
  0.140   0.146   0.151   0.167   0.169   0.170   0.176   0.189
  0.197   0.200   0.203   0.213   0.225   0.229   0.240   0.247
  0.253   0.261   0.264   0.267   0.276   0.286   0.288   0.292
  0.294   0.303   0.304   0.312   0.314   0.318   0.319   0.325
  0.332   0.334   0.340   0.343   0.343   0.353   0.355   0.363
  0.363   0.367   0.368   0.377   0.378   0.382   0.383   0.389
  0.392   0.393   0.399   0.401   0.403   0.407   0.408   0.410
  0.415   0.429   0.431   0.433   0.434   0.438   0.440   0.450
  0.450   0.454   0.458   0.458   0.462   0.463   0.466   0.469
  0.469   0.475   0.479   0.484   0.485   0.485   0.493   0.496
  0.496   0.502   0.503   0.508   0.515   0.517   0.521   0.524
  0.526   0.530   0.533   0.540   0.544   0.548   0.552   0.559
  0.563   0.574   0.578   0.582   0.588   0.591   0.597   0.601
  0.607   0.620   0.629   0.637   0.644   0.647   0.652   0.655
  0.660   0.664   0.665   0.671   0.673   0.680   0.685   0.689
  0.692   0.696   0.703   0.707   0.715   0.721   0.722   0.732
  0.737   0.744   0.747   0.751   0.759   0.761   0.768   0.770
  0.770   0.774   0.776   0.781   0.787   0.798   0.805   0.808
  0.810   0.811   0.817   0.818   0.821   0.825   0.831   0.834
  0.837   0.838   0.847   0.852   0.857   0.862   0.867   0.875
  0.876   0.883   0.889   0.897   0.902   0.904   0.912   0.917
  0.920   0.926   0.931   0.941   0.944   0.949   0.957   0.958
  0.969   0.971   0.973   0.975   0.984   0.985   0.991   0.995
  0.999   1.004   1.016   1.024   1.028   1.032   1.033   1.041
  1.043   1.048   1.062   1.064   1.068   1.070   1.079   1.084
  1.087   1.089   1.094   1.104   1.115   1.116   1.127   1.131
  1.131   1.137   1.142   1.152   1.162   1.163   1.172   1.176
  1.182   1.190   1.196   1.202   1.212   1.217   1.222   1.227
  1.229   1.240   1.254   1.257   1.264   1.267   1.275   1.285
  1.288   1.296   1.299   1.310   1.318   1.320   1.329   1.337
  1.347   1.348   1.362   1.365   1.366   1.369   1.377   1.387
  1.390   1.403   1.411   1.416   1.421   1.426   1.432   1.440
  1.448   1.451   1.455   1.463   1.475   1.485   1.489   1.493
  1.498   1.512   1.525   1.534   1.536   1.538   1.545   1.546
  1.564   1.566   1.568   1.578   1.582   1.591   1.599   1.602
  1.612   1.621   1.624   1.625   1.628   1.636   1.639   1.651
  1.658   1.664   1.665   1.667   1.679   1.686   1.688   1.691
  1.698   1.706   1.709   1.715   1.729   1.731   1.742   1.750
  1.752   1.769   1.770   1.771   1.781   1.783   1.793   1.800
  1.816   1.824   1.836   1.839   1.849   1.861   1.868   1.874
  1.879   1.879   1.886   1.896   1.916   1.921   1.923   1.929
  1.941   1.944   1.953   1.959   1.961   1.963   1.973   1.985
  1.994   1.996   2.003   2.016   2.023   2.027   2.030   2.036
  2.049   2.058   2.060   2.072   2.077   2.083   2.101   2.109
  2.112   2.120   2.133   2.139   2.145   2.149   2.166   2.170
  2.176   2.182   2.190   2.198   2.205   2.220   2.232   2.236
  2.242   2.255   2.263   2.266   2.271   2.278   2.297   2.305
  2.315   2.316   2.328   2.350   2.355   2.360   2.364   2.373
  2.377   2.387   2.396   2.398   2.407   2.407   2.414   2.417
  2.422   2.434   2.438   2.442   2.453   2.462   2.468   2.477
  2.480   2.483   2.487   2.497   2.498   2.512   2.520   2.523
  2.532   2.543   2.552   2.563   2.564   2.575   2.584   2.603
  2.604   2.605   2.608   2.614   2.619   2.625   2.627   2.631
  2.652   2.655   2.656   2.661   2.665   2.673   2.700   2.701
  2.714   2.736   2.742   2.756   2.759   2.761   2.775   2.778
  2.783   2.787   2.791   2.800   2.802   2.808   2.811   2.813
  2.828   2.835   2.843   2.845   2.863   2.867   2.868   2.884
  2.890   2.897   2.900   2.916   2.934   2.934   2.939   2.939
  2.948   2.952   2.956   2.960   2.961   2.967   2.971   2.976
  2.978   2.981   2.984   2.986   2.999   3.012   3.014   3.026
  3.030   3.035   3.036   3.044   3.058   3.058   3.060   3.067
  3.072   3.077   3.084   3.085   3.086   3.093   3.093   3.107
  3.112   3.115   3.117   3.118   3.124   3.131   3.138   3.142
  3.145   3.146   3.166   3.168   3.174   3.177   3.180   3.187
  3.192   3.192   3.193   3.203   3.205   3.206   3.209   3.212
  3.225   3.226   3.229   3.233   3.239   3.245   3.246   3.248
  3.256   3.264   3.267   3.268   3.275   3.280   3.287   3.294
  3.295   3.302   3.303   3.309   3.312   3.319   3.326   3.327
  3.330   3.335   3.342   3.344   3.352   3.356   3.358   3.370
  3.377   3.378   3.385   3.389   3.397   3.405   3.412   3.422
  3.425   3.429   3.431   3.441   3.449   3.461   3.464   3.474
  3.478   3.488   3.491   3.497   3.501   3.505   3.516   3.518
  3.529   3.532   3.548   3.549   3.558   3.568   3.573   3.578
  3.589   3.590   3.593   3.597   3.611   3.623   3.628   3.633
  3.643   3.648   3.663   3.671   3.674   3.683   3.704   3.708
  3.721   3.729   3.730   3.731   3.748   3.751   3.754   3.758
  3.772   3.785   3.793   3.794   3.796   3.802   3.808   3.819
  3.828   3.831   3.840   3.844   3.857   3.860   3.860   3.865
  3.871   3.884   3.897   3.914   3.921   3.922   3.934   3.939
  3.943   3.957   3.963   3.967   3.973   3.980   3.984   3.989
  3.991   3.998   4.012   4.015   4.028   4.035   4.046   4.053
  4.064   4.078   4.081   4.089   4.093   4.103   4.111   4.118
  4.119   4.130   4.140   4.151   4.168   4.173   4.173   4.186
  4.191   4.202   4.206   4.215   4.221   4.238   4.243   4.248
  4.257   4.268   4.281   4.291   4.297   4.300   4.306   4.321
  4.328   4.329   4.345   4.351   4.375   4.380   4.383   4.390
  4.400   4.401   4.410   4.416   4.426   4.436   4.452   4.465
  4.472   4.478   4.483   4.494   4.504   4.526   4.534   4.543
  4.568   4.576   4.578   4.579   4.586   4.602   4.605   4.627
  4.633   4.645   4.646   4.672   4.676   4.683   4.691   4.705
  4.712   4.729   4.739   4.763   4.763   4.778   4.786   4.811
  4.812   4.821   4.837   4.845   4.849   4.867   4.871   4.873
  4.883   4.909   4.933   4.934   4.943   4.945   4.953   4.956
  4.960   4.965   4.971   4.987   4.993   4.993   5.008   5.015
  5.030   5.034   5.064   5.082   5.085   5.100   5.109   5.119
  5.135   5.149   5.162   5.165   5.173   5.182   5.194   5.224
  5.234   5.235   5.242   5.251   5.263   5.281   5.283   5.291
  5.319   5.321   5.331   5.357   5.372   5.393   5.396   5.409
  5.437   5.459   5.462   5.469   5.488   5.491   5.522   5.530
  5.547   5.556   5.567   5.622   5.636   5.662   5.666   5.676
  5.703   5.708   5.731   5.742   5.776   5.799   5.838   5.851
  5.887   5.905   5.921   5.951   5.971   6.008   6.078   6.110
  6.138   6.154   6.181   6.192   6.204   6.235   6.284   6.339
  6.347   6.387   6.398   6.430   6.558   6.830   7.086   8.066
  8.885   9.945  10.216  10.953  11.225  11.249  11.636  12.057
 12.183  12.528  12.666  12.834  12.889  13.224  13.387  13.459
 13.555  13.649  13.840  14.270  14.606  14.968  15.184
 --------------------------------------------------------------
 
          Ground-State Mulliken Net Atomic Charges

     Atom                 Charge (a.u.)
  ----------------------------------------
      1 C                    -0.080860
      2 C                    -0.105357
      3 N                    -0.158425
      4 C                    -0.150895
      5 C                    -0.109523
      6 C                     0.105910
      7 C                     0.053822
      8 C                    -0.080819
      9 C                     0.041310
     10 N                    -0.191404
     11 N                    -0.295527
     12 C                     0.026243
     13 C                     0.112769
     14 S                     0.402980
     15 N                    -0.281526
     16 C                    -0.053714
     17 S                     0.129644
     18 C                    -0.008940
     19 C                    -0.020558
     20 S                     0.094683
     21 C                     0.021115
     22 C                     0.037484
     23 C                    -0.161992
     24 C                    -0.159980
     25 N                    -0.183025
     26 S                     0.100424
     27 C                    -0.074602
     28 C                    -0.203165
     29 H                     0.122728
     30 H                     0.128545
     31 H                     0.137002
     32 H                     0.126500
     33 H                     0.129973
     34 H                     0.131822
     35 H                     0.142181
     36 H                     0.129354
     37 H                     0.145822
  ----------------------------------------
  Sum of atomic charges =     0.000000

 -----------------------------------------------------------------
                    Cartesian Multipole Moments
 -----------------------------------------------------------------
    Charge (ESU x 10^10)
                 0.0000
    Dipole Moment (Debye)
         X      -2.0631      Y       3.0722      Z       0.0216
       Tot       3.7007
    Quadrupole Moments (Debye-Ang)
        XX    -167.6337     XY       9.1693     YY    -172.9102
        XZ       0.1803     YZ      -0.1008     ZZ    -190.0653
    Octopole Moments (Debye-Ang^2)
       XXX    -199.3207    XXY     149.8918    XYY     -51.4951
       YYY      11.1669    XXZ      -0.0833    XYZ       0.0704
       YYZ       0.8572    XZZ       3.9453    YZZ      10.3928
       ZZZ       1.2727
    Hexadecapole Moments (Debye-Ang^3)
      XXXX  -17133.4808   XXXY     328.5062   XXYY   -3789.7518
      XYYY     191.8261   YYYY   -3668.9822   XXXZ      10.5942
      XXYZ      -6.2868   XYYZ       1.1359   YYYZ      -2.3699
      XXZZ   -3441.9842   XYZZ      -0.4331   YYZZ    -743.6134
      XZZZ      -0.8803   YZZZ      -0.9357   ZZZZ    -213.7427
 -----------------------------------------------------------------
Archival summary:
1\1\mn169\OPT\ProcedureUnspecified\BasisUnspecified\45199\afmv_a\SatJun304:26:012017SatJun304:26:012017\0\\#,OPT,ProcedureUnspecified,BasisUnspecified,\\0,1\S\C,1,1.7198\C,2,1.37967,1,111.043\C,3,1.41875,2,111.896,1,-0.0203884,0\C,4,1.37624,3,114.555,2,-0.0688159,0\C,3,1.43625,2,135.858,1,179.98,0\H,6,1.07703,3,123.622,2,-0.0235219,0\C,6,1.34489,3,111.192,2,-179.972,0\H,8,1.07845,6,126.595,3,179.991,0\C,5,1.44307,4,125.4,3,179.772,0\N,10,1.30961,5,117.206,4,-0.479697,0\C,11,1.35375,10,120.834,5,-179.883,0\H,12,1.07973,11,112.793,10,-180,0\C,12,1.37386,11,127.342,10,0.00668781,0\C,10,1.43068,5,124.207,4,179.59,0\N,15,1.32877,10,125.933,5,-0.157639,0\C,15,1.43229,10,120.097,5,179.865,0\N,17,1.33572,15,111.879,10,179.975,0\C,2,1.448,1,122.027,3,179.914,0\N,19,1.30232,2,123.331,1,-179.217,0\C,20,1.36279,19,111.165,2,179.96,0\H,21,1.07915,20,119.183,19,179.954,0\C,21,1.35558,20,116.043,19,-0.025191,0\H,23,1.07567,21,128.698,20,-179.946,0\C,14,1.48162,12,122.12,11,179.725,0\C,25,1.39484,14,122.819,12,180,0\H,26,1.07713,25,120.277,14,-0.0545121,0\C,26,1.3833,25,119.729,14,179.893,0\H,28,1.08079,26,120.399,25,-179.987,0\C,28,1.3815,26,119.046,25,-0.0465634,0\H,30,1.08372,28,121.019,26,-179.946,0\N,30,1.33025,28,122.652,26,0.0283044,0\C,32,1.32377,30,117.807,28,-0.00539562,0\H,33,1.08173,32,114.256,30,-179.979,0\S,16,1.60661,15,106.498,10,-179.98,0\S,23,1.71362,21,109.671,20,0.0274065,0\S,4,1.72942,3,111.755,2,179.92,0\\\@

 Total job time:  7216.04s(wall), 109295.77s(cpu) 
 Sat Jun  3 04:26:01 2017

        *************************************************************
        *                                                           *
        *  Thank you very much for using Q-Chem.  Have a nice day.  *
        *                                                           *
        *************************************************************


0 sent ACK to 0 
now end server 0 ... 
cleanup process ... done
