
Running Job 1 of 1 C271_1/C271_345.qcin
qchem C271_1/C271_345.qcin_49935.0 /tmpu/cab_g/afmv_a/scratch_qchem/qchem49935/ 1
/tmpu/appuserlic/qchem4.4/parallel-MPICH/bin/mpi/mpirun_qchem -machinefile /tmpu/appuserlic/qchem4.4/parallel-MPICH/bin/mpi/machines -np 1 /tmpu/appuserlic/qchem4.4/parallel-MPICH/exe/qcprog.exe C271_1/C271_345.qcin_49935.0 /tmpu/cab_g/afmv_a/scratch_qchem/qchem49935/

Process 0 of 1 is on mn169 - thread support 0
initial socket setup ...start
initial socket setup ...done 
now start server 0 ... 
Check license passed

                  Welcome to Q-Chem
     A Quantum Leap Into The Future Of Chemistry


 Q-Chem 4.4, Q-Chem, Inc., Pleasanton, CA (2016)

 Y. Shao,  Z. Gan,  E. Epifanovsky,  A. T. B. Gilbert,  M. Wormit,  
 J. Kussmann,  A. W. Lange,  A. Behn,  J. Deng,  X. Feng,  D. Ghosh,  
 M. Goldey,  P. R. Horn,  L. D. Jacobson,  I. Kaliman,  F. Rob,  
 R. Z. Khaliullin,  T. Kus,  A. Landau,  J. Liu,  E. I. Proynov,  Y. M. Rhee,  
 R. M. Richard,  M. A. Rohrdanz,  R. P. Steele,  E. J. Sundstrom,  
 H. L. Woodcock III,  P. M. Zimmerman,  D. Zuev,  B. Albrecht,  E. Alguire,  
 B. Austin,  S. A. Baeppler,  G. J. O. Beran,  Y. A. Bernard,  E. Berquist,  
 K. Brandhorst,  K. B. Bravaya,  S. T. Brown,  D. Casanova,  C.-M. Chang,  
 Y. Chen,  S. H. Chien,  K. D. Closser,  M. P. Coons,  D. L. Crittenden,  
 S. Dasgupta,  M. Diedenhofen,  R. A. DiStasio Jr.,  H. Do,  A. D. Dutoi,  
 R. G. Edgar,  P.-T. Fang,  S. Fatehi,  Q. Feng,  L. Fusti-Molnar,  
 A. Ghysels,  A. Golubeva-Zadorozhnaya,  J. Gomes,  A. Gunina,  
 M. W. D. Hanson-Heine,  P. H. P. Harbach,  A. W. Hauser,  J. E. Herr,  
 E. G. Hohenstein,  Z. C. Holden,  K. Hui,  T.-C. Jagau,  H. Ji,  B. Kaduk,  
 K. Khistyaev,  Jaehoon Kim,  Jihan Kim,  R. A. King,  P. Klunzinger,  
 K. Koh,  D. Kosenkov,  T. Kowalczyk,  C. M. Krauter,  A. Kunitsa,  
 K. U. Lao,  A. Laurent,  K. V. Lawler,  J. Lee,  D. Lefrancois,  S. Lehtola,  
 S. V. Levchenko,  C. Y. Lin,  Y.-S. Lin,  F. Liu,  E. Livshits,  
 R. C. Lochan,  A. Luenser,  P. Manohar,  S. F. Manzer,  S.-P. Mao,  Y. Mao,  
 N. Mardirossian,  A. V. Marenich,  L. A. Martinez-Martinez,  S. A. Maurer,  
 N. J. Mayhall,  J.-M. Mewes,  A. F. Morrison,  K. Nanda,  T. S. Nguyen-Beck,  
 C. M. Oana,  R. Olivares-Amaya,  D. P. O'Neill,  J. A. Parkhill,  
 T. M. Perrine,  R. Peverati,  P. A. Pieniazek,  F. Plasser,  A. Prociuk,  
 D. R. Rehn,  E. Rosta,  N. J. Russ,  N. Sergueev,  S. M. Sharada,  
 S. Sharma,  D. W. Small,  A. Sodt,  T. Stauch,  T. Stein,  D. Stuck,  
 Y.-C. Su,  A. J. W. Thom,  T. Tsuchimochi,  L. Vogt,  O. Vydrov,  T. Wang,  
 M. A. Watson,  J. Wenzel,  A. White,  C. F. Williams,  V. Vanovschi,  
 K. Yao,  S. Yeganeh,  S. R. Yost,  Z.-Q. You,  I. Y. Zhang,  X. Zhang,  
 Y. Zhao,  B. R. Brooks,  G. K. L. Chan,  D. M. Chipman,  C. J. Cramer,  
 W. A. Goddard III,  M. S. Gordon,  W. J. Hehre,  A. Klamt,  
 H. F. Schaefer III,  M. W. Schmidt,  C. D. Sherrill,  D. G. Truhlar,  
 A. Warshel,  X. Xu,  A. Aspuru-Guzik,  R. Baer,  A. T. Bell,  N. A. Besley,  
 J.-D. Chai,  A. Dreuw,  B. D. Dunietz,  T. R. Furlani,  S. R. Gwaltney,  
 C.-P. Hsu,  Y. Jung,  J. Kong,  D. S. Lambrecht,  W. Liang,  C. Ochsenfeld,  
 V. A. Rassolov,  L. V. Slipchenko,  J. E. Subotnik,  T. Van Voorhis,  
 J. M. Herbert,  A. I. Krylov,  P. M. W. Gill,  M. Head-Gordon

 Contributors to earlier versions of Q-Chem not listed above: 
 R. D. Adamson,  J. Baker,  E. F. C. Byrd,  A. K. Chakraborty,  C.-L. Cheng,  
 H. Dachsel,  R. J. Doerksen,  G. Hawkins,  A. Heyden,  S. Hirata,  
 G. Kedziora,  F. J. Keil,  C. Kelley,  P. P. Korambath,  W. Kurlancheek,  
 A. M. Lee,  M. S. Lee,  D. Liotard,  I. Lotan,  P. E. Maslen,  N. Nair,  
 D. Neuhauser,  R. Olson,  B. Peters,  J. Ritchie,  N. E. Schultz,  
 N. Shenvi,  A. C. Simmonett,  K. S. Thanthiriwatte,  Q. Wu,  W. Zhang

 Please cite Q-Chem as follows:
 Y. Shao et al., Mol. Phys. 113, 184-215 (2015)
 DOI: 10.1080/00268976.2014.952696

 Q-Chem 4.4.2 for Intel X86 Linux

 Parts of Q-Chem use Armadillo 5.200.1 (Boston Tea Smuggler).
 http://arma.sourceforge.net/

 Q-Chem begins on Thu Jun  1 12:56:42 2017  

Host: 
0

     Scratch files written to /tmpu/cab_g/afmv_a/scratch_qchem/qchem49935//
 Dec716 11556_ 22328  22283 4050   
 Parallel job on  1  processors
Processing $rem in /tmpu/appuserlic/qchem4.4/parallel-MPICH/config/preferences.
 MEM_TOTAL  2000 
FILE_GEOM_ORG=        593

Checking the input file for inconsistencies... 	...done.

--------------------------------------------------------------
User input:
--------------------------------------------------------------
$comment
OPTIMIZATION
$end

$rem
JOBTYPE OPT
EXCHANGE omegaB97X-D
BASIS cc-pVTZ
$end

$molecule
0 1
C          0.00000        0.00000        0.00000
C          1.38508        0.00000        0.00000
N         -0.72771       -1.11322        0.00000
C          2.04720       -1.21160       -0.00386
C         -0.08136       -2.27149       -0.00595
C          1.30925       -2.38901       -0.00649
C          1.96927       -3.70493        0.02329
C          3.30215       -3.85108       -0.24628
C          1.28372       -4.91761        0.32565
N          3.99389       -5.01677       -0.25859
N         -0.00935       -5.07251        0.61633
C          2.00001       -6.15329        0.31293
C          3.39978       -6.15480        0.00734
S         -0.24327       -6.64833        0.85055
N          1.24365       -7.21003        0.59601
C          4.22310       -7.34071       -0.03053
S          3.68023       -8.95841        0.25949
C          5.57059       -7.35654       -0.30845
C          5.24505       -9.62900        0.00765
S          6.72407       -6.12298       -0.68672
C          6.16356       -8.64445       -0.29152
C          5.49296      -11.05227        0.10255
C          7.97723       -7.33891       -0.81597
C          7.56923       -8.60032       -0.59037
N          6.66289      -11.58800       -0.09669
S          4.24740      -12.20612        0.49347
C          6.61432      -12.94253        0.04848
C          5.40440      -13.46491        0.36497
H         -0.55134        0.93273        0.00000
H          1.92494        0.93597       -0.01293
H          3.12873       -1.25416       -0.02668
H         -0.69553       -3.16348       -0.00579
H          3.90203       -2.97773       -0.46878
H          8.97865       -7.02599       -1.06787
H          8.19201       -9.47781       -0.62931
H          7.51153      -13.52624       -0.09013
H          5.13779      -14.49496        0.52424
$end

$opt
CONSTRAINT
tors 4 6 7 8 -15.00000
tors 10 13 16 17 -179.11427
tors 17 19 22 25 179.21698
ENDCONSTRAINT
$end
--------------------------------------------------------------
 ----------------------------------------------------------------
             Standard Nuclear Orientation (Angstroms)
    I     Atom           X                Y                Z
 ----------------------------------------------------------------
    1      C       7.6103277453     0.3603766553     0.0319638347
    2      C       6.9234721084     1.5328931688    -0.2361424243
    3      N       7.0045294435    -0.7958483152     0.2868615542
    4      C       5.5430063603     1.5063113761    -0.2364261918
    5      C       5.6781781140    -0.8094438932     0.2862065509
    6      C       4.8865275542     0.3108451314     0.0295953535
    7      C       3.4167593040     0.2245007095     0.0075811172
    8      C       2.6269358001     1.3409127835     0.0275765029
    9      C       2.7058682013    -1.0104793717    -0.0305134201
   10      N       1.2715867144     1.3635328744     0.0251011798
   11      N       3.2146849582    -2.2438972105    -0.0479730875
   12      C       1.2775659575    -1.0009500501    -0.0301710889
   13      C       0.5799106418     0.2501579260    -0.0027945679
   14      S       1.9640076182    -3.2578577095    -0.0698029934
   15      N       0.7370610202    -2.2159826251    -0.0517214504
   16      C      -0.8584308423     0.3799477178    -0.0037286573
   17      S      -1.9918652922    -0.9280854087    -0.0159112167
   18      C      -1.5423959735     1.5737935860     0.0082361944
   19      C      -3.3519775642     0.1263043675    -0.0043884739
   20      S      -1.0459657219     3.2316395984     0.0276830782
   21      C      -2.9546845254     1.4470937079     0.0088693980
   22      C      -4.7101300852    -0.3752506248     0.0008259555
   23      C      -2.7241900551     3.7307375780     0.0357829016
   24      C      -3.6155854382     2.7238679353     0.0238521867
   25      N      -5.7569327136     0.3987796091     0.0236485218
   26      S      -5.0915906719    -2.0751347385    -0.0213055500
   27      C      -6.9080089520    -0.3314025479     0.0301604978
   28      C      -6.7593418024    -1.6784015494     0.0090664394
   29      H       8.6936729833     0.3462596094     0.0431375922
   30      H       7.4684158431     2.4469157801    -0.4239051399
   31      H       4.9695583295     2.4062051934    -0.4191492618
   32      H       5.2081824406    -1.7622358023     0.4963080011
   33      H       3.0862283470     2.3212291663     0.0390931379
   34      H      -2.9508821028     4.7854554315     0.0556705296
   35      H      -4.6866705386     2.8337900687     0.0311859693
   36      H      -7.8607971181     0.1752077093     0.0515295933
   37      H      -7.5204283462    -2.4387929885     0.0107868120
 ----------------------------------------------------------------
 Molecular Point Group                 C1    NOp =  1
 Largest Abelian Subgroup              C1    NOp =  1
 Nuclear Repulsion Energy =  2969.0013849147 hartrees
 There are      111 alpha and      111 beta electrons
 Requested basis set is cc-pVTZ
 There are 342 shells and 982 basis functions

 Total QAlloc Memory Limit   2000 MB
 Mega-Array Size        61 MB
 MEM_STATIC part        62 MB
 A cutoff of  1.0D-11 yielded  29237 shell pairs
 There are    231717 function pairs (    302683 Cartesian)
 
 -------------------------------------------------------
 OpenMP Integral Computing Module                       
 Release: version 1.0, May 2013, Q-Chem Inc. Pittsburgh 
 -------------------------------------------------------
 Integral Job Info:
 Integral job number is                      11
 Integral operator is                         1
 short-range coefficients              22203600
 long-range coefficients              100000000
 Omega coefficients                         200
 if combine SR and LR in K                    1
 Integral screening is                        0
 Integral computing path is                   2
 max size of driver memory is            800000
 size of driver memory is                776718
 size of scratch memory is             26248924
 max col of scratch BK array              10000
 max len of scratch array in speh3          662
 max len of scratch index in speh4           32
 max int batch size is                      520
 min int batch size is                       52
 fixed nKL is                                52
 max L of basis functions is                  3
 order of int derivative is                   0
 number of shells is                        342
 number of basis is                        1131
 number of cartesian basis is              1131
 number of contracted shell pairs         29237
 number of primitive shell pairs          92589
 maxK2 (contraction) of shell pair          121
 max number of K2 of shell pair               1
 max number of CS2 of shell pair           3957
 max number of PS2 of shell pair          11711
 mem total for path MDJ                  804944
 -------------------------------------------------------
 Smallest overlap matrix eigenvalue = 1.98E-05

 Scale SEOQF with 1.000000e-02/1.000000e-01/1.000000e+00

 Standard Electronic Orientation quadrupole field applied
 Nucleus-field energy     =     0.0000000679 hartrees
 Guess from superposition of atomic densities
 Warning:  Energy on first SCF cycle will be non-variational
 Long-range K will be added via erf
 Coulomb attenuation parameter = 0.2 bohr**(-1)
 A restricted hybrid HF-DFT SCF calculation will be
 performed using Pulay DIIS extrapolation
 Exchange:     0.2220 Hartree-Fock + 1.0000 wB97X-D + LR-HF
 Correlation:  1.0000 wB97X-D
 Using SG-2 standard quadrature grid
 Dispersion:   Grimme D
 SCF converges when DIIS error is below 1.0E-08
 using 16 threads for integral computing 
 using 16 threads for integral computing 
 K construction time:  CPU 70.95 s  wall 4.72 s
 -------------------------------------------------------
 OpenMP BLAS3 based DFT computing Module                
 Release: version 1.0, May 2013, Q-Chem Inc. Pittsburgh 
 -------------------------------------------------------
 ---------------------------------------
  Cycle       Energy         DIIS Error
 ---------------------------------------
    1   -2605.8678075614      1.87E-02
 K construction time:  CPU 1098.02 s  wall 71.64 s
    2   -2595.6565644950      1.38E-03
 K construction time:  CPU 1045.96 s  wall 68.25 s
    3   -2595.6558325607      1.50E-03
 K construction time:  CPU 1000.39 s  wall 65.33 s
    4   -2595.8939439193      2.58E-04
 K construction time:  CPU 932.04 s  wall 60.76 s
    5   -2595.9002807057      1.38E-04
 K construction time:  CPU 882.82 s  wall 57.60 s
    6   -2595.9023422720      4.41E-05
 K construction time:  CPU 828.99 s  wall 54.16 s
    7   -2595.9025598073      2.04E-05
 K construction time:  CPU 783.76 s  wall 51.05 s
    8   -2595.9026189955      6.44E-06
 K construction time:  CPU 751.96 s  wall 49.01 s
    9   -2595.9026316348      3.47E-06
 K construction time:  CPU 721.33 s  wall 46.92 s
   10   -2595.9026354513      1.11E-06
 K construction time:  CPU 654.67 s  wall 42.49 s
   11   -2595.9026358706      7.06E-07
 K construction time:  CPU 607.27 s  wall 39.53 s
   12   -2595.9026359948      2.27E-07
 K construction time:  CPU 543.32 s  wall 35.25 s
   13   -2595.9026360088      1.03E-07
 K construction time:  CPU 481.17 s  wall 31.19 s
   14   -2595.9026360104      3.17E-08
 K construction time:  CPU 407.20 s  wall 26.40 s
   15   -2595.9026360101      1.41E-08
 K construction time:  CPU 1101.29 s  wall 71.87 s
   16   -2595.9026360088      5.69E-09 Convergence criterion met
 ---------------------------------------
 SCF time:  CPU 15825.95 s  wall 1055.77 s
 SCF   energy in the final basis set = -2595.9026360088
 Total energy in the final basis set = -2595.9026360088
 
 --------------------------------------------------------------
 
                    Orbital Energies (a.u.)
 --------------------------------------------------------------
 
 Alpha MOs
 -- Occupied --
-89.157 -89.095 -89.093 -89.076 -14.497 -14.489 -14.453 -14.446
-14.433 -10.375 -10.370 -10.364 -10.362 -10.346 -10.342 -10.341
-10.334 -10.329 -10.328 -10.328 -10.324 -10.323 -10.319 -10.317
-10.314 -10.313 -10.301 -10.296  -8.167  -8.109  -8.109  -8.090
 -6.117  -6.112  -6.111  -6.059  -6.058  -6.055  -6.054  -6.052
 -6.052  -6.039  -6.036  -6.032  -1.155  -1.084  -1.074  -1.052
 -1.025  -1.017  -0.957  -0.947  -0.913  -0.911  -0.907  -0.883
 -0.861  -0.845  -0.830  -0.808  -0.777  -0.757  -0.745  -0.725
 -0.724  -0.695  -0.689  -0.679  -0.649  -0.642  -0.625  -0.620
 -0.609  -0.596  -0.581  -0.579  -0.570  -0.563  -0.543  -0.537
 -0.526  -0.524  -0.517  -0.515  -0.512  -0.506  -0.497  -0.491
 -0.489  -0.481  -0.478  -0.466  -0.458  -0.452  -0.438  -0.434
 -0.431  -0.420  -0.401  -0.400  -0.385  -0.373  -0.372  -0.371
 -0.364  -0.358  -0.338  -0.337  -0.326  -0.317  -0.267
 -- Virtual --
 -0.060  -0.011   0.021   0.037   0.051   0.057   0.064   0.071
  0.073   0.101   0.107   0.116   0.118   0.121   0.130   0.134
  0.142   0.147   0.151   0.169   0.170   0.171   0.179   0.182
  0.194   0.199   0.203   0.212   0.226   0.229   0.244   0.246
  0.253   0.263   0.265   0.269   0.272   0.277   0.287   0.293
  0.296   0.303   0.308   0.312   0.316   0.318   0.320   0.327
  0.330   0.332   0.339   0.341   0.343   0.353   0.355   0.363
  0.364   0.368   0.372   0.373   0.380   0.383   0.385   0.387
  0.390   0.392   0.397   0.401   0.403   0.407   0.408   0.412
  0.422   0.428   0.430   0.432   0.434   0.438   0.442   0.445
  0.451   0.451   0.454   0.458   0.461   0.464   0.467   0.469
  0.469   0.473   0.478   0.484   0.486   0.487   0.490   0.495
  0.498   0.499   0.504   0.507   0.514   0.517   0.521   0.522
  0.525   0.529   0.535   0.540   0.543   0.548   0.555   0.560
  0.567   0.573   0.574   0.578   0.587   0.591   0.598   0.602
  0.608   0.616   0.626   0.630   0.640   0.646   0.650   0.654
  0.657   0.662   0.666   0.666   0.677   0.681   0.690   0.691
  0.692   0.700   0.703   0.711   0.718   0.723   0.731   0.738
  0.740   0.743   0.745   0.749   0.756   0.758   0.768   0.769
  0.772   0.775   0.779   0.783   0.784   0.790   0.798   0.803
  0.807   0.815   0.817   0.821   0.825   0.827   0.830   0.833
  0.839   0.842   0.851   0.854   0.854   0.857   0.869   0.870
  0.877   0.881   0.883   0.897   0.902   0.909   0.912   0.914
  0.914   0.925   0.932   0.936   0.944   0.949   0.953   0.963
  0.967   0.970   0.974   0.976   0.981   0.985   0.991   0.994
  1.000   1.004   1.012   1.020   1.021   1.029   1.034   1.039
  1.040   1.043   1.055   1.064   1.066   1.071   1.074   1.080
  1.088   1.093   1.097   1.105   1.112   1.118   1.124   1.127
  1.133   1.136   1.139   1.152   1.158   1.165   1.168   1.177
  1.180   1.189   1.196   1.202   1.216   1.221   1.223   1.228
  1.236   1.249   1.251   1.259   1.268   1.271   1.275   1.285
  1.289   1.298   1.302   1.306   1.310   1.316   1.327   1.334
  1.338   1.351   1.354   1.360   1.366   1.375   1.378   1.385
  1.389   1.395   1.408   1.418   1.421   1.429   1.431   1.440
  1.446   1.452   1.456   1.467   1.475   1.485   1.488   1.498
  1.501   1.505   1.518   1.534   1.535   1.537   1.542   1.547
  1.552   1.569   1.575   1.578   1.584   1.591   1.601   1.603
  1.607   1.614   1.628   1.630   1.634   1.637   1.644   1.651
  1.655   1.662   1.668   1.674   1.675   1.684   1.686   1.690
  1.695   1.702   1.704   1.718   1.723   1.728   1.730   1.744
  1.757   1.762   1.769   1.778   1.780   1.783   1.789   1.799
  1.811   1.818   1.827   1.838   1.843   1.860   1.867   1.873
  1.882   1.883   1.892   1.915   1.919   1.922   1.924   1.932
  1.937   1.941   1.947   1.958   1.964   1.971   1.973   1.989
  1.993   1.995   2.002   2.006   2.020   2.026   2.031   2.036
  2.050   2.056   2.060   2.072   2.077   2.086   2.103   2.107
  2.114   2.117   2.130   2.137   2.150   2.157   2.166   2.170
  2.177   2.180   2.192   2.204   2.216   2.227   2.234   2.235
  2.244   2.251   2.257   2.258   2.262   2.275   2.282   2.292
  2.314   2.317   2.329   2.346   2.354   2.360   2.366   2.378
  2.381   2.384   2.390   2.395   2.399   2.407   2.411   2.422
  2.426   2.433   2.440   2.445   2.452   2.459   2.470   2.477
  2.480   2.487   2.493   2.497   2.501   2.513   2.514   2.521
  2.529   2.535   2.543   2.548   2.555   2.560   2.582   2.589
  2.603   2.605   2.613   2.614   2.618   2.622   2.627   2.640
  2.643   2.656   2.657   2.665   2.671   2.680   2.683   2.712
  2.715   2.733   2.745   2.753   2.761   2.765   2.770   2.775
  2.778   2.783   2.787   2.792   2.799   2.806   2.811   2.812
  2.824   2.839   2.848   2.856   2.865   2.868   2.874   2.889
  2.892   2.897   2.902   2.913   2.933   2.933   2.939   2.940
  2.947   2.951   2.954   2.960   2.967   2.971   2.973   2.979
  2.983   2.989   2.994   2.998   3.002   3.012   3.020   3.026
  3.035   3.036   3.042   3.044   3.050   3.059   3.060   3.067
  3.071   3.080   3.084   3.089   3.091   3.094   3.096   3.106
  3.111   3.116   3.121   3.123   3.132   3.139   3.141   3.148
  3.151   3.156   3.166   3.168   3.172   3.176   3.180   3.181
  3.190   3.193   3.193   3.198   3.203   3.206   3.211   3.212
  3.225   3.226   3.228   3.234   3.241   3.243   3.248   3.250
  3.255   3.262   3.267   3.272   3.278   3.282   3.284   3.293
  3.298   3.300   3.309   3.309   3.313   3.316   3.317   3.327
  3.329   3.330   3.342   3.346   3.350   3.358   3.369   3.370
  3.378   3.379   3.386   3.394   3.401   3.411   3.415   3.425
  3.428   3.432   3.440   3.444   3.456   3.463   3.466   3.472
  3.481   3.482   3.489   3.497   3.499   3.502   3.506   3.516
  3.524   3.531   3.541   3.550   3.557   3.563   3.571   3.575
  3.585   3.589   3.596   3.604   3.613   3.618   3.621   3.628
  3.640   3.645   3.663   3.668   3.685   3.689   3.692   3.706
  3.713   3.729   3.729   3.740   3.748   3.754   3.760   3.768
  3.776   3.783   3.789   3.795   3.800   3.804   3.805   3.811
  3.827   3.831   3.837   3.844   3.854   3.857   3.865   3.867
  3.882   3.890   3.897   3.910   3.919   3.926   3.932   3.939
  3.949   3.956   3.960   3.964   3.967   3.972   3.984   3.986
  3.997   4.002   4.014   4.024   4.031   4.042   4.046   4.051
  4.060   4.073   4.082   4.085   4.102   4.109   4.117   4.127
  4.134   4.144   4.159   4.160   4.172   4.177   4.184   4.189
  4.196   4.197   4.202   4.210   4.227   4.232   4.243   4.259
  4.267   4.277   4.287   4.291   4.300   4.303   4.312   4.319
  4.330   4.340   4.344   4.359   4.370   4.379   4.384   4.388
  4.395   4.400   4.407   4.419   4.430   4.439   4.448   4.455
  4.466   4.479   4.488   4.501   4.513   4.530   4.536   4.544
  4.552   4.565   4.573   4.581   4.594   4.601   4.601   4.620
  4.623   4.639   4.653   4.669   4.676   4.679   4.694   4.699
  4.710   4.715   4.728   4.749   4.772   4.781   4.790   4.804
  4.813   4.828   4.836   4.846   4.847   4.862   4.871   4.902
  4.910   4.919   4.931   4.933   4.945   4.946   4.954   4.957
  4.959   4.966   4.987   4.991   4.992   5.000   5.009   5.027
  5.036   5.053   5.059   5.069   5.082   5.098   5.107   5.120
  5.126   5.139   5.154   5.159   5.171   5.175   5.198   5.214
  5.234   5.234   5.242   5.254   5.269   5.280   5.283   5.285
  5.321   5.323   5.332   5.355   5.368   5.393   5.400   5.418
  5.442   5.453   5.459   5.467   5.485   5.488   5.519   5.533
  5.545   5.554   5.574   5.609   5.617   5.656   5.663   5.674
  5.704   5.706   5.731   5.749   5.777   5.794   5.841   5.854
  5.875   5.893   5.901   5.959   5.977   6.021   6.026   6.106
  6.135   6.157   6.188   6.205   6.218   6.232   6.277   6.327
  6.346   6.382   6.403   6.443   6.525   6.848   7.085   8.052
  8.909   9.984  10.238  10.953  11.218  11.244  11.699  12.106
 12.220  12.546  12.634  12.829  13.059  13.212  13.236  13.476
 13.554  13.734  13.841  14.267  14.679  14.722  15.148
 --------------------------------------------------------------
 
          Ground-State Mulliken Net Atomic Charges

     Atom                 Charge (a.u.)
  ----------------------------------------
      1 C                    -0.078609
      2 C                    -0.104438
      3 N                    -0.157831
      4 C                    -0.144107
      5 C                    -0.114590
      6 C                     0.108148
      7 C                     0.050941
      8 C                    -0.096198
      9 C                     0.046937
     10 N                    -0.189884
     11 N                    -0.289886
     12 C                     0.029055
     13 C                     0.113349
     14 S                     0.408489
     15 N                    -0.281667
     16 C                    -0.056047
     17 S                     0.129598
     18 C                    -0.005395
     19 C                    -0.020484
     20 S                     0.091559
     21 C                     0.018967
     22 C                     0.037096
     23 C                    -0.162046
     24 C                    -0.159313
     25 N                    -0.183335
     26 S                     0.100125
     27 C                    -0.074861
     28 C                    -0.203018
     29 H                     0.123781
     30 H                     0.128772
     31 H                     0.119233
     32 H                     0.141623
     33 H                     0.125795
     34 H                     0.131120
     35 H                     0.142028
     36 H                     0.129212
     37 H                     0.145883
  ----------------------------------------
  Sum of atomic charges =     0.000000

 -----------------------------------------------------------------
                    Cartesian Multipole Moments
 -----------------------------------------------------------------
    Charge (ESU x 10^10)
                 0.0000
    Dipole Moment (Debye)
         X      -2.1160      Y       0.4590      Z      -0.3981
       Tot       2.2015
    Quadrupole Moments (Debye-Ang)
        XX    -171.1881     XY      19.5546     YY    -169.4945
        XZ      -3.2713     YZ      -0.5083     ZZ    -189.9286
    Octopole Moments (Debye-Ang^2)
       XXX    -245.6345    XXY      69.1304    XYY     -24.3132
       YYY       5.0286    XXZ     -22.6290    XYZ      -3.5156
       YYZ      -2.1459    XZZ       3.3420    YZZ     -12.4440
       ZZZ       0.0283
    Hexadecapole Moments (Debye-Ang^3)
      XXXX  -17507.1843   XXXY    1339.0414   XXYY   -3582.3951
      XYYY     -47.5735   YYYY   -3611.4925   XXXZ    -195.4818
      XXYZ     -11.4833   XYYZ     -19.9490   YYYZ      -0.0368
      XXZZ   -3428.1450   XYZZ     -11.9706   YYZZ    -740.1136
      XZZZ       3.7184   YZZZ       1.5808   ZZZZ    -226.3020
 -----------------------------------------------------------------
 Calculating analytic gradient of the SCF energy
 K construction time:  CPU 3028.14 s  wall 191.24 s
 Gradient of SCF Energy
            1           2           3           4           5           6
    1   0.0007375   0.0001083  -0.0028437  -0.0017669  -0.0016060   0.0022018
    2   0.0026725  -0.0020110  -0.0028429  -0.0017532   0.0026955   0.0022773
    3   0.0002889  -0.0015116  -0.0007693  -0.0017502  -0.0016559   0.0034397
            7           8           9          10          11          12
    1  -0.0036558   0.0048978   0.0002138  -0.0014437   0.0066788  -0.0005316
    2  -0.0006763   0.0008868  -0.0012580  -0.0003062   0.0022402   0.0004089
    3  -0.0011246   0.0007453  -0.0028124   0.0010747   0.0019635   0.0002004
           13          14          15          16          17          18
    1   0.0007083   0.0018494  -0.0000472   0.0005407  -0.0010293  -0.0004821
    2  -0.0001152   0.0007200   0.0000904  -0.0001738  -0.0004240  -0.0004165
    3  -0.0000782   0.0000808   0.0003492  -0.0000264   0.0000952  -0.0002495
           19          20          21          22          23          24
    1  -0.0002728   0.0005318   0.0003069   0.0000685   0.0010318  -0.0007799
    2   0.0006825   0.0002638  -0.0006133   0.0003289  -0.0007125   0.0017547
    3  -0.0002377  -0.0000940   0.0003592   0.0004186  -0.0001056  -0.0003573
           25          26          27          28          29          30
    1   0.0007189   0.0002331   0.0004086  -0.0006156  -0.0002925   0.0005864
    2   0.0001112  -0.0007656   0.0006309   0.0003242  -0.0000922  -0.0003447
    3  -0.0003711  -0.0003017   0.0000893   0.0000712   0.0003228   0.0006376
           31          32          33          34          35          36
    1  -0.0044557  -0.0039150   0.0027138  -0.0003320   0.0001461  -0.0005064
    2   0.0002997  -0.0032771   0.0007531   0.0002396  -0.0007408  -0.0007774
    3   0.0025037   0.0003807  -0.0020546   0.0002282   0.0000992   0.0000807
           37
    1  -0.0001058
    2  -0.0000795
    3   0.0000711
 Max gradient component =       6.679E-03
 RMS gradient           =       1.547E-03
 Gradient time:  CPU 3478.27 s  wall 223.42 s
 Geometry Optimization Parameters
   NAtoms,    NIC,     NZ,  NCons,   NDum,   NFix, NCnnct, MaxDiis
       37     280       0       3       0       0       0       0


** CONSTRAINED OPTIMIZATION IN DELOCALIZED INTERNAL COORDINATES **
   Searching for a Minimum

   Optimization Cycle:   1

                       Coordinates (Angstroms)
     ATOM                X               Y               Z
      1  C         7.6103277453    0.3603766553    0.0319638347
      2  C         6.9234721084    1.5328931688   -0.2361424243
      3  N         7.0045294435   -0.7958483152    0.2868615542
      4  C         5.5430063603    1.5063113761   -0.2364261918
      5  C         5.6781781140   -0.8094438932    0.2862065509
      6  C         4.8865275542    0.3108451314    0.0295953535
      7  C         3.4167593040    0.2245007095    0.0075811172
      8  C         2.6269358001    1.3409127835    0.0275765029
      9  C         2.7058682013   -1.0104793717   -0.0305134201
     10  N         1.2715867144    1.3635328744    0.0251011798
     11  N         3.2146849582   -2.2438972105   -0.0479730875
     12  C         1.2775659575   -1.0009500501   -0.0301710889
     13  C         0.5799106418    0.2501579260   -0.0027945679
     14  S         1.9640076182   -3.2578577095   -0.0698029934
     15  N         0.7370610202   -2.2159826251   -0.0517214504
     16  C        -0.8584308423    0.3799477178   -0.0037286573
     17  S        -1.9918652922   -0.9280854087   -0.0159112167
     18  C        -1.5423959735    1.5737935860    0.0082361944
     19  C        -3.3519775642    0.1263043675   -0.0043884739
     20  S        -1.0459657219    3.2316395984    0.0276830782
     21  C        -2.9546845254    1.4470937079    0.0088693980
     22  C        -4.7101300852   -0.3752506248    0.0008259555
     23  C        -2.7241900551    3.7307375780    0.0357829016
     24  C        -3.6155854382    2.7238679353    0.0238521867
     25  N        -5.7569327136    0.3987796091    0.0236485218
     26  S        -5.0915906719   -2.0751347385   -0.0213055500
     27  C        -6.9080089520   -0.3314025479    0.0301604978
     28  C        -6.7593418024   -1.6784015494    0.0090664394
     29  H         8.6936729833    0.3462596094    0.0431375922
     30  H         7.4684158431    2.4469157801   -0.4239051399
     31  H         4.9695583295    2.4062051934   -0.4191492618
     32  H         5.2081824406   -1.7622358023    0.4963080011
     33  H         3.0862283470    2.3212291663    0.0390931379
     34  H        -2.9508821028    4.7854554315    0.0556705296
     35  H        -4.6866705386    2.8337900687    0.0311859693
     36  H        -7.8607971181    0.1752077093    0.0515295933
     37  H        -7.5204283462   -2.4387929885    0.0107868120
   Point Group: c1    Number of degrees of freedom:   105


   Energy is  -2595.902636009

              Constraints and their Current Values
                                        Value     Constraint
   Dihedral:        4   6   7   8      -15.000      -15.000
   Dihedral:       10  13  16  17     -179.124     -179.114
   Dihedral:       17  19  22  25      179.258      179.217

 Attempting to Generate Delocalized Internal Coordinates

   Using Lagrange Multiplier Algorithm


108 Hessian modes will be used to form the next step
  Hessian Eigenvalues:
    -0.977753   -0.977753   -0.977753    0.045000    0.045000    0.045000
     0.045000    0.045000    0.045000    0.045000    0.045000    0.045000
     0.045000    0.045000    0.045000    0.045000    0.045000    0.045000
     0.045000    0.045000    0.045000    0.045000    0.045000    0.045000
     0.045001    0.045001    0.045001    0.045001    0.045001    0.045003
     0.045005    0.045007    0.045009    0.045012    0.159961    0.159984
     0.159995    0.159997    0.159998    0.159999    0.160000    0.160000
     0.160000    0.220002    0.224572    0.225458    0.231978    0.233022
     0.234404    0.247446    0.247715    0.249914    0.249956    0.249989
     0.249992    0.249998    0.249998    0.249998    0.249999    0.249999
     0.249999    0.250000    0.250000    0.297521    0.305114    0.316323
     0.317281    0.326675    0.334475    0.354466    0.355754    0.356364
     0.356776    0.356811    0.359242    0.360775    0.361169    0.363916
     0.365006    0.372834    0.385329    0.386479    0.390168    0.393199
     0.397174    0.410400    0.431175    0.455299    0.463158    0.473302
     0.473331    0.475013    0.483101    0.491316    0.496865    0.499407
     0.517635    0.525704    0.538140    0.558604    0.574891    0.584499
     0.591081    0.623467    0.638955    1.022753    1.022753    1.022753

 Minimum Search - Taking P-RFO Step
 Searching for Lamda that Maximizes Along the Constraint modes Only
 Value Taken    Lamda =   0.00001043
 Searching for Lamda that Minimizes Along All other modes
 Value Taken    Lamda =  -0.00475822
 Step Taken.  Stepsize is  0.174869

                             Maximum     Tolerance    Cnvgd?
         Gradient            0.017742       0.000300      NO
         Displacement        0.087153       0.001200      NO
         Energy change     *********       0.000001      NO


 New Cartesian Coordinates Obtained by Inverse Iteration

 Displacement from previous Coordinates is:  0.842234
 ----------------------------------------------------------------
             Standard Nuclear Orientation (Angstroms)
    I     Atom           X                Y                Z
 ----------------------------------------------------------------
    1      C       7.6569468523     0.4497640639     0.0401622359
    2      C       6.9137166803     1.5773536216    -0.2604238819
    3      N       7.1028810657    -0.7209443081     0.3286384330
    4      C       5.5374954540     1.4799435467    -0.2659272322
    5      C       5.7767592254    -0.8047741221     0.3187976806
    6      C       4.9168458339     0.2617700089     0.0223849093
    7      C       3.4321253906     0.1469134179     0.0169831099
    8      C       2.6435717946     1.2709767015     0.0350471361
    9      C       2.6761090646    -1.0752651615    -0.0224977406
   10      N       1.2914059339     1.3318896046     0.0340751581
   11      N       3.1173668081    -2.3356909915    -0.0651509834
   12      C       1.2441330539    -1.0227084155    -0.0274179735
   13      C       0.5732323551     0.2392212466     0.0037250006
   14      S       1.8315968509    -3.3053615112    -0.0952982343
   15      N       0.6535068691    -2.2138504592    -0.0625769564
   16      C      -0.8631354721     0.3879344267     0.0027172567
   17      S      -1.9968715154    -0.9180391878    -0.0125845181
   18      C      -1.5449541254     1.5835560896     0.0192608905
   19      C      -3.3561420336     0.1362112462    -0.0009151548
   20      S      -1.0513511444     3.2417454712     0.0451167707
   21      C      -2.9578981308     1.4567213379     0.0173099516
   22      C      -4.7152386823    -0.3632370463    -0.0014500418
   23      C      -2.7298524859     3.7403952121     0.0508801825
   24      C      -3.6194143885     2.7322274887     0.0355705538
   25      N      -5.7614752440     0.4117057286     0.0221200606
   26      S      -5.0987253573    -2.0614927069    -0.0299906791
   27      C      -6.9132921454    -0.3164689341     0.0180919685
   28      C      -6.7658314877    -1.6636436020    -0.0088209186
   29      H       8.7401531094     0.4875014422     0.0509919332
   30      H       7.4082452897     2.5126276571    -0.4810923599
   31      H       4.9513055157     2.3567655106    -0.4954583588
   32      H       5.3751008930    -1.7718282122     0.5669841810
   33      H       3.1043759478     2.2472147260     0.0664661279
   34      H      -2.9557226667     4.7948366387     0.0706176756
   35      H      -4.6904657726     2.8456625567     0.0402625413
   36      H      -7.8625288070     0.1966455966     0.0359278129
   37      H      -7.5273727877    -2.4232838335    -0.0157371586
 ----------------------------------------------------------------
 Molecular Point Group                 C1    NOp =  1
 Largest Abelian Subgroup              C1    NOp =  1
 Nuclear Repulsion Energy =  2962.9530305801 hartrees
 There are      111 alpha and      111 beta electrons
 Applying Cartesian multipole field
    Component          Value
    ---------          -----
     (2,0,0)        1.00000E-12
     (0,2,0)        2.00000E-11
     (0,0,2)       -3.00000E-10
 Nucleus-field energy     =     0.0000000676 hartrees
 Requested basis set is cc-pVTZ
 There are 342 shells and 982 basis functions
 A cutoff of  1.0D-11 yielded  29117 shell pairs
 There are    230775 function pairs (    301461 Cartesian)
 Smallest overlap matrix eigenvalue = 1.99E-05
 Guess MOs from SCF MO coefficient file
 Reading MOs from coefficient file
 Reading MOs from coefficient file
 Long-range K will be added via erf
 Coulomb attenuation parameter = 0.2 bohr**(-1)
 A restricted hybrid HF-DFT SCF calculation will be
 performed using Pulay DIIS extrapolation
 Exchange:     0.2220 Hartree-Fock + 1.0000 wB97X-D + LR-HF
 Correlation:  1.0000 wB97X-D
 Using SG-2 standard quadrature grid
 Dispersion:   Grimme D
 SCF converges when DIIS error is below 1.0E-08
 Geometry optimization detected.  Setting ReadMinima to 0
 Setting SaveMinima to 0
 using 16 threads for integral computing 
 using 16 threads for integral computing 
 K construction time:  CPU 1090.63 s  wall 71.17 s
 -------------------------------------------------------
 OpenMP BLAS3 based DFT computing Module                
 Release: version 1.0, May 2013, Q-Chem Inc. Pittsburgh 
 -------------------------------------------------------
 ---------------------------------------
  Cycle       Energy         DIIS Error
 ---------------------------------------
    1   -2595.9083194442      5.25E-04
 K construction time:  CPU 1093.20 s  wall 71.33 s
    2   -2595.9026486720      6.39E-05
 K construction time:  CPU 849.99 s  wall 55.45 s
    3   -2595.9028528999      6.91E-05
 K construction time:  CPU 808.12 s  wall 52.66 s
    4   -2595.9033517067      1.86E-05
 K construction time:  CPU 749.10 s  wall 48.87 s
    5   -2595.9033874037      9.66E-06
 K construction time:  CPU 701.03 s  wall 45.73 s
    6   -2595.9033988199      2.68E-06
 K construction time:  CPU 643.36 s  wall 41.97 s
    7   -2595.9033999585      1.06E-06
 K construction time:  CPU 584.17 s  wall 38.05 s
    8   -2595.9034001617      3.85E-07
 K construction time:  CPU 547.00 s  wall 35.60 s
    9   -2595.9034002002      1.73E-07
 K construction time:  CPU 483.73 s  wall 31.41 s
   10   -2595.9034002072      7.61E-08
 K construction time:  CPU 435.63 s  wall 28.21 s
   11   -2595.9034002088      3.30E-08
 K construction time:  CPU 395.17 s  wall 25.64 s
   12   -2595.9034002085      1.51E-08
 K construction time:  CPU 351.06 s  wall 22.81 s
   13   -2595.9034002088      5.56E-09 Convergence criterion met
 ---------------------------------------
 SCF time:  CPU 11730.53 s  wall 781.67 s
 SCF   energy in the final basis set = -2595.9034002088
 Total energy in the final basis set = -2595.9034002088
 
 --------------------------------------------------------------
 
                    Orbital Energies (a.u.)
 --------------------------------------------------------------
 
 Alpha MOs
 -- Occupied --
-89.157 -89.094 -89.093 -89.076 -14.495 -14.488 -14.452 -14.446
-14.435 -10.375 -10.369 -10.367 -10.361 -10.346 -10.341 -10.341
-10.335 -10.333 -10.329 -10.328 -10.325 -10.324 -10.323 -10.323
-10.314 -10.314 -10.302 -10.296  -8.167  -8.109  -8.109  -8.090
 -6.117  -6.111  -6.111  -6.058  -6.058  -6.054  -6.054  -6.052
 -6.052  -6.040  -6.036  -6.032  -1.153  -1.084  -1.074  -1.053
 -1.025  -1.015  -0.957  -0.945  -0.913  -0.911  -0.907  -0.884
 -0.862  -0.845  -0.830  -0.808  -0.777  -0.754  -0.745  -0.726
 -0.724  -0.695  -0.689  -0.679  -0.649  -0.641  -0.626  -0.620
 -0.609  -0.596  -0.581  -0.577  -0.571  -0.564  -0.542  -0.537
 -0.527  -0.524  -0.518  -0.515  -0.513  -0.506  -0.496  -0.491
 -0.489  -0.480  -0.478  -0.464  -0.458  -0.451  -0.439  -0.434
 -0.431  -0.421  -0.400  -0.399  -0.385  -0.373  -0.372  -0.371
 -0.364  -0.359  -0.340  -0.337  -0.326  -0.317  -0.267
 -- Virtual --
 -0.060  -0.010   0.021   0.036   0.051   0.057   0.064   0.069
  0.072   0.101   0.107   0.116   0.118   0.120   0.130   0.135
  0.143   0.148   0.152   0.169   0.170   0.171   0.178   0.181
  0.195   0.199   0.202   0.211   0.225   0.229   0.243   0.245
  0.252   0.262   0.263   0.268   0.272   0.276   0.286   0.292
  0.297   0.303   0.307   0.311   0.314   0.317   0.319   0.324
  0.328   0.331   0.337   0.339   0.343   0.353   0.355   0.361
  0.364   0.368   0.371   0.372   0.378   0.380   0.384   0.387
  0.390   0.392   0.395   0.400   0.403   0.407   0.409   0.412
  0.424   0.428   0.432   0.433   0.435   0.438   0.440   0.443
  0.451   0.451   0.454   0.457   0.461   0.463   0.465   0.468
  0.470   0.474   0.477   0.483   0.485   0.486   0.491   0.495
  0.497   0.499   0.503   0.504   0.513   0.516   0.521   0.522
  0.525   0.528   0.536   0.539   0.544   0.548   0.555   0.558
  0.562   0.568   0.571   0.578   0.587   0.591   0.597   0.602
  0.603   0.614   0.624   0.629   0.641   0.644   0.650   0.652
  0.656   0.663   0.666   0.667   0.676   0.681   0.689   0.690
  0.692   0.697   0.699   0.710   0.712   0.719   0.729   0.734
  0.737   0.742   0.743   0.747   0.753   0.755   0.764   0.768
  0.772   0.774   0.776   0.782   0.785   0.786   0.798   0.804
  0.807   0.812   0.816   0.822   0.824   0.826   0.830   0.833
  0.838   0.845   0.848   0.851   0.854   0.856   0.864   0.871
  0.876   0.881   0.882   0.890   0.898   0.905   0.906   0.911
  0.912   0.924   0.932   0.936   0.942   0.945   0.952   0.961
  0.964   0.969   0.973   0.976   0.983   0.985   0.990   0.992
  0.996   1.003   1.010   1.019   1.023   1.028   1.030   1.036
  1.040   1.045   1.053   1.063   1.065   1.069   1.076   1.082
  1.086   1.089   1.098   1.101   1.109   1.115   1.120   1.127
  1.131   1.136   1.139   1.151   1.155   1.160   1.167   1.176
  1.178   1.188   1.194   1.203   1.215   1.222   1.222   1.230
  1.233   1.247   1.252   1.259   1.264   1.269   1.275   1.281
  1.289   1.296   1.301   1.307   1.310   1.311   1.327   1.334
  1.337   1.346   1.353   1.358   1.362   1.372   1.376   1.386
  1.390   1.394   1.410   1.418   1.424   1.428   1.431   1.441
  1.447   1.452   1.454   1.459   1.471   1.479   1.487   1.491
  1.498   1.502   1.518   1.529   1.533   1.537   1.540   1.544
  1.549   1.565   1.572   1.577   1.583   1.590   1.599   1.601
  1.604   1.615   1.625   1.626   1.634   1.636   1.642   1.647
  1.655   1.661   1.666   1.670   1.675   1.682   1.684   1.687
  1.694   1.698   1.701   1.710   1.722   1.726   1.729   1.743
  1.752   1.764   1.769   1.778   1.779   1.782   1.788   1.796
  1.806   1.816   1.828   1.838   1.845   1.856   1.864   1.872
  1.881   1.883   1.890   1.905   1.914   1.922   1.923   1.928
  1.935   1.941   1.945   1.956   1.959   1.966   1.973   1.984
  1.994   1.996   2.000   2.004   2.020   2.025   2.030   2.036
  2.048   2.059   2.060   2.073   2.081   2.089   2.100   2.109
  2.117   2.118   2.128   2.133   2.146   2.157   2.163   2.171
  2.179   2.182   2.193   2.202   2.215   2.226   2.232   2.237
  2.243   2.248   2.253   2.258   2.262   2.273   2.280   2.291
  2.311   2.312   2.325   2.347   2.353   2.358   2.364   2.377
  2.379   2.387   2.392   2.394   2.397   2.405   2.408   2.417
  2.423   2.428   2.434   2.443   2.445   2.455   2.464   2.475
  2.478   2.481   2.492   2.493   2.501   2.509   2.511   2.518
  2.529   2.532   2.541   2.544   2.547   2.556   2.579   2.585
  2.600   2.603   2.606   2.614   2.617   2.621   2.625   2.635
  2.641   2.656   2.657   2.663   2.664   2.672   2.678   2.713
  2.715   2.732   2.745   2.755   2.761   2.762   2.769   2.774
  2.777   2.780   2.786   2.792   2.798   2.802   2.804   2.812
  2.825   2.834   2.843   2.849   2.861   2.866   2.869   2.884
  2.885   2.892   2.899   2.912   2.929   2.932   2.936   2.939
  2.945   2.948   2.952   2.955   2.959   2.967   2.972   2.976
  2.980   2.984   2.991   2.998   3.000   3.012   3.018   3.024
  3.029   3.038   3.042   3.046   3.048   3.057   3.060   3.064
  3.069   3.076   3.078   3.088   3.088   3.092   3.093   3.102
  3.111   3.115   3.117   3.123   3.128   3.138   3.139   3.146
  3.147   3.152   3.164   3.167   3.171   3.176   3.179   3.182
  3.188   3.189   3.191   3.196   3.203   3.205   3.209   3.210
  3.217   3.223   3.226   3.231   3.237   3.240   3.246   3.251
  3.252   3.261   3.266   3.269   3.271   3.278   3.284   3.287
  3.296   3.300   3.304   3.307   3.311   3.313   3.316   3.319
  3.329   3.330   3.342   3.344   3.346   3.356   3.367   3.371
  3.378   3.379   3.386   3.392   3.395   3.406   3.415   3.421
  3.426   3.430   3.437   3.440   3.454   3.461   3.462   3.471
  3.479   3.482   3.488   3.492   3.498   3.504   3.507   3.517
  3.524   3.529   3.540   3.542   3.553   3.556   3.571   3.574
  3.583   3.590   3.593   3.602   3.610   3.617   3.623   3.627
  3.635   3.644   3.654   3.662   3.685   3.687   3.691   3.704
  3.712   3.729   3.730   3.740   3.741   3.750   3.759   3.764
  3.779   3.781   3.783   3.794   3.797   3.803   3.806   3.810
  3.826   3.829   3.835   3.845   3.852   3.856   3.863   3.866
  3.881   3.883   3.886   3.906   3.918   3.922   3.927   3.937
  3.944   3.952   3.955   3.961   3.967   3.968   3.979   3.986
  3.989   3.996   4.013   4.018   4.027   4.035   4.046   4.056
  4.061   4.071   4.075   4.083   4.097   4.103   4.106   4.120
  4.125   4.135   4.151   4.159   4.165   4.174   4.181   4.185
  4.191   4.194   4.198   4.206   4.218   4.232   4.235   4.252
  4.258   4.275   4.283   4.287   4.293   4.298   4.309   4.319
  4.322   4.335   4.339   4.361   4.367   4.375   4.383   4.388
  4.389   4.397   4.399   4.413   4.422   4.433   4.442   4.454
  4.468   4.479   4.486   4.499   4.503   4.527   4.532   4.543
  4.550   4.565   4.567   4.581   4.585   4.597   4.601   4.615
  4.617   4.629   4.636   4.654   4.666   4.678   4.690   4.699
  4.706   4.717   4.719   4.750   4.767   4.773   4.790   4.802
  4.812   4.823   4.840   4.846   4.848   4.864   4.873   4.894
  4.897   4.914   4.917   4.933   4.935   4.945   4.947   4.952
  4.962   4.968   4.974   4.987   4.989   4.990   5.009   5.018
  5.035   5.043   5.055   5.061   5.074   5.088   5.100   5.117
  5.124   5.135   5.154   5.157   5.162   5.175   5.195   5.206
  5.231   5.234   5.242   5.248   5.254   5.275   5.281   5.283
  5.312   5.315   5.328   5.342   5.363   5.396   5.400   5.414
  5.447   5.452   5.458   5.462   5.484   5.503   5.515   5.532
  5.538   5.545   5.559   5.596   5.610   5.654   5.661   5.664
  5.698   5.707   5.735   5.750   5.758   5.792   5.834   5.841
  5.870   5.888   5.897   5.946   5.963   6.005   6.033   6.084
  6.134   6.150   6.177   6.196   6.202   6.227   6.280   6.311
  6.348   6.372   6.404   6.422   6.515   6.834   7.063   8.070
  8.926   9.842  10.186  10.949  11.172  11.234  11.621  12.054
 12.101  12.502  12.581  12.832  12.963  13.120  13.219  13.449
 13.545  13.617  13.843  14.269  14.508  14.660  15.015
 --------------------------------------------------------------
 
          Ground-State Mulliken Net Atomic Charges

     Atom                 Charge (a.u.)
  ----------------------------------------
      1 C                    -0.076964
      2 C                    -0.102608
      3 N                    -0.155792
      4 C                    -0.144891
      5 C                    -0.108569
      6 C                     0.101698
      7 C                     0.031502
      8 C                    -0.093289
      9 C                     0.041678
     10 N                    -0.188643
     11 N                    -0.290803
     12 C                     0.040339
     13 C                     0.115531
     14 S                     0.412661
     15 N                    -0.285719
     16 C                    -0.054907
     17 S                     0.131488
     18 C                    -0.009584
     19 C                    -0.020666
     20 S                     0.091025
     21 C                     0.020867
     22 C                     0.037371
     23 C                    -0.162477
     24 C                    -0.159375
     25 N                    -0.183246
     26 S                     0.100693
     27 C                    -0.074787
     28 C                    -0.203191
     29 H                     0.123414
     30 H                     0.128844
     31 H                     0.121957
     32 H                     0.136976
     33 H                     0.130803
     34 H                     0.131430
     35 H                     0.142228
     36 H                     0.129177
     37 H                     0.145828
  ----------------------------------------
  Sum of atomic charges =     0.000000

 -----------------------------------------------------------------
                    Cartesian Multipole Moments
 -----------------------------------------------------------------
    Charge (ESU x 10^10)
                 0.0000
    Dipole Moment (Debye)
         X      -2.1861      Y       0.4518      Z      -0.4667
       Tot       2.2806
    Quadrupole Moments (Debye-Ang)
        XX    -171.3964     XY      19.8179     YY    -169.2445
        XZ      -3.5611     YZ      -0.6301     ZZ    -189.9309
    Octopole Moments (Debye-Ang^2)
       XXX    -244.9622    XXY      73.4563    XYY     -23.3078
       YYY       6.1679    XXZ     -27.3458    XYZ      -4.8716
       YYZ      -2.7041    XZZ       4.8702    YZZ     -11.5971
       ZZZ      -0.4281
    Hexadecapole Moments (Debye-Ang^3)
      XXXX  -17641.0458   XXXY    1349.8655   XXYY   -3592.5514
      XYYY     -57.7868   YYYY   -3637.3873   XXXZ    -222.0118
      XXYZ     -17.5454   XYYZ     -23.2606   YYYZ      -6.9379
      XXZZ   -3441.8002   XYZZ     -13.9179   YYZZ    -745.7280
      XZZZ      -2.3053   YZZZ      -6.2373   ZZZZ    -230.3384
 -----------------------------------------------------------------
 Calculating analytic gradient of the SCF energy
 K construction time:  CPU 2976.18 s  wall 187.99 s
 Gradient of SCF Energy
            1           2           3           4           5           6
    1  -0.0001479   0.0003627   0.0004592   0.0005364   0.0029902   0.0007991
    2   0.0014697  -0.0005659  -0.0003043   0.0006136  -0.0025578   0.0010901
    3  -0.0001446  -0.0008068  -0.0001151   0.0000912   0.0002937   0.0007015
            7           8           9          10          11          12
    1  -0.0008696   0.0002124  -0.0004295  -0.0000221  -0.0052526   0.0004858
    2   0.0009427  -0.0001236   0.0027500  -0.0012350  -0.0009074  -0.0001119
    3   0.0008951  -0.0017968  -0.0001464   0.0010079  -0.0005505  -0.0006007
           13          14          15          16          17          18
    1   0.0017056  -0.0024836  -0.0007006  -0.0000439   0.0007793  -0.0003235
    2   0.0007343  -0.0028061  -0.0013846  -0.0005133  -0.0000983   0.0000267
    3  -0.0001481   0.0000793   0.0003572  -0.0002218   0.0003414  -0.0001041
           19          20          21          22          23          24
    1  -0.0003865  -0.0000436   0.0002019  -0.0000636   0.0002926  -0.0002984
    2   0.0004275   0.0001945  -0.0004700   0.0000778  -0.0003451   0.0008500
    3  -0.0003927   0.0000553   0.0002093  -0.0000329  -0.0001419  -0.0001364
           25          26          27          28          29          30
    1   0.0001749   0.0001415   0.0002153  -0.0002380  -0.0000358   0.0006246
    2  -0.0001000  -0.0002994   0.0002284   0.0001203   0.0001512  -0.0001962
    3   0.0000761   0.0000207   0.0000135  -0.0001083  -0.0000104   0.0003099
           31          32          33          34          35          36
    1  -0.0006848   0.0025880  -0.0001695  -0.0001952  -0.0000507  -0.0001222
    2  -0.0001665   0.0030013  -0.0000466   0.0000098  -0.0002769  -0.0001960
    3   0.0019762  -0.0001098  -0.0011549   0.0001100   0.0000787   0.0000422
           37
    1  -0.0000079
    2   0.0000173
    3   0.0000632
 Max gradient component =       5.253E-03
 RMS gradient           =       1.010E-03
 Gradient time:  CPU 3422.66 s  wall 217.83 s
 Geometry Optimization Parameters
   NAtoms,    NIC,     NZ,  NCons,   NDum,   NFix, NCnnct, MaxDiis
       37     280       0       3       0       0       0       0

 Cartesian Hessian Update
 Hessian Updated using BFGS Update


** CONSTRAINED OPTIMIZATION IN DELOCALIZED INTERNAL COORDINATES **
   Searching for a Minimum

   Optimization Cycle:   2

                       Coordinates (Angstroms)
     ATOM                X               Y               Z
      1  C         7.6569468523    0.4497640639    0.0401622359
      2  C         6.9137166803    1.5773536216   -0.2604238819
      3  N         7.1028810657   -0.7209443081    0.3286384330
      4  C         5.5374954540    1.4799435467   -0.2659272322
      5  C         5.7767592254   -0.8047741221    0.3187976806
      6  C         4.9168458339    0.2617700089    0.0223849093
      7  C         3.4321253906    0.1469134179    0.0169831099
      8  C         2.6435717946    1.2709767015    0.0350471361
      9  C         2.6761090646   -1.0752651615   -0.0224977406
     10  N         1.2914059339    1.3318896046    0.0340751581
     11  N         3.1173668081   -2.3356909915   -0.0651509834
     12  C         1.2441330539   -1.0227084155   -0.0274179735
     13  C         0.5732323551    0.2392212466    0.0037250006
     14  S         1.8315968509   -3.3053615112   -0.0952982343
     15  N         0.6535068691   -2.2138504592   -0.0625769564
     16  C        -0.8631354721    0.3879344267    0.0027172567
     17  S        -1.9968715154   -0.9180391878   -0.0125845181
     18  C        -1.5449541254    1.5835560896    0.0192608905
     19  C        -3.3561420336    0.1362112462   -0.0009151548
     20  S        -1.0513511444    3.2417454712    0.0451167707
     21  C        -2.9578981308    1.4567213379    0.0173099516
     22  C        -4.7152386823   -0.3632370463   -0.0014500418
     23  C        -2.7298524859    3.7403952121    0.0508801825
     24  C        -3.6194143885    2.7322274887    0.0355705538
     25  N        -5.7614752440    0.4117057286    0.0221200606
     26  S        -5.0987253573   -2.0614927069   -0.0299906791
     27  C        -6.9132921454   -0.3164689341    0.0180919685
     28  C        -6.7658314877   -1.6636436020   -0.0088209186
     29  H         8.7401531094    0.4875014422    0.0509919332
     30  H         7.4082452897    2.5126276571   -0.4810923599
     31  H         4.9513055157    2.3567655106   -0.4954583588
     32  H         5.3751008930   -1.7718282122    0.5669841810
     33  H         3.1043759478    2.2472147260    0.0664661279
     34  H        -2.9557226667    4.7948366387    0.0706176756
     35  H        -4.6904657726    2.8456625567    0.0402625413
     36  H        -7.8625288070    0.1966455966    0.0359278129
     37  H        -7.5273727877   -2.4232838335   -0.0157371586
   Point Group: c1    Number of degrees of freedom:   105


   Energy is  -2595.903400209

              Constraints and their Current Values
                                        Value     Constraint
   Dihedral:        4   6   7   8      -14.999      -15.000
   Dihedral:       10  13  16  17     -179.114     -179.114
   Dihedral:       17  19  22  25      179.217      179.217
 Hessian Updated using BFGS Update

   Using Lagrange Multiplier Algorithm


108 Hessian modes will be used to form the next step
  Hessian Eigenvalues:
    -0.977753   -0.977753   -0.977742    0.039586    0.045000    0.045000
     0.045000    0.045000    0.045000    0.045000    0.045000    0.045000
     0.045000    0.045000    0.045000    0.045000    0.045000    0.045000
     0.045000    0.045000    0.045000    0.045000    0.045000    0.045000
     0.045001    0.045001    0.045001    0.045001    0.045002    0.045004
     0.045005    0.045008    0.045009    0.045352    0.153688    0.159974
     0.159993    0.159996    0.159998    0.160000    0.160000    0.160000
     0.160484    0.220032    0.224572    0.225274    0.227920    0.232012
     0.233894    0.247309    0.247565    0.247831    0.249951    0.249963
     0.249992    0.249994    0.249998    0.249999    0.249999    0.249999
     0.250000    0.250000    0.297520    0.305063    0.316310    0.317093
     0.325754    0.326793    0.334449    0.355741    0.356003    0.356380
     0.356791    0.359242    0.360774    0.361160    0.363913    0.365005
     0.371320    0.380230    0.385327    0.386446    0.390169    0.397132
     0.404543    0.425342    0.453574    0.463058    0.470559    0.473140
     0.473703    0.481917    0.491282    0.495254    0.499399    0.517621
     0.524213    0.538096    0.556699    0.558574    0.575146    0.589406
     0.602817    0.634433    0.639016    1.022753    1.022753    1.022787

 Minimum Search - Taking P-RFO Step
 Searching for Lamda that Maximizes Along the Constraint modes Only
 Value Taken    Lamda =   0.00000008
 Searching for Lamda that Minimizes Along All other modes
 Value Taken    Lamda =  -0.00169289
 Step Taken.  Stepsize is  0.078584

                             Maximum     Tolerance    Cnvgd?
         Gradient            0.017907       0.000300      NO
         Displacement        0.034318       0.001200      NO
         Energy change     -0.000764       0.000001      NO


 New Cartesian Coordinates Obtained by Inverse Iteration

 Displacement from previous Coordinates is:  0.524722
 ----------------------------------------------------------------
             Standard Nuclear Orientation (Angstroms)
    I     Atom           X                Y                Z
 ----------------------------------------------------------------
    1      C       7.6512096330     0.3854277005     0.0486919475
    2      C       6.9477514594     1.5356954986    -0.2666569770
    3      N       7.0569190246    -0.7637493834     0.3415488898
    4      C       5.5694789637     1.4845463987    -0.2837532292
    5      C       5.7290878353    -0.8032771904     0.3205859358
    6      C       4.9096937541     0.2879323127     0.0095765185
    7      C       3.4282439321     0.1952611048     0.0157449336
    8      C       2.6304503723     1.3134331895     0.0364643331
    9      C       2.6891228945    -1.0318391063    -0.0200314671
   10      N       1.2774142583     1.3598696305     0.0363574574
   11      N       3.1588237795    -2.2807257522    -0.0654113236
   12      C       1.2572757012    -0.9960502700    -0.0251170837
   13      C       0.5703135989     0.2588444786     0.0056912887
   14      S       1.8869560275    -3.2660749366    -0.0986642729
   15      N       0.6880385409    -2.1961892786    -0.0641521115
   16      C      -0.8671695949     0.3967547443     0.0054069329
   17      S      -1.9943990509    -0.9151306429    -0.0100421787
   18      C      -1.5549734833     1.5886408825     0.0238904692
   19      C      -3.3587219552     0.1321549730     0.0026664683
   20      S      -1.0695534988     3.2489640840     0.0511302619
   21      C      -2.9672251584     1.4547839914     0.0222328688
   22      C      -4.7155552512    -0.3735721130     0.0001952633
   23      C      -2.7503703621     3.7396629187     0.0578198826
   24      C      -3.6346540241     2.7267686035     0.0420017810
   25      N      -5.7658398989     0.3960094579     0.0244932609
   26      S      -5.0906405645    -2.0732410296    -0.0321301593
   27      C      -6.9139962469    -0.3378317255     0.0164451240
   28      C      -6.7596020093    -1.6842302044    -0.0132958742
   29      H       8.7350818486     0.3863836723     0.0658829169
   30      H       7.4719828334     2.4523872724    -0.4964215712
   31      H       5.0208138833     2.3782816569    -0.5380701592
   32      H       5.2886860149    -1.7551072011     0.5725954626
   33      H       3.0804625998     2.2940183712     0.0784784717
   34      H      -2.9804114439     4.7930909107     0.0772286859
   35      H      -4.7060933339     2.8367589539     0.0462979085
   36      H      -7.8648945292     0.1721661474     0.0331832892
   37      H      -7.5171048089    -2.4478232717    -0.0240745664
 ----------------------------------------------------------------
 Molecular Point Group                 C1    NOp =  1
 Largest Abelian Subgroup              C1    NOp =  1
 Nuclear Repulsion Energy =  2964.4801548993 hartrees
 There are      111 alpha and      111 beta electrons
 Applying Cartesian multipole field
    Component          Value
    ---------          -----
     (2,0,0)        1.00000E-12
     (0,2,0)        2.00000E-11
     (0,0,2)       -3.00000E-10
 Nucleus-field energy     =     0.0000000670 hartrees
 Requested basis set is cc-pVTZ
 There are 342 shells and 982 basis functions
 A cutoff of  1.0D-11 yielded  29160 shell pairs
 There are    231198 function pairs (    302069 Cartesian)
 Smallest overlap matrix eigenvalue = 1.99E-05
 Guess MOs from SCF MO coefficient file
 Reading MOs from coefficient file
 Reading MOs from coefficient file
 Long-range K will be added via erf
 Coulomb attenuation parameter = 0.2 bohr**(-1)
 A restricted hybrid HF-DFT SCF calculation will be
 performed using Pulay DIIS extrapolation
 Exchange:     0.2220 Hartree-Fock + 1.0000 wB97X-D + LR-HF
 Correlation:  1.0000 wB97X-D
 Using SG-2 standard quadrature grid
 Dispersion:   Grimme D
 SCF converges when DIIS error is below 1.0E-08
 Geometry optimization detected.  Setting ReadMinima to 0
 Setting SaveMinima to 0
 using 16 threads for integral computing 
 using 16 threads for integral computing 
 K construction time:  CPU 1092.61 s  wall 71.28 s
 -------------------------------------------------------
 OpenMP BLAS3 based DFT computing Module                
 Release: version 1.0, May 2013, Q-Chem Inc. Pittsburgh 
 -------------------------------------------------------
 ---------------------------------------
  Cycle       Energy         DIIS Error
 ---------------------------------------
    1   -2595.9039331724      2.77E-04
 K construction time:  CPU 1094.06 s  wall 71.45 s
    2   -2595.9041432752      3.42E-05
 K construction time:  CPU 811.19 s  wall 52.92 s
    3   -2595.9042153020      3.31E-05
 K construction time:  CPU 768.65 s  wall 50.08 s
    4   -2595.9043318378      8.94E-06
 K construction time:  CPU 712.52 s  wall 46.44 s
    5   -2595.9043390510      5.05E-06
 K construction time:  CPU 664.68 s  wall 43.24 s
    6   -2595.9043418097      1.41E-06
 K construction time:  CPU 602.81 s  wall 39.28 s
    7   -2595.9043420690      4.67E-07
 K construction time:  CPU 538.01 s  wall 34.99 s
    8   -2595.9043421059      1.66E-07
 K construction time:  CPU 507.23 s  wall 33.00 s
    9   -2595.9043421137      7.33E-08
 K construction time:  CPU 449.16 s  wall 29.04 s
   10   -2595.9043421141      2.97E-08
 K construction time:  CPU 402.77 s  wall 26.11 s
   11   -2595.9043421142      1.50E-08
 K construction time:  CPU 365.45 s  wall 23.59 s
   12   -2595.9043421157      7.63E-09 Convergence criterion met
 ---------------------------------------
 SCF time:  CPU 10754.92 s  wall 716.74 s
 SCF   energy in the final basis set = -2595.9043421157
 Total energy in the final basis set = -2595.9043421157
 
 --------------------------------------------------------------
 
                    Orbital Energies (a.u.)
 --------------------------------------------------------------
 
 Alpha MOs
 -- Occupied --
-89.156 -89.095 -89.093 -89.076 -14.496 -14.489 -14.452 -14.446
-14.434 -10.375 -10.370 -10.366 -10.361 -10.346 -10.342 -10.341
-10.335 -10.331 -10.329 -10.328 -10.325 -10.323 -10.322 -10.322
-10.314 -10.314 -10.301 -10.296  -8.167  -8.109  -8.109  -8.090
 -6.117  -6.111  -6.110  -6.058  -6.058  -6.055  -6.054  -6.052
 -6.052  -6.040  -6.036  -6.032  -1.154  -1.084  -1.074  -1.053
 -1.025  -1.016  -0.958  -0.945  -0.913  -0.911  -0.907  -0.883
 -0.862  -0.845  -0.830  -0.808  -0.777  -0.754  -0.745  -0.725
 -0.724  -0.695  -0.689  -0.679  -0.649  -0.641  -0.625  -0.621
 -0.609  -0.596  -0.581  -0.578  -0.571  -0.564  -0.542  -0.537
 -0.527  -0.524  -0.518  -0.515  -0.512  -0.505  -0.496  -0.491
 -0.489  -0.480  -0.478  -0.465  -0.458  -0.451  -0.438  -0.434
 -0.431  -0.421  -0.400  -0.399  -0.385  -0.372  -0.372  -0.371
 -0.364  -0.359  -0.340  -0.337  -0.326  -0.317  -0.267
 -- Virtual --
 -0.060  -0.011   0.021   0.037   0.051   0.057   0.064   0.070
  0.073   0.101   0.107   0.116   0.118   0.120   0.131   0.135
  0.142   0.148   0.152   0.169   0.170   0.171   0.178   0.182
  0.194   0.199   0.202   0.212   0.224   0.229   0.244   0.245
  0.253   0.262   0.264   0.268   0.272   0.276   0.286   0.292
  0.297   0.302   0.307   0.310   0.314   0.318   0.318   0.325
  0.328   0.331   0.338   0.339   0.342   0.353   0.355   0.361
  0.364   0.368   0.372   0.372   0.378   0.381   0.386   0.387
  0.390   0.392   0.396   0.401   0.403   0.407   0.409   0.412
  0.423   0.428   0.431   0.432   0.435   0.438   0.440   0.443
  0.451   0.451   0.454   0.458   0.461   0.464   0.466   0.468
  0.470   0.474   0.477   0.484   0.485   0.486   0.491   0.494
  0.497   0.499   0.503   0.505   0.514   0.516   0.521   0.522
  0.525   0.528   0.534   0.539   0.544   0.548   0.555   0.559
  0.561   0.568   0.571   0.578   0.587   0.591   0.597   0.602
  0.604   0.615   0.624   0.629   0.641   0.644   0.650   0.653
  0.656   0.662   0.665   0.667   0.676   0.681   0.689   0.690
  0.692   0.699   0.700   0.710   0.714   0.720   0.729   0.736
  0.738   0.742   0.744   0.748   0.754   0.757   0.765   0.769
  0.772   0.775   0.778   0.782   0.784   0.786   0.799   0.805
  0.806   0.812   0.817   0.822   0.825   0.825   0.830   0.833
  0.838   0.845   0.850   0.850   0.855   0.855   0.865   0.870
  0.875   0.881   0.882   0.892   0.900   0.906   0.909   0.912
  0.913   0.924   0.933   0.938   0.943   0.948   0.952   0.962
  0.964   0.968   0.974   0.976   0.982   0.985   0.990   0.994
  0.998   1.004   1.012   1.018   1.023   1.028   1.031   1.036
  1.040   1.045   1.053   1.063   1.064   1.069   1.077   1.081
  1.086   1.089   1.098   1.100   1.109   1.116   1.121   1.127
  1.133   1.135   1.138   1.151   1.156   1.161   1.167   1.176
  1.179   1.188   1.194   1.202   1.216   1.221   1.223   1.228
  1.235   1.248   1.251   1.259   1.263   1.269   1.274   1.283
  1.288   1.294   1.301   1.305   1.311   1.313   1.326   1.335
  1.338   1.348   1.354   1.358   1.363   1.373   1.377   1.387
  1.390   1.395   1.410   1.418   1.424   1.427   1.432   1.440
  1.448   1.450   1.456   1.460   1.470   1.480   1.486   1.495
  1.498   1.502   1.514   1.527   1.534   1.537   1.541   1.543
  1.549   1.567   1.572   1.576   1.585   1.591   1.598   1.602
  1.605   1.613   1.625   1.627   1.633   1.636   1.642   1.647
  1.651   1.660   1.667   1.670   1.675   1.681   1.685   1.687
  1.694   1.698   1.702   1.712   1.721   1.727   1.729   1.740
  1.753   1.759   1.769   1.778   1.781   1.782   1.788   1.797
  1.808   1.815   1.828   1.838   1.844   1.856   1.863   1.872
  1.881   1.883   1.890   1.912   1.914   1.923   1.924   1.928
  1.936   1.939   1.945   1.958   1.959   1.967   1.973   1.984
  1.993   1.996   2.000   2.004   2.020   2.025   2.030   2.036
  2.046   2.056   2.060   2.072   2.081   2.089   2.101   2.107
  2.116   2.117   2.130   2.134   2.148   2.157   2.164   2.171
  2.180   2.180   2.193   2.203   2.216   2.225   2.232   2.236
  2.241   2.248   2.252   2.256   2.262   2.273   2.280   2.290
  2.312   2.314   2.325   2.347   2.353   2.359   2.364   2.377
  2.380   2.385   2.391   2.394   2.397   2.407   2.409   2.420
  2.423   2.427   2.435   2.443   2.447   2.456   2.465   2.475
  2.479   2.481   2.493   2.495   2.501   2.510   2.512   2.519
  2.529   2.532   2.541   2.545   2.548   2.556   2.579   2.584
  2.600   2.606   2.607   2.613   2.617   2.621   2.625   2.635
  2.639   2.655   2.656   2.663   2.666   2.673   2.675   2.713
  2.714   2.732   2.746   2.754   2.760   2.762   2.770   2.773
  2.777   2.782   2.787   2.793   2.798   2.802   2.806   2.812
  2.825   2.835   2.843   2.852   2.863   2.864   2.870   2.881
  2.887   2.894   2.901   2.913   2.931   2.932   2.937   2.939
  2.945   2.948   2.954   2.956   2.961   2.968   2.972   2.975
  2.980   2.986   2.991   2.998   3.000   3.012   3.018   3.025
  3.031   3.038   3.042   3.045   3.048   3.058   3.060   3.065
  3.069   3.077   3.078   3.088   3.091   3.092   3.093   3.103
  3.110   3.116   3.118   3.123   3.125   3.138   3.140   3.147
  3.147   3.153   3.165   3.167   3.172   3.177   3.179   3.181
  3.188   3.190   3.192   3.196   3.202   3.206   3.210   3.210
  3.221   3.224   3.226   3.232   3.237   3.240   3.246   3.250
  3.252   3.261   3.265   3.271   3.273   3.279   3.284   3.289
  3.297   3.299   3.304   3.308   3.311   3.314   3.316   3.319
  3.329   3.330   3.342   3.344   3.346   3.357   3.366   3.370
  3.376   3.379   3.385   3.392   3.397   3.407   3.415   3.422
  3.426   3.431   3.439   3.441   3.454   3.460   3.464   3.470
  3.479   3.482   3.487   3.493   3.498   3.502   3.506   3.517
  3.525   3.530   3.540   3.544   3.554   3.558   3.571   3.574
  3.580   3.589   3.595   3.602   3.610   3.618   3.623   3.627
  3.638   3.644   3.654   3.664   3.686   3.688   3.691   3.703
  3.712   3.729   3.730   3.740   3.743   3.751   3.758   3.765
  3.776   3.781   3.784   3.794   3.798   3.802   3.806   3.811
  3.825   3.827   3.836   3.847   3.851   3.856   3.863   3.866
  3.881   3.885   3.891   3.906   3.918   3.922   3.927   3.936
  3.946   3.951   3.955   3.960   3.967   3.967   3.980   3.986
  3.990   3.997   4.012   4.022   4.030   4.036   4.041   4.049
  4.058   4.067   4.074   4.084   4.098   4.102   4.114   4.124
  4.126   4.135   4.154   4.159   4.167   4.174   4.182   4.185
  4.192   4.193   4.198   4.205   4.220   4.229   4.236   4.249
  4.256   4.275   4.286   4.287   4.293   4.298   4.309   4.319
  4.321   4.336   4.340   4.360   4.370   4.373   4.384   4.388
  4.390   4.400   4.403   4.414   4.419   4.433   4.444   4.455
  4.467   4.478   4.486   4.496   4.507   4.526   4.534   4.545
  4.550   4.565   4.567   4.583   4.584   4.599   4.600   4.618
  4.620   4.636   4.640   4.662   4.668   4.677   4.692   4.701
  4.705   4.709   4.721   4.745   4.766   4.773   4.787   4.800
  4.811   4.819   4.839   4.846   4.849   4.861   4.873   4.891
  4.898   4.905   4.914   4.933   4.938   4.946   4.948   4.952
  4.961   4.971   4.976   4.985   4.987   4.994   5.009   5.021
  5.036   5.045   5.060   5.061   5.077   5.099   5.102   5.114
  5.125   5.137   5.152   5.158   5.163   5.174   5.195   5.207
  5.234   5.234   5.242   5.249   5.256   5.271   5.281   5.283
  5.314   5.317   5.329   5.345   5.361   5.395   5.400   5.414
  5.448   5.453   5.458   5.462   5.484   5.496   5.515   5.533
  5.541   5.547   5.562   5.598   5.614   5.655   5.662   5.665
  5.700   5.707   5.735   5.750   5.760   5.793   5.833   5.845
  5.868   5.889   5.898   5.951   5.965   6.009   6.028   6.089
  6.135   6.152   6.178   6.199   6.204   6.228   6.277   6.318
  6.348   6.370   6.404   6.429   6.512   6.837   7.066   8.067
  8.918   9.876  10.192  10.949  11.200  11.236  11.635  12.068
 12.152  12.507  12.580  12.829  12.976  13.118  13.228  13.456
 13.546  13.628  13.843  14.269  14.513  14.663  15.027
 --------------------------------------------------------------
 
          Ground-State Mulliken Net Atomic Charges

     Atom                 Charge (a.u.)
  ----------------------------------------
      1 C                    -0.077691
      2 C                    -0.103467
      3 N                    -0.156785
      4 C                    -0.144237
      5 C                    -0.106013
      6 C                     0.102289
      7 C                     0.034237
      8 C                    -0.094077
      9 C                     0.044956
     10 N                    -0.187884
     11 N                    -0.290789
     12 C                     0.034620
     13 C                     0.116245
     14 S                     0.410055
     15 N                    -0.283663
     16 C                    -0.055194
     17 S                     0.131157
     18 C                    -0.009078
     19 C                    -0.021033
     20 S                     0.091203
     21 C                     0.021070
     22 C                     0.037291
     23 C                    -0.162250
     24 C                    -0.159766
     25 N                    -0.183196
     26 S                     0.100932
     27 C                    -0.074792
     28 C                    -0.203210
     29 H                     0.123280
     30 H                     0.128756
     31 H                     0.121071
     32 H                     0.138345
     33 H                     0.128876
     34 H                     0.131501
     35 H                     0.142185
     36 H                     0.129227
     37 H                     0.145827
  ----------------------------------------
  Sum of atomic charges =     0.000000

 -----------------------------------------------------------------
                    Cartesian Multipole Moments
 -----------------------------------------------------------------
    Charge (ESU x 10^10)
                 0.0000
    Dipole Moment (Debye)
         X      -2.1326      Y       0.4640      Z      -0.5024
       Tot       2.2396
    Quadrupole Moments (Debye-Ang)
        XX    -170.6906     XY      19.7303     YY    -169.5153
        XZ      -3.7306     YZ      -0.6056     ZZ    -189.9001
    Octopole Moments (Debye-Ang^2)
       XXX    -237.1397    XXY      70.9935    XYY     -24.9886
       YYY       4.3232    XXZ     -29.2746    XYZ      -4.8988
       YYZ      -3.1067    XZZ       4.5946    YZZ     -12.3442
       ZZZ      -0.8859
    Hexadecapole Moments (Debye-Ang^3)
      XXXX  -17569.7982   XXXY    1345.7551   XXYY   -3594.5506
      XYYY     -51.2987   YYYY   -3621.5523   XXXZ    -223.5112
      XXYZ     -16.7243   XYYZ     -24.0711   YYYZ      -7.7331
      XXZZ   -3444.3484   XYZZ     -10.9544   YYZZ    -742.1313
      XZZZ       0.8055   YZZZ      -7.6719   ZZZZ    -231.5716
 -----------------------------------------------------------------
 Calculating analytic gradient of the SCF energy
 K construction time:  CPU 2979.03 s  wall 188.11 s
 Gradient of SCF Energy
            1           2           3           4           5           6
    1  -0.0002114  -0.0000443  -0.0000373   0.0012449   0.0010534   0.0006642
    2   0.0004788   0.0000255  -0.0000876   0.0012132  -0.0006055  -0.0006672
    3   0.0000869  -0.0004690   0.0000701   0.0007884  -0.0011104  -0.0009982
            7           8           9          10          11          12
    1  -0.0005327  -0.0012519  -0.0002829  -0.0001828  -0.0004628  -0.0000533
    2  -0.0005472  -0.0000505   0.0000642  -0.0002816  -0.0002939  -0.0003319
    3   0.0020427  -0.0022848   0.0004481   0.0008445  -0.0000927  -0.0004976
           13          14          15          16          17          18
    1   0.0004682  -0.0001741  -0.0003518  -0.0001646   0.0001262  -0.0001608
    2   0.0007139   0.0004056   0.0001962  -0.0000680   0.0000099  -0.0000852
    3  -0.0002133   0.0001157   0.0002624  -0.0002389   0.0004129  -0.0000493
           19          20          21          22          23          24
    1  -0.0000907  -0.0001521   0.0001114  -0.0000165   0.0000640   0.0000078
    2   0.0002050   0.0000795  -0.0001974   0.0000744  -0.0000841   0.0003759
    3  -0.0004004   0.0000615   0.0001561  -0.0001530  -0.0000923  -0.0000673
           25          26          27          28          29          30
    1  -0.0000270   0.0000588   0.0000876  -0.0000734   0.0000061   0.0001946
    2  -0.0001167  -0.0000812   0.0000848   0.0000121   0.0000105  -0.0000301
    3   0.0001990   0.0000850  -0.0000073  -0.0001228  -0.0001104   0.0001210
           31          32          33          34          35          36
    1   0.0011520   0.0005042  -0.0013454  -0.0000573  -0.0000583  -0.0000143
    2  -0.0002836   0.0005944  -0.0005913  -0.0000304  -0.0001053  -0.0000284
    3   0.0011639   0.0002195  -0.0003509   0.0000588   0.0000559   0.0000146
           37
    1   0.0000024
    2   0.0000232
    3   0.0000517
 Max gradient component =       2.285E-03
 RMS gradient           =       5.201E-04
 Gradient time:  CPU 3426.25 s  wall 218.05 s
 Geometry Optimization Parameters
   NAtoms,    NIC,     NZ,  NCons,   NDum,   NFix, NCnnct, MaxDiis
       37     280       0       3       0       0       0       0

 Cartesian Hessian Update
 Hessian Updated using BFGS Update


** CONSTRAINED OPTIMIZATION IN DELOCALIZED INTERNAL COORDINATES **
   Searching for a Minimum

   Optimization Cycle:   3

                       Coordinates (Angstroms)
     ATOM                X               Y               Z
      1  C         7.6512096330    0.3854277005    0.0486919475
      2  C         6.9477514594    1.5356954986   -0.2666569770
      3  N         7.0569190246   -0.7637493834    0.3415488898
      4  C         5.5694789637    1.4845463987   -0.2837532292
      5  C         5.7290878353   -0.8032771904    0.3205859358
      6  C         4.9096937541    0.2879323127    0.0095765185
      7  C         3.4282439321    0.1952611048    0.0157449336
      8  C         2.6304503723    1.3134331895    0.0364643331
      9  C         2.6891228945   -1.0318391063   -0.0200314671
     10  N         1.2774142583    1.3598696305    0.0363574574
     11  N         3.1588237795   -2.2807257522   -0.0654113236
     12  C         1.2572757012   -0.9960502700   -0.0251170837
     13  C         0.5703135989    0.2588444786    0.0056912887
     14  S         1.8869560275   -3.2660749366   -0.0986642729
     15  N         0.6880385409   -2.1961892786   -0.0641521115
     16  C        -0.8671695949    0.3967547443    0.0054069329
     17  S        -1.9943990509   -0.9151306429   -0.0100421787
     18  C        -1.5549734833    1.5886408825    0.0238904692
     19  C        -3.3587219552    0.1321549730    0.0026664683
     20  S        -1.0695534988    3.2489640840    0.0511302619
     21  C        -2.9672251584    1.4547839914    0.0222328688
     22  C        -4.7155552512   -0.3735721130    0.0001952633
     23  C        -2.7503703621    3.7396629187    0.0578198826
     24  C        -3.6346540241    2.7267686035    0.0420017810
     25  N        -5.7658398989    0.3960094579    0.0244932609
     26  S        -5.0906405645   -2.0732410296   -0.0321301593
     27  C        -6.9139962469   -0.3378317255    0.0164451240
     28  C        -6.7596020093   -1.6842302044   -0.0132958742
     29  H         8.7350818486    0.3863836723    0.0658829169
     30  H         7.4719828334    2.4523872724   -0.4964215712
     31  H         5.0208138833    2.3782816569   -0.5380701592
     32  H         5.2886860149   -1.7551072011    0.5725954626
     33  H         3.0804625998    2.2940183712    0.0784784717
     34  H        -2.9804114439    4.7930909107    0.0772286859
     35  H        -4.7060933339    2.8367589539    0.0462979085
     36  H        -7.8648945292    0.1721661474    0.0331832892
     37  H        -7.5171048089   -2.4478232717   -0.0240745664
   Point Group: c1    Number of degrees of freedom:   105


   Energy is  -2595.904342116

              Constraints and their Current Values
                                        Value     Constraint
   Dihedral:        4   6   7   8      -15.000      -15.000
   Dihedral:       10  13  16  17     -179.114     -179.114
   Dihedral:       17  19  22  25      179.217      179.217
 Hessian Updated using BFGS Update

102 Hessian modes will be used to form the next step
  Hessian Eigenvalues:
     0.035481    0.044985    0.045000    0.045000    0.045000    0.045000
     0.045000    0.045000    0.045000    0.045000    0.045000    0.045000
     0.045000    0.045000    0.045000    0.045000    0.045000    0.045000
     0.045000    0.045000    0.045000    0.045001    0.045001    0.045001
     0.045001    0.045001    0.045004    0.045005    0.045008    0.045009
     0.045540    0.156465    0.159368    0.159976    0.159994    0.159998
     0.159999    0.160000    0.160000    0.160532    0.220002    0.224572
     0.225389    0.227771    0.231954    0.233817    0.247424    0.247645
[...]
     27  C        -6.9094972438   -0.3338338879   -0.0007680257
     28  C        -6.7563715895   -1.6798636477   -0.0486256750
     29  H         8.7192506552    0.4092882047    0.0872238302
     30  H         7.4481094029    2.4356510602   -0.5923705932
     31  H         4.9903228899    2.3346974245   -0.6674112110
     32  H         5.2798727783   -1.7301364417    0.6627404432
     33  H         3.0936629136    2.2919508187    0.1081675769
     34  H        -2.9686494933    4.7921135098    0.1135964529
     35  H        -4.6973493821    2.8393275559    0.0697635136
     36  H        -7.8598044646    0.1772512410    0.0162692549
     37  H        -7.5144982696   -2.4423629125   -0.0788513403
   Point Group: c1    Number of degrees of freedom:   105


   Energy is  -2595.904638364

              Constraints and their Current Values
                                        Value     Constraint
   Dihedral:        4   6   7   8      -15.000      -15.000
   Dihedral:       10  13  16  17     -179.114     -179.114
   Dihedral:       17  19  22  25      179.217      179.217
 Hessian Updated using BFGS Update

102 Hessian modes will be used to form the next step
  Hessian Eigenvalues:
     0.010910    0.015632    0.042509    0.044988    0.045000    0.045000
     0.045000    0.045000    0.045000    0.045000    0.045000    0.045000
     0.045000    0.045000    0.045000    0.045000    0.045000    0.045000
     0.045001    0.045001    0.045001    0.045001    0.045001    0.045001
     0.045004    0.045006    0.045008    0.045013    0.045038    0.045253
     0.045505    0.154799    0.159720    0.159917    0.159999    0.159999
     0.160000    0.160004    0.160413    0.161143    0.220134    0.224572
     0.225407    0.231889    0.233416    0.241969    0.247431    0.247752
     0.249060    0.249800    0.249903    0.249966    0.249991    0.249998
     0.249999    0.250144    0.251373    0.264097    0.297489    0.304980
     0.316248    0.317130    0.326535    0.334284    0.346946    0.355599
     0.355835    0.356389    0.356809    0.359258    0.360775    0.361161
     0.363916    0.365005    0.378235    0.385246    0.385388    0.386874
     0.391213    0.397044    0.397934    0.431368    0.462189    0.462386
     0.464680    0.468335    0.474073    0.477246    0.481222    0.492065
     0.499383    0.503404    0.517620    0.528823    0.537938    0.546592
     0.563637    0.574273    0.600536    0.625317    0.638931    0.697223

 Minimum Search - Taking Simple RFO Step
 Searching for Lamda that Minimizes Along All modes
 Value Taken    Lamda =   0.00000000
 Step Taken.  Stepsize is  0.002482

                             Maximum     Tolerance    Cnvgd?
         Gradient           0.000031      0.000300     YES
         Displacement       0.001378      0.001200      NO
         Energy change      0.000000      0.000001     YES

 Final energy is   -2595.90463836441     


 ******************************
 **  OPTIMIZATION CONVERGED  **
 ******************************

                       Coordinates (Angstroms)
     ATOM                X               Y               Z
      1  C         7.6357544633    0.3986953855    0.0569792326
      2  C         6.9280585584    1.5285671069   -0.3193228745
      3  N         7.0470062842   -0.7407862146    0.3973434444
      4  C         5.5498955963    1.4672619868   -0.3475549732
      5  C         5.7199452496   -0.7892227108    0.3682426737
      6  C         4.9005303346    0.2801130831   -0.0078849522
      7  C         3.4260727642    0.1935233491    0.0415202257
      8  C         2.6345956960    1.3142243678    0.0580516856
      9  C         2.6911932508   -1.0335265962   -0.0060506522
     10  N         1.2812623165    1.3582274968    0.0545524268
     11  N         3.1676294275   -2.2789517913   -0.0684189712
     12  C         1.2609260834   -1.0004882639   -0.0138108107
     13  C         0.5749602053    0.2554668201    0.0192707934
     14  S         1.8988663730   -3.2680534290   -0.1201430876
     15  N         0.6960472303   -2.2024552459   -0.0732638524
     16  C        -0.8620130714    0.3940525084    0.0145718315
     17  S        -1.9904169137   -0.9167747439   -0.0072406341
     18  C        -1.5482768112    1.5864396842    0.0404500864
     19  C        -3.3535585849    0.1318367839    0.0112579908
     20  S        -1.0601220747    3.2454948414    0.0777757370
     21  C        -2.9607507550    1.4541189461    0.0380617213
     22  C        -4.7109934553   -0.3720703338   -0.0033642024
     23  C        -2.7404571272    3.7383841062    0.0883132248
     24  C        -3.6262380505    2.7267102805    0.0657883683
     25  N        -5.7605067519    0.3985433082    0.0249698218
     26  S        -5.0878566938   -2.0704188026   -0.0630391018
     27  C        -6.9094972438   -0.3338338879   -0.0007680257
     28  C        -6.7563715895   -1.6798636477   -0.0486256750
     29  H         8.7192506552    0.4092882047    0.0872238302
     30  H         7.4481094029    2.4356510602   -0.5923705932
     31  H         4.9903228899    2.3346974245   -0.6674112110
     32  H         5.2798727783   -1.7301364417    0.6627404432
     33  H         3.0936629136    2.2919508187    0.1081675769
     34  H        -2.9686494933    4.7921135098    0.1135964529
     35  H        -4.6973493821    2.8393275559    0.0697635136
     36  H        -7.8598044646    0.1772512410    0.0162692549
     37  H        -7.5144982696   -2.4423629125   -0.0788513403

Z-matrix Print:
$molecule
0 1
S 
C  1 1.719908
C  2 1.379655 1 111.032067
C  3 1.418660 2 111.894501 1 -0.111190 0
C  4 1.376014 3 114.563527 2 -0.067969 0
C  3 1.436360 2 135.856900 1 179.791070 0
H  6 1.077023 3 123.606417 2 0.022401 0
C  6 1.344842 3 111.201718 2 -179.858373 0
H  8 1.078451 6 126.587168 3 179.853489 0
C  5 1.443648 4 125.419046 3 179.603303 0
N  10 1.310034 5 117.125081 4 -0.183433 0
C  11 1.354053 10 120.768824 5 179.834478 0
H  12 1.081297 11 113.269832 10 178.879805 0
C  12 1.372108 11 127.087804 10 0.730623 0
C  14 1.431070 12 113.860850 11 -1.070134 0
N  15 1.334903 14 128.187504 12 -178.003223 0
C  15 1.430670 14 119.587523 12 0.812116 0
N  17 1.329416 15 113.837963 14 -179.349186 0
C  2 1.448021 1 122.053138 3 -179.887098 0
N  19 1.302354 2 123.319873 1 -179.216978 0
C  20 1.362798 19 111.163439 2 -179.868815 0
H  21 1.079158 20 119.185082 19 179.884811 0
C  21 1.355557 20 116.043781 19 -0.032989 0
H  23 1.075674 21 128.700755 20 179.773410 0
C  14 1.477824 12 121.874793 11 -177.465693 0
C  25 1.395125 14 121.492731 12 14.999990 0
H  26 1.080682 25 120.935184 14 5.339330 0
C  26 1.379815 25 119.849339 14 -176.815949 0
H  28 1.080652 26 120.849578 25 -179.154257 0
C  28 1.385297 26 118.657383 25 0.355584 0
H  30 1.083970 28 120.680341 26 -179.784977 0
N  30 1.326986 28 122.914575 26 0.274486 0
C  32 1.328264 30 117.967173 28 -0.206940 0
H  33 1.079681 32 115.659948 30 179.332062 0
S  18 1.607629 17 106.420441 15 0.194517 0
S  23 1.713675 21 109.668937 20 0.004609 0
S  4 1.729784 3 111.744556 2 179.868288 0
$end

 
 --------------------------------------------------------------
 
                    Orbital Energies (a.u.)
 --------------------------------------------------------------
 
 Alpha MOs
 -- Occupied --
-89.156 -89.095 -89.093 -89.076 -14.496 -14.489 -14.453 -14.446
-14.434 -10.375 -10.370 -10.365 -10.361 -10.346 -10.341 -10.341
-10.335 -10.330 -10.329 -10.328 -10.325 -10.323 -10.323 -10.320
-10.314 -10.314 -10.302 -10.296  -8.167  -8.109  -8.109  -8.090
 -6.117  -6.111  -6.110  -6.058  -6.058  -6.055  -6.054  -6.052
 -6.052  -6.040  -6.036  -6.032  -1.154  -1.084  -1.074  -1.053
 -1.025  -1.016  -0.957  -0.945  -0.913  -0.911  -0.907  -0.884
 -0.862  -0.845  -0.830  -0.808  -0.776  -0.755  -0.745  -0.725
 -0.724  -0.695  -0.689  -0.679  -0.649  -0.641  -0.625  -0.621
 -0.609  -0.596  -0.581  -0.578  -0.570  -0.564  -0.542  -0.537
 -0.527  -0.524  -0.518  -0.515  -0.512  -0.505  -0.496  -0.491
 -0.489  -0.480  -0.478  -0.465  -0.458  -0.451  -0.438  -0.434
 -0.430  -0.421  -0.401  -0.399  -0.385  -0.372  -0.372  -0.370
 -0.364  -0.358  -0.340  -0.337  -0.326  -0.317  -0.267
 -- Virtual --
 -0.060  -0.011   0.021   0.037   0.050   0.057   0.064   0.070
  0.073   0.101   0.107   0.116   0.118   0.121   0.131   0.135
  0.143   0.148   0.152   0.169   0.170   0.171   0.178   0.181
  0.194   0.199   0.202   0.212   0.223   0.229   0.243   0.244
  0.252   0.260   0.265   0.268   0.271   0.275   0.287   0.292
  0.297   0.302   0.307   0.309   0.312   0.319   0.319   0.326
  0.327   0.331   0.339   0.339   0.343   0.353   0.355   0.360
  0.364   0.367   0.371   0.372   0.378   0.381   0.386   0.389
  0.389   0.392   0.397   0.401   0.403   0.407   0.409   0.412
  0.422   0.427   0.431   0.433   0.434   0.438   0.440   0.442
  0.451   0.451   0.454   0.458   0.461   0.464   0.467   0.468
  0.470   0.474   0.477   0.482   0.486   0.487   0.490   0.494
  0.498   0.500   0.502   0.505   0.513   0.516   0.520   0.523
  0.525   0.529   0.535   0.540   0.544   0.548   0.555   0.556
  0.561   0.567   0.572   0.578   0.587   0.590   0.598   0.602
  0.604   0.615   0.622   0.628   0.641   0.643   0.650   0.654
  0.656   0.661   0.665   0.667   0.675   0.680   0.688   0.691
  0.692   0.698   0.700   0.708   0.714   0.719   0.729   0.735
  0.738   0.741   0.744   0.748   0.752   0.758   0.763   0.769
  0.771   0.774   0.778   0.781   0.784   0.787   0.799   0.803
  0.808   0.811   0.818   0.822   0.825   0.826   0.830   0.833
  0.838   0.846   0.848   0.852   0.855   0.855   0.864   0.869
  0.875   0.880   0.882   0.890   0.900   0.904   0.909   0.915
  0.915   0.925   0.934   0.939   0.942   0.949   0.952   0.961
  0.964   0.965   0.974   0.977   0.983   0.985   0.990   0.995
  0.996   1.004   1.012   1.017   1.024   1.029   1.030   1.036
  1.039   1.046   1.051   1.062   1.064   1.069   1.076   1.081
  1.086   1.089   1.095   1.099   1.108   1.111   1.118   1.129
  1.133   1.135   1.138   1.150   1.154   1.162   1.168   1.176
  1.180   1.186   1.194   1.201   1.216   1.221   1.222   1.228
  1.237   1.247   1.252   1.260   1.262   1.268   1.275   1.283
  1.288   1.291   1.300   1.302   1.309   1.319   1.324   1.336
  1.338   1.350   1.356   1.357   1.363   1.372   1.378   1.387
  1.392   1.396   1.412   1.418   1.424   1.427   1.433   1.439
  1.448   1.450   1.456   1.457   1.470   1.480   1.485   1.498
  1.501   1.501   1.511   1.525   1.533   1.537   1.539   1.543
  1.548   1.566   1.572   1.576   1.587   1.591   1.595   1.601
  1.606   1.614   1.625   1.628   1.631   1.636   1.641   1.647
  1.650   1.660   1.666   1.671   1.674   1.682   1.685   1.687
  1.693   1.697   1.702   1.711   1.722   1.725   1.729   1.738
  1.752   1.759   1.768   1.778   1.779   1.782   1.786   1.796
  1.806   1.814   1.827   1.837   1.843   1.853   1.863   1.870
  1.881   1.883   1.889   1.910   1.913   1.922   1.925   1.927
  1.935   1.938   1.944   1.959   1.960   1.971   1.973   1.985
  1.993   1.996   2.000   2.004   2.020   2.026   2.030   2.036
  2.046   2.058   2.060   2.072   2.084   2.091   2.100   2.106
  2.116   2.120   2.130   2.134   2.147   2.157   2.164   2.171
  2.180   2.181   2.194   2.202   2.214   2.225   2.227   2.233
  2.237   2.247   2.255   2.258   2.264   2.274   2.279   2.289
  2.310   2.313   2.324   2.348   2.352   2.359   2.363   2.375
  2.381   2.383   2.390   2.393   2.397   2.406   2.409   2.421
  2.423   2.428   2.431   2.442   2.448   2.457   2.467   2.474
  2.478   2.481   2.494   2.495   2.503   2.510   2.511   2.521
  2.528   2.532   2.541   2.547   2.549   2.558   2.577   2.584
  2.600   2.605   2.608   2.614   2.617   2.620   2.624   2.634
  2.636   2.650   2.657   2.664   2.667   2.672   2.673   2.713
  2.714   2.734   2.747   2.752   2.759   2.762   2.769   2.774
  2.778   2.786   2.791   2.793   2.799   2.802   2.805   2.812
  2.826   2.831   2.842   2.852   2.861   2.867   2.871   2.880
  2.888   2.895   2.903   2.913   2.930   2.933   2.937   2.939
  2.945   2.947   2.954   2.955   2.961   2.969   2.972   2.974
  2.980   2.986   2.992   2.999   3.007   3.012   3.020   3.026
  3.033   3.040   3.044   3.045   3.052   3.060   3.060   3.066
  3.071   3.076   3.079   3.089   3.091   3.093   3.095   3.103
  3.109   3.117   3.119   3.124   3.125   3.136   3.142   3.144
  3.148   3.152   3.164   3.166   3.172   3.179   3.180   3.183
  3.187   3.190   3.194   3.197   3.201   3.206   3.209   3.211
  3.219   3.223   3.226   3.232   3.235   3.242   3.247   3.251
  3.254   3.261   3.266   3.271   3.276   3.279   3.285   3.289
  3.296   3.297   3.303   3.308   3.312   3.314   3.317   3.324
  3.330   3.331   3.342   3.344   3.347   3.357   3.363   3.369
  3.376   3.379   3.386   3.391   3.398   3.407   3.417   3.422
  3.427   3.431   3.439   3.443   3.453   3.458   3.465   3.470
  3.475   3.484   3.490   3.493   3.498   3.502   3.506   3.518
  3.522   3.533   3.539   3.541   3.554   3.557   3.570   3.573
  3.577   3.589   3.596   3.602   3.610   3.619   3.625   3.626
  3.642   3.644   3.652   3.666   3.685   3.688   3.692   3.703
  3.712   3.729   3.731   3.737   3.741   3.751   3.759   3.765
  3.772   3.779   3.784   3.793   3.800   3.803   3.806   3.812
  3.825   3.826   3.837   3.848   3.853   3.856   3.862   3.865
  3.880   3.884   3.893   3.908   3.918   3.922   3.924   3.934
  3.945   3.948   3.955   3.961   3.965   3.967   3.979   3.986
  3.986   3.997   4.011   4.023   4.032   4.038   4.039   4.049
  4.059   4.066   4.076   4.084   4.098   4.102   4.114   4.126
  4.133   4.139   4.156   4.161   4.170   4.174   4.181   4.186
  4.191   4.193   4.200   4.206   4.221   4.233   4.240   4.250
  4.259   4.276   4.286   4.288   4.292   4.295   4.311   4.319
  4.322   4.337   4.339   4.361   4.370   4.378   4.387   4.388
  4.396   4.402   4.406   4.415   4.419   4.433   4.445   4.456
  4.467   4.478   4.486   4.496   4.510   4.523   4.534   4.545
  4.552   4.561   4.566   4.578   4.584   4.599   4.599   4.616
  4.623   4.635   4.640   4.666   4.669   4.685   4.691   4.699
  4.699   4.708   4.722   4.742   4.763   4.776   4.787   4.802
  4.811   4.819   4.840   4.845   4.849   4.860   4.872   4.886
  4.896   4.900   4.912   4.933   4.939   4.947   4.950   4.954
  4.960   4.971   4.973   4.981   4.987   4.997   5.009   5.021
  5.035   5.044   5.057   5.061   5.076   5.099   5.104   5.110
  5.125   5.134   5.150   5.156   5.165   5.172   5.192   5.205
  5.232   5.234   5.238   5.244   5.256   5.265   5.281   5.283
  5.317   5.318   5.328   5.345   5.359   5.397   5.399   5.415
  5.447   5.452   5.457   5.461   5.483   5.490   5.517   5.533
  5.541   5.547   5.559   5.598   5.613   5.655   5.663   5.665
  5.701   5.706   5.731   5.747   5.763   5.791   5.833   5.840
  5.865   5.892   5.896   5.951   5.962   6.008   6.022   6.091
  6.136   6.154   6.177   6.197   6.201   6.227   6.274   6.321
  6.348   6.368   6.404   6.427   6.507   6.842   7.061   8.063
  8.927   9.894  10.194  10.948  11.203  11.235  11.654  12.064
 12.182  12.513  12.574  12.827  12.981  13.118  13.225  13.462
 13.546  13.629  13.841  14.266  14.411  14.681  15.016
 --------------------------------------------------------------
 
          Ground-State Mulliken Net Atomic Charges

     Atom                 Charge (a.u.)
  ----------------------------------------
      1 C                    -0.078146
      2 C                    -0.103162
      3 N                    -0.157753
      4 C                    -0.147404
      5 C                    -0.098552
      6 C                     0.102662
      7 C                     0.032524
      8 C                    -0.096759
      9 C                     0.046787
     10 N                    -0.187497
     11 N                    -0.291642
     12 C                     0.033663
     13 C                     0.117242
     14 S                     0.410923
     15 N                    -0.283873
     16 C                    -0.054769
     17 S                     0.130991
     18 C                    -0.009491
     19 C                    -0.021250
     20 S                     0.091263
     21 C                     0.021475
     22 C                     0.037295
     23 C                    -0.162289
     24 C                    -0.160016
     25 N                    -0.183260
     26 S                     0.100978
     27 C                    -0.074808
     28 C                    -0.203186
     29 H                     0.123495
     30 H                     0.128891
     31 H                     0.122173
     32 H                     0.136581
     33 H                     0.128361
     34 H                     0.131443
     35 H                     0.142161
     36 H                     0.129216
     37 H                     0.145732
  ----------------------------------------
  Sum of atomic charges =     0.000000

 -----------------------------------------------------------------
                    Cartesian Multipole Moments
 -----------------------------------------------------------------
    Charge (ESU x 10^10)
                 0.0000
    Dipole Moment (Debye)
         X      -2.1038      Y       0.4333      Z      -0.6285
       Tot       2.2380
    Quadrupole Moments (Debye-Ang)
        XX    -170.7728     XY      19.4328     YY    -169.5997
        XZ      -4.1788     YZ      -0.6178     ZZ    -189.7759
    Octopole Moments (Debye-Ang^2)
       XXX    -238.8683    XXY      69.0139    XYY     -25.1963
       YYY       3.6780    XXZ     -36.2937    XYZ      -6.5140
       YYZ      -4.0519    XZZ       4.6628    YZZ     -11.9575
       ZZZ      -1.9009
    Hexadecapole Moments (Debye-Ang^3)
      XXXX  -17539.7385   XXXY    1328.8018   XXYY   -3586.9491
      XYYY     -56.2807   YYYY   -3616.8807   XXXZ    -248.9295
      XXYZ     -18.2106   XYYZ     -29.3005   YYYZ     -14.7849
      XXZZ   -3435.1588   XYZZ      -8.3363   YYZZ    -740.7333
      XZZZ      -6.6370   YZZZ     -18.3440   ZZZZ    -239.5535
 -----------------------------------------------------------------
Archival summary:
1\1\mn169\OPT\ProcedureUnspecified\BasisUnspecified\45199\afmv_a\ThuJun115:09:102017ThuJun115:09:102017\0\\#,OPT,ProcedureUnspecified,BasisUnspecified,\\0,1\S\C,1,1.71991\C,2,1.37965,1,111.032\C,3,1.41866,2,111.895,1,-0.11119,0\C,4,1.37601,3,114.564,2,-0.0679688,0\C,3,1.43636,2,135.857,1,179.791,0\H,6,1.07702,3,123.606,2,0.0224008,0\C,6,1.34484,3,111.202,2,-179.858,0\H,8,1.07845,6,126.587,3,179.853,0\C,5,1.44365,4,125.419,3,179.603,0\N,10,1.31003,5,117.125,4,-0.183433,0\C,11,1.35405,10,120.769,5,179.834,0\H,12,1.0813,11,113.27,10,178.88,0\C,12,1.37211,11,127.088,10,0.730623,0\C,14,1.43107,12,113.861,11,-1.07013,0\N,15,1.3349,14,128.188,12,-178.003,0\C,15,1.43067,14,119.588,12,0.812116,0\N,17,1.32942,15,113.838,14,-179.349,0\C,2,1.44802,1,122.053,3,-179.887,0\N,19,1.30235,2,123.32,1,-179.217,0\C,20,1.3628,19,111.163,2,-179.869,0\H,21,1.07916,20,119.185,19,179.885,0\C,21,1.35556,20,116.044,19,-0.0329887,0\H,23,1.07567,21,128.701,20,179.773,0\C,14,1.47782,12,121.875,11,-177.466,0\C,25,1.39512,14,121.493,12,15,0\H,26,1.08068,25,120.935,14,5.33933,0\C,26,1.37981,25,119.849,14,-176.816,0\H,28,1.08065,26,120.85,25,-179.154,0\C,28,1.3853,26,118.657,25,0.355584,0\H,30,1.08397,28,120.68,26,-179.785,0\N,30,1.32699,28,122.915,26,0.274486,0\C,32,1.32826,30,117.967,28,-0.20694,0\H,33,1.07968,32,115.66,30,179.332,0\S,18,1.60763,17,106.42,15,0.194517,0\S,23,1.71368,21,109.669,20,0.00460933,0\S,4,1.72978,3,111.745,2,179.868,0\\\@

 Total job time:  7948.08s(wall), 120285.65s(cpu) 
 Thu Jun  1 15:09:10 2017

        *************************************************************
        *                                                           *
        *  Thank you very much for using Q-Chem.  Have a nice day.  *
        *                                                           *
        *************************************************************


0 sent ACK to 0 
now end server 0 ... 
cleanup process ... done
