
Running Job 1 of 1 C271_1/C271_285.qcin
qchem C271_1/C271_285.qcin_55320.0 /tmpu/cab_g/afmv_a/scratch_qchem/qchem55320/ 1
/tmpu/appuserlic/qchem4.4/parallel-MPICH/bin/mpi/mpirun_qchem -machinefile /tmpu/appuserlic/qchem4.4/parallel-MPICH/bin/mpi/machines -np 1 /tmpu/appuserlic/qchem4.4/parallel-MPICH/exe/qcprog.exe C271_1/C271_285.qcin_55320.0 /tmpu/cab_g/afmv_a/scratch_qchem/qchem55320/

Process 0 of 1 is on mn169 - thread support 0
initial socket setup ...start
initial socket setup ...done 
now start server 0 ... 
Check license passed

                  Welcome to Q-Chem
     A Quantum Leap Into The Future Of Chemistry


 Q-Chem 4.4, Q-Chem, Inc., Pleasanton, CA (2016)

 Y. Shao,  Z. Gan,  E. Epifanovsky,  A. T. B. Gilbert,  M. Wormit,  
 J. Kussmann,  A. W. Lange,  A. Behn,  J. Deng,  X. Feng,  D. Ghosh,  
 M. Goldey,  P. R. Horn,  L. D. Jacobson,  I. Kaliman,  F. Rob,  
 R. Z. Khaliullin,  T. Kus,  A. Landau,  J. Liu,  E. I. Proynov,  Y. M. Rhee,  
 R. M. Richard,  M. A. Rohrdanz,  R. P. Steele,  E. J. Sundstrom,  
 H. L. Woodcock III,  P. M. Zimmerman,  D. Zuev,  B. Albrecht,  E. Alguire,  
 B. Austin,  S. A. Baeppler,  G. J. O. Beran,  Y. A. Bernard,  E. Berquist,  
 K. Brandhorst,  K. B. Bravaya,  S. T. Brown,  D. Casanova,  C.-M. Chang,  
 Y. Chen,  S. H. Chien,  K. D. Closser,  M. P. Coons,  D. L. Crittenden,  
 S. Dasgupta,  M. Diedenhofen,  R. A. DiStasio Jr.,  H. Do,  A. D. Dutoi,  
 R. G. Edgar,  P.-T. Fang,  S. Fatehi,  Q. Feng,  L. Fusti-Molnar,  
 A. Ghysels,  A. Golubeva-Zadorozhnaya,  J. Gomes,  A. Gunina,  
 M. W. D. Hanson-Heine,  P. H. P. Harbach,  A. W. Hauser,  J. E. Herr,  
 E. G. Hohenstein,  Z. C. Holden,  K. Hui,  T.-C. Jagau,  H. Ji,  B. Kaduk,  
 K. Khistyaev,  Jaehoon Kim,  Jihan Kim,  R. A. King,  P. Klunzinger,  
 K. Koh,  D. Kosenkov,  T. Kowalczyk,  C. M. Krauter,  A. Kunitsa,  
 K. U. Lao,  A. Laurent,  K. V. Lawler,  J. Lee,  D. Lefrancois,  S. Lehtola,  
 S. V. Levchenko,  C. Y. Lin,  Y.-S. Lin,  F. Liu,  E. Livshits,  
 R. C. Lochan,  A. Luenser,  P. Manohar,  S. F. Manzer,  S.-P. Mao,  Y. Mao,  
 N. Mardirossian,  A. V. Marenich,  L. A. Martinez-Martinez,  S. A. Maurer,  
 N. J. Mayhall,  J.-M. Mewes,  A. F. Morrison,  K. Nanda,  T. S. Nguyen-Beck,  
 C. M. Oana,  R. Olivares-Amaya,  D. P. O'Neill,  J. A. Parkhill,  
 T. M. Perrine,  R. Peverati,  P. A. Pieniazek,  F. Plasser,  A. Prociuk,  
 D. R. Rehn,  E. Rosta,  N. J. Russ,  N. Sergueev,  S. M. Sharada,  
 S. Sharma,  D. W. Small,  A. Sodt,  T. Stauch,  T. Stein,  D. Stuck,  
 Y.-C. Su,  A. J. W. Thom,  T. Tsuchimochi,  L. Vogt,  O. Vydrov,  T. Wang,  
 M. A. Watson,  J. Wenzel,  A. White,  C. F. Williams,  V. Vanovschi,  
 K. Yao,  S. Yeganeh,  S. R. Yost,  Z.-Q. You,  I. Y. Zhang,  X. Zhang,  
 Y. Zhao,  B. R. Brooks,  G. K. L. Chan,  D. M. Chipman,  C. J. Cramer,  
 W. A. Goddard III,  M. S. Gordon,  W. J. Hehre,  A. Klamt,  
 H. F. Schaefer III,  M. W. Schmidt,  C. D. Sherrill,  D. G. Truhlar,  
 A. Warshel,  X. Xu,  A. Aspuru-Guzik,  R. Baer,  A. T. Bell,  N. A. Besley,  
 J.-D. Chai,  A. Dreuw,  B. D. Dunietz,  T. R. Furlani,  S. R. Gwaltney,  
 C.-P. Hsu,  Y. Jung,  J. Kong,  D. S. Lambrecht,  W. Liang,  C. Ochsenfeld,  
 V. A. Rassolov,  L. V. Slipchenko,  J. E. Subotnik,  T. Van Voorhis,  
 J. M. Herbert,  A. I. Krylov,  P. M. W. Gill,  M. Head-Gordon

 Contributors to earlier versions of Q-Chem not listed above: 
 R. D. Adamson,  J. Baker,  E. F. C. Byrd,  A. K. Chakraborty,  C.-L. Cheng,  
 H. Dachsel,  R. J. Doerksen,  G. Hawkins,  A. Heyden,  S. Hirata,  
 G. Kedziora,  F. J. Keil,  C. Kelley,  P. P. Korambath,  W. Kurlancheek,  
 A. M. Lee,  M. S. Lee,  D. Liotard,  I. Lotan,  P. E. Maslen,  N. Nair,  
 D. Neuhauser,  R. Olson,  B. Peters,  J. Ritchie,  N. E. Schultz,  
 N. Shenvi,  A. C. Simmonett,  K. S. Thanthiriwatte,  Q. Wu,  W. Zhang

 Please cite Q-Chem as follows:
 Y. Shao et al., Mol. Phys. 113, 184-215 (2015)
 DOI: 10.1080/00268976.2014.952696

 Q-Chem 4.4.2 for Intel X86 Linux

 Parts of Q-Chem use Armadillo 5.200.1 (Boston Tea Smuggler).
 http://arma.sourceforge.net/

 Q-Chem begins on Thu Jun  1 18:29:51 2017  

Host: 
0

     Scratch files written to /tmpu/cab_g/afmv_a/scratch_qchem/qchem55320//
 Dec716 11556_ 22328  22283 4050   
 Parallel job on  1  processors
Processing $rem in /tmpu/appuserlic/qchem4.4/parallel-MPICH/config/preferences.
 MEM_TOTAL  2000 
FILE_GEOM_ORG=        593

Checking the input file for inconsistencies... 	...done.

--------------------------------------------------------------
User input:
--------------------------------------------------------------
$comment
OPTIMIZATION
$end

$rem
JOBTYPE OPT
EXCHANGE omegaB97X-D
BASIS cc-pVTZ
$end

$molecule
0 1
C          0.00000        0.00000        0.00000
C          1.38508        0.00000        0.00000
N         -0.72771       -1.11322        0.00000
C          2.04720       -1.21160       -0.00386
C         -0.08136       -2.27149       -0.00595
C          1.30925       -2.38901       -0.00649
C          1.96927       -3.70493        0.02329
C          2.58647       -4.22889       -1.07904
C          2.01466       -4.53158        1.18372
N          3.20530       -5.43257       -1.15440
N          1.49283       -4.27904        2.38556
C          2.66071       -5.80371        1.11706
C          3.26359       -6.22581       -0.11221
S          1.82273       -5.55647        3.30865
N          2.62007       -6.48200        2.26038
C          3.94523       -7.48603       -0.29356
S          4.14072       -8.71268        0.91180
C          4.54088       -7.89913       -1.46307
C          5.00683       -9.75208       -0.15181
S          4.71356       -7.18441       -3.02980
C          5.14551       -9.18013       -1.39926
C          5.48972      -11.05010        0.27027
C          5.58765       -8.59989       -3.57566
C          5.74885       -9.55991       -2.64783
N          6.13502      -11.86226       -0.51675
S          5.25703      -11.66829        1.88251
C          6.46645      -13.01482        0.13129
C          6.08180      -13.10109        1.42803
H         -0.55134        0.93273        0.00000
H          1.92494        0.93597       -0.01293
H          3.12873       -1.25416       -0.02668
H         -0.69553       -3.16348       -0.00579
H          2.61383       -3.65847       -1.99881
H          5.93567       -8.63209       -4.59647
H          6.25287      -10.49949       -2.79793
H          7.00396      -13.78774       -0.39652
H          6.23398      -13.90899        2.12199
$end

$opt
CONSTRAINT
tors 4 6 7 8 -75.00000
tors 10 13 16 17 -179.11427
tors 17 19 22 25 179.21698
ENDCONSTRAINT
$end
--------------------------------------------------------------
 ----------------------------------------------------------------
             Standard Nuclear Orientation (Angstroms)
    I     Atom           X                Y                Z
 ----------------------------------------------------------------
    1      C      -7.6073495754    -0.3885421055     0.1249376548
    2      C      -6.9799750077    -0.7385375616    -1.0592713381
    3      N      -6.9454982323    -0.0138395389     1.2159790834
    4      C      -5.6008223584    -0.7018430066    -1.1138958177
    5      C      -5.6209021604     0.0157084163     1.1530085938
    6      C      -4.8863340729    -0.3160544477     0.0137322704
    7      C      -3.4165716905    -0.2289142404    -0.0053417605
    8      C      -2.6261249474    -1.3447477943     0.0213186361
    9      C      -2.7063322553     1.0063238586    -0.0472349945
   10      N      -1.2707655459    -1.3665572329     0.0220129110
   11      N      -3.2158384463     2.2393403475    -0.0712384420
   12      C      -1.2780288447     0.9976537761    -0.0436167225
   13      C      -0.5796948141    -0.2528988464    -0.0091906069
   14      S      -1.9657278027     3.2539488814    -0.0946791050
   15      N      -0.7382044515     2.2129074153    -0.0692638045
   16      C       0.8587235121    -0.3818163804    -0.0063011714
   17      S       1.9914009187     0.9268415140    -0.0216537043
   18      C       1.5433692267    -1.5751787235     0.0124267769
   19      C       3.3521054902    -0.1266662988    -0.0024318008
   20      S       1.0478956421    -3.2332311154     0.0380030586
   21      C       2.9555763411    -1.4476228709     0.0157014849
   22      C       4.7099536948     0.3757294276     0.0036498349
   23      C       2.7263894932    -3.7312675838     0.0520802005
   24      C       3.6172015854    -2.7239241141     0.0377519172
   25      N       5.7571570331    -0.3975524931     0.0322273718
   26      S       5.0904469395     2.0757360294    -0.0250516326
   27      C       6.9077835313     0.3333510040     0.0381417288
   28      C       6.7583604454     1.6801469945     0.0108275476
   29      H      -8.6877988970    -0.4091040006     0.2034712174
   30      H      -7.5685301030    -1.0477023320    -1.9111374601
   31      H      -5.0721204251    -0.9895694467    -2.0137441429
   32      H      -5.1046635182     0.3239517790     2.0537497709
   33      H      -3.0848617494    -2.3252817765     0.0360853258
   34      H       2.9536627628    -4.7857481832     0.0770870584
   35      H       4.6883406113    -2.8331624203     0.0479952717
   36      H       7.8608143516    -0.1725887959     0.0638885178
   37      H       7.5189877462     2.4409937217     0.0109321341
 ----------------------------------------------------------------
 Molecular Point Group                 C1    NOp =  1
 Largest Abelian Subgroup              C1    NOp =  1
 Nuclear Repulsion Energy =  2964.4816990224 hartrees
 There are      111 alpha and      111 beta electrons
 Requested basis set is cc-pVTZ
 There are 342 shells and 982 basis functions

 Total QAlloc Memory Limit   2000 MB
 Mega-Array Size        61 MB
 MEM_STATIC part        62 MB
 A cutoff of  1.0D-11 yielded  29181 shell pairs
 There are    231777 function pairs (    302897 Cartesian)
 
 -------------------------------------------------------
 OpenMP Integral Computing Module                       
 Release: version 1.0, May 2013, Q-Chem Inc. Pittsburgh 
 -------------------------------------------------------
 Integral Job Info:
 Integral job number is                      11
 Integral operator is                         1
 short-range coefficients              22203600
 long-range coefficients              100000000
 Omega coefficients                         200
 if combine SR and LR in K                    1
 Integral screening is                        0
 Integral computing path is                   2
 max size of driver memory is            800000
 size of driver memory is                776718
 size of scratch memory is             26248924
 max col of scratch BK array              10000
 max len of scratch array in speh3          662
 max len of scratch index in speh4           32
 max int batch size is                      520
 min int batch size is                       52
 fixed nKL is                                52
 max L of basis functions is                  3
 order of int derivative is                   0
 number of shells is                        342
 number of basis is                        1131
 number of cartesian basis is              1131
 number of contracted shell pairs         29181
 number of primitive shell pairs          92219
 maxK2 (contraction) of shell pair          121
 max number of K2 of shell pair               1
 max number of CS2 of shell pair           3959
 max number of PS2 of shell pair          11774
 mem total for path MDJ                  810124
 -------------------------------------------------------
 Smallest overlap matrix eigenvalue = 2.06E-05

 Scale SEOQF with 1.000000e-02/1.000000e-01/1.000000e-01

 Standard Electronic Orientation quadrupole field applied
 Nucleus-field energy     =     0.0000000627 hartrees
 Guess from superposition of atomic densities
 Warning:  Energy on first SCF cycle will be non-variational
 Long-range K will be added via erf
 Coulomb attenuation parameter = 0.2 bohr**(-1)
 A restricted hybrid HF-DFT SCF calculation will be
 performed using Pulay DIIS extrapolation
 Exchange:     0.2220 Hartree-Fock + 1.0000 wB97X-D + LR-HF
 Correlation:  1.0000 wB97X-D
 Using SG-2 standard quadrature grid
 Dispersion:   Grimme D
 SCF converges when DIIS error is below 1.0E-08
 using 16 threads for integral computing 
 using 16 threads for integral computing 
 K construction time:  CPU 71.90 s  wall 4.69 s
 -------------------------------------------------------
 OpenMP BLAS3 based DFT computing Module                
 Release: version 1.0, May 2013, Q-Chem Inc. Pittsburgh 
 -------------------------------------------------------
 ---------------------------------------
  Cycle       Energy         DIIS Error
 ---------------------------------------
    1   -2605.8532001321      1.87E-02
 K construction time:  CPU 1088.14 s  wall 71.05 s
    2   -2595.6573647788      1.38E-03
 K construction time:  CPU 1042.78 s  wall 68.08 s
    3   -2595.6497638240      1.52E-03
 K construction time:  CPU 991.35 s  wall 64.77 s
    4   -2595.8952898083      2.57E-04
 K construction time:  CPU 921.60 s  wall 60.08 s
    5   -2595.9014493542      1.42E-04
 K construction time:  CPU 871.42 s  wall 56.74 s
    6   -2595.9036133510      4.60E-05
 K construction time:  CPU 817.56 s  wall 53.43 s
    7   -2595.9038449535      2.06E-05
 K construction time:  CPU 772.02 s  wall 50.36 s
    8   -2595.9039043634      6.29E-06
 K construction time:  CPU 739.19 s  wall 48.13 s
    9   -2595.9039163483      3.32E-06
 K construction time:  CPU 702.51 s  wall 45.82 s
   10   -2595.9039197948      1.14E-06
 K construction time:  CPU 632.85 s  wall 41.13 s
   11   -2595.9039201956      6.92E-07
 K construction time:  CPU 591.35 s  wall 38.46 s
   12   -2595.9039203138      2.15E-07
 K construction time:  CPU 526.80 s  wall 34.23 s
   13   -2595.9039203270      9.68E-08
 K construction time:  CPU 466.75 s  wall 30.30 s
   14   -2595.9039203288      3.07E-08
 K construction time:  CPU 391.10 s  wall 25.24 s
   15   -2595.9039203289      1.41E-08
 K construction time:  CPU 1085.78 s  wall 70.89 s
   16   -2595.9039203265      4.81E-09 Convergence criterion met
 ---------------------------------------
 SCF time:  CPU 15582.27 s  wall 1038.85 s
 SCF   energy in the final basis set = -2595.9039203265
 Total energy in the final basis set = -2595.9039203265
 
 --------------------------------------------------------------
 
                    Orbital Energies (a.u.)
 --------------------------------------------------------------
 
 Alpha MOs
 -- Occupied --
-89.155 -89.094 -89.093 -89.075 -14.494 -14.487 -14.451 -14.445
-14.437 -10.375 -10.370 -10.362 -10.360 -10.346 -10.341 -10.340
-10.334 -10.329 -10.328 -10.328 -10.326 -10.325 -10.322 -10.318
-10.315 -10.314 -10.303 -10.296  -8.165  -8.109  -8.108  -8.089
 -6.115  -6.110  -6.109  -6.058  -6.057  -6.054  -6.054  -6.052
 -6.051  -6.039  -6.035  -6.031  -1.152  -1.084  -1.073  -1.055
 -1.024  -1.015  -0.956  -0.945  -0.912  -0.910  -0.907  -0.885
 -0.861  -0.844  -0.829  -0.807  -0.775  -0.749  -0.742  -0.733
 -0.724  -0.694  -0.689  -0.678  -0.648  -0.641  -0.623  -0.621
 -0.608  -0.595  -0.588  -0.576  -0.571  -0.570  -0.540  -0.536
 -0.526  -0.523  -0.518  -0.514  -0.511  -0.500  -0.496  -0.491
 -0.489  -0.481  -0.477  -0.463  -0.458  -0.445  -0.437  -0.432
 -0.430  -0.423  -0.402  -0.396  -0.378  -0.374  -0.371  -0.370
 -0.363  -0.353  -0.342  -0.337  -0.332  -0.322  -0.269
 -- Virtual --
 -0.056  -0.010   0.031   0.039   0.048   0.057   0.059   0.064
  0.075   0.102   0.107   0.111   0.116   0.121   0.131   0.134
  0.142   0.146   0.150   0.160   0.163   0.170   0.170   0.179
  0.187   0.197   0.201   0.209   0.211   0.220   0.228   0.239
  0.247   0.253   0.256   0.267   0.271   0.273   0.288   0.290
  0.293   0.296   0.302   0.307   0.310   0.318   0.323   0.325
  0.329   0.332   0.337   0.340   0.344   0.353   0.356   0.357
  0.363   0.366   0.369   0.373   0.377   0.382   0.383   0.386
  0.392   0.393   0.395   0.397   0.403   0.406   0.407   0.408
  0.421   0.424   0.429   0.429   0.433   0.436   0.440   0.444
  0.447   0.451   0.453   0.454   0.458   0.459   0.465   0.466
  0.470   0.471   0.473   0.479   0.481   0.484   0.486   0.491
  0.495   0.499   0.502   0.505   0.512   0.514   0.518   0.523
  0.524   0.527   0.533   0.537   0.541   0.547   0.550   0.554
  0.555   0.566   0.575   0.579   0.582   0.590   0.592   0.595
  0.602   0.604   0.623   0.626   0.633   0.644   0.648   0.651
  0.660   0.663   0.668   0.672   0.674   0.680   0.682   0.687
  0.691   0.693   0.698   0.702   0.708   0.718   0.722   0.726
  0.730   0.736   0.739   0.745   0.746   0.754   0.758   0.763
  0.768   0.772   0.773   0.778   0.781   0.784   0.789   0.796
  0.799   0.809   0.814   0.818   0.819   0.822   0.828   0.831
  0.834   0.842   0.848   0.851   0.855   0.860   0.868   0.869
  0.875   0.878   0.882   0.895   0.898   0.901   0.905   0.913
  0.917   0.925   0.926   0.932   0.935   0.942   0.948   0.952
  0.954   0.967   0.971   0.975   0.976   0.979   0.985   0.990
  0.993   0.997   1.009   1.014   1.016   1.017   1.029   1.034
  1.043   1.044   1.054   1.055   1.066   1.068   1.073   1.076
  1.084   1.089   1.097   1.099   1.106   1.118   1.121   1.128
  1.136   1.138   1.147   1.160   1.163   1.171   1.177   1.183
  1.191   1.193   1.206   1.211   1.218   1.225   1.226   1.233
  1.236   1.244   1.255   1.256   1.266   1.271   1.273   1.281
  1.289   1.291   1.295   1.300   1.315   1.322   1.331   1.335
  1.341   1.351   1.361   1.365   1.367   1.376   1.383   1.387
  1.393   1.396   1.412   1.417   1.425   1.428   1.435   1.439
  1.444   1.454   1.458   1.464   1.467   1.471   1.475   1.483
  1.498   1.502   1.513   1.526   1.534   1.538   1.541   1.544
  1.549   1.558   1.570   1.572   1.578   1.589   1.596   1.597
  1.608   1.617   1.622   1.627   1.633   1.635   1.640   1.650
  1.653   1.659   1.665   1.672   1.676   1.680   1.688   1.689
  1.694   1.698   1.701   1.716   1.726   1.731   1.736   1.748
  1.749   1.762   1.767   1.767   1.776   1.781   1.783   1.792
  1.812   1.817   1.821   1.830   1.852   1.857   1.863   1.866
  1.881   1.882   1.886   1.894   1.909   1.920   1.922   1.925
  1.937   1.945   1.947   1.950   1.959   1.973   1.974   1.986
  1.991   1.994   1.997   2.003   2.018   2.019   2.031   2.032
  2.045   2.055   2.061   2.072   2.074   2.088   2.102   2.104
  2.119   2.127   2.135   2.139   2.152   2.163   2.164   2.172
  2.175   2.181   2.191   2.192   2.212   2.215   2.219   2.230
  2.234   2.241   2.247   2.253   2.256   2.272   2.275   2.284
  2.298   2.307   2.320   2.339   2.340   2.350   2.358   2.363
  2.369   2.378   2.382   2.385   2.393   2.398   2.406   2.408
  2.420   2.431   2.433   2.439   2.450   2.457   2.460   2.472
  2.479   2.483   2.485   2.496   2.498   2.505   2.512   2.514
  2.526   2.536   2.540   2.545   2.546   2.560   2.577   2.591
  2.598   2.602   2.607   2.613   2.614   2.620   2.621   2.636
  2.646   2.649   2.656   2.660   2.671   2.680   2.690   2.708
  2.720   2.734   2.742   2.749   2.763   2.770   2.775   2.782
  2.787   2.788   2.789   2.796   2.798   2.812   2.819   2.824
  2.831   2.832   2.844   2.851   2.858   2.870   2.881   2.890
  2.893   2.901   2.909   2.913   2.922   2.933   2.936   2.939
  2.939   2.946   2.950   2.960   2.964   2.968   2.975   2.977
  2.986   2.991   2.994   2.998   3.011   3.015   3.018   3.021
  3.030   3.040   3.045   3.050   3.056   3.061   3.062   3.065
  3.069   3.082   3.087   3.093   3.094   3.099   3.106   3.106
  3.112   3.117   3.122   3.125   3.126   3.131   3.137   3.144
  3.148   3.155   3.160   3.167   3.172   3.176   3.181   3.183
  3.185   3.192   3.197   3.201   3.202   3.204   3.206   3.211
  3.213   3.224   3.227   3.233   3.237   3.241   3.243   3.248
  3.254   3.260   3.264   3.269   3.274   3.278   3.282   3.290
  3.296   3.301   3.303   3.308   3.311   3.314   3.320   3.331
  3.332   3.337   3.344   3.346   3.356   3.359   3.368   3.368
  3.373   3.380   3.386   3.389   3.410   3.412   3.416   3.423
  3.428   3.434   3.436   3.444   3.456   3.457   3.461   3.463
  3.471   3.485   3.488   3.493   3.497   3.503   3.509   3.513
  3.516   3.526   3.530   3.554   3.556   3.558   3.567   3.571
  3.573   3.584   3.595   3.598   3.612   3.617   3.619   3.626
  3.643   3.647   3.651   3.668   3.670   3.686   3.691   3.709
  3.715   3.726   3.731   3.734   3.739   3.746   3.753   3.767
  3.772   3.780   3.786   3.794   3.801   3.804   3.811   3.817
  3.818   3.829   3.832   3.845   3.850   3.856   3.864   3.867
  3.871   3.882   3.904   3.905   3.918   3.924   3.930   3.935
  3.947   3.953   3.959   3.966   3.968   3.977   3.985   3.987
  3.988   3.999   4.004   4.009   4.020   4.032   4.038   4.046
  4.048   4.059   4.081   4.083   4.086   4.097   4.115   4.122
  4.133   4.143   4.150   4.154   4.157   4.174   4.178   4.183
  4.186   4.198   4.204   4.209   4.218   4.225   4.239   4.243
  4.262   4.272   4.276   4.286   4.293   4.298   4.312   4.316
  4.318   4.332   4.343   4.359   4.364   4.377   4.388   4.390
  4.399   4.413   4.416   4.430   4.441   4.450   4.452   4.457
  4.475   4.484   4.488   4.502   4.506   4.531   4.535   4.537
  4.548   4.553   4.565   4.572   4.579   4.587   4.594   4.602
  4.608   4.633   4.636   4.654   4.661   4.674   4.675   4.694
  4.698   4.704   4.723   4.745   4.762   4.767   4.784   4.804
  4.814   4.826   4.839   4.843   4.848   4.856   4.862   4.866
  4.872   4.883   4.914   4.927   4.933   4.934   4.943   4.948
  4.952   4.960   4.967   4.975   4.985   4.987   4.997   5.009
  5.023   5.037   5.052   5.063   5.078   5.089   5.091   5.096
  5.101   5.128   5.137   5.145   5.150   5.167   5.179   5.192
  5.213   5.229   5.234   5.240   5.250   5.255   5.281   5.283
  5.307   5.326   5.342   5.352   5.370   5.391   5.401   5.413
  5.429   5.436   5.459   5.461   5.472   5.490   5.513   5.525
  5.532   5.547   5.569   5.589   5.606   5.654   5.662   5.671
  5.693   5.704   5.722   5.738   5.767   5.776   5.810   5.813
  5.855   5.892   5.905   5.938   5.957   6.005   6.016   6.109
  6.136   6.155   6.165   6.190   6.207   6.225   6.245   6.297
  6.337   6.349   6.399   6.406   6.465   6.852   6.984   8.007
  8.868   9.608  10.159  10.932  11.167  11.228  11.741  12.002
 12.314  12.468  12.577  12.779  12.833  13.121  13.249  13.460
 13.496  13.553  13.763  13.843  14.268  14.743  14.997
 --------------------------------------------------------------
 
          Ground-State Mulliken Net Atomic Charges

     Atom                 Charge (a.u.)
  ----------------------------------------
      1 C                    -0.069182
      2 C                    -0.098379
      3 N                    -0.152930
      4 C                    -0.128920
      5 C                    -0.079498
      6 C                     0.066173
      7 C                    -0.038377
      8 C                    -0.058974
      9 C                     0.032231
     10 N                    -0.180849
     11 N                    -0.262060
     12 C                     0.028653
     13 C                     0.119779
     14 S                     0.412201
     15 N                    -0.284518
     16 C                    -0.061579
     17 S                     0.130143
     18 C                    -0.003763
     19 C                    -0.021419
     20 S                     0.092940
     21 C                     0.019179
     22 C                     0.037214
     23 C                    -0.162636
     24 C                    -0.159758
     25 N                    -0.183222
     26 S                     0.099930
     27 C                    -0.074972
     28 C                    -0.203171
     29 H                     0.124216
     30 H                     0.129615
     31 H                     0.129362
     32 H                     0.127196
     33 H                     0.127301
     34 H                     0.131171
     35 H                     0.141963
     36 H                     0.129162
     37 H                     0.145779
  ----------------------------------------
  Sum of atomic charges =     0.000000

 -----------------------------------------------------------------
                    Cartesian Multipole Moments
 -----------------------------------------------------------------
    Charge (ESU x 10^10)
                 0.0000
    Dipole Moment (Debye)
         X       1.7644      Y       0.5898      Z      -1.7845
       Tot       2.5779
    Quadrupole Moments (Debye-Ang)
        XX    -167.8919     XY      10.6213     YY    -173.3897
        XZ      14.2202     YZ       1.3989     ZZ    -187.4297
    Octopole Moments (Debye-Ang^2)
       XXX     210.6575    XXY       1.3970    XYY      43.4649
       YYY       4.4779    XXZ    -105.3438    XYZ     -10.1381
       YYZ      -0.3287    XZZ     -13.1828    YZZ       7.9020
       ZZZ      -7.7199
    Hexadecapole Moments (Debye-Ang^3)
      XXXX  -17212.0303   XXXY     790.9042   XXYY   -3646.6169
      XYYY    -118.7429   YYYY   -3439.5897   XXXZ     819.5969
      XXYZ      55.4272   XYYZ       9.1112   YYYZ     -10.8551
      XXZZ   -3432.4089   XYZZ      17.7712   YYZZ    -735.2958
      XZZZ      56.0436   YZZZ       9.8835   ZZZZ    -418.3771
 -----------------------------------------------------------------
 Calculating analytic gradient of the SCF energy
 K construction time:  CPU 2911.97 s  wall 183.98 s
 Gradient of SCF Energy
            1           2           3           4           5           6
    1  -0.0017356   0.0033149   0.0001268  -0.0031177  -0.0008787   0.0065557
    2  -0.0010657   0.0019080   0.0012911   0.0023450  -0.0013270  -0.0040978
    3  -0.0002189  -0.0008249  -0.0006230  -0.0008276   0.0031999   0.0014057
            7           8           9          10          11          12
    1  -0.0069645   0.0009399   0.0012560  -0.0017191   0.0020788   0.0000176
    2   0.0024078  -0.0005679   0.0002280  -0.0008343   0.0009691  -0.0004007
    3  -0.0012749   0.0017627  -0.0034566   0.0010708   0.0007237   0.0001628
           13          14          15          16          17          18
    1   0.0007904  -0.0000794  -0.0009381  -0.0013426   0.0010493   0.0006659
    2   0.0008186   0.0007470  -0.0001451   0.0003166   0.0004744   0.0002530
    3  -0.0001677  -0.0001779   0.0004360  -0.0000088   0.0000777  -0.0002459
           19          20          21          22          23          24
    1   0.0004624  -0.0004299  -0.0004440  -0.0001473  -0.0010215   0.0007363
    2  -0.0006716  -0.0002333   0.0005701  -0.0003143   0.0006755  -0.0017557
    3  -0.0002220  -0.0001049   0.0003657   0.0004264  -0.0000836  -0.0003502
           25          26          27          28          29          30
    1  -0.0006746  -0.0002242  -0.0004265   0.0005929   0.0001926  -0.0004661
    2  -0.0001338   0.0007701  -0.0006725  -0.0003037  -0.0001754  -0.0004029
    3  -0.0003628  -0.0003240   0.0000753   0.0000794  -0.0000001   0.0005909
           31          32          33          34          35          36
    1   0.0002396  -0.0006321   0.0014273   0.0003345  -0.0001397   0.0004985
    2  -0.0014200  -0.0004675  -0.0001502  -0.0002349   0.0007406   0.0007805
    3   0.0003048  -0.0007331  -0.0011413   0.0002174   0.0000880   0.0000858
           37
    1   0.0001022
    2   0.0000791
    3   0.0000750
 Max gradient component =       6.965E-03
 RMS gradient           =       1.415E-03
 Gradient time:  CPU 3354.64 s  wall 213.74 s
 Geometry Optimization Parameters
   NAtoms,    NIC,     NZ,  NCons,   NDum,   NFix, NCnnct, MaxDiis
       37     280       0       3       0       0       0       0


** CONSTRAINED OPTIMIZATION IN DELOCALIZED INTERNAL COORDINATES **
   Searching for a Minimum

   Optimization Cycle:   1

                       Coordinates (Angstroms)
     ATOM                X               Y               Z
      1  C        -7.6073495754   -0.3885421055    0.1249376548
      2  C        -6.9799750077   -0.7385375616   -1.0592713381
      3  N        -6.9454982323   -0.0138395389    1.2159790834
      4  C        -5.6008223584   -0.7018430066   -1.1138958177
      5  C        -5.6209021604    0.0157084163    1.1530085938
      6  C        -4.8863340729   -0.3160544477    0.0137322704
      7  C        -3.4165716905   -0.2289142404   -0.0053417605
      8  C        -2.6261249474   -1.3447477943    0.0213186361
      9  C        -2.7063322553    1.0063238586   -0.0472349945
     10  N        -1.2707655459   -1.3665572329    0.0220129110
     11  N        -3.2158384463    2.2393403475   -0.0712384420
     12  C        -1.2780288447    0.9976537761   -0.0436167225
     13  C        -0.5796948141   -0.2528988464   -0.0091906069
     14  S        -1.9657278027    3.2539488814   -0.0946791050
     15  N        -0.7382044515    2.2129074153   -0.0692638045
     16  C         0.8587235121   -0.3818163804   -0.0063011714
     17  S         1.9914009187    0.9268415140   -0.0216537043
     18  C         1.5433692267   -1.5751787235    0.0124267769
     19  C         3.3521054902   -0.1266662988   -0.0024318008
     20  S         1.0478956421   -3.2332311154    0.0380030586
     21  C         2.9555763411   -1.4476228709    0.0157014849
     22  C         4.7099536948    0.3757294276    0.0036498349
     23  C         2.7263894932   -3.7312675838    0.0520802005
     24  C         3.6172015854   -2.7239241141    0.0377519172
     25  N         5.7571570331   -0.3975524931    0.0322273718
     26  S         5.0904469395    2.0757360294   -0.0250516326
     27  C         6.9077835313    0.3333510040    0.0381417288
     28  C         6.7583604454    1.6801469945    0.0108275476
     29  H        -8.6877988970   -0.4091040006    0.2034712174
     30  H        -7.5685301030   -1.0477023320   -1.9111374601
     31  H        -5.0721204251   -0.9895694467   -2.0137441429
     32  H        -5.1046635182    0.3239517790    2.0537497709
     33  H        -3.0848617494   -2.3252817765    0.0360853258
     34  H         2.9536627628   -4.7857481832    0.0770870584
     35  H         4.6883406113   -2.8331624203    0.0479952717
     36  H         7.8608143516   -0.1725887959    0.0638885178
     37  H         7.5189877462    2.4409937217    0.0109321341
   Point Group: c1    Number of degrees of freedom:   105


   Energy is  -2595.903920327

              Constraints and their Current Values
                                        Value     Constraint
   Dihedral:        4   6   7   8      -75.000      -75.000
   Dihedral:       10  13  16  17     -179.125     -179.114
   Dihedral:       17  19  22  25      179.258      179.217

 Attempting to Generate Delocalized Internal Coordinates

   Using Lagrange Multiplier Algorithm


108 Hessian modes will be used to form the next step
  Hessian Eigenvalues:
    -0.977753   -0.977753   -0.977753    0.045000    0.045000    0.045000
     0.045000    0.045000    0.045000    0.045000    0.045000    0.045000
     0.045000    0.045000    0.045000    0.045000    0.045000    0.045000
     0.045000    0.045000    0.045000    0.045000    0.045000    0.045000
     0.045001    0.045001    0.045001    0.045001    0.045001    0.045003
     0.045005    0.045007    0.045009    0.045012    0.159961    0.159984
     0.159995    0.159997    0.159998    0.159999    0.160000    0.160000
     0.160000    0.220002    0.224572    0.225458    0.231978    0.233022
     0.234404    0.247446    0.247715    0.249914    0.249956    0.249989
     0.249992    0.249998    0.249998    0.249998    0.249999    0.249999
     0.249999    0.250000    0.250000    0.297526    0.305110    0.316321
     0.317279    0.326678    0.334475    0.354466    0.355754    0.356364
     0.356775    0.356811    0.359242    0.360781    0.361173    0.363907
     0.365011    0.372834    0.385316    0.386476    0.390167    0.393199
     0.397173    0.410395    0.431175    0.455299    0.463165    0.473312
     0.473331    0.475019    0.483101    0.491325    0.496864    0.499407
     0.517642    0.525712    0.538157    0.558614    0.574891    0.584506
     0.591081    0.623477    0.638978    1.022753    1.022753    1.022753

 Minimum Search - Taking P-RFO Step
 Searching for Lamda that Maximizes Along the Constraint modes Only
 Value Taken    Lamda =   0.00000680
 Searching for Lamda that Minimizes Along All other modes
 Value Taken    Lamda =  -0.00067373
 Step Taken.  Stepsize is  0.077278

                             Maximum     Tolerance    Cnvgd?
         Gradient            0.006855       0.000300      NO
         Displacement        0.025796       0.001200      NO
         Energy change     *********       0.000001      NO


 New Cartesian Coordinates Obtained by Inverse Iteration

 Displacement from previous Coordinates is:  0.538086
 ----------------------------------------------------------------
             Standard Nuclear Orientation (Angstroms)
    I     Atom           X                Y                Z
 ----------------------------------------------------------------
    1      C      -7.6088599449    -0.3275480101     0.1267932092
    2      C      -6.9973744805    -0.6956266155    -1.0604111626
    3      N      -6.9353070744     0.0377306879     1.2133999886
    4      C      -5.6158359395    -0.6830954908    -1.1230582064
    5      C      -5.6114958424     0.0461609859     1.1397378709
    6      C      -4.8919832641    -0.3095300894     0.0015742934
    7      C      -3.4155342515    -0.2561363994    -0.0118362671
    8      C      -2.6394392652    -1.3803106851     0.0229138641
    9      C      -2.6991954297     0.9704562655    -0.0428942926
   10      N      -1.2821471594    -1.4147488123     0.0252775259
   11      N      -3.2061412174     2.2035652394    -0.0720714461
   12      C      -1.2719409588     0.9508938418    -0.0382364497
   13      C      -0.5835142649    -0.3057088920    -0.0046250044
   14      S      -1.9473792400     3.2080804224    -0.0901135278
   15      N      -0.7233899296     2.1622184804    -0.0644578016
   16      C       0.8558450415    -0.4306448209     0.0000865372
   17      S       1.9673202342     0.8941539081    -0.0134904501
   18      C       1.5571814845    -1.6145617628     0.0189437433
   19      C       3.3439122467    -0.1371236831     0.0033273717
   20      S       1.0909209008    -3.2806856761     0.0434367323
   21      C       2.9678986998    -1.4641247221     0.0206282157
   22      C       4.6945264613     0.3851512541     0.0072466398
   23      C       2.7775692831    -3.7512011132     0.0534088832
   24      C       3.6504278295    -2.7284610572     0.0408230907
   25      N       5.7536224430    -0.3719359872     0.0347623207
   26      S       5.0494164843     2.0896353882    -0.0194722920
   27      C       6.8930305852     0.3755872657     0.0347131966
   28      C       6.7229521515     1.7200524695     0.0073247733
   29      H      -8.6893495199    -0.3234080683     0.2110146908
   30      H      -7.5938082487    -0.9884802263    -1.9127430499
   31      H      -5.0970313981    -0.9712964698    -2.0280731905
   32      H      -5.0817473885     0.3485759154     2.0364617091
   33      H      -3.1173444013    -2.3521764573     0.0501372581
   34      H       3.0208073186    -4.8017639151     0.0733660494
   35      H       4.7231846148    -2.8242775340     0.0482782082
   36      H       7.8506562469    -0.1215806185     0.0557325514
   37      H       7.4715716206     2.4924468380     0.0030502800
 ----------------------------------------------------------------
 Molecular Point Group                 C1    NOp =  1
 Largest Abelian Subgroup              C1    NOp =  1
 Nuclear Repulsion Energy =  2966.1018384757 hartrees
 There are      111 alpha and      111 beta electrons
 Applying Cartesian multipole field
    Component          Value
    ---------          -----
     (2,0,0)        1.00000E-12
     (0,2,0)        2.00000E-11
     (0,0,2)       -3.00000E-11
 Nucleus-field energy     =     0.0000000628 hartrees
 Requested basis set is cc-pVTZ
 There are 342 shells and 982 basis functions
 A cutoff of  1.0D-11 yielded  29205 shell pairs
 There are    231913 function pairs (    303066 Cartesian)
 Smallest overlap matrix eigenvalue = 2.04E-05
 Guess MOs from SCF MO coefficient file
 Reading MOs from coefficient file
 Reading MOs from coefficient file
 Long-range K will be added via erf
 Coulomb attenuation parameter = 0.2 bohr**(-1)
 A restricted hybrid HF-DFT SCF calculation will be
 performed using Pulay DIIS extrapolation
 Exchange:     0.2220 Hartree-Fock + 1.0000 wB97X-D + LR-HF
 Correlation:  1.0000 wB97X-D
 Using SG-2 standard quadrature grid
 Dispersion:   Grimme D
 SCF converges when DIIS error is below 1.0E-08
 Geometry optimization detected.  Setting ReadMinima to 0
 Setting SaveMinima to 0
 using 16 threads for integral computing 
 using 16 threads for integral computing 
 K construction time:  CPU 1088.39 s  wall 71.05 s
 -------------------------------------------------------
 OpenMP BLAS3 based DFT computing Module                
 Release: version 1.0, May 2013, Q-Chem Inc. Pittsburgh 
 -------------------------------------------------------
 ---------------------------------------
  Cycle       Energy         DIIS Error
 ---------------------------------------
    1   -2595.9018314693      2.42E-04
 K construction time:  CPU 1089.19 s  wall 71.11 s
    2   -2595.9041443934      2.62E-05
 K construction time:  CPU 807.00 s  wall 52.71 s
    3   -2595.9042162631      2.53E-05
 K construction time:  CPU 757.19 s  wall 49.43 s
    4   -2595.9042808974      7.92E-06
 K construction time:  CPU 703.29 s  wall 46.04 s
    5   -2595.9042881195      3.93E-06
 K construction time:  CPU 652.56 s  wall 42.48 s
    6   -2595.9042898797      1.26E-06
 K construction time:  CPU 596.93 s  wall 38.90 s
    7   -2595.9042900929      4.96E-07
 K construction time:  CPU 538.10 s  wall 35.02 s
    8   -2595.9042901314      1.93E-07
 K construction time:  CPU 499.25 s  wall 32.49 s
    9   -2595.9042901399      8.41E-08
 K construction time:  CPU 435.04 s  wall 28.14 s
   10   -2595.9042901415      3.12E-08
 K construction time:  CPU 386.34 s  wall 25.03 s
   11   -2595.9042901432      1.42E-08
 K construction time:  CPU 349.33 s  wall 22.60 s
   12   -2595.9042901440      5.98E-09 Convergence criterion met
 ---------------------------------------
 SCF time:  CPU 10641.52 s  wall 709.70 s
 SCF   energy in the final basis set = -2595.9042901440
 Total energy in the final basis set = -2595.9042901440
 
 --------------------------------------------------------------
 
                    Orbital Energies (a.u.)
 --------------------------------------------------------------
 
 Alpha MOs
 -- Occupied --
-89.155 -89.094 -89.093 -89.075 -14.495 -14.488 -14.452 -14.445
-14.437 -10.375 -10.370 -10.362 -10.360 -10.345 -10.341 -10.340
-10.334 -10.329 -10.328 -10.327 -10.326 -10.324 -10.322 -10.317
-10.315 -10.314 -10.303 -10.296  -8.165  -8.109  -8.108  -8.089
 -6.115  -6.110  -6.109  -6.058  -6.057  -6.054  -6.054  -6.051
 -6.051  -6.039  -6.035  -6.031  -1.153  -1.084  -1.072  -1.055
 -1.024  -1.015  -0.957  -0.945  -0.912  -0.910  -0.907  -0.884
 -0.861  -0.845  -0.829  -0.807  -0.775  -0.749  -0.742  -0.733
 -0.724  -0.695  -0.689  -0.678  -0.648  -0.641  -0.622  -0.621
 -0.608  -0.595  -0.588  -0.576  -0.571  -0.569  -0.540  -0.536
 -0.526  -0.523  -0.518  -0.514  -0.511  -0.500  -0.496  -0.491
 -0.489  -0.480  -0.477  -0.462  -0.458  -0.446  -0.437  -0.432
 -0.430  -0.424  -0.403  -0.396  -0.378  -0.374  -0.370  -0.370
 -0.363  -0.353  -0.343  -0.337  -0.332  -0.322  -0.269
 -- Virtual --
 -0.056  -0.010   0.031   0.039   0.047   0.058   0.059   0.064
  0.076   0.102   0.107   0.111   0.116   0.121   0.131   0.134
  0.143   0.146   0.150   0.160   0.163   0.170   0.171   0.179
  0.187   0.197   0.201   0.209   0.211   0.221   0.228   0.240
  0.247   0.252   0.256   0.266   0.271   0.273   0.288   0.290
  0.293   0.296   0.302   0.307   0.310   0.319   0.323   0.325
  0.329   0.332   0.337   0.340   0.344   0.353   0.356   0.357
  0.363   0.366   0.369   0.373   0.376   0.382   0.383   0.386
  0.392   0.393   0.395   0.397   0.404   0.406   0.407   0.409
  0.421   0.424   0.429   0.429   0.433   0.437   0.440   0.443
  0.447   0.451   0.453   0.454   0.458   0.459   0.465   0.466
  0.470   0.471   0.473   0.479   0.480   0.484   0.486   0.491
  0.494   0.499   0.502   0.505   0.512   0.514   0.518   0.522
  0.524   0.526   0.533   0.537   0.541   0.547   0.550   0.555
  0.556   0.566   0.573   0.580   0.583   0.591   0.592   0.595
  0.602   0.604   0.622   0.627   0.634   0.644   0.649   0.651
  0.660   0.663   0.669   0.673   0.675   0.679   0.682   0.686
  0.692   0.693   0.698   0.701   0.707   0.718   0.723   0.727
  0.730   0.737   0.739   0.744   0.745   0.755   0.757   0.763
  0.768   0.772   0.772   0.777   0.781   0.784   0.790   0.796
  0.800   0.809   0.815   0.818   0.819   0.822   0.829   0.832
  0.833   0.842   0.848   0.852   0.855   0.860   0.869   0.870
  0.874   0.877   0.882   0.895   0.897   0.900   0.905   0.914
  0.918   0.926   0.927   0.933   0.937   0.942   0.949   0.952
  0.954   0.968   0.972   0.974   0.976   0.979   0.985   0.991
  0.993   0.997   1.010   1.015   1.017   1.019   1.028   1.033
  1.043   1.044   1.054   1.056   1.065   1.067   1.073   1.077
  1.085   1.089   1.096   1.100   1.105   1.116   1.121   1.128
  1.136   1.138   1.146   1.159   1.164   1.172   1.177   1.183
  1.192   1.194   1.206   1.211   1.218   1.225   1.227   1.233
  1.239   1.244   1.256   1.256   1.266   1.270   1.272   1.281
  1.289   1.291   1.295   1.300   1.315   1.321   1.331   1.336
  1.341   1.351   1.360   1.365   1.367   1.376   1.384   1.387
  1.393   1.395   1.412   1.418   1.425   1.428   1.435   1.439
  1.445   1.455   1.458   1.462   1.466   1.471   1.476   1.484
  1.498   1.502   1.514   1.525   1.535   1.538   1.542   1.544
  1.549   1.558   1.569   1.572   1.578   1.589   1.596   1.597
  1.608   1.614   1.622   1.628   1.633   1.637   1.642   1.651
  1.653   1.661   1.665   1.671   1.677   1.680   1.688   1.690
  1.693   1.697   1.700   1.717   1.726   1.731   1.736   1.747
  1.748   1.761   1.767   1.768   1.776   1.781   1.784   1.792
  1.812   1.818   1.823   1.830   1.851   1.858   1.863   1.865
  1.881   1.881   1.885   1.894   1.912   1.922   1.923   1.926
  1.937   1.944   1.947   1.949   1.959   1.973   1.975   1.985
  1.991   1.994   1.997   2.004   2.020   2.020   2.031   2.032
  2.047   2.054   2.061   2.073   2.074   2.087   2.101   2.103
  2.119   2.129   2.135   2.139   2.150   2.162   2.164   2.172
  2.177   2.181   2.190   2.192   2.211   2.214   2.218   2.231
  2.234   2.241   2.249   2.255   2.258   2.271   2.274   2.284
  2.298   2.306   2.321   2.340   2.341   2.351   2.358   2.363
  2.370   2.378   2.383   2.385   2.393   2.399   2.406   2.407
  2.420   2.431   2.435   2.439   2.449   2.456   2.459   2.472
  2.480   2.482   2.484   2.497   2.498   2.506   2.512   2.515
  2.527   2.537   2.541   2.542   2.545   2.560   2.577   2.591
  2.597   2.603   2.608   2.613   2.615   2.620   2.621   2.636
  2.647   2.649   2.656   2.661   2.670   2.680   2.690   2.708
  2.720   2.736   2.742   2.748   2.763   2.772   2.775   2.784
  2.788   2.788   2.789   2.796   2.798   2.812   2.818   2.823
  2.831   2.836   2.845   2.851   2.859   2.871   2.882   2.889
  2.893   2.902   2.907   2.914   2.923   2.933   2.936   2.939
  2.940   2.947   2.951   2.959   2.963   2.968   2.975   2.977
  2.987   2.990   2.994   2.998   3.011   3.016   3.019   3.021
  3.029   3.040   3.045   3.051   3.056   3.061   3.062   3.065
  3.069   3.082   3.087   3.093   3.095   3.100   3.105   3.107
  3.112   3.117   3.121   3.125   3.126   3.132   3.136   3.144
  3.148   3.155   3.160   3.166   3.172   3.177   3.180   3.184
  3.185   3.193   3.198   3.202   3.203   3.204   3.207   3.210
  3.214   3.225   3.227   3.233   3.236   3.241   3.243   3.249
  3.254   3.260   3.265   3.268   3.274   3.278   3.281   3.290
  3.295   3.302   3.302   3.308   3.312   3.314   3.319   3.331
  3.333   3.336   3.342   3.347   3.356   3.360   3.367   3.368
  3.373   3.380   3.387   3.389   3.408   3.414   3.416   3.424
  3.430   3.434   3.437   3.445   3.455   3.459   3.462   3.463
  3.471   3.485   3.487   3.494   3.497   3.502   3.509   3.514
  3.517   3.527   3.529   3.554   3.554   3.558   3.568   3.572
  3.573   3.585   3.593   3.599   3.614   3.617   3.619   3.625
  3.643   3.648   3.653   3.667   3.669   3.687   3.690   3.708
  3.715   3.726   3.732   3.735   3.739   3.745   3.752   3.768
  3.772   3.780   3.786   3.794   3.802   3.803   3.811   3.816
  3.822   3.830   3.832   3.847   3.850   3.856   3.864   3.866
  3.871   3.882   3.903   3.904   3.918   3.924   3.931   3.936
  3.947   3.952   3.961   3.967   3.968   3.977   3.983   3.987
  3.990   3.997   4.003   4.008   4.023   4.032   4.037   4.047
  4.048   4.058   4.080   4.083   4.087   4.097   4.115   4.122
  4.135   4.142   4.151   4.154   4.156   4.174   4.177   4.183
  4.187   4.198   4.204   4.208   4.220   4.226   4.239   4.243
  4.261   4.271   4.277   4.287   4.293   4.300   4.313   4.317
  4.318   4.333   4.342   4.359   4.362   4.375   4.388   4.390
  4.398   4.413   4.417   4.429   4.439   4.450   4.452   4.458
  4.474   4.485   4.487   4.503   4.506   4.531   4.533   4.537
  4.548   4.553   4.566   4.572   4.578   4.585   4.594   4.602
  4.608   4.633   4.638   4.657   4.662   4.674   4.676   4.694
  4.698   4.704   4.723   4.747   4.763   4.768   4.784   4.803
  4.812   4.826   4.840   4.844   4.849   4.857   4.862   4.866
  4.873   4.881   4.915   4.928   4.933   4.934   4.944   4.948
  4.952   4.960   4.967   4.974   4.984   4.988   4.996   5.009
  5.022   5.037   5.053   5.062   5.078   5.089   5.091   5.097
  5.100   5.127   5.135   5.145   5.149   5.166   5.178   5.192
  5.213   5.230   5.235   5.240   5.251   5.256   5.281   5.283
  5.308   5.323   5.343   5.350   5.371   5.390   5.400   5.412
  5.429   5.435   5.459   5.461   5.472   5.489   5.514   5.525
  5.533   5.548   5.568   5.590   5.605   5.655   5.664   5.670
  5.693   5.704   5.722   5.740   5.769   5.776   5.809   5.818
  5.854   5.891   5.908   5.938   5.957   6.004   6.022   6.109
  6.139   6.158   6.165   6.193   6.206   6.226   6.247   6.301
  6.339   6.351   6.400   6.407   6.459   6.852   6.985   8.006
  8.858   9.601  10.156  10.931  11.181  11.241  11.730  11.996
 12.317  12.455  12.591  12.804  12.835  13.118  13.242  13.467
 13.496  13.556  13.770  13.849  14.272  14.753  14.999
 --------------------------------------------------------------
 
          Ground-State Mulliken Net Atomic Charges

     Atom                 Charge (a.u.)
  ----------------------------------------
      1 C                    -0.069393
      2 C                    -0.098795
      3 N                    -0.152582
      4 C                    -0.128601
      5 C                    -0.080185
      6 C                     0.066781
      7 C                    -0.035306
      8 C                    -0.057284
      9 C                     0.031686
     10 N                    -0.180520
     11 N                    -0.261592
     12 C                     0.028907
     13 C                     0.118127
     14 S                     0.410125
     15 N                    -0.284538
     16 C                    -0.060365
     17 S                     0.130770
     18 C                    -0.007371
     19 C                    -0.021467
     20 S                     0.092312
     21 C                     0.020486
     22 C                     0.037558
     23 C                    -0.162919
     24 C                    -0.160255
     25 N                    -0.183267
     26 S                     0.100342
     27 C                    -0.075051
     28 C                    -0.203444
     29 H                     0.124104
     30 H                     0.130014
     31 H                     0.129217
     32 H                     0.127090
     33 H                     0.126416
     34 H                     0.131528
     35 H                     0.142550
     36 H                     0.129210
     37 H                     0.145713
  ----------------------------------------
  Sum of atomic charges =     0.000000

 -----------------------------------------------------------------
                    Cartesian Multipole Moments
 -----------------------------------------------------------------
    Charge (ESU x 10^10)
                 0.0000
    Dipole Moment (Debye)
         X       1.7427      Y       0.6269      Z      -1.7967
       Tot       2.5803
    Quadrupole Moments (Debye-Ang)
        XX    -167.8209     XY      10.5412     YY    -173.5221
        XZ      14.1758     YZ       1.3017     ZZ    -187.4061
    Octopole Moments (Debye-Ang^2)
       XXX     203.9416    XXY       3.9683    XYY      46.1826
       YYY      10.0609    XXZ    -106.5650    XYZ      -9.1688
       YYZ      -0.5199    XZZ     -13.4515    YZZ       9.8308
       ZZZ      -8.9660
    Hexadecapole Moments (Debye-Ang^3)
      XXXX  -17184.5785   XXXY     794.1385   XXYY   -3637.1753
      XYYY    -101.0467   YYYY   -3447.2277   XXXZ     809.0229
      XXYZ      48.2006   XYYZ       5.2325   YYYZ     -11.3409
      XXZZ   -3423.2637   XYZZ      24.6171   YYZZ    -737.2444
      XZZZ      51.0428   YZZZ       8.5016   ZZZZ    -417.7245
 -----------------------------------------------------------------
 Calculating analytic gradient of the SCF energy
 K construction time:  CPU 2933.66 s  wall 185.24 s
 Gradient of SCF Energy
            1           2           3           4           5           6
    1  -0.0002606   0.0008533   0.0001489  -0.0011205  -0.0005089   0.0016126
    2  -0.0003166   0.0006047   0.0001970   0.0021667  -0.0004666  -0.0026928
    3   0.0002724  -0.0004964  -0.0001728  -0.0008745   0.0000723   0.0020979
            7           8           9          10          11          12
    1  -0.0015313   0.0006489   0.0000124  -0.0009297  -0.0001529   0.0002381
    2   0.0026734  -0.0002305   0.0004084  -0.0002083   0.0000121   0.0000022
    3  -0.0016153   0.0015119  -0.0014989   0.0006056   0.0001205   0.0000396
           13          14          15          16          17          18
    1   0.0007865  -0.0003798   0.0008329  -0.0003520  -0.0003817   0.0003728
    2   0.0006398  -0.0015334  -0.0004461   0.0008511   0.0000288  -0.0002223
    3  -0.0002161   0.0001949   0.0000363  -0.0000819   0.0002303  -0.0000762
           19          20          21          22          23          24
    1   0.0001754   0.0000538  -0.0002413   0.0000339  -0.0002618   0.0002762
    2  -0.0003714  -0.0001230   0.0003238  -0.0000719   0.0003505  -0.0008911
    3  -0.0002908   0.0000427   0.0001262  -0.0001072  -0.0001419  -0.0001022
           25          26          27          28          29          30
    1  -0.0000650  -0.0000898  -0.0002354   0.0001646   0.0000745  -0.0001436
    2   0.0001322   0.0002469  -0.0003348  -0.0000285   0.0000872  -0.0002500
    3   0.0001367   0.0000466   0.0000088  -0.0000952   0.0000233   0.0000853
           31          32          33          34          35          36
    1   0.0001223  -0.0000457  -0.0000535   0.0001747   0.0000237   0.0001278
    2  -0.0006640  -0.0002452  -0.0000703  -0.0000014   0.0002401   0.0002191
    3   0.0002021   0.0000562  -0.0003891   0.0001010   0.0000663   0.0000342
           37
    1   0.0000202
    2  -0.0000155
    3   0.0000474
 Max gradient component =       2.693E-03
 RMS gradient           =       6.738E-04
 Gradient time:  CPU 3377.24 s  wall 215.01 s
 Geometry Optimization Parameters
   NAtoms,    NIC,     NZ,  NCons,   NDum,   NFix, NCnnct, MaxDiis
       37     280       0       3       0       0       0       0

 Cartesian Hessian Update
 Hessian Updated using BFGS Update


** CONSTRAINED OPTIMIZATION IN DELOCALIZED INTERNAL COORDINATES **
   Searching for a Minimum

   Optimization Cycle:   2

                       Coordinates (Angstroms)
     ATOM                X               Y               Z
      1  C        -7.6088599449   -0.3275480101    0.1267932092
      2  C        -6.9973744805   -0.6956266155   -1.0604111626
      3  N        -6.9353070744    0.0377306879    1.2133999886
      4  C        -5.6158359395   -0.6830954908   -1.1230582064
      5  C        -5.6114958424    0.0461609859    1.1397378709
      6  C        -4.8919832641   -0.3095300894    0.0015742934
      7  C        -3.4155342515   -0.2561363994   -0.0118362671
      8  C        -2.6394392652   -1.3803106851    0.0229138641
      9  C        -2.6991954297    0.9704562655   -0.0428942926
     10  N        -1.2821471594   -1.4147488123    0.0252775259
     11  N        -3.2061412174    2.2035652394   -0.0720714461
     12  C        -1.2719409588    0.9508938418   -0.0382364497
     13  C        -0.5835142649   -0.3057088920   -0.0046250044
     14  S        -1.9473792400    3.2080804224   -0.0901135278
     15  N        -0.7233899296    2.1622184804   -0.0644578016
     16  C         0.8558450415   -0.4306448209    0.0000865372
     17  S         1.9673202342    0.8941539081   -0.0134904501
     18  C         1.5571814845   -1.6145617628    0.0189437433
     19  C         3.3439122467   -0.1371236831    0.0033273717
     20  S         1.0909209008   -3.2806856761    0.0434367323
     21  C         2.9678986998   -1.4641247221    0.0206282157
     22  C         4.6945264613    0.3851512541    0.0072466398
     23  C         2.7775692831   -3.7512011132    0.0534088832
     24  C         3.6504278295   -2.7284610572    0.0408230907
     25  N         5.7536224430   -0.3719359872    0.0347623207
     26  S         5.0494164843    2.0896353882   -0.0194722920
     27  C         6.8930305852    0.3755872657    0.0347131966
     28  C         6.7229521515    1.7200524695    0.0073247733
     29  H        -8.6893495199   -0.3234080683    0.2110146908
     30  H        -7.5938082487   -0.9884802263   -1.9127430499
     31  H        -5.0970313981   -0.9712964698   -2.0280731905
     32  H        -5.0817473885    0.3485759154    2.0364617091
     33  H        -3.1173444013   -2.3521764573    0.0501372581
     34  H         3.0208073186   -4.8017639151    0.0733660494
     35  H         4.7231846148   -2.8242775340    0.0482782082
     36  H         7.8506562469   -0.1215806185    0.0557325514
     37  H         7.4715716206    2.4924468380    0.0030502800
   Point Group: c1    Number of degrees of freedom:   105


   Energy is  -2595.904290144

              Constraints and their Current Values
                                        Value     Constraint
   Dihedral:        4   6   7   8      -75.000      -75.000
   Dihedral:       10  13  16  17     -179.114     -179.114
   Dihedral:       17  19  22  25      179.217      179.217
 Hessian Updated using BFGS Update

   Using Lagrange Multiplier Algorithm


104 Hessian modes will be used to form the next step
  Hessian Eigenvalues:
    -0.977733    0.035104    0.045000    0.045000    0.045000    0.045000
     0.045000    0.045000    0.045000    0.045000    0.045000    0.045000
     0.045000    0.045000    0.045000    0.045000    0.045000    0.045000
     0.045000    0.045000    0.045000    0.045000    0.045001    0.045001
     0.045001    0.045001    0.045002    0.045004    0.045006    0.045008
     0.045012    0.045604    0.155305    0.159962    0.159986    0.159997
     0.159998    0.159999    0.160000    0.160000    0.160724    0.217118
     0.220208    0.224573    0.225865    0.232225    0.233726    0.237047
     0.247454    0.247728    0.249928    0.249956    0.249990    0.249992
     0.249998    0.249998    0.249999    0.249999    0.250000    0.250000
     0.297442    0.304786    0.306333    0.316336    0.322310    0.327163
     0.334379    0.351402    0.355750    0.356494    0.356801    0.357350
     0.359365    0.360780    0.361170    0.363932    0.365017    0.372764
     0.385315    0.386186    0.389192    0.390697    0.397167    0.423851
     0.433649    0.456434    0.464950    0.473000    0.473818    0.475905
     0.481062    0.492301    0.497543    0.499685    0.517775    0.525436
     0.538456    0.558997    0.575144    0.590952    0.592132    0.623546
     0.638961    1.022790

 Minimum Search - Taking P-RFO Step
 Searching for Lamda that Maximizes Along the Constraint modes Only
 Value Taken    Lamda =   0.00000001
 Searching for Lamda that Minimizes Along All other modes
 Value Taken    Lamda =  -0.00012024
 Step Taken.  Stepsize is  0.045796

                             Maximum     Tolerance    Cnvgd?
         Gradient            0.001426       0.000300      NO
         Displacement        0.016039       0.001200      NO
         Energy change     -0.000370       0.000001      NO


 New Cartesian Coordinates Obtained by Inverse Iteration

 Displacement from previous Coordinates is:  0.096033
 ----------------------------------------------------------------
             Standard Nuclear Orientation (Angstroms)
    I     Atom           X                Y                Z
 ----------------------------------------------------------------
    1      C      -7.6056480390    -0.3272510880     0.1318921542
    2      C      -7.0004646736    -0.7015579867    -1.0563779742
    3      N      -6.9274781225     0.0427131710     1.2140621295
    4      C      -5.6182037232    -0.6891726336    -1.1260096817
    5      C      -5.6040363350     0.0512413055     1.1333464597
    6      C      -4.8910285786    -0.3133056959    -0.0052984591
    7      C      -3.4124964344    -0.2640334389    -0.0185441355
    8      C      -2.6344728361    -1.3855098665     0.0211937471
    9      C      -2.7022737289     0.9659424324    -0.0422027061
   10      N      -1.2765246556    -1.4141485367     0.0236457324
   11      N      -3.2151881898     2.1971992490    -0.0733911462
   12      C      -1.2759323877     0.9536585507    -0.0368906154
   13      C      -0.5831861718    -0.3022360414    -0.0045804997
   14      S      -1.9633733116     3.2116444943    -0.0908925135
   15      N      -0.7357737369     2.1696139251    -0.0628470863
   16      C       0.8566684418    -0.4266520274     0.0013425127
   17      S       1.9691049754     0.8977163420    -0.0098689447
   18      C       1.5566243162    -1.6105973279     0.0196290650
   19      C       3.3446921546    -0.1343265363     0.0065732919
   20      S       1.0888425619    -3.2760453286     0.0411103296
   21      C       2.9675094987    -1.4611249207     0.0219765463
   22      C       4.6963071392     0.3854144007     0.0104903990
   23      C       2.7750387437    -3.7483002276     0.0507572529
   24      C       3.6483452169    -2.7256406733     0.0404897193
   25      N       5.7542424868    -0.3734456865     0.0377307083
   26      S       5.0542657496     2.0887064958    -0.0157030248
   27      C       6.8950078575     0.3720337801     0.0366681856
   28      C       6.7270402916     1.7168023103     0.0098846657
   29      H      -8.6859576019    -0.3213015973     0.2203568904
   30      H      -7.5998959917    -0.9920361046    -1.9072819009
   31      H      -5.1041309948    -0.9722879838    -2.0351202241
   32      H      -5.0690237930     0.3601041795     2.0251261658
   33      H      -3.1104137816    -2.3580979754     0.0555887860
   34      H       3.0159617222    -4.7993165434     0.0667931920
   35      H       4.7208429716    -2.8248909635     0.0468291307
   36      H       7.8503886304    -0.1294137312     0.0560861383
   37      H       7.4766447566     2.4881841346     0.0043915730
 ----------------------------------------------------------------
 Molecular Point Group                 C1    NOp =  1
 Largest Abelian Subgroup              C1    NOp =  1
 Nuclear Repulsion Energy =  2965.9026275997 hartrees
 There are      111 alpha and      111 beta electrons
 Applying Cartesian multipole field
    Component          Value
    ---------          -----
     (2,0,0)        1.00000E-12
     (0,2,0)        2.00000E-11
     (0,0,2)       -3.00000E-11
 Nucleus-field energy     =     0.0000000628 hartrees
 Requested basis set is cc-pVTZ
 There are 342 shells and 982 basis functions
 A cutoff of  1.0D-11 yielded  29204 shell pairs
 There are    231982 function pairs (    303173 Cartesian)
 Smallest overlap matrix eigenvalue = 2.04E-05
 Guess MOs from SCF MO coefficient file
 Reading MOs from coefficient file
 Reading MOs from coefficient file
 Long-range K will be added via erf
 Coulomb attenuation parameter = 0.2 bohr**(-1)
 A restricted hybrid HF-DFT SCF calculation will be
 performed using Pulay DIIS extrapolation
 Exchange:     0.2220 Hartree-Fock + 1.0000 wB97X-D + LR-HF
 Correlation:  1.0000 wB97X-D
 Using SG-2 standard quadrature grid
 Dispersion:   Grimme D
 SCF converges when DIIS error is below 1.0E-08
 Geometry optimization detected.  Setting ReadMinima to 0
 Setting SaveMinima to 0
 using 16 threads for integral computing 
 using 16 threads for integral computing 
 K construction time:  CPU 1096.12 s  wall 71.47 s
 -------------------------------------------------------
 OpenMP BLAS3 based DFT computing Module                
 Release: version 1.0, May 2013, Q-Chem Inc. Pittsburgh 
 -------------------------------------------------------
 ---------------------------------------
  Cycle       Energy         DIIS Error
 ---------------------------------------
    1   -2595.9021370212      7.71E-05
 K construction time:  CPU 1090.02 s  wall 71.16 s
    2   -2595.9043274295      1.01E-05
 K construction time:  CPU 744.83 s  wall 48.60 s
    3   -2595.9043280280      1.27E-05
 K construction time:  CPU 695.98 s  wall 45.49 s
    4   -2595.9043446493      2.38E-06
 K construction time:  CPU 637.83 s  wall 41.55 s
    5   -2595.9043452591      1.63E-06
 K construction time:  CPU 591.72 s  wall 38.56 s
    6   -2595.9043455894      3.74E-07
 K construction time:  CPU 531.62 s  wall 34.61 s
    7   -2595.9043456183      1.71E-07
 K construction time:  CPU 479.81 s  wall 31.29 s
    8   -2595.9043456240      7.51E-08
 K construction time:  CPU 443.72 s  wall 28.81 s
    9   -2595.9043456258      3.15E-08
 K construction time:  CPU 379.49 s  wall 24.52 s
   10   -2595.9043456274      1.47E-08
 K construction time:  CPU 331.49 s  wall 21.48 s
   11   -2595.9043456239      5.17E-09 Convergence criterion met
 ---------------------------------------
 SCF time:  CPU 9466.90 s  wall 631.57 s
 SCF   energy in the final basis set = -2595.9043456239
 Total energy in the final basis set = -2595.9043456239
 
 --------------------------------------------------------------
 
                    Orbital Energies (a.u.)
 --------------------------------------------------------------
 
 Alpha MOs
 -- Occupied --
-89.155 -89.094 -89.093 -89.075 -14.495 -14.487 -14.452 -14.445
-14.437 -10.375 -10.370 -10.361 -10.360 -10.345 -10.341 -10.340
-10.334 -10.329 -10.328 -10.327 -10.326 -10.324 -10.322 -10.317
-10.315 -10.314 -10.303 -10.296  -8.165  -8.109  -8.108  -8.089
 -6.116  -6.110  -6.109  -6.058  -6.057  -6.054  -6.054  -6.051
 -6.051  -6.039  -6.035  -6.031  -1.152  -1.084  -1.072  -1.055
 -1.024  -1.015  -0.957  -0.945  -0.912  -0.910  -0.907  -0.884
 -0.862  -0.844  -0.829  -0.807  -0.775  -0.749  -0.742  -0.733
 -0.723  -0.694  -0.689  -0.678  -0.648  -0.641  -0.622  -0.621
 -0.608  -0.595  -0.588  -0.576  -0.571  -0.569  -0.540  -0.536
 -0.526  -0.523  -0.518  -0.514  -0.511  -0.500  -0.497  -0.491
 -0.489  -0.481  -0.477  -0.462  -0.458  -0.445  -0.437  -0.432
 -0.430  -0.423  -0.402  -0.396  -0.378  -0.374  -0.371  -0.370
 -0.363  -0.353  -0.343  -0.337  -0.332  -0.322  -0.269
 -- Virtual --
 -0.056  -0.010   0.031   0.040   0.047   0.058   0.059   0.064
  0.075   0.102   0.107   0.111   0.116   0.121   0.131   0.135
  0.143   0.146   0.151   0.160   0.163   0.170   0.171   0.179
  0.187   0.197   0.201   0.209   0.211   0.221   0.228   0.240
  0.247   0.252   0.256   0.266   0.271   0.273   0.288   0.290
  0.293   0.296   0.302   0.307   0.310   0.319   0.323   0.325
  0.329   0.332   0.337   0.340   0.344   0.352   0.356   0.357
  0.363   0.366   0.369   0.373   0.376   0.382   0.383   0.386
  0.392   0.393   0.396   0.398   0.404   0.405   0.407   0.409
  0.422   0.424   0.429   0.429   0.433   0.437   0.440   0.443
  0.447   0.451   0.453   0.454   0.458   0.459   0.465   0.466
  0.470   0.471   0.472   0.479   0.480   0.484   0.486   0.491
  0.494   0.499   0.502   0.505   0.512   0.514   0.518   0.522
  0.524   0.526   0.533   0.537   0.542   0.547   0.550   0.555
  0.557   0.566   0.574   0.580   0.583   0.591   0.592   0.595
  0.601   0.604   0.622   0.627   0.634   0.644   0.649   0.651
  0.660   0.663   0.669   0.672   0.675   0.679   0.682   0.687
  0.692   0.693   0.698   0.701   0.707   0.718   0.723   0.727
  0.731   0.737   0.739   0.744   0.745   0.755   0.757   0.764
  0.767   0.771   0.772   0.777   0.781   0.784   0.790   0.796
  0.800   0.809   0.815   0.818   0.819   0.822   0.829   0.832
  0.833   0.842   0.848   0.852   0.856   0.859   0.868   0.870
  0.874   0.878   0.882   0.895   0.897   0.900   0.905   0.914
  0.918   0.926   0.927   0.933   0.938   0.942   0.949   0.953
  0.954   0.967   0.972   0.974   0.976   0.979   0.985   0.991
  0.993   0.997   1.010   1.015   1.017   1.018   1.028   1.033
  1.043   1.044   1.054   1.056   1.066   1.067   1.073   1.077
  1.085   1.089   1.096   1.100   1.105   1.116   1.121   1.128
  1.137   1.138   1.146   1.159   1.164   1.172   1.177   1.183
  1.192   1.194   1.205   1.211   1.218   1.225   1.227   1.233
  1.239   1.243   1.256   1.257   1.266   1.270   1.273   1.281
  1.289   1.292   1.295   1.300   1.316   1.321   1.331   1.336
  1.341   1.351   1.361   1.365   1.366   1.376   1.384   1.387
  1.392   1.395   1.412   1.417   1.426   1.428   1.435   1.439
  1.446   1.455   1.458   1.462   1.466   1.470   1.476   1.484
  1.498   1.501   1.515   1.525   1.535   1.538   1.541   1.543
  1.549   1.558   1.569   1.573   1.579   1.589   1.596   1.597
  1.608   1.615   1.623   1.628   1.633   1.636   1.641   1.652
  1.653   1.660   1.666   1.671   1.676   1.680   1.688   1.690
  1.692   1.697   1.700   1.716   1.726   1.731   1.737   1.747
  1.748   1.760   1.766   1.769   1.775   1.780   1.784   1.792
  1.812   1.818   1.822   1.829   1.851   1.858   1.862   1.865
  1.881   1.881   1.884   1.894   1.912   1.922   1.923   1.925
  1.937   1.944   1.947   1.949   1.959   1.973   1.975   1.985
  1.991   1.994   1.997   2.004   2.020   2.020   2.031   2.032
  2.048   2.054   2.061   2.073   2.075   2.087   2.101   2.103
  2.119   2.129   2.134   2.139   2.150   2.162   2.163   2.172
  2.177   2.181   2.189   2.192   2.212   2.213   2.219   2.230
  2.234   2.240   2.250   2.255   2.257   2.271   2.275   2.285
  2.298   2.306   2.321   2.340   2.342   2.351   2.358   2.363
  2.370   2.378   2.383   2.385   2.393   2.399   2.406   2.407
  2.420   2.431   2.436   2.440   2.448   2.456   2.458   2.472
  2.480   2.483   2.484   2.497   2.498   2.506   2.512   2.516
  2.526   2.537   2.542   2.543   2.546   2.560   2.577   2.591
  2.597   2.604   2.608   2.614   2.615   2.620   2.621   2.637
  2.647   2.649   2.656   2.661   2.670   2.680   2.689   2.709
  2.720   2.736   2.742   2.748   2.762   2.772   2.775   2.784
  2.788   2.788   2.790   2.796   2.798   2.812   2.818   2.823
  2.830   2.835   2.845   2.850   2.859   2.871   2.882   2.889
  2.894   2.901   2.906   2.914   2.923   2.933   2.936   2.939
  2.940   2.947   2.951   2.959   2.963   2.969   2.975   2.977
  2.987   2.990   2.994   2.998   3.011   3.016   3.019   3.022
  3.030   3.040   3.045   3.052   3.056   3.061   3.062   3.065
  3.069   3.081   3.087   3.092   3.095   3.100   3.105   3.107
  3.112   3.117   3.120   3.125   3.126   3.132   3.136   3.144
  3.148   3.156   3.160   3.166   3.172   3.177   3.181   3.184
  3.185   3.193   3.198   3.202   3.203   3.204   3.207   3.211
  3.214   3.224   3.227   3.233   3.236   3.241   3.243   3.248
  3.254   3.259   3.265   3.267   3.274   3.278   3.281   3.289
  3.295   3.301   3.303   3.307   3.311   3.314   3.318   3.332
  3.334   3.336   3.341   3.348   3.356   3.360   3.368   3.368
  3.373   3.379   3.387   3.389   3.409   3.415   3.416   3.425
  3.430   3.434   3.438   3.446   3.455   3.459   3.462   3.464
  3.471   3.485   3.488   3.494   3.498   3.502   3.509   3.514
  3.518   3.527   3.529   3.554   3.554   3.557   3.568   3.572
  3.574   3.585   3.593   3.599   3.614   3.617   3.618   3.625
  3.643   3.649   3.654   3.666   3.669   3.687   3.689   3.708
  3.714   3.726   3.732   3.735   3.739   3.745   3.752   3.768
  3.772   3.780   3.786   3.794   3.801   3.803   3.810   3.816
  3.823   3.830   3.832   3.846   3.850   3.856   3.863   3.866
  3.872   3.882   3.903   3.904   3.918   3.924   3.932   3.936
  3.947   3.952   3.961   3.967   3.968   3.978   3.984   3.987
  3.991   3.997   4.004   4.008   4.023   4.031   4.037   4.047
  4.049   4.057   4.080   4.083   4.086   4.097   4.115   4.121
  4.134   4.143   4.151   4.154   4.157   4.175   4.177   4.183
  4.188   4.197   4.204   4.209   4.220   4.226   4.239   4.242
  4.261   4.271   4.278   4.287   4.293   4.300   4.314   4.317
  4.318   4.333   4.343   4.359   4.361   4.376   4.388   4.389
  4.398   4.413   4.417   4.429   4.438   4.450   4.453   4.457
  4.473   4.485   4.488   4.503   4.506   4.531   4.534   4.538
  4.548   4.553   4.565   4.572   4.578   4.585   4.594   4.602
  4.608   4.633   4.637   4.657   4.662   4.674   4.676   4.694
  4.697   4.705   4.723   4.747   4.764   4.768   4.784   4.804
  4.811   4.826   4.840   4.844   4.850   4.855   4.862   4.867
  4.873   4.882   4.915   4.928   4.933   4.934   4.944   4.948
  4.952   4.960   4.968   4.973   4.985   4.988   4.994   5.009
  5.021   5.038   5.052   5.062   5.077   5.088   5.090   5.097
  5.099   5.127   5.135   5.144   5.149   5.166   5.178   5.192
  5.213   5.230   5.235   5.240   5.251   5.255   5.282   5.284
  5.308   5.322   5.344   5.350   5.370   5.389   5.399   5.412
  5.429   5.434   5.459   5.462   5.472   5.488   5.514   5.525
  5.533   5.548   5.567   5.590   5.605   5.655   5.665   5.670
  5.692   5.704   5.721   5.740   5.768   5.776   5.808   5.818
  5.852   5.891   5.909   5.938   5.958   6.004   6.021   6.111
  6.140   6.156   6.166   6.193   6.207   6.225   6.247   6.300
  6.338   6.351   6.399   6.408   6.458   6.852   6.985   8.005
  8.855   9.599  10.155  10.931  11.172  11.238  11.730  11.981
 12.306  12.453  12.594  12.793  12.832  13.117  13.232  13.472
 13.503  13.557  13.779  13.849  14.272  14.760  15.000
 --------------------------------------------------------------
 
          Ground-State Mulliken Net Atomic Charges

     Atom                 Charge (a.u.)
  ----------------------------------------
      1 C                    -0.069527
      2 C                    -0.098787
      3 N                    -0.152637
      4 C                    -0.128946
      5 C                    -0.080441
      6 C                     0.067543
      7 C                    -0.033572
      8 C                    -0.057148
      9 C                     0.031465
     10 N                    -0.180373
     11 N                    -0.262740
     12 C                     0.028098
     13 C                     0.117321
     14 S                     0.411388
     15 N                    -0.284948
     16 C                    -0.059834
     17 S                     0.130617
     18 C                    -0.007042
     19 C                    -0.021960
     20 S                     0.092279
     21 C                     0.020949
     22 C                     0.037683
     23 C                    -0.162859
     24 C                    -0.160699
     25 N                    -0.183242
     26 S                     0.100557
     27 C                    -0.075027
     28 C                    -0.203457
     29 H                     0.124005
     30 H                     0.130140
     31 H                     0.129149
     32 H                     0.127184
     33 H                     0.126041
     34 H                     0.131561
     35 H                     0.142397
     36 H                     0.129186
     37 H                     0.145675
  ----------------------------------------
  Sum of atomic charges =     0.000000

 -----------------------------------------------------------------
                    Cartesian Multipole Moments
 -----------------------------------------------------------------
    Charge (ESU x 10^10)
                 0.0000
    Dipole Moment (Debye)
         X       1.7339      Y       0.6282      Z      -1.8032
       Tot       2.5793
    Quadrupole Moments (Debye-Ang)
        XX    -167.8001     XY      10.4900     YY    -173.4247
        XZ      14.1361     YZ       1.2972     ZZ    -187.4203
    Octopole Moments (Debye-Ang^2)
       XXX     204.1675    XXY       3.9093    XYY      45.7498
       YYY      10.1008    XXZ    -106.6082    XYZ      -8.9426
       YYZ      -0.6801    XZZ     -13.2922    YZZ       9.6990
       ZZZ      -9.2809
    Hexadecapole Moments (Debye-Ang^3)
      XXXX  -17185.0494   XXXY     794.2799   XXYY   -3637.4621
      XYYY    -102.0559   YYYY   -3443.4953   XXXZ     801.7020
      XXYZ      47.3260   XYYZ       3.6453   YYYZ     -12.4014
      XXZZ   -3424.1811   XYZZ      25.0105   YYZZ    -736.8029
      XZZZ      48.4793   YZZZ       6.9612   ZZZZ    -417.2800
 -----------------------------------------------------------------
 Calculating analytic gradient of the SCF energy
 K construction time:  CPU 2919.61 s  wall 184.48 s
 Gradient of SCF Energy
            1           2           3           4           5           6
    1   0.0002073  -0.0001785  -0.0000823  -0.0000455   0.0000716  -0.0004342
    2   0.0000427  -0.0000137  -0.0002256   0.0019309  -0.0000823  -0.0021521
    3   0.0002967  -0.0001517  -0.0000226  -0.0007645  -0.0006106   0.0019055
            7           8           9          10          11          12
    1   0.0006878   0.0004893  -0.0001853  -0.0000338   0.0004807  -0.0001446
    2   0.0014155  -0.0000941  -0.0008714  -0.0002623   0.0001499  -0.0009071
    3  -0.0022008   0.0015640  -0.0003609   0.0002849   0.0000670  -0.0000864
           13          14          15          16          17          18
    1   0.0000339  -0.0002147  -0.0006373   0.0000321   0.0000355   0.0000090
    2   0.0000716   0.0011191   0.0002048  -0.0000815  -0.0000753   0.0000564
    3  -0.0002228  -0.0000449   0.0000660  -0.0000441   0.0002474  -0.0000066
           19          20          21          22          23          24
    1  -0.0000073   0.0001388  -0.0000845   0.0000161   0.0000117  -0.0001143
    2  -0.0000600  -0.0000474   0.0000844  -0.0000299  -0.0000341  -0.0000146
    3  -0.0002511   0.0000319   0.0000272  -0.0002115  -0.0000622  -0.0000116
           25          26          27          28          29          30
    1   0.0000848   0.0000017  -0.0000272  -0.0000224  -0.0000210   0.0000418
    2   0.0001154  -0.0000305  -0.0000100   0.0000395   0.0001391  -0.0000852
    3   0.0002400   0.0000774  -0.0000140  -0.0000592  -0.0000225  -0.0000297
           31          32          33          34          35          36
    1   0.0000304   0.0001313  -0.0002518  -0.0000205   0.0000463  -0.0000385
    2  -0.0001760  -0.0000903   0.0000124   0.0000385   0.0000127  -0.0000645
    3   0.0000815   0.0001835   0.0000289   0.0000226   0.0000269   0.0000005
           37
    1  -0.0000063
    2  -0.0000250
    3   0.0000258
 Max gradient component =       2.201E-03
 RMS gradient           =       5.018E-04
 Gradient time:  CPU 3364.59 s  wall 214.25 s
 Geometry Optimization Parameters
   NAtoms,    NIC,     NZ,  NCons,   NDum,   NFix, NCnnct, MaxDiis
       37     280       0       3       0       0       0       0

 Cartesian Hessian Update
 Hessian Updated using BFGS Update


** CONSTRAINED OPTIMIZATION IN DELOCALIZED INTERNAL COORDINATES **
   Searching for a Minimum

   Optimization Cycle:   3

                       Coordinates (Angstroms)
     ATOM                X               Y               Z
      1  C        -7.6056480390   -0.3272510880    0.1318921542
      2  C        -7.0004646736   -0.7015579867   -1.0563779742
      3  N        -6.9274781225    0.0427131710    1.2140621295
      4  C        -5.6182037232   -0.6891726336   -1.1260096817
      5  C        -5.6040363350    0.0512413055    1.1333464597
      6  C        -4.8910285786   -0.3133056959   -0.0052984591
      7  C        -3.4124964344   -0.2640334389   -0.0185441355
      8  C        -2.6344728361   -1.3855098665    0.0211937471
      9  C        -2.7022737289    0.9659424324   -0.0422027061
     10  N        -1.2765246556   -1.4141485367    0.0236457324
     11  N        -3.2151881898    2.1971992490   -0.0733911462
     12  C        -1.2759323877    0.9536585507   -0.0368906154
     13  C        -0.5831861718   -0.3022360414   -0.0045804997
     14  S        -1.9633733116    3.2116444943   -0.0908925135
     15  N        -0.7357737369    2.1696139251   -0.0628470863
     16  C         0.8566684418   -0.4266520274    0.0013425127
     17  S         1.9691049754    0.8977163420   -0.0098689447
     18  C         1.5566243162   -1.6105973279    0.0196290650
     19  C         3.3446921546   -0.1343265363    0.0065732919
     20  S         1.0888425619   -3.2760453286    0.0411103296
     21  C         2.9675094987   -1.4611249207    0.0219765463
     22  C         4.6963071392    0.3854144007    0.0104903990
     23  C         2.7750387437   -3.7483002276    0.0507572529
     24  C         3.6483452169   -2.7256406733    0.0404897193
     25  N         5.7542424868   -0.3734456865    0.0377307083
     26  S         5.0542657496    2.0887064958   -0.0157030248
     27  C         6.8950078575    0.3720337801    0.0366681856
     28  C         6.7270402916    1.7168023103    0.0098846657
     29  H        -8.6859576019   -0.3213015973    0.2203568904
     30  H        -7.5998959917   -0.9920361046   -1.9072819009
     31  H        -5.1041309948   -0.9722879838   -2.0351202241
     32  H        -5.0690237930    0.3601041795    2.0251261658
     33  H        -3.1104137816   -2.3580979754    0.0555887860
     34  H         3.0159617222   -4.7993165434    0.0667931920
     35  H         4.7208429716   -2.8248909635    0.0468291307
     36  H         7.8503886304   -0.1294137312    0.0560861383
     37  H         7.4766447566    2.4881841346    0.0043915730
   Point Group: c1    Number of degrees of freedom:   105


   Energy is  -2595.904345624

              Constraints and their Current Values
                                        Value     Constraint
   Dihedral:        4   6   7   8      -75.000      -75.000
   Dihedral:       10  13  16  17     -179.114     -179.114
   Dihedral:       17  19  22  25      179.217      179.217
 Hessian Updated using BFGS Update

 80 Hessian modes will be used to form the next step
  Hessian Eigenvalues:
     0.026973    0.045000    0.045000    0.045000    0.045000    0.045000
     0.045000    0.045001    0.045001    0.045002    0.045004    0.045006
     0.045008    0.045012    0.045177    0.046093    0.157126    0.159964
     0.159986    0.159998    0.159999    0.160000    0.160039    0.161626
     0.219793    0.221780    0.224578    0.225835    0.232170    0.233949
     0.238529    0.247453    0.247773    0.249932    0.249957    0.249990
     0.262747    0.297537    0.304920    0.316010    0.316303    0.326701
     0.334348    0.347858    0.354353    0.355803    0.356684    0.356799
     0.357212    0.359368    0.360780    0.361185    0.363929    0.365017
     0.376113    0.385324    0.386702    0.390162    0.396828    0.411960
     0.426056    0.435675    0.456428    0.463341    0.472553    0.473620
[...]
     26  S         5.0555917108    2.0883056050   -0.0127562179
     27  C         6.8957895505    0.3710921939    0.0423683253
     28  C         6.7282350421    1.7158527471    0.0144022569
     29  H        -8.6849924367   -0.3297774348    0.2339299094
     30  H        -7.6073605462   -1.0067836725   -1.8950838854
     31  H        -5.1126296696   -0.9808886134   -2.0356257704
     32  H        -5.0622177530    0.3818126680    2.0148285057
     33  H        -3.1079762583   -2.3574332064    0.0461847292
     34  H         3.0122413979   -4.7991693587    0.0595393397
     35  H         4.7190269291   -2.8271242295    0.0471271192
     36  H         7.8513628538   -0.1299758625    0.0625306508
     37  H         7.4780412036    2.4870744112    0.0077616451
   Point Group: c1    Number of degrees of freedom:   105


   Energy is  -2595.904362507

              Constraints and their Current Values
                                        Value     Constraint
   Dihedral:        4   6   7   8      -75.000      -75.000
   Dihedral:       10  13  16  17     -179.114     -179.114
   Dihedral:       17  19  22  25      179.217      179.217
 Hessian Updated using BFGS Update

 96 Hessian modes will be used to form the next step
  Hessian Eigenvalues:
     0.012254    0.027543    0.042260    0.045000    0.045000    0.045000
     0.045000    0.045000    0.045000    0.045000    0.045000    0.045000
     0.045000    0.045000    0.045001    0.045001    0.045001    0.045002
     0.045004    0.045006    0.045008    0.045010    0.045069    0.045634
     0.046610    0.155756    0.158280    0.159949    0.159972    0.159997
     0.160000    0.160005    0.160077    0.161159    0.216024    0.220325
     0.224580    0.225849    0.232264    0.234367    0.239063    0.245936
     0.247548    0.248861    0.249567    0.249972    0.249993    0.249996
     0.249998    0.250000    0.252441    0.274782    0.297515    0.304203
     0.305074    0.316347    0.322990    0.326729    0.334367    0.347807
     0.355738    0.356111    0.356678    0.356805    0.358595    0.359378
     0.360780    0.361274    0.363944    0.365020    0.385369    0.386811
     0.392838    0.395528    0.406699    0.409590    0.430450    0.449971
     0.456669    0.463646    0.472699    0.476719    0.479615    0.480667
     0.492837    0.498723    0.499839    0.517074    0.524718    0.538472
     0.568864    0.574519    0.591461    0.622785    0.639271    0.659649

 Minimum Search - Taking Simple RFO Step
 Searching for Lamda that Minimizes Along All modes
 Value Taken    Lamda =   0.00000000
 Step Taken.  Stepsize is  0.001995

                             Maximum     Tolerance    Cnvgd?
         Gradient           0.000037      0.000300     YES
         Displacement       0.000943      0.001200     YES
         Energy change      0.000000      0.000001     YES

 Final energy is   -2595.90436250694     


 ******************************
 **  OPTIMIZATION CONVERGED  **
 ******************************

                       Coordinates (Angstroms)
     ATOM                X               Y               Z
      1  C        -7.6052190720   -0.3309206119    0.1396506107
      2  C        -7.0043619757   -0.7115562001   -1.0483724425
      3  N        -6.9227537332    0.0511706349    1.2153321146
      4  C        -5.6224673841   -0.6969839634   -1.1243604495
      5  C        -5.5998240372    0.0608799591    1.1292618888
      6  C        -4.8906073950   -0.3140763801   -0.0094105436
      7  C        -3.4129755535   -0.2631147006   -0.0297442953
      8  C        -2.6344536015   -1.3838026732    0.0126861342
      9  C        -2.7017271389    0.9678852750   -0.0468521611
     10  N        -1.2762604008   -1.4118140918    0.0162170801
     11  N        -3.2142916677    2.1989014786   -0.0766694268
     12  C        -1.2749939209    0.9556382894   -0.0380563050
     13  C        -0.5827273119   -0.3003666728   -0.0078662385
     14  S        -1.9608547092    3.2118415605   -0.0884356094
     15  N        -0.7330343850    2.1702518942   -0.0602608953
     16  C         0.8571029157   -0.4247052011   -0.0004854426
     17  S         1.9703028106    0.8990354816   -0.0064075827
     18  C         1.5562674166   -1.6090897267    0.0170760203
     19  C         3.3452637773   -0.1340731813    0.0108662326
     20  S         1.0863384418   -3.2738856520    0.0340435144
     21  C         2.9673543147   -1.4607991061    0.0227723997
     22  C         4.6971072666    0.3850979939    0.0155412232
     23  C         2.7722168331   -3.7478423264    0.0461494491
     24  C         3.6467797945   -2.7261573620    0.0396557962
     25  N         5.7547311189   -0.3742181091    0.0434181837
     26  S         5.0555917108    2.0883056050   -0.0127562179
     27  C         6.8957895505    0.3710921939    0.0423683253
     28  C         6.7282350421    1.7158527471    0.0144022569
     29  H        -8.6849924367   -0.3297774348    0.2339299094
     30  H        -7.6073605462   -1.0067836725   -1.8950838854
     31  H        -5.1126296696   -0.9808886134   -2.0356257704
     32  H        -5.0622177530    0.3818126680    2.0148285057
     33  H        -3.1079762583   -2.3574332064    0.0461847292
     34  H         3.0122413979   -4.7991693587    0.0595393397
     35  H         4.7190269291   -2.8271242295    0.0471271192
     36  H         7.8513628538   -0.1299758625    0.0625306508
     37  H         7.4780412036    2.4870744112    0.0077616451

Z-matrix Print:
$molecule
0 1
S 
C  1 1.719921
C  2 1.379550 1 111.024338
C  3 1.418869 2 111.895257 1 -0.020221 0
C  4 1.375466 3 114.555865 2 -0.073799 0
C  3 1.436327 2 135.869530 1 179.968910 0
H  6 1.077016 3 123.614661 2 -0.045493 0
C  6 1.344895 3 111.204876 2 -179.980484 0
H  8 1.078462 6 126.576395 3 179.934521 0
C  5 1.445208 4 125.490491 3 179.919103 0
N  10 1.310299 5 117.016821 4 -0.641602 0
C  11 1.358487 10 120.773219 5 -179.934986 0
H  12 1.083191 11 114.736552 10 179.294501 0
C  12 1.365225 11 125.954015 10 -0.777793 0
C  14 1.421804 12 115.203182 11 1.184377 0
N  15 1.333796 14 127.381152 12 179.441371 0
C  15 1.426813 14 119.518845 12 -0.847629 0
N  17 1.330225 15 113.544190 14 -179.795046 0
C  2 1.448116 1 122.070853 3 179.833692 0
N  19 1.302270 2 123.310507 1 -179.216988 0
C  20 1.362902 19 111.166069 2 179.937555 0
H  21 1.079165 20 119.171025 19 179.918264 0
C  21 1.355447 20 116.044252 19 -0.038140 0
H  23 1.075656 21 128.703016 20 179.965340 0
C  14 1.478650 12 122.761283 11 179.023917 0
C  25 1.387570 14 121.704458 12 75.000001 0
H  26 1.082100 25 120.037447 14 -0.816049 0
C  26 1.384059 25 119.039024 14 179.324713 0
H  28 1.080596 26 121.131829 25 179.817428 0
C  28 1.384670 26 118.520135 25 -0.530583 0
H  30 1.083882 28 120.478171 26 -179.951458 0
N  30 1.329979 28 123.383324 26 -0.093842 0
C  32 1.325762 30 117.492960 28 0.082107 0
H  33 1.084549 32 116.346180 30 -179.604537 0
S  18 1.610356 17 106.274905 15 -0.036951 0
S  23 1.713825 21 109.668734 20 0.013090 0
S  4 1.729933 3 111.758465 2 179.928487 0
$end

 
 --------------------------------------------------------------
 
                    Orbital Energies (a.u.)
 --------------------------------------------------------------
 
 Alpha MOs
 -- Occupied --
-89.155 -89.094 -89.093 -89.075 -14.495 -14.488 -14.452 -14.445
-14.437 -10.374 -10.370 -10.362 -10.360 -10.345 -10.341 -10.340
-10.334 -10.329 -10.328 -10.327 -10.326 -10.324 -10.322 -10.317
-10.315 -10.314 -10.303 -10.296  -8.165  -8.109  -8.108  -8.089
 -6.115  -6.110  -6.109  -6.058  -6.057  -6.054  -6.054  -6.051
 -6.051  -6.039  -6.035  -6.031  -1.152  -1.084  -1.072  -1.055
 -1.024  -1.015  -0.957  -0.945  -0.912  -0.910  -0.907  -0.884
 -0.862  -0.845  -0.829  -0.807  -0.775  -0.749  -0.742  -0.733
 -0.723  -0.694  -0.689  -0.678  -0.648  -0.641  -0.623  -0.621
 -0.608  -0.595  -0.588  -0.576  -0.571  -0.569  -0.540  -0.536
 -0.526  -0.523  -0.518  -0.514  -0.511  -0.500  -0.497  -0.491
 -0.489  -0.481  -0.477  -0.462  -0.458  -0.446  -0.437  -0.432
 -0.430  -0.423  -0.403  -0.396  -0.378  -0.374  -0.370  -0.370
 -0.363  -0.353  -0.343  -0.337  -0.332  -0.322  -0.269
 -- Virtual --
 -0.056  -0.010   0.031   0.039   0.048   0.058   0.059   0.064
  0.075   0.102   0.107   0.111   0.116   0.121   0.131   0.134
  0.143   0.146   0.150   0.160   0.163   0.170   0.171   0.179
  0.187   0.197   0.201   0.209   0.211   0.221   0.228   0.240
  0.247   0.252   0.256   0.266   0.271   0.273   0.288   0.290
  0.293   0.296   0.302   0.307   0.310   0.319   0.323   0.325
  0.329   0.332   0.337   0.340   0.344   0.352   0.356   0.357
  0.363   0.366   0.369   0.373   0.376   0.382   0.383   0.386
  0.392   0.393   0.396   0.398   0.404   0.405   0.407   0.408
  0.422   0.424   0.429   0.429   0.433   0.437   0.440   0.443
  0.447   0.451   0.453   0.455   0.458   0.459   0.465   0.466
  0.470   0.471   0.472   0.479   0.480   0.484   0.486   0.491
  0.494   0.499   0.502   0.505   0.512   0.514   0.518   0.522
  0.524   0.526   0.533   0.537   0.542   0.547   0.550   0.555
  0.556   0.566   0.574   0.579   0.583   0.591   0.592   0.595
  0.601   0.604   0.622   0.627   0.634   0.644   0.648   0.651
  0.660   0.663   0.669   0.672   0.675   0.679   0.682   0.686
  0.692   0.693   0.698   0.701   0.707   0.718   0.723   0.727
  0.731   0.737   0.739   0.744   0.745   0.755   0.757   0.764
  0.767   0.771   0.772   0.777   0.781   0.783   0.790   0.796
  0.799   0.809   0.815   0.819   0.819   0.822   0.829   0.832
  0.833   0.842   0.848   0.852   0.856   0.859   0.868   0.870
  0.874   0.878   0.881   0.894   0.897   0.900   0.905   0.914
  0.919   0.926   0.927   0.933   0.938   0.942   0.949   0.953
  0.955   0.967   0.972   0.974   0.976   0.979   0.985   0.990
  0.993   0.997   1.010   1.015   1.018   1.019   1.028   1.033
  1.042   1.044   1.054   1.055   1.066   1.068   1.073   1.077
  1.085   1.089   1.096   1.100   1.105   1.116   1.121   1.128
  1.137   1.138   1.146   1.158   1.164   1.172   1.177   1.183
  1.192   1.194   1.205   1.210   1.218   1.225   1.227   1.233
  1.240   1.243   1.256   1.256   1.266   1.270   1.273   1.281
  1.289   1.292   1.296   1.300   1.316   1.321   1.331   1.336
  1.341   1.352   1.361   1.364   1.365   1.376   1.384   1.387
  1.392   1.395   1.412   1.417   1.426   1.428   1.435   1.439
  1.446   1.455   1.457   1.462   1.466   1.470   1.475   1.484
  1.498   1.501   1.516   1.525   1.535   1.538   1.541   1.543
  1.549   1.558   1.569   1.573   1.579   1.589   1.596   1.598
  1.608   1.615   1.623   1.628   1.633   1.636   1.641   1.652
  1.653   1.660   1.666   1.671   1.676   1.680   1.688   1.690
  1.692   1.697   1.700   1.716   1.726   1.730   1.737   1.746
  1.747   1.761   1.766   1.769   1.774   1.780   1.783   1.792
  1.812   1.817   1.822   1.829   1.851   1.859   1.862   1.866
  1.880   1.881   1.883   1.894   1.912   1.922   1.923   1.925
  1.937   1.944   1.947   1.949   1.959   1.973   1.975   1.985
  1.991   1.995   1.997   2.004   2.020   2.020   2.031   2.032
  2.048   2.053   2.061   2.073   2.075   2.087   2.101   2.103
  2.119   2.129   2.134   2.139   2.150   2.162   2.163   2.172
  2.177   2.181   2.189   2.192   2.211   2.213   2.220   2.230
  2.234   2.240   2.251   2.255   2.257   2.271   2.275   2.285
  2.298   2.306   2.321   2.339   2.341   2.351   2.359   2.363
  2.370   2.378   2.383   2.385   2.393   2.399   2.407   2.407
  2.420   2.431   2.437   2.440   2.448   2.456   2.458   2.472
  2.480   2.483   2.483   2.496   2.498   2.505   2.511   2.517
  2.526   2.537   2.542   2.543   2.546   2.560   2.577   2.591
  2.596   2.604   2.607   2.614   2.615   2.620   2.621   2.637
  2.647   2.649   2.656   2.661   2.670   2.679   2.689   2.708
  2.720   2.737   2.741   2.749   2.762   2.772   2.776   2.784
  2.788   2.788   2.790   2.796   2.798   2.812   2.818   2.822
  2.830   2.835   2.845   2.850   2.859   2.871   2.882   2.888
  2.894   2.901   2.906   2.914   2.923   2.933   2.935   2.940
  2.940   2.947   2.951   2.959   2.963   2.969   2.975   2.977
  2.987   2.990   2.995   2.998   3.011   3.016   3.019   3.022
  3.031   3.040   3.045   3.051   3.056   3.061   3.062   3.065
  3.069   3.081   3.087   3.093   3.094   3.100   3.105   3.107
  3.111   3.117   3.120   3.125   3.126   3.132   3.136   3.144
  3.147   3.156   3.160   3.166   3.172   3.177   3.181   3.184
  3.185   3.193   3.198   3.202   3.203   3.204   3.207   3.211
  3.214   3.225   3.228   3.233   3.236   3.241   3.243   3.248
  3.254   3.259   3.266   3.267   3.273   3.278   3.282   3.289
  3.295   3.301   3.303   3.307   3.311   3.315   3.318   3.332
  3.333   3.336   3.340   3.348   3.356   3.360   3.368   3.368
  3.374   3.379   3.387   3.389   3.409   3.414   3.416   3.426
  3.431   3.434   3.438   3.446   3.455   3.460   3.462   3.463
  3.471   3.485   3.488   3.494   3.498   3.502   3.509   3.513
  3.518   3.526   3.529   3.553   3.554   3.558   3.568   3.572
  3.574   3.585   3.593   3.599   3.614   3.617   3.618   3.625
  3.643   3.648   3.655   3.666   3.669   3.687   3.690   3.708
  3.714   3.726   3.731   3.735   3.739   3.745   3.752   3.767
  3.773   3.781   3.786   3.794   3.801   3.803   3.811   3.816
  3.822   3.830   3.832   3.846   3.850   3.856   3.863   3.865
  3.872   3.882   3.902   3.904   3.918   3.924   3.932   3.936
  3.947   3.952   3.961   3.967   3.968   3.978   3.983   3.987
  3.992   3.997   4.004   4.007   4.023   4.031   4.037   4.046
  4.049   4.058   4.080   4.083   4.086   4.097   4.115   4.121
  4.134   4.143   4.151   4.154   4.156   4.175   4.177   4.183
  4.188   4.197   4.204   4.209   4.220   4.226   4.238   4.242
  4.260   4.271   4.279   4.288   4.293   4.300   4.313   4.316
  4.318   4.333   4.343   4.359   4.361   4.376   4.388   4.389
  4.397   4.413   4.417   4.429   4.437   4.450   4.453   4.457
  4.473   4.485   4.487   4.502   4.506   4.531   4.534   4.538
  4.547   4.553   4.565   4.572   4.578   4.585   4.594   4.602
  4.607   4.634   4.637   4.657   4.662   4.674   4.677   4.694
  4.697   4.705   4.723   4.747   4.764   4.767   4.784   4.803
  4.812   4.826   4.840   4.844   4.849   4.856   4.862   4.866
  4.873   4.882   4.915   4.927   4.933   4.934   4.944   4.947
  4.952   4.960   4.968   4.973   4.985   4.988   4.995   5.009
  5.021   5.038   5.053   5.062   5.078   5.089   5.090   5.097
  5.100   5.127   5.135   5.145   5.148   5.167   5.178   5.192
  5.213   5.230   5.235   5.240   5.251   5.256   5.282   5.284
  5.309   5.322   5.343   5.351   5.370   5.390   5.400   5.412
  5.429   5.434   5.459   5.462   5.472   5.488   5.515   5.525
  5.533   5.549   5.566   5.590   5.605   5.655   5.665   5.670
  5.692   5.704   5.721   5.739   5.768   5.775   5.809   5.817
  5.852   5.891   5.908   5.938   5.957   6.004   6.021   6.110
  6.140   6.157   6.165   6.193   6.206   6.225   6.247   6.300
  6.338   6.351   6.400   6.408   6.458   6.852   6.985   8.005
  8.859   9.600  10.155  10.931  11.174  11.237  11.730  11.985
 12.303  12.452  12.592  12.790  12.831  13.120  13.232  13.471
 13.503  13.557  13.783  13.848  14.270  14.757  14.999
 --------------------------------------------------------------
 
          Ground-State Mulliken Net Atomic Charges

     Atom                 Charge (a.u.)
  ----------------------------------------
      1 C                    -0.069561
      2 C                    -0.098436
      3 N                    -0.152761
      4 C                    -0.129826
      5 C                    -0.080664
      6 C                     0.067639
      7 C                    -0.031586
      8 C                    -0.057378
      9 C                     0.029859
     10 N                    -0.180639
     11 N                    -0.262101
     12 C                     0.028339
     13 C                     0.117581
     14 S                     0.410691
     15 N                    -0.284517
     16 C                    -0.060038
     17 S                     0.130608
     18 C                    -0.006793
     19 C                    -0.021888
     20 S                     0.092330
     21 C                     0.020753
     22 C                     0.037561
     23 C                    -0.162828
     24 C                    -0.160651
     25 N                    -0.183206
     26 S                     0.100488
     27 C                    -0.074981
     28 C                    -0.203451
     29 H                     0.124005
     30 H                     0.130117
     31 H                     0.129151
     32 H                     0.127389
     33 H                     0.126104
     34 H                     0.131533
     35 H                     0.142284
     36 H                     0.129195
     37 H                     0.145675
  ----------------------------------------
  Sum of atomic charges =     0.000000

 -----------------------------------------------------------------
                    Cartesian Multipole Moments
 -----------------------------------------------------------------
    Charge (ESU x 10^10)
                 0.0000
    Dipole Moment (Debye)
         X       1.7237      Y       0.6114      Z      -1.7984
       Tot       2.5650
    Quadrupole Moments (Debye-Ang)
        XX    -167.6921     XY      10.6263     YY    -173.4418
        XZ      14.0647     YZ       1.3277     ZZ    -187.4580
    Octopole Moments (Debye-Ang^2)
       XXX     202.6415    XXY       2.7844    XYY      45.6454
       YYY       9.5775    XXZ    -106.0550    XYZ      -8.9212
       YYZ      -0.7520    XZZ     -13.1729    YZZ       9.5928
       ZZZ      -9.2302
    Hexadecapole Moments (Debye-Ang^3)
      XXXX  -17170.7189   XXXY     802.3437   XXYY   -3637.3445
      XYYY    -102.8157   YYYY   -3444.6306   XXXZ     794.1489
      XXYZ      46.5046   XYYZ       2.5960   YYYZ     -14.7065
      XXZZ   -3424.8641   XYZZ      24.7669   YYZZ    -736.5513
      XZZZ      45.8030   YZZZ       3.7148   ZZZZ    -416.5369
 -----------------------------------------------------------------
Archival summary:
1\1\mn169\OPT\ProcedureUnspecified\BasisUnspecified\45199\afmv_a\ThuJun120:08:222017ThuJun120:08:222017\0\\#,OPT,ProcedureUnspecified,BasisUnspecified,\\0,1\S\C,1,1.71992\C,2,1.37955,1,111.024\C,3,1.41887,2,111.895,1,-0.0202213,0\C,4,1.37547,3,114.556,2,-0.0737992,0\C,3,1.43633,2,135.87,1,179.969,0\H,6,1.07702,3,123.615,2,-0.0454926,0\C,6,1.3449,3,111.205,2,-179.98,0\H,8,1.07846,6,126.576,3,179.935,0\C,5,1.44521,4,125.49,3,179.919,0\N,10,1.3103,5,117.017,4,-0.641602,0\C,11,1.35849,10,120.773,5,-179.935,0\H,12,1.08319,11,114.737,10,179.295,0\C,12,1.36522,11,125.954,10,-0.777793,0\C,14,1.4218,12,115.203,11,1.18438,0\N,15,1.3338,14,127.381,12,179.441,0\C,15,1.42681,14,119.519,12,-0.847629,0\N,17,1.33023,15,113.544,14,-179.795,0\C,2,1.44812,1,122.071,3,179.834,0\N,19,1.30227,2,123.311,1,-179.217,0\C,20,1.3629,19,111.166,2,179.938,0\H,21,1.07916,20,119.171,19,179.918,0\C,21,1.35545,20,116.044,19,-0.0381397,0\H,23,1.07566,21,128.703,20,179.965,0\C,14,1.47865,12,122.761,11,179.024,0\C,25,1.38757,14,121.704,12,75,0\H,26,1.0821,25,120.037,14,-0.816049,0\C,26,1.38406,25,119.039,14,179.325,0\H,28,1.0806,26,121.132,25,179.817,0\C,28,1.38467,26,118.52,25,-0.530583,0\H,30,1.08388,28,120.478,26,-179.951,0\N,30,1.32998,28,123.383,26,-0.0938425,0\C,32,1.32576,30,117.493,28,0.0821067,0\H,33,1.08455,32,116.346,30,-179.605,0\S,18,1.61036,17,106.275,15,-0.0369513,0\S,23,1.71382,21,109.669,20,0.0130896,0\S,4,1.72993,3,111.758,2,179.928,0\\\@

 Total job time:  5911.04s(wall), 89480.47s(cpu) 
 Thu Jun  1 20:08:22 2017

        *************************************************************
        *                                                           *
        *  Thank you very much for using Q-Chem.  Have a nice day.  *
        *                                                           *
        *************************************************************


0 sent ACK to 0 
now end server 0 ... 
cleanup process ... done
