
Running Job 1 of 1 C271_1/C271_105.qcin
qchem C271_1/C271_105.qcin_8589.0 /tmpu/cab_g/afmv_a/scratch_qchem/qchem8589/ 1
/tmpu/appuserlic/qchem4.4/parallel-MPICH/bin/mpi/mpirun_qchem -machinefile /tmpu/appuserlic/qchem4.4/parallel-MPICH/bin/mpi/machines -np 1 /tmpu/appuserlic/qchem4.4/parallel-MPICH/exe/qcprog.exe C271_1/C271_105.qcin_8589.0 /tmpu/cab_g/afmv_a/scratch_qchem/qchem8589/

Process 0 of 1 is on mn169 - thread support 0
initial socket setup ...start
initial socket setup ...done 
now start server 0 ... 
Check license passed

                  Welcome to Q-Chem
     A Quantum Leap Into The Future Of Chemistry


 Q-Chem 4.4, Q-Chem, Inc., Pleasanton, CA (2016)

 Y. Shao,  Z. Gan,  E. Epifanovsky,  A. T. B. Gilbert,  M. Wormit,  
 J. Kussmann,  A. W. Lange,  A. Behn,  J. Deng,  X. Feng,  D. Ghosh,  
 M. Goldey,  P. R. Horn,  L. D. Jacobson,  I. Kaliman,  F. Rob,  
 R. Z. Khaliullin,  T. Kus,  A. Landau,  J. Liu,  E. I. Proynov,  Y. M. Rhee,  
 R. M. Richard,  M. A. Rohrdanz,  R. P. Steele,  E. J. Sundstrom,  
 H. L. Woodcock III,  P. M. Zimmerman,  D. Zuev,  B. Albrecht,  E. Alguire,  
 B. Austin,  S. A. Baeppler,  G. J. O. Beran,  Y. A. Bernard,  E. Berquist,  
 K. Brandhorst,  K. B. Bravaya,  S. T. Brown,  D. Casanova,  C.-M. Chang,  
 Y. Chen,  S. H. Chien,  K. D. Closser,  M. P. Coons,  D. L. Crittenden,  
 S. Dasgupta,  M. Diedenhofen,  R. A. DiStasio Jr.,  H. Do,  A. D. Dutoi,  
 R. G. Edgar,  P.-T. Fang,  S. Fatehi,  Q. Feng,  L. Fusti-Molnar,  
 A. Ghysels,  A. Golubeva-Zadorozhnaya,  J. Gomes,  A. Gunina,  
 M. W. D. Hanson-Heine,  P. H. P. Harbach,  A. W. Hauser,  J. E. Herr,  
 E. G. Hohenstein,  Z. C. Holden,  K. Hui,  T.-C. Jagau,  H. Ji,  B. Kaduk,  
 K. Khistyaev,  Jaehoon Kim,  Jihan Kim,  R. A. King,  P. Klunzinger,  
 K. Koh,  D. Kosenkov,  T. Kowalczyk,  C. M. Krauter,  A. Kunitsa,  
 K. U. Lao,  A. Laurent,  K. V. Lawler,  J. Lee,  D. Lefrancois,  S. Lehtola,  
 S. V. Levchenko,  C. Y. Lin,  Y.-S. Lin,  F. Liu,  E. Livshits,  
 R. C. Lochan,  A. Luenser,  P. Manohar,  S. F. Manzer,  S.-P. Mao,  Y. Mao,  
 N. Mardirossian,  A. V. Marenich,  L. A. Martinez-Martinez,  S. A. Maurer,  
 N. J. Mayhall,  J.-M. Mewes,  A. F. Morrison,  K. Nanda,  T. S. Nguyen-Beck,  
 C. M. Oana,  R. Olivares-Amaya,  D. P. O'Neill,  J. A. Parkhill,  
 T. M. Perrine,  R. Peverati,  P. A. Pieniazek,  F. Plasser,  A. Prociuk,  
 D. R. Rehn,  E. Rosta,  N. J. Russ,  N. Sergueev,  S. M. Sharada,  
 S. Sharma,  D. W. Small,  A. Sodt,  T. Stauch,  T. Stein,  D. Stuck,  
 Y.-C. Su,  A. J. W. Thom,  T. Tsuchimochi,  L. Vogt,  O. Vydrov,  T. Wang,  
 M. A. Watson,  J. Wenzel,  A. White,  C. F. Williams,  V. Vanovschi,  
 K. Yao,  S. Yeganeh,  S. R. Yost,  Z.-Q. You,  I. Y. Zhang,  X. Zhang,  
 Y. Zhao,  B. R. Brooks,  G. K. L. Chan,  D. M. Chipman,  C. J. Cramer,  
 W. A. Goddard III,  M. S. Gordon,  W. J. Hehre,  A. Klamt,  
 H. F. Schaefer III,  M. W. Schmidt,  C. D. Sherrill,  D. G. Truhlar,  
 A. Warshel,  X. Xu,  A. Aspuru-Guzik,  R. Baer,  A. T. Bell,  N. A. Besley,  
 J.-D. Chai,  A. Dreuw,  B. D. Dunietz,  T. R. Furlani,  S. R. Gwaltney,  
 C.-P. Hsu,  Y. Jung,  J. Kong,  D. S. Lambrecht,  W. Liang,  C. Ochsenfeld,  
 V. A. Rassolov,  L. V. Slipchenko,  J. E. Subotnik,  T. Van Voorhis,  
 J. M. Herbert,  A. I. Krylov,  P. M. W. Gill,  M. Head-Gordon

 Contributors to earlier versions of Q-Chem not listed above: 
 R. D. Adamson,  J. Baker,  E. F. C. Byrd,  A. K. Chakraborty,  C.-L. Cheng,  
 H. Dachsel,  R. J. Doerksen,  G. Hawkins,  A. Heyden,  S. Hirata,  
 G. Kedziora,  F. J. Keil,  C. Kelley,  P. P. Korambath,  W. Kurlancheek,  
 A. M. Lee,  M. S. Lee,  D. Liotard,  I. Lotan,  P. E. Maslen,  N. Nair,  
 D. Neuhauser,  R. Olson,  B. Peters,  J. Ritchie,  N. E. Schultz,  
 N. Shenvi,  A. C. Simmonett,  K. S. Thanthiriwatte,  Q. Wu,  W. Zhang

 Please cite Q-Chem as follows:
 Y. Shao et al., Mol. Phys. 113, 184-215 (2015)
 DOI: 10.1080/00268976.2014.952696

 Q-Chem 4.4.2 for Intel X86 Linux

 Parts of Q-Chem use Armadillo 5.200.1 (Boston Tea Smuggler).
 http://arma.sourceforge.net/

 Q-Chem begins on Fri Jun  2 14:54:24 2017  

Host: 
0

     Scratch files written to /tmpu/cab_g/afmv_a/scratch_qchem/qchem8589//
 Dec716 11556_ 22328  22283 4050   
 Parallel job on  1  processors
Processing $rem in /tmpu/appuserlic/qchem4.4/parallel-MPICH/config/preferences.
 MEM_TOTAL  2000 
FILE_GEOM_ORG=        593

Checking the input file for inconsistencies... 	...done.

--------------------------------------------------------------
User input:
--------------------------------------------------------------
$comment
OPTIMIZATION
$end

$rem
JOBTYPE OPT
EXCHANGE omegaB97X-D
BASIS cc-pVTZ
$end

$molecule
0 1
C          0.00000        0.00000        0.00000
C          1.38508        0.00000        0.00000
N         -0.72771       -1.11322        0.00000
C          2.04720       -1.21160       -0.00386
C         -0.08136       -2.27149       -0.00595
C          1.30925       -2.38901       -0.00649
C          1.96927       -3.70493        0.02329
C          1.99988       -4.47254        1.15485
C          2.62544       -4.27704       -1.10548
N          2.59269       -5.68462        1.28489
N          2.75705       -3.75156       -2.32493
C          3.25698       -5.55213       -0.98118
C          3.21224       -6.24284        0.27328
S          3.59989       -4.81231       -3.19510
N          3.84545       -5.96608       -2.09978
C          3.81087       -7.53518        0.51240
S          4.69854       -8.46811       -0.64408
C          3.76433       -8.21688        1.70669
C          4.99391       -9.74445        0.47193
S          3.06002       -7.87164        3.24943
C          4.43011       -9.46880        1.70021
C          5.75266      -10.92194        0.10588
C          3.66131       -9.39774        3.86187
C          4.35085      -10.13390        2.97242
N          6.00306      -11.89563        0.93332
S          6.41634      -11.16308       -1.48691
C          6.73995      -12.87306        0.33349
C          7.06266      -12.66331       -0.96605
H         -0.55134        0.93273        0.00000
H          1.92494        0.93597       -0.01293
H          3.12873       -1.25416       -0.02668
H         -0.69553       -3.16348       -0.00579
H          1.50983       -4.12048        2.05374
H          3.46043       -9.65889        4.88932
H          4.79940      -11.09352        3.16550
H          7.02811      -13.74633        0.89856
H          7.63149      -13.29291       -1.62747
$end

$opt
CONSTRAINT
tors 4 6 7 8 105.00000
tors 10 13 16 17 -179.11427
tors 17 19 22 25 179.21698
ENDCONSTRAINT
$end
--------------------------------------------------------------
 ----------------------------------------------------------------
             Standard Nuclear Orientation (Angstroms)
    I     Atom           X                Y                Z
 ----------------------------------------------------------------
    1      C      -7.6029758723     0.5036512625     0.0222263896
    2      C      -6.9878048091     0.0841880457    -1.1457041644
    3      N      -6.9322372376     0.8034804778     1.1308438791
    4      C      -5.6122338180    -0.0335318380    -1.1641115426
    5      C      -5.6114420059     0.6847442093     1.1026521740
    6      C      -4.8889266829     0.2714800558    -0.0175227059
    7      C      -3.4186401083     0.1938113501     0.0020644338
    8      C      -2.6353986499     1.3147171462    -0.0242629613
    9      C      -2.7004700972    -1.0368190689     0.0441505491
   10      N      -1.2802092993     1.3452754194    -0.0244633778
   11      N      -3.2020221406    -2.2730997800     0.0679050449
   12      C      -1.2722478630    -1.0189482351     0.0410436946
   13      C      -0.5819791253     0.2360885510     0.0069321331
   14      S      -1.9453981906    -3.2796253731     0.0917406464
   15      N      -0.7246027497    -2.2306982287     0.0668174440
   16      C       0.8555802672     0.3742778834     0.0045596955
   17      S       1.9966651749    -0.9270450749     0.0202503258
   18      C       1.5325233074     1.5720333565    -0.0138634639
   19      C       3.3505616319     0.1352078338     0.0015769734
   20      S       1.0263680124     3.2268559108    -0.0395358705
   21      C       2.9455246451     1.4535926052    -0.0166371636
   22      C       4.7116178474    -0.3584226278    -0.0040631131
   23      C       2.7016285515     3.7357123074    -0.0529865737
   24      C       3.5989176650     2.7341248386    -0.0383903835
   25      N       5.7538251249     0.4216034867    -0.0322159310
   26      S       5.1030535758    -2.0559356121     0.0247008367
   27      C       6.9091352094    -0.3018605482    -0.0377571139
   28      C       6.7683945079    -1.6495968963    -0.0105576797
   29      H      -8.6806417901     0.6040556453     0.0723879109
   30      H      -7.5846797843    -0.1583904211    -2.0132015978
   31      H      -5.0955815708    -0.3797167043    -2.0502637533
   32      H      -5.0877900892     0.9345521667     2.0171113744
   33      H      -3.1004371227     2.2922735587    -0.0391343208
   34      H       2.9221057880     4.7916367788    -0.0778642421
   35      H       4.6693202872     2.8502651791    -0.0482484317
   36      H       7.8589107197     0.2102164713    -0.0631419418
   37      H       7.5339129132    -2.4055212996    -0.0104444908
 ----------------------------------------------------------------
 Molecular Point Group                 C1    NOp =  1
 Largest Abelian Subgroup              C1    NOp =  1
 Nuclear Repulsion Energy =  2964.0233726635 hartrees
 There are      111 alpha and      111 beta electrons
 Requested basis set is cc-pVTZ
 There are 342 shells and 982 basis functions

 Total QAlloc Memory Limit   2000 MB
 Mega-Array Size        61 MB
 MEM_STATIC part        62 MB
 A cutoff of  1.0D-11 yielded  29194 shell pairs
 There are    231848 function pairs (    302952 Cartesian)
 
 -------------------------------------------------------
 OpenMP Integral Computing Module                       
 Release: version 1.0, May 2013, Q-Chem Inc. Pittsburgh 
 -------------------------------------------------------
 Integral Job Info:
 Integral job number is                      11
 Integral operator is                         1
 short-range coefficients              22203600
 long-range coefficients              100000000
 Omega coefficients                         200
 if combine SR and LR in K                    1
 Integral screening is                        0
 Integral computing path is                   2
 max size of driver memory is            800000
 size of driver memory is                776718
 size of scratch memory is             26248924
 max col of scratch BK array              10000
 max len of scratch array in speh3          662
 max len of scratch index in speh4           32
 max int batch size is                      520
 min int batch size is                       52
 fixed nKL is                                52
 max L of basis functions is                  3
 order of int derivative is                   0
 number of shells is                        342
 number of basis is                        1131
 number of cartesian basis is              1131
 number of contracted shell pairs         29194
 number of primitive shell pairs          92217
 maxK2 (contraction) of shell pair          121
 max number of K2 of shell pair               1
 max number of CS2 of shell pair           3968
 max number of PS2 of shell pair          11753
 mem total for path MDJ                  809088
 -------------------------------------------------------
 Smallest overlap matrix eigenvalue = 2.06E-05

 Scale SEOQF with 1.000000e-02/1.000000e-01/1.000000e-01

 Standard Electronic Orientation quadrupole field applied
 Nucleus-field energy     =     0.0000000629 hartrees
 Guess from superposition of atomic densities
 Warning:  Energy on first SCF cycle will be non-variational
 Long-range K will be added via erf
 Coulomb attenuation parameter = 0.2 bohr**(-1)
 A restricted hybrid HF-DFT SCF calculation will be
 performed using Pulay DIIS extrapolation
 Exchange:     0.2220 Hartree-Fock + 1.0000 wB97X-D + LR-HF
 Correlation:  1.0000 wB97X-D
 Using SG-2 standard quadrature grid
 Dispersion:   Grimme D
 SCF converges when DIIS error is below 1.0E-08
 using 16 threads for integral computing 
 using 16 threads for integral computing 
 K construction time:  CPU 71.48 s  wall 4.68 s
 -------------------------------------------------------
 OpenMP BLAS3 based DFT computing Module                
 Release: version 1.0, May 2013, Q-Chem Inc. Pittsburgh 
 -------------------------------------------------------
 ---------------------------------------
  Cycle       Energy         DIIS Error
 ---------------------------------------
    1   -2605.8526547355      1.87E-02
 K construction time:  CPU 1090.96 s  wall 71.24 s
    2   -2595.6571770796      1.39E-03
 K construction time:  CPU 1041.49 s  wall 67.90 s
    3   -2595.6492996933      1.52E-03
 K construction time:  CPU 999.87 s  wall 65.15 s
    4   -2595.8956204724      2.56E-04
 K construction time:  CPU 922.16 s  wall 60.20 s
    5   -2595.9017520634      1.41E-04
 K construction time:  CPU 869.51 s  wall 56.71 s
    6   -2595.9038782174      4.50E-05
 K construction time:  CPU 816.89 s  wall 53.33 s
    7   -2595.9041008064      2.04E-05
 K construction time:  CPU 768.83 s  wall 50.17 s
    8   -2595.9041590334      6.37E-06
 K construction time:  CPU 737.13 s  wall 48.06 s
    9   -2595.9041710644      3.33E-06
 K construction time:  CPU 700.68 s  wall 45.63 s
   10   -2595.9041745231      1.12E-06
 K construction time:  CPU 633.29 s  wall 41.28 s
   11   -2595.9041749185      6.98E-07
 K construction time:  CPU 591.11 s  wall 38.41 s
   12   -2595.9041750360      2.13E-07
 K construction time:  CPU 525.43 s  wall 34.17 s
   13   -2595.9041750491      9.47E-08
 K construction time:  CPU 466.46 s  wall 30.26 s
   14   -2595.9041750509      3.16E-08
 K construction time:  CPU 390.34 s  wall 25.26 s
   15   -2595.9041750510      1.46E-08
 K construction time:  CPU 1090.30 s  wall 71.16 s
   16   -2595.9041750482      4.82E-09 Convergence criterion met
 ---------------------------------------
 SCF time:  CPU 15586.25 s  wall 1039.32 s
 SCF   energy in the final basis set = -2595.9041750482
 Total energy in the final basis set = -2595.9041750482
 
 --------------------------------------------------------------
 
                    Orbital Energies (a.u.)
 --------------------------------------------------------------
 
 Alpha MOs
 -- Occupied --
-89.156 -89.094 -89.093 -89.075 -14.495 -14.488 -14.451 -14.445
-14.437 -10.375 -10.370 -10.363 -10.360 -10.346 -10.341 -10.340
-10.334 -10.329 -10.328 -10.328 -10.327 -10.325 -10.322 -10.318
-10.315 -10.314 -10.303 -10.296  -8.166  -8.109  -8.108  -8.089
 -6.116  -6.110  -6.109  -6.058  -6.057  -6.054  -6.054  -6.052
 -6.051  -6.039  -6.035  -6.031  -1.152  -1.084  -1.073  -1.055
 -1.024  -1.015  -0.956  -0.945  -0.912  -0.909  -0.908  -0.886
 -0.861  -0.844  -0.829  -0.807  -0.775  -0.749  -0.742  -0.733
 -0.724  -0.694  -0.689  -0.678  -0.648  -0.641  -0.623  -0.621
 -0.609  -0.595  -0.588  -0.576  -0.571  -0.570  -0.540  -0.537
 -0.526  -0.523  -0.518  -0.514  -0.511  -0.500  -0.496  -0.491
 -0.489  -0.481  -0.476  -0.463  -0.458  -0.444  -0.437  -0.432
 -0.431  -0.424  -0.403  -0.396  -0.378  -0.374  -0.371  -0.370
 -0.362  -0.350  -0.345  -0.337  -0.332  -0.322  -0.269
 -- Virtual --
 -0.056  -0.010   0.030   0.040   0.051   0.057   0.057   0.064
  0.075   0.103   0.107   0.111   0.115   0.122   0.131   0.135
  0.142   0.145   0.151   0.160   0.165   0.170   0.170   0.179
  0.186   0.196   0.201   0.209   0.212   0.221   0.228   0.238
  0.246   0.252   0.256   0.266   0.272   0.274   0.287   0.289
  0.293   0.296   0.304   0.307   0.310   0.318   0.323   0.326
  0.329   0.332   0.337   0.339   0.345   0.353   0.355   0.357
  0.360   0.368   0.370   0.373   0.376   0.381   0.384   0.387
  0.390   0.393   0.396   0.399   0.403   0.405   0.407   0.409
  0.419   0.424   0.430   0.431   0.432   0.436   0.442   0.445
  0.448   0.450   0.452   0.455   0.457   0.460   0.465   0.467
  0.468   0.471   0.474   0.475   0.480   0.485   0.489   0.491
  0.494   0.496   0.501   0.507   0.512   0.513   0.516   0.521
  0.523   0.525   0.536   0.538   0.540   0.547   0.550   0.552
  0.555   0.564   0.573   0.578   0.588   0.593   0.594   0.594
  0.603   0.605   0.617   0.629   0.639   0.642   0.649   0.656
  0.660   0.664   0.666   0.670   0.673   0.675   0.681   0.688
  0.691   0.696   0.700   0.703   0.712   0.717   0.719   0.725
  0.728   0.734   0.739   0.744   0.746   0.750   0.757   0.763
  0.767   0.772   0.776   0.778   0.781   0.788   0.790   0.800
  0.801   0.808   0.810   0.815   0.821   0.823   0.829   0.832
  0.836   0.839   0.850   0.854   0.857   0.859   0.866   0.867
  0.874   0.875   0.883   0.884   0.892   0.900   0.906   0.912
  0.916   0.923   0.928   0.932   0.942   0.943   0.948   0.954
  0.959   0.970   0.975   0.976   0.977   0.983   0.986   0.988
  0.992   0.995   1.002   1.011   1.015   1.017   1.028   1.036
  1.043   1.046   1.052   1.063   1.065   1.067   1.071   1.074
  1.086   1.089   1.097   1.103   1.112   1.118   1.121   1.127
  1.135   1.139   1.144   1.152   1.164   1.172   1.177   1.181
  1.192   1.193   1.201   1.208   1.219   1.222   1.224   1.230
  1.241   1.250   1.255   1.258   1.266   1.271   1.274   1.281
  1.289   1.291   1.299   1.301   1.316   1.321   1.324   1.330
  1.343   1.355   1.361   1.364   1.366   1.371   1.380   1.388
  1.393   1.407   1.411   1.416   1.423   1.426   1.434   1.442
  1.445   1.447   1.456   1.461   1.470   1.474   1.480   1.488
  1.500   1.501   1.508   1.513   1.532   1.538   1.542   1.544
  1.550   1.565   1.572   1.575   1.579   1.591   1.596   1.598
  1.611   1.615   1.623   1.627   1.632   1.633   1.638   1.647
  1.656   1.659   1.668   1.671   1.677   1.679   1.685   1.687
  1.693   1.697   1.701   1.716   1.720   1.728   1.736   1.741
  1.749   1.762   1.767   1.769   1.780   1.781   1.786   1.794
  1.811   1.817   1.821   1.830   1.848   1.861   1.862   1.870
  1.880   1.882   1.884   1.895   1.910   1.920   1.922   1.925
  1.937   1.946   1.948   1.955   1.959   1.974   1.975   1.988
  1.993   1.994   1.997   2.004   2.019   2.019   2.031   2.032
  2.046   2.053   2.061   2.069   2.074   2.090   2.101   2.103
  2.121   2.125   2.131   2.140   2.156   2.159   2.169   2.169
  2.176   2.180   2.190   2.192   2.206   2.216   2.225   2.230
  2.232   2.239   2.243   2.256   2.261   2.269   2.275   2.282
  2.299   2.307   2.308   2.336   2.343   2.351   2.353   2.361
  2.370   2.374   2.382   2.385   2.396   2.399   2.404   2.416
  2.419   2.428   2.437   2.440   2.445   2.453   2.460   2.473
  2.475   2.482   2.495   2.496   2.501   2.506   2.509   2.522
  2.530   2.533   2.536   2.545   2.549   2.568   2.576   2.591
  2.595   2.603   2.606   2.612   2.614   2.618   2.621   2.630
  2.638   2.647   2.656   2.662   2.667   2.681   2.692   2.710
  2.722   2.733   2.746   2.757   2.764   2.770   2.773   2.777
  2.783   2.788   2.790   2.795   2.800   2.811   2.812   2.821
  2.834   2.836   2.850   2.851   2.859   2.866   2.873   2.887
  2.892   2.900   2.909   2.914   2.921   2.935   2.938   2.940
  2.943   2.948   2.952   2.958   2.964   2.969   2.973   2.976
  2.983   2.992   2.997   3.002   3.011   3.015   3.018   3.021
  3.027   3.039   3.050   3.054   3.057   3.061   3.063   3.066
  3.073   3.073   3.087   3.092   3.094   3.095   3.103   3.110
  3.115   3.117   3.122   3.124   3.126   3.130   3.140   3.143
  3.151   3.156   3.162   3.168   3.171   3.174   3.178   3.179
  3.187   3.190   3.191   3.196   3.201   3.205   3.205   3.213
  3.215   3.222   3.228   3.233   3.236   3.244   3.246   3.249
  3.254   3.260   3.268   3.271   3.279   3.279   3.282   3.288
  3.297   3.300   3.304   3.306   3.311   3.314   3.318   3.326
  3.332   3.334   3.344   3.347   3.354   3.358   3.366   3.370
  3.376   3.383   3.388   3.394   3.406   3.411   3.416   3.422
  3.427   3.432   3.436   3.442   3.454   3.458   3.463   3.468
  3.474   3.478   3.487   3.492   3.497   3.501   3.514   3.516
  3.521   3.527   3.537   3.547   3.552   3.559   3.566   3.570
  3.576   3.580   3.597   3.599   3.604   3.615   3.625   3.628
  3.641   3.649   3.650   3.663   3.670   3.689   3.698   3.710
  3.716   3.720   3.731   3.734   3.738   3.745   3.753   3.764
  3.779   3.786   3.793   3.795   3.799   3.804   3.805   3.814
  3.821   3.829   3.838   3.843   3.852   3.856   3.859   3.866
  3.867   3.891   3.899   3.904   3.919   3.930   3.932   3.942
  3.945   3.951   3.953   3.963   3.966   3.968   3.987   3.987
  3.991   3.993   4.003   4.012   4.019   4.022   4.036   4.043
  4.049   4.056   4.079   4.086   4.089   4.104   4.110   4.122
  4.132   4.144   4.145   4.155   4.164   4.174   4.182   4.187
  4.191   4.201   4.206   4.211   4.214   4.222   4.243   4.245
  4.259   4.266   4.273   4.289   4.293   4.297   4.314   4.317
  4.331   4.337   4.345   4.358   4.365   4.370   4.387   4.392
  4.397   4.403   4.414   4.425   4.436   4.448   4.452   4.460
  4.476   4.482   4.488   4.499   4.509   4.530   4.535   4.541
  4.548   4.553   4.564   4.570   4.580   4.587   4.589   4.598
  4.619   4.625   4.640   4.651   4.669   4.672   4.679   4.693
  4.706   4.708   4.723   4.738   4.753   4.783   4.785   4.800
  4.805   4.814   4.832   4.846   4.848   4.860   4.864   4.872
  4.881   4.895   4.909   4.924   4.928   4.934   4.941   4.948
  4.949   4.960   4.967   4.970   4.983   4.987   4.998   5.009
  5.026   5.031   5.050   5.063   5.076   5.082   5.090   5.098
  5.106   5.134   5.138   5.145   5.154   5.166   5.174   5.195
  5.210   5.234   5.236   5.242   5.253   5.258   5.281   5.283
  5.305   5.327   5.343   5.354   5.362   5.388   5.402   5.412
  5.428   5.439   5.451   5.459   5.473   5.490   5.514   5.527
  5.533   5.549   5.564   5.585   5.612   5.654   5.663   5.666
  5.692   5.705   5.723   5.736   5.769   5.778   5.803   5.821
  5.855   5.893   5.903   5.946   5.956   6.003   6.013   6.107
  6.135   6.154   6.168   6.187   6.206   6.226   6.259   6.284
  6.337   6.349   6.402   6.416   6.456   6.851   6.985   8.006
  8.879   9.604  10.158  10.933  11.149  11.226  11.734  12.005
 12.322  12.395  12.611  12.791  12.830  13.085  13.302  13.419
 13.538  13.550  13.762  13.844  14.268  14.742  14.999
 --------------------------------------------------------------
 
          Ground-State Mulliken Net Atomic Charges

     Atom                 Charge (a.u.)
  ----------------------------------------
      1 C                    -0.070430
      2 C                    -0.098168
      3 N                    -0.151992
      4 C                    -0.113061
      5 C                    -0.094588
      6 C                     0.068384
      7 C                    -0.040877
      8 C                    -0.058215
      9 C                     0.033957
     10 N                    -0.180595
     11 N                    -0.263954
     12 C                     0.027727
     13 C                     0.120503
     14 S                     0.410985
     15 N                    -0.284137
     16 C                    -0.061883
     17 S                     0.129721
     18 C                    -0.003953
     19 C                    -0.021595
     20 S                     0.093960
     21 C                     0.019479
     22 C                     0.037476
     23 C                    -0.162617
     24 C                    -0.159747
     25 N                    -0.183258
     26 S                     0.099737
     27 C                    -0.074911
     28 C                    -0.203169
     29 H                     0.124473
     30 H                     0.129400
     31 H                     0.122744
     32 H                     0.131857
     33 H                     0.128620
     34 H                     0.131243
     35 H                     0.141973
     36 H                     0.129149
     37 H                     0.145761
  ----------------------------------------
  Sum of atomic charges =     0.000000

 -----------------------------------------------------------------
                    Cartesian Multipole Moments
 -----------------------------------------------------------------
    Charge (ESU x 10^10)
                 0.0000
    Dipole Moment (Debye)
         X       1.7649      Y      -1.7238      Z      -1.8054
       Tot       3.0571
    Quadrupole Moments (Debye-Ang)
        XX    -167.4830     XY      -1.4618     YY    -174.5611
        XZ      14.2051     YZ      -0.2363     ZZ    -187.0323
    Octopole Moments (Debye-Ang^2)
       XXX     207.6834    XXY     -69.2261    XYY      51.7228
       YYY      -2.7190    XXZ    -111.6347    XYZ       2.3869
       YYZ      -0.1179    XZZ     -16.2526    YZZ     -14.1292
       ZZZ      -6.0346
    Hexadecapole Moments (Debye-Ang^3)
      XXXX  -17151.7116   XXXY    -277.7453   XXYY   -3715.6570
      XYYY     115.7852   YYYY   -3447.3453   XXXZ     822.4698
      XXYZ     -39.0170   XYYZ      -1.6646   YYYZ     -11.7876
      XXZZ   -3406.0119   XYZZ      28.3296   YYZZ    -742.4485
      XZZZ      54.7065   YZZZ       4.3782   ZZZZ    -415.2587
 -----------------------------------------------------------------
 Calculating analytic gradient of the SCF energy
 K construction time:  CPU 2911.10 s  wall 183.82 s
 Gradient of SCF Energy
            1           2           3           4           5           6
    1  -0.0019637   0.0022050   0.0016127  -0.0021014  -0.0019337   0.0062446
    2  -0.0007653   0.0011029   0.0002614   0.0034463  -0.0002007  -0.0008783
    3  -0.0014766  -0.0000363   0.0002600  -0.0005374   0.0035041  -0.0006534
            7           8           9          10          11          12
    1  -0.0066987   0.0013756   0.0009447  -0.0018348   0.0022540   0.0000210
    2  -0.0004116   0.0002986  -0.0003867   0.0010492  -0.0010151   0.0005457
    3  -0.0016190  -0.0020322   0.0032024  -0.0007723  -0.0004416  -0.0001150
           13          14          15          16          17          18
    1   0.0007204  -0.0002815  -0.0008843  -0.0012871   0.0010346   0.0007020
    2  -0.0009767  -0.0005691   0.0001094  -0.0002852  -0.0004582  -0.0003236
    3   0.0001204   0.0000397  -0.0003694  -0.0000047  -0.0001000   0.0002607
           19          20          21          22          23          24
    1   0.0004830  -0.0004591  -0.0004639  -0.0001434  -0.0009784   0.0007253
    2   0.0006630   0.0002319  -0.0005536   0.0002869  -0.0006355   0.0017391
    3   0.0002412   0.0000791  -0.0003740  -0.0004354   0.0001202   0.0003575
           25          26          27          28          29          30
    1  -0.0006621  -0.0002343  -0.0004371   0.0005996   0.0001739  -0.0004944
    2   0.0001246  -0.0007720   0.0006504   0.0003317  -0.0001217  -0.0004259
    3   0.0003805   0.0003126  -0.0000736  -0.0000605  -0.0000817   0.0005704
           31          32          33          34          35          36
    1   0.0004675  -0.0009377   0.0014528   0.0003387  -0.0001648   0.0005076
    2  -0.0009542   0.0000098   0.0002073   0.0002353  -0.0007216  -0.0007600
    3   0.0001470  -0.0008690   0.0009702  -0.0002317  -0.0001024  -0.0000957
           37
    1   0.0000972
    2  -0.0000787
    3  -0.0000840
 Max gradient component =       6.699E-03
 RMS gradient           =       1.306E-03
 Gradient time:  CPU 3355.16 s  wall 213.56 s
 Geometry Optimization Parameters
   NAtoms,    NIC,     NZ,  NCons,   NDum,   NFix, NCnnct, MaxDiis
       37     280       0       3       0       0       0       0


** CONSTRAINED OPTIMIZATION IN DELOCALIZED INTERNAL COORDINATES **
   Searching for a Minimum

   Optimization Cycle:   1

                       Coordinates (Angstroms)
     ATOM                X               Y               Z
      1  C        -7.6029758723    0.5036512625    0.0222263896
      2  C        -6.9878048091    0.0841880457   -1.1457041644
      3  N        -6.9322372376    0.8034804778    1.1308438791
      4  C        -5.6122338180   -0.0335318380   -1.1641115426
      5  C        -5.6114420059    0.6847442093    1.1026521740
      6  C        -4.8889266829    0.2714800558   -0.0175227059
      7  C        -3.4186401083    0.1938113501    0.0020644338
      8  C        -2.6353986499    1.3147171462   -0.0242629613
      9  C        -2.7004700972   -1.0368190689    0.0441505491
     10  N        -1.2802092993    1.3452754194   -0.0244633778
     11  N        -3.2020221406   -2.2730997800    0.0679050449
     12  C        -1.2722478630   -1.0189482351    0.0410436946
     13  C        -0.5819791253    0.2360885510    0.0069321331
     14  S        -1.9453981906   -3.2796253731    0.0917406464
     15  N        -0.7246027497   -2.2306982287    0.0668174440
     16  C         0.8555802672    0.3742778834    0.0045596955
     17  S         1.9966651749   -0.9270450749    0.0202503258
     18  C         1.5325233074    1.5720333565   -0.0138634639
     19  C         3.3505616319    0.1352078338    0.0015769734
     20  S         1.0263680124    3.2268559108   -0.0395358705
     21  C         2.9455246451    1.4535926052   -0.0166371636
     22  C         4.7116178474   -0.3584226278   -0.0040631131
     23  C         2.7016285515    3.7357123074   -0.0529865737
     24  C         3.5989176650    2.7341248386   -0.0383903835
     25  N         5.7538251249    0.4216034867   -0.0322159310
     26  S         5.1030535758   -2.0559356121    0.0247008367
     27  C         6.9091352094   -0.3018605482   -0.0377571139
     28  C         6.7683945079   -1.6495968963   -0.0105576797
     29  H        -8.6806417901    0.6040556453    0.0723879109
     30  H        -7.5846797843   -0.1583904211   -2.0132015978
     31  H        -5.0955815708   -0.3797167043   -2.0502637533
     32  H        -5.0877900892    0.9345521667    2.0171113744
     33  H        -3.1004371227    2.2922735587   -0.0391343208
     34  H         2.9221057880    4.7916367788   -0.0778642421
     35  H         4.6693202872    2.8502651791   -0.0482484317
     36  H         7.8589107197    0.2102164713   -0.0631419418
     37  H         7.5339129132   -2.4055212996   -0.0104444908
   Point Group: c1    Number of degrees of freedom:   105


   Energy is  -2595.904175048

              Constraints and their Current Values
                                        Value     Constraint
   Dihedral:        4   6   7   8      105.000      105.000
   Dihedral:       10  13  16  17     -179.125     -179.114
   Dihedral:       17  19  22  25      179.258      179.217

 Attempting to Generate Delocalized Internal Coordinates

   Using Lagrange Multiplier Algorithm


108 Hessian modes will be used to form the next step
  Hessian Eigenvalues:
    -0.977753   -0.977753   -0.977753    0.045000    0.045000    0.045000
     0.045000    0.045000    0.045000    0.045000    0.045000    0.045000
     0.045000    0.045000    0.045000    0.045000    0.045000    0.045000
     0.045000    0.045000    0.045000    0.045000    0.045000    0.045000
     0.045001    0.045001    0.045001    0.045001    0.045001    0.045003
     0.045005    0.045007    0.045009    0.045012    0.159961    0.159984
     0.159995    0.159997    0.159998    0.159999    0.160000    0.160000
     0.160000    0.220002    0.224572    0.225458    0.231978    0.233022
     0.234404    0.247446    0.247715    0.249914    0.249956    0.249989
     0.249992    0.249998    0.249998    0.249998    0.249999    0.249999
     0.249999    0.250000    0.250000    0.297518    0.305116    0.316319
     0.317284    0.326678    0.334475    0.354466    0.355754    0.356364
     0.356778    0.356811    0.359242    0.360761    0.361174    0.363923
     0.365012    0.372831    0.385322    0.386483    0.390165    0.393196
     0.397176    0.410400    0.431175    0.455299    0.463152    0.473311
     0.473331    0.475022    0.483101    0.491314    0.496870    0.499415
     0.517644    0.525715    0.538138    0.558610    0.574891    0.584500
     0.591081    0.623459    0.638965    1.022753    1.022753    1.022753

 Minimum Search - Taking P-RFO Step
 Searching for Lamda that Maximizes Along the Constraint modes Only
 Value Taken    Lamda =   0.00000940
 Searching for Lamda that Minimizes Along All other modes
 Value Taken    Lamda =  -0.00061073
 Step Taken.  Stepsize is  0.068039

                             Maximum     Tolerance    Cnvgd?
         Gradient            0.006089       0.000300      NO
         Displacement        0.022231       0.001200      NO
         Energy change     *********       0.000001      NO


 New Cartesian Coordinates Obtained by Inverse Iteration

 Displacement from previous Coordinates is:  0.530909
 ----------------------------------------------------------------
             Standard Nuclear Orientation (Angstroms)
    I     Atom           X                Y                Z
 ----------------------------------------------------------------
    1      C      -7.6061149391     0.4470819914     0.0513668858
    2      C      -7.0007553006     0.0316153793    -1.1241257173
    3      N      -6.9289762204     0.7617253585     1.1506133824
    4      C      -5.6223577712    -0.0629529301    -1.1598032147
    5      C      -5.6066433319     0.6658699583     1.1032512321
    6      C      -4.8941910703     0.2599455099    -0.0215946061
    7      C      -3.4177228755     0.2143498872    -0.0076522698
    8      C      -2.6504889276     1.3445090589    -0.0403882356
    9      C      -2.6919383672    -1.0069319318     0.0217474261
   10      N      -1.2933436326     1.3888708885    -0.0419026383
   11      N      -3.1894340595    -2.2440769522     0.0467290257
   12      C      -1.2649216341    -0.9766700148     0.0188881046
   13      C      -0.5861714060     0.2853197050    -0.0114155185
   14      S      -1.9229132960    -3.2391706445     0.0668566486
   15      N      -0.7071283172    -2.1837614075     0.0442611885
   16      C       0.8521237674     0.4211123810    -0.0110937648
   17      S       1.9732796838    -0.8954890859     0.0041200697
   18      C       1.5447233384     1.6102737435    -0.0247836622
   19      C       3.3422207754     0.1459518137    -0.0041079577
   20      S       1.0663627885     3.2729479896    -0.0473249711
   21      C       2.9565316609     1.4701691815    -0.0205257468
   22      C       4.6966165664    -0.3664044614    -0.0022074334
   23      C       2.7495336765     3.7557502707    -0.0490305162
   24      C       3.6298851896     2.7394600952    -0.0348005212
   25      N       5.7503254383     0.3983736150    -0.0231743861
   26      S       5.0637222295    -2.0683203350     0.0239153716
   27      C       6.8950916973    -0.3409190855    -0.0180597625
   28      C       6.7346359343    -1.6866361103     0.0065185110
   29      H      -8.6845890878     0.5335787022     0.1144349128
   30      H      -7.6013986567    -0.2165273785    -1.9876057279
   31      H      -5.1115960051    -0.3938075901    -2.0544511865
   32      H      -5.0711885811     0.9261009756     2.0100150997
   33      H      -3.1359710424     2.3126306725    -0.0646751676
   34      H       2.9850889426     4.8081258543    -0.0652264048
   35      H       4.7019727134     2.8430161539    -0.0369494838
   36      H       7.8492378866     0.1631048455    -0.0330857110
   37      H       7.4888184551    -2.4535832715     0.0138594275
 ----------------------------------------------------------------
 Molecular Point Group                 C1    NOp =  1
 Largest Abelian Subgroup              C1    NOp =  1
 Nuclear Repulsion Energy =  2965.5458706227 hartrees
 There are      111 alpha and      111 beta electrons
 Applying Cartesian multipole field
    Component          Value
    ---------          -----
     (2,0,0)        1.00000E-12
     (0,2,0)        2.00000E-11
     (0,0,2)       -3.00000E-11
 Nucleus-field energy     =     0.0000000630 hartrees
 Requested basis set is cc-pVTZ
 There are 342 shells and 982 basis functions
 A cutoff of  1.0D-11 yielded  29213 shell pairs
 There are    231967 function pairs (    303103 Cartesian)
 Smallest overlap matrix eigenvalue = 2.04E-05
 Guess MOs from SCF MO coefficient file
 Reading MOs from coefficient file
 Reading MOs from coefficient file
 Long-range K will be added via erf
 Coulomb attenuation parameter = 0.2 bohr**(-1)
 A restricted hybrid HF-DFT SCF calculation will be
 performed using Pulay DIIS extrapolation
 Exchange:     0.2220 Hartree-Fock + 1.0000 wB97X-D + LR-HF
 Correlation:  1.0000 wB97X-D
 Using SG-2 standard quadrature grid
 Dispersion:   Grimme D
 SCF converges when DIIS error is below 1.0E-08
 Geometry optimization detected.  Setting ReadMinima to 0
 Setting SaveMinima to 0
 using 16 threads for integral computing 
 using 16 threads for integral computing 
 K construction time:  CPU 1091.46 s  wall 71.25 s
 -------------------------------------------------------
 OpenMP BLAS3 based DFT computing Module                
 Release: version 1.0, May 2013, Q-Chem Inc. Pittsburgh 
 -------------------------------------------------------
 ---------------------------------------
  Cycle       Energy         DIIS Error
 ---------------------------------------
    1   -2595.9016045885      2.48E-04
 K construction time:  CPU 1090.46 s  wall 71.23 s
    2   -2595.9043385458      2.63E-05
 K construction time:  CPU 805.96 s  wall 52.56 s
    3   -2595.9044320838      2.41E-05
 K construction time:  CPU 757.11 s  wall 49.35 s
    4   -2595.9044897233      8.65E-06
 K construction time:  CPU 709.44 s  wall 46.26 s
    5   -2595.9044987701      3.87E-06
 K construction time:  CPU 657.74 s  wall 42.80 s
    6   -2595.9045004910      1.39E-06
 K construction time:  CPU 595.01 s  wall 38.80 s
    7   -2595.9045007363      4.85E-07
 K construction time:  CPU 536.65 s  wall 34.96 s
    8   -2595.9045007708      1.95E-07
 K construction time:  CPU 497.00 s  wall 32.26 s
    9   -2595.9045007780      7.98E-08
 K construction time:  CPU 425.64 s  wall 27.57 s
   10   -2595.9045007789      2.71E-08
 K construction time:  CPU 379.06 s  wall 24.49 s
   11   -2595.9045007807      1.26E-08
 K construction time:  CPU 348.46 s  wall 22.51 s
   12   -2595.9045007819      5.61E-09 Convergence criterion met
 ---------------------------------------
 SCF time:  CPU 10623.08 s  wall 708.27 s
 SCF   energy in the final basis set = -2595.9045007819
 Total energy in the final basis set = -2595.9045007819
 
 --------------------------------------------------------------
 
                    Orbital Energies (a.u.)
 --------------------------------------------------------------
 
 Alpha MOs
 -- Occupied --
-89.156 -89.094 -89.093 -89.075 -14.495 -14.488 -14.452 -14.445
-14.437 -10.375 -10.370 -10.362 -10.360 -10.345 -10.341 -10.340
-10.334 -10.329 -10.328 -10.327 -10.327 -10.324 -10.322 -10.318
-10.315 -10.314 -10.303 -10.296  -8.166  -8.109  -8.108  -8.089
 -6.116  -6.110  -6.109  -6.058  -6.057  -6.054  -6.054  -6.051
 -6.051  -6.039  -6.035  -6.031  -1.153  -1.084  -1.072  -1.056
 -1.024  -1.016  -0.957  -0.945  -0.912  -0.909  -0.908  -0.885
 -0.861  -0.844  -0.829  -0.807  -0.775  -0.749  -0.743  -0.733
 -0.723  -0.695  -0.690  -0.678  -0.648  -0.641  -0.623  -0.621
 -0.609  -0.595  -0.588  -0.576  -0.571  -0.569  -0.540  -0.536
 -0.526  -0.523  -0.518  -0.514  -0.511  -0.500  -0.497  -0.491
 -0.489  -0.481  -0.476  -0.462  -0.458  -0.445  -0.437  -0.432
 -0.431  -0.424  -0.403  -0.396  -0.378  -0.374  -0.371  -0.370
 -0.362  -0.350  -0.345  -0.337  -0.333  -0.322  -0.269
 -- Virtual --
 -0.056  -0.010   0.030   0.040   0.051   0.057   0.058   0.064
  0.075   0.102   0.107   0.111   0.115   0.122   0.131   0.135
  0.142   0.145   0.151   0.160   0.164   0.170   0.171   0.179
  0.185   0.196   0.201   0.210   0.212   0.221   0.228   0.238
  0.246   0.252   0.257   0.266   0.272   0.274   0.287   0.289
  0.293   0.296   0.304   0.307   0.310   0.319   0.323   0.326
  0.329   0.331   0.337   0.339   0.345   0.353   0.355   0.357
  0.360   0.368   0.370   0.373   0.376   0.381   0.383   0.387
  0.391   0.393   0.396   0.399   0.404   0.405   0.407   0.409
  0.419   0.424   0.430   0.431   0.433   0.436   0.442   0.445
  0.447   0.450   0.452   0.455   0.457   0.460   0.465   0.466
  0.469   0.470   0.474   0.475   0.480   0.485   0.489   0.491
  0.495   0.496   0.501   0.506   0.511   0.513   0.516   0.520
  0.523   0.524   0.536   0.538   0.541   0.547   0.550   0.552
  0.556   0.564   0.572   0.578   0.588   0.592   0.594   0.594
  0.603   0.605   0.617   0.630   0.639   0.643   0.650   0.657
  0.660   0.664   0.666   0.670   0.674   0.676   0.681   0.688
  0.691   0.696   0.700   0.702   0.712   0.717   0.719   0.725
  0.728   0.735   0.739   0.743   0.745   0.751   0.756   0.763
  0.767   0.772   0.775   0.777   0.780   0.787   0.790   0.801
  0.802   0.808   0.810   0.816   0.821   0.823   0.829   0.833
  0.836   0.839   0.850   0.854   0.858   0.861   0.866   0.868
  0.873   0.874   0.882   0.884   0.891   0.900   0.906   0.912
  0.916   0.924   0.928   0.932   0.942   0.944   0.948   0.955
  0.960   0.970   0.973   0.976   0.977   0.983   0.986   0.989
  0.992   0.995   1.002   1.012   1.016   1.019   1.028   1.034
  1.043   1.046   1.052   1.062   1.065   1.066   1.071   1.074
  1.086   1.089   1.098   1.103   1.111   1.118   1.121   1.127
  1.135   1.139   1.144   1.153   1.165   1.172   1.177   1.181
  1.191   1.194   1.200   1.208   1.219   1.222   1.225   1.233
  1.242   1.250   1.256   1.259   1.267   1.270   1.274   1.281
  1.289   1.291   1.298   1.301   1.316   1.321   1.323   1.331
  1.343   1.355   1.361   1.363   1.365   1.372   1.380   1.388
  1.393   1.406   1.412   1.417   1.424   1.425   1.434   1.443
  1.446   1.447   1.457   1.460   1.468   1.473   1.480   1.489
  1.499   1.501   1.508   1.513   1.532   1.538   1.542   1.544
  1.550   1.564   1.572   1.575   1.578   1.591   1.597   1.597
  1.609   1.614   1.624   1.628   1.632   1.634   1.639   1.648
  1.657   1.660   1.669   1.671   1.677   1.678   1.686   1.687
  1.692   1.696   1.701   1.716   1.721   1.727   1.736   1.741
  1.747   1.762   1.767   1.769   1.779   1.781   1.786   1.794
  1.811   1.817   1.823   1.831   1.847   1.860   1.862   1.870
  1.879   1.882   1.883   1.895   1.912   1.922   1.923   1.925
  1.938   1.945   1.948   1.955   1.959   1.974   1.976   1.988
  1.994   1.994   1.998   2.004   2.020   2.020   2.031   2.032
  2.047   2.054   2.061   2.069   2.074   2.090   2.100   2.103
  2.120   2.125   2.132   2.141   2.154   2.158   2.168   2.170
  2.177   2.180   2.189   2.192   2.205   2.215   2.226   2.231
  2.233   2.239   2.243   2.256   2.263   2.268   2.275   2.282
  2.298   2.306   2.309   2.337   2.343   2.351   2.353   2.361
  2.370   2.374   2.383   2.385   2.397   2.400   2.404   2.416
  2.419   2.428   2.437   2.441   2.446   2.452   2.460   2.473
  2.475   2.482   2.494   2.497   2.501   2.506   2.509   2.524
  2.529   2.534   2.537   2.544   2.547   2.569   2.576   2.591
  2.595   2.603   2.607   2.612   2.614   2.619   2.621   2.630
  2.637   2.650   2.657   2.662   2.667   2.681   2.692   2.710
  2.723   2.733   2.744   2.759   2.764   2.771   2.774   2.778
  2.783   2.788   2.790   2.795   2.801   2.811   2.812   2.821
  2.837   2.840   2.850   2.851   2.860   2.867   2.873   2.887
  2.891   2.900   2.910   2.914   2.921   2.935   2.937   2.940
  2.943   2.948   2.953   2.958   2.963   2.969   2.974   2.976
  2.983   2.991   2.998   3.001   3.011   3.014   3.018   3.021
  3.028   3.040   3.050   3.055   3.057   3.061   3.064   3.066
  3.072   3.074   3.086   3.091   3.095   3.097   3.104   3.110
  3.114   3.117   3.122   3.124   3.126   3.129   3.140   3.143
  3.152   3.157   3.162   3.167   3.171   3.174   3.179   3.180
  3.187   3.189   3.190   3.196   3.200   3.205   3.205   3.213
  3.215   3.221   3.228   3.233   3.236   3.244   3.245   3.249
  3.254   3.260   3.267   3.270   3.279   3.279   3.282   3.288
  3.295   3.301   3.304   3.305   3.311   3.313   3.318   3.327
  3.332   3.335   3.344   3.347   3.355   3.358   3.365   3.370
  3.376   3.382   3.388   3.394   3.408   3.409   3.417   3.423
  3.427   3.433   3.436   3.442   3.454   3.459   3.462   3.469
  3.475   3.478   3.486   3.491   3.497   3.503   3.514   3.517
  3.521   3.527   3.537   3.546   3.552   3.558   3.567   3.570
  3.576   3.582   3.597   3.600   3.604   3.613   3.624   3.627
  3.642   3.648   3.651   3.663   3.672   3.689   3.697   3.710
  3.713   3.721   3.732   3.735   3.739   3.744   3.753   3.764
  3.779   3.785   3.793   3.795   3.798   3.803   3.805   3.814
  3.821   3.831   3.839   3.847   3.853   3.857   3.860   3.865
  3.866   3.891   3.900   3.904   3.919   3.928   3.934   3.943
  3.945   3.952   3.953   3.964   3.967   3.969   3.983   3.987
  3.993   3.993   4.003   4.009   4.020   4.022   4.035   4.043
  4.047   4.058   4.078   4.086   4.092   4.104   4.109   4.123
  4.131   4.143   4.145   4.155   4.166   4.174   4.182   4.188
  4.191   4.202   4.206   4.211   4.215   4.225   4.241   4.245
  4.260   4.266   4.274   4.290   4.293   4.298   4.315   4.318
  4.330   4.338   4.343   4.357   4.362   4.369   4.387   4.392
  4.397   4.402   4.414   4.424   4.436   4.448   4.452   4.460
  4.476   4.482   4.488   4.499   4.508   4.530   4.535   4.541
  4.548   4.553   4.564   4.570   4.579   4.585   4.588   4.597
  4.620   4.628   4.640   4.653   4.669   4.673   4.681   4.693
  4.705   4.708   4.724   4.739   4.753   4.784   4.786   4.799
  4.805   4.812   4.832   4.846   4.849   4.860   4.865   4.872
  4.882   4.895   4.908   4.925   4.928   4.934   4.942   4.948
  4.951   4.960   4.967   4.969   4.983   4.988   4.997   5.009
  5.025   5.031   5.050   5.063   5.076   5.081   5.091   5.098
  5.105   5.131   5.137   5.146   5.153   5.165   5.174   5.193
  5.209   5.235   5.238   5.242   5.254   5.258   5.281   5.283
  5.304   5.325   5.344   5.352   5.362   5.387   5.402   5.411
  5.428   5.438   5.452   5.460   5.474   5.489   5.513   5.527
  5.533   5.549   5.564   5.585   5.611   5.655   5.664   5.666
  5.691   5.705   5.721   5.737   5.770   5.778   5.804   5.824
  5.853   5.892   5.905   5.946   5.957   6.000   6.020   6.107
  6.138   6.156   6.171   6.188   6.205   6.227   6.257   6.290
  6.339   6.352   6.404   6.416   6.451   6.851   6.986   8.005
  8.869   9.598  10.156  10.932  11.165  11.238  11.724  11.996
 12.333  12.392  12.622  12.807  12.832  13.080  13.298  13.423
 13.543  13.551  13.771  13.850  14.272  14.752  15.004
 --------------------------------------------------------------
 
          Ground-State Mulliken Net Atomic Charges

     Atom                 Charge (a.u.)
  ----------------------------------------
      1 C                    -0.070615
      2 C                    -0.098482
      3 N                    -0.151370
      4 C                    -0.113159
      5 C                    -0.095680
      6 C                     0.069293
      7 C                    -0.038114
      8 C                    -0.057038
      9 C                     0.034349
     10 N                    -0.180380
     11 N                    -0.263598
     12 C                     0.028027
     13 C                     0.118708
     14 S                     0.408844
     15 N                    -0.284126
     16 C                    -0.060535
     17 S                     0.130370
     18 C                    -0.007647
     19 C                    -0.021464
     20 S                     0.093355
     21 C                     0.020693
     22 C                     0.037520
     23 C                    -0.162922
     24 C                    -0.160044
     25 N                    -0.183138
     26 S                     0.100135
     27 C                    -0.074933
     28 C                    -0.203448
     29 H                     0.124347
     30 H                     0.129607
     31 H                     0.123136
     32 H                     0.131410
     33 H                     0.128118
     34 H                     0.131583
     35 H                     0.142308
     36 H                     0.129184
     37 H                     0.145704
  ----------------------------------------
  Sum of atomic charges =     0.000000

 -----------------------------------------------------------------
                    Cartesian Multipole Moments
 -----------------------------------------------------------------
    Charge (ESU x 10^10)
                 0.0000
    Dipole Moment (Debye)
         X       1.7498      Y      -1.7498      Z      -1.8093
       Tot       3.0655
    Quadrupole Moments (Debye-Ang)
        XX    -167.5192     XY      -1.4335     YY    -174.5417
        XZ      14.4869     YZ      -0.1067     ZZ    -187.1151
    Octopole Moments (Debye-Ang^2)
       XXX     202.2656    XXY     -71.2055    XYY      53.2887
       YYY      -7.3860    XXZ    -109.5536    XYZ       1.8079
       YYZ       0.9537    XZZ     -15.6773    YZZ     -15.9718
       ZZZ      -3.7926
    Hexadecapole Moments (Debye-Ang^3)
      XXXX  -17135.9909   XXXY    -285.2315   XXYY   -3698.9840
      XYYY      95.5607   YYYY   -3455.3664   XXXZ     829.2624
      XXYZ     -36.5271   XYYZ      -0.7238   YYYZ     -14.6375
      XXZZ   -3403.7441   XYZZ      22.2425   YYZZ    -743.8235
      XZZZ      54.7113   YZZZ      -0.0757   ZZZZ    -414.8157
 -----------------------------------------------------------------
 Calculating analytic gradient of the SCF energy
 K construction time:  CPU 2909.38 s  wall 183.75 s
 Gradient of SCF Energy
            1           2           3           4           5           6
    1  -0.0003178   0.0003413   0.0009159  -0.0004457  -0.0012248   0.0013873
    2  -0.0004050   0.0005860   0.0000685   0.0024481  -0.0005101  -0.0018994
    3  -0.0004711  -0.0002014   0.0001682  -0.0006649   0.0003926   0.0002370
            7           8           9          10          11          12
    1  -0.0014285   0.0006621  -0.0000660  -0.0010460  -0.0000182   0.0002421
    2  -0.0005841   0.0001848  -0.0004426   0.0002196  -0.0000666   0.0000832
    3   0.0008392  -0.0018035   0.0015362  -0.0005717  -0.0000788  -0.0001699
           13          14          15          16          17          18
    1   0.0008177  -0.0004336   0.0008586  -0.0003390  -0.0003982   0.0003881
    2  -0.0007737   0.0015275   0.0004019  -0.0008744  -0.0000423   0.0002278
    3   0.0002329  -0.0001365  -0.0000487   0.0001579  -0.0002977   0.0000582
           19          20          21          22          23          24
    1   0.0001576   0.0000773  -0.0002406   0.0000299  -0.0002705   0.0002585
    2   0.0003729   0.0001649  -0.0003070   0.0000784  -0.0003448   0.0008733
    3   0.0003454  -0.0000499  -0.0001291   0.0001174   0.0001506   0.0001086
           25          26          27          28          29          30
    1  -0.0001025  -0.0000840  -0.0002344   0.0001666   0.0001115  -0.0001502
    2  -0.0000938  -0.0002401   0.0003016   0.0000358   0.0000505  -0.0002500
    3  -0.0001422  -0.0000732  -0.0000193   0.0001279   0.0000810   0.0000813
           31          32          33          34          35          36
    1   0.0000998  -0.0000439  -0.0000773   0.0001759   0.0000831   0.0001297
    2  -0.0003904   0.0000206   0.0000690  -0.0000007  -0.0002873  -0.0002153
    3   0.0001304  -0.0000092   0.0003640  -0.0001055  -0.0000728  -0.0000216
           37
    1   0.0000183
    2   0.0000133
    3  -0.0000615
 Max gradient component =       2.448E-03
 RMS gradient           =       5.661E-04
 Gradient time:  CPU 3352.36 s  wall 213.53 s
 Geometry Optimization Parameters
   NAtoms,    NIC,     NZ,  NCons,   NDum,   NFix, NCnnct, MaxDiis
       37     280       0       3       0       0       0       0

 Cartesian Hessian Update
 Hessian Updated using BFGS Update


** CONSTRAINED OPTIMIZATION IN DELOCALIZED INTERNAL COORDINATES **
   Searching for a Minimum

   Optimization Cycle:   2

                       Coordinates (Angstroms)
     ATOM                X               Y               Z
      1  C        -7.6061149391    0.4470819914    0.0513668858
      2  C        -7.0007553006    0.0316153793   -1.1241257173
      3  N        -6.9289762204    0.7617253585    1.1506133824
      4  C        -5.6223577712   -0.0629529301   -1.1598032147
      5  C        -5.6066433319    0.6658699583    1.1032512321
      6  C        -4.8941910703    0.2599455099   -0.0215946061
      7  C        -3.4177228755    0.2143498872   -0.0076522698
      8  C        -2.6504889276    1.3445090589   -0.0403882356
      9  C        -2.6919383672   -1.0069319318    0.0217474261
     10  N        -1.2933436326    1.3888708885   -0.0419026383
     11  N        -3.1894340595   -2.2440769522    0.0467290257
     12  C        -1.2649216341   -0.9766700148    0.0188881046
     13  C        -0.5861714060    0.2853197050   -0.0114155185
     14  S        -1.9229132960   -3.2391706445    0.0668566486
     15  N        -0.7071283172   -2.1837614075    0.0442611885
     16  C         0.8521237674    0.4211123810   -0.0110937648
     17  S         1.9732796838   -0.8954890859    0.0041200697
     18  C         1.5447233384    1.6102737435   -0.0247836622
     19  C         3.3422207754    0.1459518137   -0.0041079577
     20  S         1.0663627885    3.2729479896   -0.0473249711
     21  C         2.9565316609    1.4701691815   -0.0205257468
     22  C         4.6966165664   -0.3664044614   -0.0022074334
     23  C         2.7495336765    3.7557502707   -0.0490305162
     24  C         3.6298851896    2.7394600952   -0.0348005212
     25  N         5.7503254383    0.3983736150   -0.0231743861
     26  S         5.0637222295   -2.0683203350    0.0239153716
     27  C         6.8950916973   -0.3409190855   -0.0180597625
     28  C         6.7346359343   -1.6866361103    0.0065185110
     29  H        -8.6845890878    0.5335787022    0.1144349128
     30  H        -7.6013986567   -0.2165273785   -1.9876057279
     31  H        -5.1115960051   -0.3938075901   -2.0544511865
     32  H        -5.0711885811    0.9261009756    2.0100150997
     33  H        -3.1359710424    2.3126306725   -0.0646751676
     34  H         2.9850889426    4.8081258543   -0.0652264048
     35  H         4.7019727134    2.8430161539   -0.0369494838
     36  H         7.8492378866    0.1631048455   -0.0330857110
     37  H         7.4888184551   -2.4535832715    0.0138594275
   Point Group: c1    Number of degrees of freedom:   105


   Energy is  -2595.904500782

              Constraints and their Current Values
                                        Value     Constraint
   Dihedral:        4   6   7   8      105.000      105.000
   Dihedral:       10  13  16  17     -179.114     -179.114
   Dihedral:       17  19  22  25      179.217      179.217
 Hessian Updated using BFGS Update

   Using Lagrange Multiplier Algorithm


104 Hessian modes will be used to form the next step
  Hessian Eigenvalues:
    -0.977632    0.035999    0.045000    0.045000    0.045000    0.045000
     0.045000    0.045000    0.045000    0.045000    0.045000    0.045000
     0.045000    0.045000    0.045000    0.045000    0.045000    0.045000
     0.045000    0.045000    0.045000    0.045000    0.045001    0.045001
     0.045001    0.045001    0.045002    0.045004    0.045006    0.045008
     0.045011    0.045364    0.153664    0.159961    0.159986    0.159998
     0.159998    0.159999    0.160000    0.160000    0.160908    0.215567
     0.220127    0.224572    0.225817    0.232335    0.233769    0.237646
     0.247457    0.247737    0.249938    0.249957    0.249990    0.249992
     0.249998    0.249998    0.249999    0.249999    0.250000    0.250000
     0.297480    0.304859    0.310741    0.316333    0.324248    0.329203
     0.334370    0.350681    0.355752    0.356571    0.356796    0.357772
     0.359413    0.360760    0.361177    0.364066    0.365021    0.372992
     0.385271    0.386110    0.388564    0.390439    0.397231    0.423824
     0.433110    0.455857    0.466037    0.472675    0.474033    0.476053
     0.483007    0.492684    0.497223    0.499628    0.517757    0.525627
     0.538445    0.559010    0.574920    0.589131    0.592654    0.623793
     0.638948    1.022985

 Minimum Search - Taking P-RFO Step
 Searching for Lamda that Maximizes Along the Constraint modes Only
 Value Taken    Lamda =   0.00000008
 Searching for Lamda that Minimizes Along All other modes
 Value Taken    Lamda =  -0.00011356
 Step Taken.  Stepsize is  0.042305

                             Maximum     Tolerance    Cnvgd?
         Gradient            0.001755       0.000300      NO
         Displacement        0.015346       0.001200      NO
         Energy change     -0.000326       0.000001      NO


 New Cartesian Coordinates Obtained by Inverse Iteration

 Displacement from previous Coordinates is:  0.163406
 ----------------------------------------------------------------
             Standard Nuclear Orientation (Angstroms)
    I     Atom           X                Y                Z
 ----------------------------------------------------------------
    1      C      -7.6022576775     0.4525057479     0.0672486088
    2      C      -7.0056025664     0.0281836979    -1.1100032843
    3      N      -6.9183180395     0.7728229505     1.1599805411
    4      C      -5.6270879434    -0.0678684690    -1.1552902615
    5      C      -5.5957836382     0.6751746524     1.1031899107
    6      C      -4.8927910738     0.2602535466    -0.0229160158
    7      C      -3.4142481692     0.2172653565    -0.0127414548
    8      C      -2.6452934758     1.3449176195    -0.0521638005
    9      C      -2.6943709576    -1.0071382870     0.0082770181
   10      N      -1.2874279834     1.3839258750    -0.0537875507
   11      N      -3.1980824675    -2.2423576597     0.0343900254
   12      C      -1.2681588096    -0.9838243237     0.0052483917
   13      C      -0.5853116806     0.2777651127    -0.0231673579
   14      S      -1.9380052608    -3.2470410064     0.0535442635
   15      N      -0.7185382678    -2.1954171479     0.0304072239
   16      C       0.8533486288     0.4140257310    -0.0208387695
   17      S       1.9770195473    -0.9007195163    -0.0051672408
   18      C       1.5431195061     1.6039782783    -0.0311497504
   19      C       3.3437857967     0.1431399558    -0.0079406242
   20      S       1.0607042116     3.2651427020    -0.0505456840
   21      C       2.9552825847     1.4667432619    -0.0229514399
   22      C       4.6996603710    -0.3655036896    -0.0010503478
   23      C       2.7426310355     3.7521935784    -0.0458345224
   24      C       3.6249581369     2.7373656074    -0.0319997024
   25      N       5.7517809082     0.4017184700    -0.0178280844
   26      S       5.0709563185    -2.0659461970     0.0263965955
   27      C       6.8983650044    -0.3346729420    -0.0070568840
   28      C       6.7408670156    -1.6807925212     0.0165811460
   29      H      -8.6803619421     0.5421470997     0.1357332815
   30      H      -7.6110020950    -0.2190235557    -1.9703049610
   31      H      -5.1231615936    -0.3977705258    -2.0539158963
   32      H      -5.0524126972     0.9398993153     2.0043454030
   33      H      -3.1291259025     2.3136600747    -0.0827443805
   34      H       2.9742817674     4.8053644552    -0.0559560578
   35      H       4.6964733256     2.8464164665    -0.0289918081
   36      H       7.8499077853     0.1742759615    -0.0168687014
   37      H       7.4965265197    -2.4461768434     0.0284648532
 ----------------------------------------------------------------
 Molecular Point Group                 C1    NOp =  1
 Largest Abelian Subgroup              C1    NOp =  1
 Nuclear Repulsion Energy =  2965.2457673255 hartrees
 There are      111 alpha and      111 beta electrons
 Applying Cartesian multipole field
    Component          Value
    ---------          -----
     (2,0,0)        1.00000E-12
     (0,2,0)        2.00000E-11
     (0,0,2)       -3.00000E-11
 Nucleus-field energy     =     0.0000000630 hartrees
 Requested basis set is cc-pVTZ
 There are 342 shells and 982 basis functions
 A cutoff of  1.0D-11 yielded  29209 shell pairs
 There are    231969 function pairs (    303119 Cartesian)
 Smallest overlap matrix eigenvalue = 2.04E-05
 Guess MOs from SCF MO coefficient file
 Reading MOs from coefficient file
 Reading MOs from coefficient file
 Long-range K will be added via erf
 Coulomb attenuation parameter = 0.2 bohr**(-1)
 A restricted hybrid HF-DFT SCF calculation will be
 performed using Pulay DIIS extrapolation
 Exchange:     0.2220 Hartree-Fock + 1.0000 wB97X-D + LR-HF
 Correlation:  1.0000 wB97X-D
 Using SG-2 standard quadrature grid
 Dispersion:   Grimme D
 SCF converges when DIIS error is below 1.0E-08
 Geometry optimization detected.  Setting ReadMinima to 0
 Setting SaveMinima to 0
 using 16 threads for integral computing 
 using 16 threads for integral computing 
 K construction time:  CPU 1090.72 s  wall 71.17 s
 -------------------------------------------------------
 OpenMP BLAS3 based DFT computing Module                
 Release: version 1.0, May 2013, Q-Chem Inc. Pittsburgh 
 -------------------------------------------------------
 ---------------------------------------
  Cycle       Energy         DIIS Error
 ---------------------------------------
    1   -2595.9020624981      9.56E-05
 K construction time:  CPU 1088.66 s  wall 71.06 s
    2   -2595.9045263589      1.19E-05
 K construction time:  CPU 758.34 s  wall 49.44 s
    3   -2595.9045333135      1.39E-05
 K construction time:  CPU 705.02 s  wall 46.09 s
    4   -2595.9045531477      3.14E-06
 K construction time:  CPU 652.65 s  wall 42.53 s
    5   -2595.9045543062      1.93E-06
 K construction time:  CPU 607.45 s  wall 39.59 s
    6   -2595.9045547717      5.36E-07
 K construction time:  CPU 546.14 s  wall 35.55 s
    7   -2595.9045548225      1.89E-07
 K construction time:  CPU 489.66 s  wall 31.78 s
    8   -2595.9045548294      9.37E-08
 K construction time:  CPU 447.07 s  wall 29.06 s
    9   -2595.9045548317      3.54E-08
 K construction time:  CPU 381.58 s  wall 24.70 s
   10   -2595.9045548325      1.69E-08
 K construction time:  CPU 341.43 s  wall 22.05 s
   11   -2595.9045548285      6.24E-09 Convergence criterion met
 ---------------------------------------
 SCF time:  CPU 9577.92 s  wall 638.95 s
 SCF   energy in the final basis set = -2595.9045548285
 Total energy in the final basis set = -2595.9045548285
 
 --------------------------------------------------------------
 
                    Orbital Energies (a.u.)
 --------------------------------------------------------------
 
 Alpha MOs
 -- Occupied --
-89.156 -89.094 -89.093 -89.075 -14.495 -14.488 -14.452 -14.445
-14.437 -10.375 -10.371 -10.362 -10.360 -10.345 -10.341 -10.340
-10.334 -10.329 -10.328 -10.327 -10.327 -10.324 -10.322 -10.317
-10.315 -10.314 -10.303 -10.296  -8.166  -8.109  -8.108  -8.089
 -6.116  -6.110  -6.110  -6.058  -6.057  -6.054  -6.054  -6.052
 -6.051  -6.039  -6.035  -6.031  -1.152  -1.084  -1.072  -1.055
 -1.024  -1.015  -0.957  -0.945  -0.912  -0.909  -0.908  -0.885
 -0.861  -0.844  -0.829  -0.807  -0.775  -0.749  -0.742  -0.733
 -0.723  -0.695  -0.690  -0.678  -0.648  -0.640  -0.623  -0.621
 -0.609  -0.595  -0.588  -0.576  -0.571  -0.569  -0.540  -0.536
 -0.526  -0.523  -0.518  -0.514  -0.511  -0.500  -0.497  -0.491
 -0.489  -0.481  -0.476  -0.462  -0.458  -0.445  -0.437  -0.432
 -0.431  -0.424  -0.403  -0.396  -0.378  -0.374  -0.371  -0.370
 -0.362  -0.350  -0.345  -0.337  -0.333  -0.322  -0.269
 -- Virtual --
 -0.056  -0.010   0.030   0.040   0.051   0.057   0.058   0.064
  0.074   0.102   0.107   0.111   0.115   0.122   0.131   0.136
  0.142   0.145   0.151   0.160   0.164   0.170   0.170   0.179
  0.185   0.196   0.201   0.210   0.212   0.221   0.228   0.238
  0.246   0.252   0.257   0.266   0.272   0.274   0.287   0.289
  0.293   0.296   0.304   0.307   0.310   0.318   0.323   0.326
  0.329   0.331   0.337   0.340   0.345   0.353   0.355   0.357
  0.360   0.368   0.370   0.372   0.376   0.381   0.383   0.387
  0.391   0.393   0.396   0.399   0.404   0.405   0.407   0.409
  0.420   0.424   0.430   0.432   0.433   0.436   0.442   0.445
  0.448   0.450   0.452   0.455   0.457   0.460   0.465   0.466
  0.469   0.470   0.474   0.475   0.480   0.485   0.489   0.491
  0.495   0.497   0.501   0.506   0.511   0.513   0.516   0.520
  0.524   0.524   0.536   0.538   0.541   0.547   0.550   0.552
  0.556   0.564   0.573   0.578   0.588   0.592   0.594   0.594
  0.603   0.605   0.617   0.629   0.639   0.642   0.650   0.657
  0.660   0.664   0.667   0.670   0.674   0.676   0.681   0.688
  0.691   0.697   0.700   0.703   0.712   0.717   0.719   0.725
  0.729   0.735   0.740   0.744   0.745   0.752   0.756   0.763
  0.767   0.772   0.775   0.777   0.780   0.787   0.790   0.800
  0.802   0.808   0.811   0.815   0.821   0.823   0.829   0.832
  0.836   0.839   0.850   0.854   0.858   0.861   0.866   0.868
  0.874   0.874   0.882   0.884   0.891   0.900   0.906   0.912
  0.916   0.923   0.928   0.932   0.942   0.944   0.948   0.955
  0.960   0.970   0.973   0.976   0.977   0.983   0.986   0.989
  0.992   0.995   1.003   1.013   1.015   1.019   1.028   1.035
  1.043   1.046   1.052   1.062   1.065   1.067   1.072   1.074
  1.086   1.090   1.098   1.102   1.112   1.118   1.121   1.127
  1.136   1.139   1.144   1.153   1.165   1.172   1.177   1.181
  1.192   1.194   1.200   1.209   1.219   1.222   1.225   1.232
  1.242   1.251   1.256   1.259   1.268   1.270   1.275   1.281
  1.289   1.291   1.298   1.301   1.315   1.321   1.324   1.331
  1.343   1.355   1.361   1.363   1.366   1.371   1.380   1.388
  1.393   1.406   1.412   1.416   1.425   1.425   1.434   1.443
  1.446   1.447   1.457   1.461   1.467   1.473   1.480   1.489
  1.498   1.501   1.507   1.513   1.532   1.538   1.542   1.544
  1.550   1.564   1.572   1.575   1.579   1.591   1.597   1.598
  1.610   1.614   1.624   1.627   1.631   1.634   1.638   1.647
  1.656   1.660   1.669   1.671   1.678   1.678   1.686   1.687
  1.692   1.696   1.701   1.716   1.720   1.727   1.736   1.741
  1.748   1.761   1.767   1.769   1.779   1.781   1.785   1.794
  1.811   1.817   1.822   1.831   1.846   1.860   1.861   1.871
  1.879   1.881   1.883   1.895   1.912   1.922   1.922   1.925
  1.937   1.945   1.948   1.954   1.959   1.974   1.976   1.987
  1.994   1.994   1.998   2.004   2.020   2.020   2.031   2.032
  2.047   2.055   2.061   2.070   2.073   2.089   2.099   2.104
  2.119   2.125   2.132   2.141   2.154   2.158   2.168   2.170
  2.177   2.180   2.187   2.192   2.205   2.215   2.227   2.231
  2.233   2.239   2.242   2.256   2.262   2.268   2.275   2.282
  2.298   2.307   2.309   2.336   2.343   2.351   2.353   2.361
  2.370   2.375   2.383   2.385   2.397   2.400   2.405   2.416
  2.420   2.428   2.437   2.441   2.446   2.452   2.461   2.473
  2.475   2.482   2.494   2.497   2.501   2.506   2.509   2.524
  2.529   2.535   2.538   2.544   2.548   2.569   2.576   2.591
  2.596   2.604   2.607   2.612   2.614   2.618   2.621   2.630
  2.637   2.649   2.657   2.662   2.667   2.681   2.692   2.710
  2.722   2.733   2.744   2.759   2.764   2.770   2.773   2.778
  2.784   2.788   2.790   2.794   2.801   2.811   2.812   2.821
  2.836   2.840   2.849   2.850   2.859   2.867   2.873   2.886
  2.891   2.900   2.909   2.914   2.921   2.935   2.938   2.940
  2.943   2.948   2.953   2.958   2.963   2.968   2.974   2.976
  2.983   2.991   2.998   3.000   3.011   3.014   3.019   3.022
  3.027   3.040   3.050   3.055   3.057   3.061   3.065   3.066
  3.072   3.074   3.085   3.091   3.095   3.097   3.104   3.110
  3.114   3.117   3.123   3.124   3.126   3.128   3.140   3.143
  3.152   3.158   3.162   3.168   3.171   3.175   3.179   3.180
  3.187   3.189   3.190   3.197   3.200   3.205   3.205   3.213
  3.214   3.221   3.228   3.233   3.236   3.244   3.245   3.249
  3.253   3.261   3.266   3.270   3.278   3.279   3.282   3.287
  3.295   3.301   3.304   3.305   3.311   3.314   3.318   3.327
  3.332   3.335   3.345   3.347   3.355   3.357   3.365   3.370
  3.377   3.382   3.388   3.394   3.408   3.409   3.417   3.422
  3.426   3.433   3.437   3.441   3.454   3.459   3.462   3.469
  3.476   3.479   3.486   3.490   3.497   3.503   3.513   3.518
  3.521   3.527   3.537   3.545   3.552   3.558   3.568   3.570
  3.576   3.582   3.597   3.600   3.604   3.613   3.624   3.627
  3.643   3.648   3.652   3.664   3.672   3.689   3.696   3.710
  3.713   3.721   3.732   3.735   3.739   3.744   3.752   3.764
  3.779   3.785   3.793   3.795   3.797   3.803   3.804   3.813
  3.821   3.831   3.838   3.847   3.853   3.857   3.860   3.864
  3.866   3.892   3.900   3.904   3.919   3.927   3.934   3.943
  3.946   3.951   3.954   3.964   3.967   3.970   3.985   3.987
  3.993   3.994   4.003   4.008   4.020   4.022   4.034   4.043
  4.047   4.058   4.078   4.086   4.092   4.104   4.109   4.123
  4.131   4.143   4.145   4.155   4.165   4.175   4.182   4.188
  4.191   4.202   4.207   4.211   4.215   4.224   4.240   4.244
  4.261   4.266   4.274   4.289   4.294   4.298   4.314   4.318
  4.330   4.338   4.343   4.357   4.362   4.370   4.387   4.392
  4.397   4.402   4.415   4.425   4.436   4.448   4.453   4.460
  4.476   4.482   4.488   4.499   4.507   4.530   4.536   4.541
  4.549   4.552   4.564   4.569   4.578   4.586   4.588   4.597
  4.620   4.629   4.640   4.654   4.668   4.673   4.680   4.693
  4.704   4.710   4.724   4.739   4.752   4.784   4.787   4.799
  4.805   4.811   4.832   4.846   4.850   4.859   4.864   4.871
  4.883   4.895   4.908   4.925   4.927   4.934   4.942   4.948
  4.951   4.960   4.967   4.969   4.983   4.988   4.996   5.009
  5.025   5.031   5.049   5.063   5.076   5.081   5.091   5.097
  5.104   5.131   5.137   5.146   5.153   5.165   5.174   5.193
  5.209   5.235   5.238   5.243   5.253   5.258   5.282   5.284
  5.304   5.325   5.345   5.353   5.362   5.387   5.402   5.411
  5.428   5.437   5.452   5.460   5.473   5.488   5.512   5.527
  5.534   5.549   5.564   5.585   5.611   5.655   5.665   5.666
  5.691   5.705   5.721   5.736   5.769   5.778   5.804   5.824
  5.851   5.892   5.905   5.946   5.958   5.999   6.020   6.109
  6.139   6.156   6.171   6.188   6.205   6.227   6.256   6.290
  6.339   6.352   6.404   6.416   6.450   6.851   6.985   8.004
  8.866   9.597  10.155  10.931  11.156  11.236  11.724  11.980
 12.327  12.391  12.624  12.795  12.828  13.075  13.292  13.428
 13.545  13.556  13.781  13.850  14.272  14.760  15.006
 --------------------------------------------------------------
 
          Ground-State Mulliken Net Atomic Charges

     Atom                 Charge (a.u.)
  ----------------------------------------
      1 C                    -0.070716
      2 C                    -0.098541
      3 N                    -0.151319
      4 C                    -0.113303
      5 C                    -0.096335
      6 C                     0.070385
      7 C                    -0.036978
      8 C                    -0.057145
      9 C                     0.034870
     10 N                    -0.180223
     11 N                    -0.264747
     12 C                     0.026889
     13 C                     0.117886
     14 S                     0.409978
     15 N                    -0.284395
     16 C                    -0.059952
     17 S                     0.130179
     18 C                    -0.007117
     19 C                    -0.021995
     20 S                     0.093361
     21 C                     0.020990
     22 C                     0.037625
     23 C                    -0.162841
     24 C                    -0.160463
     25 N                    -0.183088
     26 S                     0.100340
     27 C                    -0.074885
     28 C                    -0.203456
     29 H                     0.124244
     30 H                     0.129621
     31 H                     0.123229
     32 H                     0.131431
     33 H                     0.127923
     34 H                     0.131612
     35 H                     0.142097
     36 H                     0.129176
     37 H                     0.145665
  ----------------------------------------
  Sum of atomic charges =     0.000000

 -----------------------------------------------------------------
                    Cartesian Multipole Moments
 -----------------------------------------------------------------
    Charge (ESU x 10^10)
                 0.0000
    Dipole Moment (Debye)
         X       1.7336      Y      -1.7498      Z      -1.8033
       Tot       3.0527
    Quadrupole Moments (Debye-Ang)
        XX    -167.4130     XY      -1.3459     YY    -174.4585
        XZ      14.6392     YZ      -0.1097     ZZ    -187.1753
    Octopole Moments (Debye-Ang^2)
       XXX     201.4908    XXY     -71.2591    XYY      52.8248
       YYY      -6.8082    XXZ    -108.1124    XYZ       2.0481
       YYZ       1.5614    XZZ     -15.2371    YZZ     -15.7194
       ZZZ      -2.5455
    Hexadecapole Moments (Debye-Ang^3)
      XXXX  -17125.8780   XXXY    -283.4865   XXYY   -3700.8099
      XYYY      96.9769   YYYY   -3452.5361   XXXZ     830.1633
      XXYZ     -39.3124   XYYZ       0.3589   YYYZ     -16.4266
      XXZZ   -3406.9383   XYZZ      22.5883   YYZZ    -743.5269
      XZZZ      53.2461   YZZZ      -2.8728   ZZZZ    -414.3636
 -----------------------------------------------------------------
 Calculating analytic gradient of the SCF energy
 K construction time:  CPU 2910.53 s  wall 183.81 s
 Gradient of SCF Energy
            1           2           3           4           5           6
    1   0.0001642  -0.0003346   0.0001846   0.0003353  -0.0002732  -0.0006532
    2  -0.0001040   0.0001715  -0.0000631   0.0020707  -0.0003903  -0.0027811
    3   0.0000080  -0.0000889   0.0000539  -0.0006979  -0.0004404   0.0001648
            7           8           9          10          11          12
    1   0.0007949   0.0004266  -0.0001498   0.0000031   0.0004079  -0.0001464
    2   0.0004841   0.0000694   0.0007877   0.0002292  -0.0001658   0.0008236
    3   0.0024661  -0.0019996   0.0003991  -0.0003356   0.0000136  -0.0001134
           13          14          15          16          17          18
    1   0.0000751  -0.0002485  -0.0005698   0.0000227   0.0000454   0.0000009
    2  -0.0000680  -0.0009294  -0.0001997   0.0001166   0.0000794  -0.0000667
    3   0.0002765   0.0000136   0.0000140   0.0001403  -0.0003138  -0.0000218
           19          20          21          22          23          24
    1  -0.0000159   0.0001419  -0.0000967   0.0000048   0.0000162  -0.0001160
    2   0.0000155   0.0000490  -0.0000620   0.0000212   0.0000277   0.0000392
    3   0.0002942  -0.0000334  -0.0000143   0.0002226   0.0000659   0.0000051
           25          26          27          28          29          30
    1   0.0001097  -0.0000002  -0.0000138  -0.0000172   0.0000006   0.0000520
    2  -0.0001197   0.0000429  -0.0000035  -0.0000365   0.0000903  -0.0000717
    3  -0.0002458  -0.0001028   0.0000017   0.0000959   0.0000440  -0.0000438
           31          32          33          34          35          36
    1  -0.0000288   0.0001990  -0.0002787  -0.0000271   0.0000355  -0.0000428
    2  -0.0000562   0.0000021  -0.0000238  -0.0000418  -0.0000269   0.0000646
    3   0.0000466   0.0001633   0.0000339  -0.0000210  -0.0000254   0.0000203
           37
    1  -0.0000080
    2   0.0000255
    3  -0.0000456
 Max gradient component =       2.781E-03
 RMS gradient           =       5.089E-04
 Gradient time:  CPU 3354.92 s  wall 213.61 s
 Geometry Optimization Parameters
   NAtoms,    NIC,     NZ,  NCons,   NDum,   NFix, NCnnct, MaxDiis
       37     280       0       3       0       0       0       0

 Cartesian Hessian Update
 Hessian Updated using BFGS Update


** CONSTRAINED OPTIMIZATION IN DELOCALIZED INTERNAL COORDINATES **
   Searching for a Minimum

   Optimization Cycle:   3

                       Coordinates (Angstroms)
     ATOM                X               Y               Z
      1  C        -7.6022576775    0.4525057479    0.0672486088
      2  C        -7.0056025664    0.0281836979   -1.1100032843
      3  N        -6.9183180395    0.7728229505    1.1599805411
      4  C        -5.6270879434   -0.0678684690   -1.1552902615
      5  C        -5.5957836382    0.6751746524    1.1031899107
      6  C        -4.8927910738    0.2602535466   -0.0229160158
      7  C        -3.4142481692    0.2172653565   -0.0127414548
      8  C        -2.6452934758    1.3449176195   -0.0521638005
      9  C        -2.6943709576   -1.0071382870    0.0082770181
     10  N        -1.2874279834    1.3839258750   -0.0537875507
     11  N        -3.1980824675   -2.2423576597    0.0343900254
     12  C        -1.2681588096   -0.9838243237    0.0052483917
     13  C        -0.5853116806    0.2777651127   -0.0231673579
     14  S        -1.9380052608   -3.2470410064    0.0535442635
     15  N        -0.7185382678   -2.1954171479    0.0304072239
     16  C         0.8533486288    0.4140257310   -0.0208387695
     17  S         1.9770195473   -0.9007195163   -0.0051672408
     18  C         1.5431195061    1.6039782783   -0.0311497504
     19  C         3.3437857967    0.1431399558   -0.0079406242
     20  S         1.0607042116    3.2651427020   -0.0505456840
     21  C         2.9552825847    1.4667432619   -0.0229514399
     22  C         4.6996603710   -0.3655036896   -0.0010503478
     23  C         2.7426310355    3.7521935784   -0.0458345224
     24  C         3.6249581369    2.7373656074   -0.0319997024
     25  N         5.7517809082    0.4017184700   -0.0178280844
     26  S         5.0709563185   -2.0659461970    0.0263965955
     27  C         6.8983650044   -0.3346729420   -0.0070568840
     28  C         6.7408670156   -1.6807925212    0.0165811460
     29  H        -8.6803619421    0.5421470997    0.1357332815
     30  H        -7.6110020950   -0.2190235557   -1.9703049610
     31  H        -5.1231615936   -0.3977705258   -2.0539158963
     32  H        -5.0524126972    0.9398993153    2.0043454030
     33  H        -3.1291259025    2.3136600747   -0.0827443805
     34  H         2.9742817674    4.8053644552   -0.0559560578
     35  H         4.6964733256    2.8464164665   -0.0289918081
     36  H         7.8499077853    0.1742759615   -0.0168687014
     37  H         7.4965265197   -2.4461768434    0.0284648532
   Point Group: c1    Number of degrees of freedom:   105


   Energy is  -2595.904554829

              Constraints and their Current Values
                                        Value     Constraint
   Dihedral:        4   6   7   8      105.000      105.000
   Dihedral:       10  13  16  17     -179.114     -179.114
   Dihedral:       17  19  22  25      179.217      179.217
 Hessian Updated using BFGS Update

 86 Hessian modes will be used to form the next step
  Hessian Eigenvalues:
     0.027113    0.045000    0.045000    0.045000    0.045000    0.045000
     0.045000    0.045000    0.045000    0.045000    0.045000    0.045001
     0.045001    0.045002    0.045003    0.045006    0.045008    0.045010
     0.045075    0.045777    0.156341    0.159964    0.159986    0.159998
     0.159999    0.160000    0.160000    0.160042    0.162133    0.218668
     0.222708    0.224576    0.225852    0.232267    0.233927    0.238853
     0.247457    0.247793    0.249942    0.249958    0.249990    0.249992
     0.261785    0.297535    0.304943    0.315916    0.316369    0.326690
     0.334336    0.349065    0.355562    0.356148    0.356789    0.357315
     0.357397    0.359453    0.360760    0.361196    0.364068    0.365018
     0.375145    0.385329    0.386583    0.390145    0.396764    0.413066
[...]
     27  C         6.8989790374   -0.3314677244   -0.0046239866
     28  C         6.7429046985   -1.6776996721    0.0204776986
     29  H        -8.6797375806    0.5594026388    0.1333048621
     30  H        -7.6111559148   -0.2306062977   -1.9609696411
     31  H        -5.1240680104   -0.4210934913   -2.0400812023
     32  H        -5.0528474001    0.9702862440    2.0006979717
     33  H        -3.1284164747    2.3085880273   -0.0845715825
     34  H         2.9684629764    4.8044697841   -0.0403891633
     35  H         4.6932551469    2.8483897417   -0.0223071548
     36  H         7.8503926309    0.1777802526   -0.0125558308
     37  H         7.4993449771   -2.4422666736    0.0375779186
   Point Group: c1    Number of degrees of freedom:   105


   Energy is  -2595.904574277

              Constraints and their Current Values
                                        Value     Constraint
   Dihedral:        4   6   7   8      105.000      105.000
   Dihedral:       10  13  16  17     -179.114     -179.114
   Dihedral:       17  19  22  25      179.217      179.217
 Hessian Updated using BFGS Update

 98 Hessian modes will be used to form the next step
  Hessian Eigenvalues:
     0.010148    0.028604    0.043758    0.045000    0.045000    0.045000
     0.045000    0.045000    0.045000    0.045000    0.045000    0.045000
     0.045000    0.045000    0.045000    0.045000    0.045001    0.045001
     0.045001    0.045002    0.045003    0.045006    0.045007    0.045010
     0.045071    0.045091    0.045769    0.155066    0.158185    0.159969
     0.159997    0.159999    0.160000    0.160015    0.160078    0.161257
     0.216863    0.220830    0.224580    0.225901    0.232415    0.234287
     0.237622    0.246768    0.247579    0.248724    0.249681    0.249964
     0.249988    0.249995    0.249999    0.250000    0.251599    0.271787
     0.297494    0.304900    0.310243    0.316349    0.324701    0.328171
     0.334349    0.347964    0.355708    0.356589    0.356806    0.357092
     0.358603    0.359458    0.360763    0.361242    0.364120    0.365023
     0.385353    0.386667    0.391413    0.395378    0.406606    0.411114
     0.431165    0.450142    0.457566    0.466978    0.473319    0.474418
     0.481935    0.483762    0.493166    0.499155    0.501020    0.517498
     0.525019    0.538557    0.566155    0.575840    0.588840    0.623451
     0.639120    0.649918

 Minimum Search - Taking Simple RFO Step
 Searching for Lamda that Minimizes Along All modes
 Value Taken    Lamda =   0.00000000
 Step Taken.  Stepsize is  0.002541

                             Maximum     Tolerance    Cnvgd?
         Gradient           0.000047      0.000300     YES
         Displacement       0.001008      0.001200     YES
         Energy change     -0.000001      0.000001     YES

 Final energy is   -2595.90457427736     


 ******************************
 **  OPTIMIZATION CONVERGED  **
 ******************************

                       Coordinates (Angstroms)
     ATOM                X               Y               Z
      1  C        -7.6018458693    0.4654564455    0.0677038160
      2  C        -7.0052578601    0.0225772157   -1.1027699602
      3  N        -6.9176824659    0.7989642156    1.1562433443
      4  C        -5.6275430734   -0.0801531430   -1.1452628212
      5  C        -5.5952938713    0.6932604132    1.1031607221
      6  C        -4.8927461013    0.2557058213   -0.0152951876
      7  C        -3.4151132096    0.2118219582   -0.0051745594
      8  C        -2.6464605922    1.3391078254   -0.0529611281
      9  C        -2.6932617024   -1.0131441230    0.0061550286
     10  N        -1.2883935619    1.3785251563   -0.0581684095
     11  N        -3.1954298587   -2.2486143718    0.0291143702
     12  C        -1.2667028122   -0.9887713031   -0.0035103034
     13  C        -0.5852634517    0.2733888082   -0.0308274738
     14  S        -1.9329908397   -3.2511132283    0.0373504208
     15  N        -0.7143786832   -2.1986454360    0.0134395571
     16  C         0.8533164648    0.4103651236   -0.0287749171
     17  S         1.9783967710   -0.9032090179   -0.0171143591
     18  C         1.5417488965    1.6011411504   -0.0344778340
     19  C         3.3439839453    0.1424209534   -0.0162447609
     20  S         1.0566111868    3.2615156424   -0.0458777514
     21  C         2.9541679238    1.4657081026   -0.0263021348
     22  C         4.7003589478   -0.3647538700   -0.0058017513
     23  C         2.7380395777    3.7509106056   -0.0373200588
     24  C         3.6219982584    2.7373727821   -0.0279815835
     25  N         5.7515549859    0.4038092215   -0.0197789650
     26  S         5.0733991302   -2.0647969452    0.0265094926
     27  C         6.8989790374   -0.3314677244   -0.0046239866
     28  C         6.7429046985   -1.6776996721    0.0204776986
     29  H        -8.6797375806    0.5594026388    0.1333048621
     30  H        -7.6111559148   -0.2306062977   -1.9609696411
     31  H        -5.1240680104   -0.4210934913   -2.0400812023
     32  H        -5.0528474001    0.9702862440    2.0006979717
     33  H        -3.1284164747    2.3085880273   -0.0845715825
     34  H         2.9684629764    4.8044697841   -0.0403891633
     35  H         4.6932551469    2.8483897417   -0.0223071548
     36  H         7.8503926309    0.1777802526   -0.0125558308
     37  H         7.4993449771   -2.4422666736    0.0375779186

Z-matrix Print:
$molecule
0 1
S 
C  1 1.719933
C  2 1.379546 1 111.026460
C  3 1.418921 2 111.892794 1 -0.003663 0
C  4 1.375471 3 114.554466 2 -0.094503 0
C  3 1.436360 2 135.878327 1 -179.857108 0
H  6 1.077009 3 123.622364 2 -0.123850 0
C  6 1.344890 3 111.199823 2 179.869817 0
H  8 1.078467 6 126.569977 3 -179.990337 0
C  5 1.445088 4 125.472113 3 -179.797705 0
N  10 1.310140 5 117.022497 4 -0.951141 0
C  11 1.358649 10 120.790538 5 179.550199 0
H  12 1.083131 11 114.752231 10 179.579992 0
C  12 1.365241 11 125.934812 10 -0.795422 0
C  14 1.421879 12 115.201604 11 1.622671 0
N  15 1.333824 14 127.372168 12 178.890295 0
C  15 1.426800 14 119.525981 12 -1.297416 0
N  17 1.330092 15 113.550545 14 -179.778816 0
C  2 1.448133 1 122.056290 3 -179.989267 0
N  19 1.302266 2 123.318068 1 -179.216987 0
C  20 1.362881 19 111.166264 2 -179.977356 0
H  21 1.079159 20 119.181678 19 179.932006 0
C  21 1.355481 20 116.045601 19 -0.036537 0
H  23 1.075666 21 128.701053 20 179.873518 0
C  14 1.478319 12 122.547864 11 179.436518 0
C  25 1.389084 14 121.811446 12 -104.999998 0
H  26 1.081863 25 120.188269 14 -2.357170 0
C  26 1.382193 25 118.965761 14 177.954997 0
H  28 1.080611 26 121.134798 25 179.931597 0
C  28 1.386387 26 118.595468 25 -0.353016 0
H  30 1.083965 28 120.443489 26 -179.862137 0
N  30 1.328241 28 123.398537 26 -0.039093 0
C  32 1.327668 30 117.405440 28 0.168988 0
H  33 1.084696 32 116.403223 30 -179.966201 0
S  18 1.610365 17 106.286636 15 -0.068670 0
S  23 1.713806 21 109.667471 20 0.025509 0
S  4 1.729836 3 111.766267 2 -179.957250 0
$end

 
 --------------------------------------------------------------
 
                    Orbital Energies (a.u.)
 --------------------------------------------------------------
 
 Alpha MOs
 -- Occupied --
-89.156 -89.094 -89.093 -89.075 -14.495 -14.488 -14.452 -14.445
-14.437 -10.375 -10.370 -10.362 -10.360 -10.345 -10.341 -10.340
-10.334 -10.329 -10.328 -10.327 -10.327 -10.324 -10.322 -10.318
-10.315 -10.314 -10.303 -10.296  -8.166  -8.109  -8.108  -8.089
 -6.116  -6.110  -6.109  -6.058  -6.057  -6.054  -6.054  -6.052
 -6.051  -6.039  -6.035  -6.031  -1.153  -1.084  -1.072  -1.055
 -1.024  -1.015  -0.957  -0.945  -0.912  -0.909  -0.908  -0.885
 -0.861  -0.844  -0.829  -0.807  -0.775  -0.749  -0.743  -0.733
 -0.723  -0.695  -0.690  -0.678  -0.648  -0.640  -0.623  -0.621
 -0.609  -0.595  -0.588  -0.576  -0.571  -0.569  -0.540  -0.536
 -0.526  -0.523  -0.518  -0.514  -0.511  -0.500  -0.497  -0.491
 -0.489  -0.481  -0.476  -0.462  -0.458  -0.445  -0.437  -0.432
 -0.431  -0.424  -0.403  -0.396  -0.378  -0.374  -0.371  -0.370
 -0.362  -0.350  -0.345  -0.337  -0.333  -0.322  -0.269
 -- Virtual --
 -0.056  -0.010   0.029   0.040   0.051   0.057   0.058   0.064
  0.075   0.102   0.107   0.111   0.115   0.122   0.131   0.135
  0.142   0.145   0.151   0.160   0.165   0.170   0.170   0.179
  0.185   0.196   0.201   0.210   0.212   0.221   0.228   0.238
  0.247   0.252   0.257   0.266   0.272   0.274   0.287   0.289
  0.293   0.296   0.304   0.307   0.311   0.318   0.323   0.326
  0.329   0.331   0.337   0.339   0.345   0.353   0.355   0.357
  0.360   0.368   0.370   0.372   0.376   0.381   0.383   0.387
  0.391   0.393   0.396   0.398   0.404   0.405   0.407   0.409
  0.420   0.424   0.430   0.432   0.433   0.436   0.442   0.445
  0.448   0.450   0.452   0.455   0.457   0.460   0.465   0.466
  0.469   0.470   0.474   0.475   0.480   0.485   0.489   0.491
  0.495   0.497   0.501   0.506   0.511   0.513   0.516   0.521
  0.524   0.524   0.536   0.538   0.541   0.547   0.549   0.552
  0.556   0.563   0.573   0.578   0.588   0.592   0.594   0.594
  0.603   0.605   0.617   0.629   0.639   0.642   0.650   0.657
  0.660   0.663   0.667   0.670   0.674   0.676   0.681   0.687
  0.691   0.697   0.700   0.703   0.712   0.717   0.719   0.725
  0.729   0.735   0.740   0.744   0.745   0.752   0.757   0.763
  0.767   0.772   0.775   0.777   0.780   0.786   0.790   0.800
  0.803   0.808   0.811   0.815   0.821   0.823   0.829   0.832
  0.836   0.840   0.850   0.854   0.858   0.861   0.866   0.868
  0.873   0.874   0.882   0.884   0.891   0.900   0.907   0.912
  0.916   0.923   0.928   0.932   0.942   0.944   0.948   0.955
  0.961   0.970   0.974   0.976   0.977   0.984   0.986   0.990
  0.992   0.995   1.003   1.013   1.016   1.019   1.028   1.035
  1.043   1.046   1.052   1.062   1.065   1.067   1.072   1.075
  1.086   1.089   1.098   1.102   1.113   1.118   1.121   1.127
  1.136   1.138   1.144   1.152   1.165   1.172   1.177   1.181
  1.192   1.194   1.199   1.209   1.219   1.222   1.225   1.232
  1.242   1.251   1.256   1.258   1.267   1.270   1.275   1.281
  1.288   1.291   1.298   1.301   1.316   1.321   1.324   1.331
  1.343   1.355   1.361   1.361   1.366   1.371   1.380   1.388
  1.392   1.406   1.412   1.416   1.425   1.425   1.434   1.442
  1.446   1.446   1.457   1.460   1.467   1.473   1.480   1.489
  1.498   1.502   1.507   1.513   1.532   1.538   1.542   1.544
  1.550   1.564   1.572   1.576   1.579   1.591   1.597   1.598
  1.610   1.614   1.624   1.627   1.630   1.634   1.638   1.647
  1.656   1.660   1.669   1.671   1.678   1.678   1.686   1.687
  1.692   1.696   1.701   1.715   1.720   1.727   1.735   1.741
  1.748   1.762   1.767   1.769   1.779   1.780   1.786   1.794
  1.812   1.817   1.821   1.831   1.846   1.860   1.861   1.871
  1.879   1.882   1.883   1.895   1.911   1.922   1.923   1.925
  1.937   1.945   1.948   1.954   1.959   1.974   1.975   1.987
  1.994   1.994   1.998   2.004   2.020   2.020   2.031   2.032
  2.047   2.056   2.061   2.070   2.073   2.089   2.099   2.103
  2.119   2.125   2.132   2.141   2.154   2.157   2.167   2.170
  2.177   2.180   2.187   2.192   2.205   2.215   2.228   2.231
  2.232   2.239   2.243   2.256   2.263   2.268   2.275   2.282
  2.298   2.307   2.309   2.335   2.343   2.351   2.353   2.361
  2.370   2.375   2.383   2.385   2.397   2.399   2.405   2.417
  2.420   2.428   2.436   2.441   2.447   2.452   2.461   2.474
  2.475   2.482   2.493   2.497   2.501   2.506   2.509   2.525
  2.529   2.535   2.538   2.544   2.549   2.569   2.576   2.590
  2.595   2.604   2.607   2.612   2.614   2.618   2.621   2.630
  2.638   2.649   2.657   2.662   2.667   2.680   2.693   2.710
  2.722   2.733   2.744   2.759   2.764   2.770   2.772   2.778
  2.784   2.788   2.790   2.794   2.801   2.810   2.812   2.821
  2.836   2.840   2.848   2.850   2.859   2.866   2.873   2.886
  2.891   2.900   2.909   2.914   2.921   2.935   2.938   2.940
  2.943   2.948   2.953   2.958   2.963   2.968   2.974   2.976
  2.984   2.991   2.999   3.000   3.011   3.014   3.019   3.022
  3.027   3.039   3.050   3.056   3.057   3.060   3.065   3.066
  3.071   3.075   3.084   3.091   3.095   3.098   3.105   3.110
  3.114   3.117   3.122   3.124   3.126   3.128   3.140   3.143
  3.152   3.158   3.162   3.169   3.171   3.175   3.179   3.180
  3.187   3.188   3.189   3.197   3.200   3.205   3.205   3.213
  3.214   3.220   3.227   3.233   3.236   3.244   3.246   3.249
  3.253   3.261   3.266   3.270   3.279   3.279   3.281   3.287
  3.295   3.301   3.303   3.306   3.311   3.314   3.319   3.326
  3.333   3.335   3.345   3.347   3.354   3.357   3.365   3.370
  3.377   3.382   3.388   3.393   3.407   3.409   3.417   3.422
  3.426   3.434   3.437   3.442   3.454   3.459   3.462   3.469
  3.475   3.479   3.485   3.490   3.497   3.503   3.513   3.518
  3.520   3.527   3.537   3.545   3.552   3.558   3.568   3.571
  3.576   3.582   3.597   3.600   3.604   3.613   3.624   3.627
  3.642   3.648   3.651   3.664   3.672   3.689   3.696   3.711
  3.713   3.720   3.732   3.735   3.739   3.744   3.752   3.763
  3.779   3.785   3.793   3.794   3.798   3.803   3.804   3.814
  3.820   3.830   3.838   3.847   3.853   3.857   3.860   3.865
  3.866   3.892   3.900   3.904   3.918   3.928   3.935   3.943
  3.946   3.952   3.955   3.964   3.967   3.969   3.984   3.987
  3.993   3.993   4.003   4.009   4.020   4.022   4.034   4.043
  4.047   4.058   4.079   4.086   4.092   4.104   4.110   4.123
  4.130   4.142   4.145   4.156   4.165   4.175   4.182   4.188
  4.191   4.203   4.207   4.211   4.215   4.225   4.240   4.244
  4.261   4.265   4.274   4.290   4.293   4.298   4.314   4.318
  4.330   4.338   4.343   4.357   4.362   4.369   4.387   4.392
  4.396   4.402   4.415   4.424   4.435   4.449   4.453   4.460
  4.476   4.481   4.488   4.497   4.507   4.529   4.536   4.540
  4.549   4.552   4.564   4.569   4.578   4.585   4.590   4.597
  4.619   4.630   4.640   4.654   4.668   4.673   4.680   4.693
  4.704   4.711   4.724   4.739   4.752   4.784   4.787   4.800
  4.805   4.812   4.832   4.846   4.849   4.859   4.864   4.871
  4.883   4.895   4.908   4.925   4.928   4.933   4.942   4.948
  4.951   4.960   4.968   4.968   4.983   4.988   4.996   5.009
  5.025   5.030   5.049   5.063   5.076   5.081   5.091   5.097
  5.104   5.131   5.137   5.146   5.153   5.165   5.174   5.193
  5.210   5.234   5.238   5.243   5.254   5.258   5.282   5.284
  5.304   5.325   5.344   5.353   5.362   5.388   5.401   5.411
  5.429   5.437   5.453   5.460   5.473   5.488   5.512   5.526
  5.533   5.549   5.564   5.585   5.611   5.655   5.665   5.666
  5.691   5.705   5.721   5.736   5.769   5.778   5.804   5.824
  5.851   5.892   5.903   5.947   5.958   5.999   6.019   6.108
  6.139   6.156   6.169   6.188   6.205   6.226   6.256   6.290
  6.339   6.352   6.404   6.416   6.450   6.851   6.985   8.003
  8.872   9.601  10.155  10.931  11.155  11.235  11.723  11.986
 12.319  12.391  12.622  12.793  12.828  13.077  13.299  13.425
 13.541  13.554  13.785  13.850  14.270  14.756  15.006
 --------------------------------------------------------------
 
          Ground-State Mulliken Net Atomic Charges

     Atom                 Charge (a.u.)
  ----------------------------------------
      1 C                    -0.070714
      2 C                    -0.098552
      3 N                    -0.151363
      4 C                    -0.113490
      5 C                    -0.097875
      6 C                     0.071780
      7 C                    -0.035817
      8 C                    -0.057261
      9 C                     0.033337
     10 N                    -0.180400
     11 N                    -0.264340
     12 C                     0.027225
     13 C                     0.118081
     14 S                     0.409246
     15 N                    -0.284015
     16 C                    -0.060136
     17 S                     0.130179
     18 C                    -0.007018
     19 C                    -0.021951
     20 S                     0.093408
     21 C                     0.020962
     22 C                     0.037613
     23 C                    -0.162841
     24 C                    -0.160499
     25 N                    -0.183121
     26 S                     0.100286
     27 C                    -0.074872
     28 C                    -0.203425
     29 H                     0.124260
     30 H                     0.129503
     31 H                     0.123234
     32 H                     0.131817
     33 H                     0.128249
     34 H                     0.131592
     35 H                     0.142096
     36 H                     0.129172
     37 H                     0.145651
  ----------------------------------------
  Sum of atomic charges =     0.000000

 -----------------------------------------------------------------
                    Cartesian Multipole Moments
 -----------------------------------------------------------------
    Charge (ESU x 10^10)
                 0.0000
    Dipole Moment (Debye)
         X       1.7332      Y      -1.7645      Z      -1.7821
       Tot       3.0485
    Quadrupole Moments (Debye-Ang)
        XX    -167.3797     XY      -1.1935     YY    -174.5174
        XZ      14.7093     YZ      -0.0539     ZZ    -187.1980
    Octopole Moments (Debye-Ang^2)
       XXX     201.1368    XXY     -72.3091    XYY      53.0642
       YYY      -6.2355    XXZ    -106.7397    XYZ       2.1284
       YYZ       2.0977    XZZ     -15.2265    YZZ     -15.6592
       ZZZ      -1.1866
    Hexadecapole Moments (Debye-Ang^3)
      XXXX  -17118.9994   XXXY    -270.6839   XXYY   -3704.2990
      XYYY     100.9917   YYYY   -3456.2717   XXXZ     832.8849
      XXYZ     -42.5631   XYYZ       3.0439   YYYZ     -20.4307
      XXZZ   -3406.4827   XYZZ      24.5810   YYZZ    -743.6115
      XZZZ      52.7817   YZZZ      -8.5285   ZZZZ    -412.5883
 -----------------------------------------------------------------
Archival summary:
1\1\mn169\OPT\ProcedureUnspecified\BasisUnspecified\45199\afmv_a\FriJun216:35:052017FriJun216:35:052017\0\\#,OPT,ProcedureUnspecified,BasisUnspecified,\\0,1\S\C,1,1.71993\C,2,1.37955,1,111.026\C,3,1.41892,2,111.893,1,-0.00366313,0\C,4,1.37547,3,114.554,2,-0.0945026,0\C,3,1.43636,2,135.878,1,-179.857,0\H,6,1.07701,3,123.622,2,-0.12385,0\C,6,1.34489,3,111.2,2,179.87,0\H,8,1.07847,6,126.57,3,-179.99,0\C,5,1.44509,4,125.472,3,-179.798,0\N,10,1.31014,5,117.022,4,-0.951141,0\C,11,1.35865,10,120.791,5,179.55,0\H,12,1.08313,11,114.752,10,179.58,0\C,12,1.36524,11,125.935,10,-0.795422,0\C,14,1.42188,12,115.202,11,1.62267,0\N,15,1.33382,14,127.372,12,178.89,0\C,15,1.4268,14,119.526,12,-1.29742,0\N,17,1.33009,15,113.551,14,-179.779,0\C,2,1.44813,1,122.056,3,-179.989,0\N,19,1.30227,2,123.318,1,-179.217,0\C,20,1.36288,19,111.166,2,-179.977,0\H,21,1.07916,20,119.182,19,179.932,0\C,21,1.35548,20,116.046,19,-0.0365373,0\H,23,1.07567,21,128.701,20,179.874,0\C,14,1.47832,12,122.548,11,179.437,0\C,25,1.38908,14,121.811,12,-105,0\H,26,1.08186,25,120.188,14,-2.35717,0\C,26,1.38219,25,118.966,14,177.955,0\H,28,1.08061,26,121.135,25,179.932,0\C,28,1.38639,26,118.595,25,-0.353016,0\H,30,1.08396,28,120.443,26,-179.862,0\N,30,1.32824,28,123.399,26,-0.0390926,0\C,32,1.32767,30,117.405,28,0.168988,0\H,33,1.0847,32,116.403,30,-179.966,0\S,18,1.61037,17,106.287,15,-0.0686696,0\S,23,1.71381,21,109.667,20,0.0255086,0\S,4,1.72984,3,111.766,2,-179.957,0\\\@

 Total job time:  6041.02s(wall), 91436.81s(cpu) 
 Fri Jun  2 16:35:05 2017

        *************************************************************
        *                                                           *
        *  Thank you very much for using Q-Chem.  Have a nice day.  *
        *                                                           *
        *************************************************************


0 sent ACK to 0 
now end server 0 ... 
cleanup process ... done
