
Running Job 1 of 1 C271_1/C271_120.qcin
qchem C271_1/C271_120.qcin_569.0 /tmpu/cab_g/afmv_a/scratch_qchem/qchem569/ 1
/tmpu/appuserlic/qchem4.4/parallel-MPICH/bin/mpi/mpirun_qchem -machinefile /tmpu/appuserlic/qchem4.4/parallel-MPICH/bin/mpi/machines -np 1 /tmpu/appuserlic/qchem4.4/parallel-MPICH/exe/qcprog.exe C271_1/C271_120.qcin_569.0 /tmpu/cab_g/afmv_a/scratch_qchem/qchem569/

Process 0 of 1 is on mn169 - thread support 0
initial socket setup ...start
initial socket setup ...done 
now start server 0 ... 
Check license passed

                  Welcome to Q-Chem
     A Quantum Leap Into The Future Of Chemistry


 Q-Chem 4.4, Q-Chem, Inc., Pleasanton, CA (2016)

 Y. Shao,  Z. Gan,  E. Epifanovsky,  A. T. B. Gilbert,  M. Wormit,  
 J. Kussmann,  A. W. Lange,  A. Behn,  J. Deng,  X. Feng,  D. Ghosh,  
 M. Goldey,  P. R. Horn,  L. D. Jacobson,  I. Kaliman,  F. Rob,  
 R. Z. Khaliullin,  T. Kus,  A. Landau,  J. Liu,  E. I. Proynov,  Y. M. Rhee,  
 R. M. Richard,  M. A. Rohrdanz,  R. P. Steele,  E. J. Sundstrom,  
 H. L. Woodcock III,  P. M. Zimmerman,  D. Zuev,  B. Albrecht,  E. Alguire,  
 B. Austin,  S. A. Baeppler,  G. J. O. Beran,  Y. A. Bernard,  E. Berquist,  
 K. Brandhorst,  K. B. Bravaya,  S. T. Brown,  D. Casanova,  C.-M. Chang,  
 Y. Chen,  S. H. Chien,  K. D. Closser,  M. P. Coons,  D. L. Crittenden,  
 S. Dasgupta,  M. Diedenhofen,  R. A. DiStasio Jr.,  H. Do,  A. D. Dutoi,  
 R. G. Edgar,  P.-T. Fang,  S. Fatehi,  Q. Feng,  L. Fusti-Molnar,  
 A. Ghysels,  A. Golubeva-Zadorozhnaya,  J. Gomes,  A. Gunina,  
 M. W. D. Hanson-Heine,  P. H. P. Harbach,  A. W. Hauser,  J. E. Herr,  
 E. G. Hohenstein,  Z. C. Holden,  K. Hui,  T.-C. Jagau,  H. Ji,  B. Kaduk,  
 K. Khistyaev,  Jaehoon Kim,  Jihan Kim,  R. A. King,  P. Klunzinger,  
 K. Koh,  D. Kosenkov,  T. Kowalczyk,  C. M. Krauter,  A. Kunitsa,  
 K. U. Lao,  A. Laurent,  K. V. Lawler,  J. Lee,  D. Lefrancois,  S. Lehtola,  
 S. V. Levchenko,  C. Y. Lin,  Y.-S. Lin,  F. Liu,  E. Livshits,  
 R. C. Lochan,  A. Luenser,  P. Manohar,  S. F. Manzer,  S.-P. Mao,  Y. Mao,  
 N. Mardirossian,  A. V. Marenich,  L. A. Martinez-Martinez,  S. A. Maurer,  
 N. J. Mayhall,  J.-M. Mewes,  A. F. Morrison,  K. Nanda,  T. S. Nguyen-Beck,  
 C. M. Oana,  R. Olivares-Amaya,  D. P. O'Neill,  J. A. Parkhill,  
 T. M. Perrine,  R. Peverati,  P. A. Pieniazek,  F. Plasser,  A. Prociuk,  
 D. R. Rehn,  E. Rosta,  N. J. Russ,  N. Sergueev,  S. M. Sharada,  
 S. Sharma,  D. W. Small,  A. Sodt,  T. Stauch,  T. Stein,  D. Stuck,  
 Y.-C. Su,  A. J. W. Thom,  T. Tsuchimochi,  L. Vogt,  O. Vydrov,  T. Wang,  
 M. A. Watson,  J. Wenzel,  A. White,  C. F. Williams,  V. Vanovschi,  
 K. Yao,  S. Yeganeh,  S. R. Yost,  Z.-Q. You,  I. Y. Zhang,  X. Zhang,  
 Y. Zhao,  B. R. Brooks,  G. K. L. Chan,  D. M. Chipman,  C. J. Cramer,  
 W. A. Goddard III,  M. S. Gordon,  W. J. Hehre,  A. Klamt,  
 H. F. Schaefer III,  M. W. Schmidt,  C. D. Sherrill,  D. G. Truhlar,  
 A. Warshel,  X. Xu,  A. Aspuru-Guzik,  R. Baer,  A. T. Bell,  N. A. Besley,  
 J.-D. Chai,  A. Dreuw,  B. D. Dunietz,  T. R. Furlani,  S. R. Gwaltney,  
 C.-P. Hsu,  Y. Jung,  J. Kong,  D. S. Lambrecht,  W. Liang,  C. Ochsenfeld,  
 V. A. Rassolov,  L. V. Slipchenko,  J. E. Subotnik,  T. Van Voorhis,  
 J. M. Herbert,  A. I. Krylov,  P. M. W. Gill,  M. Head-Gordon

 Contributors to earlier versions of Q-Chem not listed above: 
 R. D. Adamson,  J. Baker,  E. F. C. Byrd,  A. K. Chakraborty,  C.-L. Cheng,  
 H. Dachsel,  R. J. Doerksen,  G. Hawkins,  A. Heyden,  S. Hirata,  
 G. Kedziora,  F. J. Keil,  C. Kelley,  P. P. Korambath,  W. Kurlancheek,  
 A. M. Lee,  M. S. Lee,  D. Liotard,  I. Lotan,  P. E. Maslen,  N. Nair,  
 D. Neuhauser,  R. Olson,  B. Peters,  J. Ritchie,  N. E. Schultz,  
 N. Shenvi,  A. C. Simmonett,  K. S. Thanthiriwatte,  Q. Wu,  W. Zhang

 Please cite Q-Chem as follows:
 Y. Shao et al., Mol. Phys. 113, 184-215 (2015)
 DOI: 10.1080/00268976.2014.952696

 Q-Chem 4.4.2 for Intel X86 Linux

 Parts of Q-Chem use Armadillo 5.200.1 (Boston Tea Smuggler).
 http://arma.sourceforge.net/

 Q-Chem begins on Fri Jun  2 06:26:56 2017  

Host: 
0

     Scratch files written to /tmpu/cab_g/afmv_a/scratch_qchem/qchem569//
 Dec716 11556_ 22328  22283 4050   
 Parallel job on  1  processors
Processing $rem in /tmpu/appuserlic/qchem4.4/parallel-MPICH/config/preferences.
 MEM_TOTAL  2000 
FILE_GEOM_ORG=        593

Checking the input file for inconsistencies... 	...done.

--------------------------------------------------------------
User input:
--------------------------------------------------------------
$comment
OPTIMIZATION
$end

$rem
JOBTYPE OPT
EXCHANGE omegaB97X-D
BASIS cc-pVTZ
$end

$molecule
0 1
C          0.00000        0.00000        0.00000
C          1.38508        0.00000        0.00000
N         -0.72771       -1.11322        0.00000
C          2.04720       -1.21160       -0.00386
C         -0.08136       -2.27149       -0.00595
C          1.30925       -2.38901       -0.00649
C          1.96927       -3.70493        0.02329
C          1.75215       -4.59950        1.03481
C          2.87912       -4.14699       -0.98108
N          2.32168       -5.82343        1.15786
N          3.27890       -3.48400       -2.06787
C          3.48883       -5.43315       -0.86187
C          3.16858       -6.26504        0.25978
S          4.31984       -4.44308       -2.83560
N          4.32748       -5.71875       -1.85385
C          3.72007       -7.58144        0.48028
S          4.86834       -8.38056       -0.53887
C          3.41180       -8.39736        1.54445
C          4.92198       -9.78079        0.46026
S          2.36379       -8.22850        2.91135
C          4.08460       -9.64554        1.54792
C          5.76685      -10.91390        0.14653
C          2.83605       -9.82061        3.46609
C          3.72618      -10.45379        2.68170
N          5.83769      -11.97952        0.89142
S          6.78495      -10.97320       -1.26612
C          6.71154      -12.88649        0.36990
C          7.32169      -12.52933       -0.78643
H         -0.55134        0.93273        0.00000
H          1.92494        0.93597       -0.01293
H          3.12873       -1.25416       -0.02668
H         -0.69553       -3.16348       -0.00579
H          1.06117       -4.35057        1.83022
H          2.40824      -10.19811        4.38189
H          4.13604      -11.43313        2.86135
H          6.87781      -13.82209        0.88169
H          8.03970      -13.08226       -1.36623
$end

$opt
CONSTRAINT
tors 4 6 7 8 120.00000
tors 10 13 16 17 -179.11427
tors 17 19 22 25 179.21698
ENDCONSTRAINT
$end
--------------------------------------------------------------
 ----------------------------------------------------------------
             Standard Nuclear Orientation (Angstroms)
    I     Atom           X                Y                Z
 ----------------------------------------------------------------
    1      C      -7.6016838820     0.5216717074    -0.0009148715
    2      C      -7.0047297564    -0.1997933983    -1.0214933740
    3      N      -6.9139544714     1.1047874114     0.9767481307
    4      C      -5.6297801450    -0.3258011517    -1.0267816781
    5      C      -5.5939224098     0.9754756372     0.9630755518
    6      C      -4.8889118574     0.2722223614    -0.0146781825
    7      C      -3.4186243189     0.1944774212     0.0045305033
    8      C      -2.6352002440     1.3148725810    -0.0345935906
    9      C      -2.7006520137    -1.0357713719     0.0593651554
   10      N      -1.2799916778     1.3451602021    -0.0362580677
   11      N      -3.2024219163    -2.2716139095     0.0969481253
   12      C      -1.2724236759    -1.0182069598     0.0548751150
   13      C      -0.5819559581     0.2362339347     0.0065829850
   14      S      -1.9459631045    -3.2780807141     0.1306483998
   15      N      -0.7249909853    -2.2297197362     0.0933425668
   16      C       0.8556231969     0.3741142920     0.0015222980
   17      S       1.9964780534    -0.9271933418     0.0303689288
   18      C       1.5327794214     1.5714657009    -0.0304570618
   19      C       3.3505624939     0.1345299610    -0.0009522413
   20      S       1.0269289447     3.2260060199    -0.0736530965
   21      C       2.9457605000     1.4527114910    -0.0331221397
   22      C       4.7115185357    -0.3593999815    -0.0023543848
   23      C       2.7022633751     3.7343565992    -0.0940114375
   24      C       3.5993799089     2.7328140135    -0.0693056624
   25      N       5.7538511033     0.4200636503    -0.0398332776
   26      S       5.1026558665    -2.0565864497     0.0444836681
   27      C       6.9090241565    -0.3036524069    -0.0384918388
   28      C       6.7680501884    -1.6509880991     0.0034394125
   29      H      -8.6783151855     0.6378773603     0.0354489996
   30      H      -7.6149048029    -0.6633494912    -1.7833713214
   31      H      -5.1270005681    -0.9003758118    -1.7943205396
   32      H      -5.0562480276     1.4590301029     1.7692593472
   33      H      -3.1000566854     2.2923054057    -0.0596960871
   34      H       2.9229239904     4.7899098262    -0.1305294328
   35      H       4.6698052072     2.8486236182    -0.0813054051
   36      H       7.8588653933     0.2079308222    -0.0702140973
   37      H       7.5334250560    -2.4070173764     0.0111224437
 ----------------------------------------------------------------
 Molecular Point Group                 C1    NOp =  1
 Largest Abelian Subgroup              C1    NOp =  1
 Nuclear Repulsion Energy =  2964.9146055694 hartrees
 There are      111 alpha and      111 beta electrons
 Requested basis set is cc-pVTZ
 There are 342 shells and 982 basis functions

 Total QAlloc Memory Limit   2000 MB
 Mega-Array Size        61 MB
 MEM_STATIC part        62 MB
 A cutoff of  1.0D-11 yielded  29199 shell pairs
 There are    231697 function pairs (    302689 Cartesian)
 
 -------------------------------------------------------
 OpenMP Integral Computing Module                       
 Release: version 1.0, May 2013, Q-Chem Inc. Pittsburgh 
 -------------------------------------------------------
 Integral Job Info:
 Integral job number is                      11
 Integral operator is                         1
 short-range coefficients              22203600
 long-range coefficients              100000000
 Omega coefficients                         200
 if combine SR and LR in K                    1
 Integral screening is                        0
 Integral computing path is                   2
 max size of driver memory is            800000
 size of driver memory is                776718
 size of scratch memory is             26248924
 max col of scratch BK array              10000
 max len of scratch array in speh3          662
 max len of scratch index in speh4           32
 max int batch size is                      520
 min int batch size is                       52
 fixed nKL is                                52
 max L of basis functions is                  3
 order of int derivative is                   0
 number of shells is                        342
 number of basis is                        1131
 number of cartesian basis is              1131
 number of contracted shell pairs         29199
 number of primitive shell pairs          92269
 maxK2 (contraction) of shell pair          121
 max number of K2 of shell pair               1
 max number of CS2 of shell pair           3968
 max number of PS2 of shell pair          11725
 mem total for path MDJ                  808052
 -------------------------------------------------------
 Smallest overlap matrix eigenvalue = 2.06E-05

 Scale SEOQF with 1.000000e-02/1.000000e-01/1.000000e-01

 Standard Electronic Orientation quadrupole field applied
 Nucleus-field energy     =     0.0000000647 hartrees
 Guess from superposition of atomic densities
 Warning:  Energy on first SCF cycle will be non-variational
 Long-range K will be added via erf
 Coulomb attenuation parameter = 0.2 bohr**(-1)
 A restricted hybrid HF-DFT SCF calculation will be
 performed using Pulay DIIS extrapolation
 Exchange:     0.2220 Hartree-Fock + 1.0000 wB97X-D + LR-HF
 Correlation:  1.0000 wB97X-D
 Using SG-2 standard quadrature grid
 Dispersion:   Grimme D
 SCF converges when DIIS error is below 1.0E-08
 using 16 threads for integral computing 
 using 16 threads for integral computing 
 K construction time:  CPU 72.17 s  wall 4.70 s
 -------------------------------------------------------
 OpenMP BLAS3 based DFT computing Module                
 Release: version 1.0, May 2013, Q-Chem Inc. Pittsburgh 
 -------------------------------------------------------
 ---------------------------------------
  Cycle       Energy         DIIS Error
 ---------------------------------------
    1   -2605.8786792049      1.87E-02
 K construction time:  CPU 1092.04 s  wall 71.28 s
    2   -2595.6590235004      1.38E-03
 K construction time:  CPU 1035.85 s  wall 67.66 s
    3   -2595.6512028233      1.52E-03
 K construction time:  CPU 991.80 s  wall 64.70 s
    4   -2595.8972270517      2.54E-04
 K construction time:  CPU 919.98 s  wall 59.99 s
    5   -2595.9033178497      1.39E-04
 K construction time:  CPU 867.18 s  wall 56.57 s
    6   -2595.9054169775      4.41E-05
 K construction time:  CPU 819.01 s  wall 53.46 s
    7   -2595.9056318857      2.02E-05
 K construction time:  CPU 768.93 s  wall 50.15 s
    8   -2595.9056892398      6.42E-06
 K construction time:  CPU 736.25 s  wall 47.96 s
    9   -2595.9057013357      3.34E-06
 K construction time:  CPU 701.95 s  wall 45.67 s
   10   -2595.9057048146      1.10E-06
 K construction time:  CPU 634.24 s  wall 41.22 s
   11   -2595.9057052048      7.04E-07
 K construction time:  CPU 590.41 s  wall 38.38 s
   12   -2595.9057053220      2.11E-07
 K construction time:  CPU 526.01 s  wall 34.20 s
   13   -2595.9057053354      9.35E-08
 K construction time:  CPU 464.54 s  wall 30.13 s
   14   -2595.9057053372      3.14E-08
 K construction time:  CPU 390.74 s  wall 25.31 s
   15   -2595.9057053376      1.45E-08
 K construction time:  CPU 1091.55 s  wall 71.28 s
   16   -2595.9057053341      4.83E-09 Convergence criterion met
 ---------------------------------------
 SCF time:  CPU 15581.16 s  wall 1038.74 s
 SCF   energy in the final basis set = -2595.9057053341
 Total energy in the final basis set = -2595.9057053341
 
 --------------------------------------------------------------
 
                    Orbital Energies (a.u.)
 --------------------------------------------------------------
 
 Alpha MOs
 -- Occupied --
-89.156 -89.094 -89.093 -89.075 -14.495 -14.489 -14.452 -14.445
-14.437 -10.375 -10.370 -10.363 -10.361 -10.346 -10.341 -10.340
-10.334 -10.329 -10.328 -10.328 -10.326 -10.325 -10.322 -10.318
-10.314 -10.314 -10.302 -10.296  -8.166  -8.109  -8.108  -8.089
 -6.116  -6.111  -6.110  -6.058  -6.057  -6.055  -6.054  -6.052
 -6.051  -6.039  -6.035  -6.031  -1.153  -1.084  -1.073  -1.055
 -1.024  -1.016  -0.956  -0.946  -0.912  -0.909  -0.907  -0.886
 -0.861  -0.844  -0.829  -0.807  -0.775  -0.750  -0.744  -0.731
 -0.724  -0.695  -0.689  -0.678  -0.648  -0.640  -0.623  -0.622
 -0.609  -0.595  -0.587  -0.577  -0.570  -0.570  -0.540  -0.537
 -0.526  -0.523  -0.518  -0.514  -0.511  -0.501  -0.496  -0.491
 -0.489  -0.482  -0.476  -0.462  -0.458  -0.446  -0.437  -0.432
 -0.431  -0.425  -0.404  -0.396  -0.380  -0.373  -0.371  -0.370
 -0.362  -0.353  -0.345  -0.337  -0.330  -0.321  -0.269
 -- Virtual --
 -0.057  -0.010   0.029   0.038   0.049   0.057   0.060   0.064
  0.074   0.102   0.107   0.112   0.116   0.123   0.131   0.135
  0.141   0.145   0.150   0.161   0.169   0.170   0.170   0.180
  0.187   0.197   0.202   0.211   0.214   0.224   0.228   0.240
  0.247   0.252   0.258   0.266   0.271   0.274   0.287   0.290
  0.295   0.297   0.304   0.308   0.311   0.318   0.323   0.326
  0.329   0.333   0.338   0.338   0.346   0.351   0.354   0.358
  0.359   0.367   0.370   0.373   0.378   0.381   0.385   0.388
  0.391   0.394   0.398   0.399   0.403   0.405   0.407   0.411
  0.419   0.425   0.429   0.432   0.433   0.436   0.441   0.444
  0.449   0.451   0.453   0.458   0.459   0.461   0.465   0.468
  0.470   0.472   0.473   0.475   0.480   0.487   0.489   0.491
  0.494   0.500   0.502   0.506   0.509   0.512   0.516   0.520
  0.524   0.525   0.533   0.539   0.541   0.545   0.549   0.552
  0.556   0.562   0.574   0.577   0.586   0.593   0.594   0.598
  0.603   0.606   0.614   0.628   0.635   0.643   0.649   0.659
  0.660   0.660   0.667   0.668   0.672   0.678   0.682   0.686
  0.690   0.694   0.698   0.704   0.713   0.715   0.720   0.728
  0.729   0.735   0.740   0.744   0.746   0.755   0.762   0.764
  0.767   0.773   0.778   0.780   0.783   0.786   0.791   0.800
  0.803   0.805   0.812   0.815   0.821   0.823   0.830   0.832
  0.835   0.839   0.844   0.853   0.857   0.860   0.865   0.870
  0.872   0.878   0.884   0.885   0.888   0.901   0.905   0.914
  0.920   0.927   0.929   0.939   0.941   0.947   0.948   0.954
  0.964   0.966   0.972   0.975   0.978   0.985   0.987   0.990
  0.993   0.996   1.011   1.012   1.016   1.026   1.030   1.040
  1.044   1.047   1.051   1.059   1.066   1.069   1.073   1.079
  1.086   1.091   1.097   1.106   1.110   1.115   1.119   1.130
  1.134   1.138   1.144   1.147   1.165   1.173   1.177   1.180
  1.188   1.193   1.198   1.207   1.220   1.222   1.224   1.233
  1.239   1.247   1.252   1.258   1.264   1.273   1.278   1.280
  1.282   1.293   1.299   1.301   1.317   1.321   1.323   1.329
  1.339   1.350   1.357   1.361   1.367   1.367   1.380   1.387
  1.391   1.408   1.411   1.417   1.424   1.425   1.433   1.434
  1.442   1.446   1.457   1.460   1.463   1.471   1.477   1.487
  1.498   1.500   1.502   1.510   1.529   1.536   1.542   1.544
  1.550   1.566   1.572   1.579   1.587   1.592   1.596   1.602
  1.610   1.613   1.622   1.624   1.629   1.633   1.636   1.642
  1.655   1.660   1.668   1.670   1.679   1.681   1.683   1.687
  1.693   1.696   1.700   1.712   1.718   1.726   1.733   1.742
  1.748   1.753   1.758   1.767   1.777   1.779   1.784   1.795
  1.812   1.813   1.822   1.833   1.843   1.860   1.861   1.871
  1.876   1.881   1.882   1.894   1.908   1.919   1.923   1.925
  1.937   1.946   1.949   1.959   1.961   1.971   1.974   1.991
  1.993   1.994   2.001   2.004   2.019   2.021   2.031   2.032
  2.043   2.060   2.066   2.073   2.075   2.092   2.099   2.103
  2.120   2.124   2.128   2.135   2.156   2.160   2.167   2.171
  2.176   2.182   2.188   2.193   2.206   2.212   2.225   2.233
  2.235   2.240   2.245   2.256   2.269   2.272   2.281   2.294
  2.297   2.309   2.312   2.335   2.346   2.352   2.359   2.365
  2.371   2.380   2.382   2.385   2.395   2.400   2.408   2.419
  2.421   2.425   2.435   2.439   2.446   2.451   2.464   2.472
  2.476   2.481   2.496   2.499   2.502   2.505   2.512   2.520
  2.525   2.538   2.543   2.547   2.557   2.570   2.580   2.584
  2.596   2.604   2.607   2.611   2.615   2.620   2.625   2.629
  2.644   2.647   2.655   2.661   2.668   2.684   2.694   2.708
  2.719   2.734   2.741   2.747   2.761   2.766   2.767   2.778
  2.784   2.787   2.789   2.793   2.799   2.810   2.812   2.818
  2.829   2.836   2.841   2.853   2.859   2.866   2.869   2.881
  2.891   2.893   2.904   2.914   2.925   2.934   2.937   2.938
  2.943   2.948   2.952   2.956   2.961   2.969   2.974   2.976
  2.984   2.987   2.995   3.007   3.010   3.014   3.018   3.022
  3.036   3.040   3.051   3.055   3.060   3.061   3.066   3.067
  3.072   3.075   3.081   3.091   3.093   3.094   3.101   3.104
  3.110   3.117   3.123   3.124   3.129   3.137   3.139   3.143
  3.150   3.155   3.164   3.165   3.173   3.175   3.177   3.184
  3.187   3.188   3.193   3.198   3.199   3.204   3.206   3.213
  3.217   3.220   3.229   3.235   3.243   3.246   3.247   3.249
  3.253   3.260   3.263   3.269   3.276   3.279   3.282   3.289
  3.295   3.298   3.303   3.307   3.312   3.314   3.319   3.322
  3.331   3.334   3.343   3.348   3.352   3.360   3.364   3.371
  3.374   3.380   3.385   3.388   3.402   3.408   3.415   3.419
  3.427   3.432   3.438   3.449   3.452   3.460   3.464   3.469
  3.474   3.482   3.484   3.490   3.497   3.501   3.508   3.516
  3.521   3.526   3.536   3.540   3.554   3.557   3.571   3.574
  3.577   3.585   3.595   3.599   3.604   3.613   3.622   3.626
  3.644   3.650   3.650   3.664   3.674   3.691   3.699   3.710
  3.717   3.723   3.733   3.733   3.738   3.749   3.756   3.760
  3.780   3.784   3.788   3.794   3.799   3.804   3.804   3.814
  3.818   3.829   3.834   3.840   3.854   3.856   3.861   3.867
  3.868   3.887   3.900   3.905   3.913   3.929   3.934   3.939
  3.946   3.952   3.962   3.962   3.966   3.966   3.986   3.987
  3.988   4.001   4.003   4.011   4.020   4.027   4.036   4.047
  4.051   4.053   4.081   4.086   4.091   4.105   4.116   4.125
  4.128   4.141   4.148   4.159   4.161   4.175   4.180   4.186
  4.188   4.200   4.205   4.211   4.215   4.227   4.241   4.248
  4.263   4.272   4.274   4.289   4.293   4.296   4.312   4.317
  4.322   4.338   4.345   4.352   4.354   4.374   4.387   4.389
  4.394   4.410   4.414   4.418   4.441   4.443   4.451   4.458
  4.466   4.479   4.485   4.497   4.507   4.525   4.527   4.533
  4.548   4.553   4.568   4.571   4.580   4.589   4.599   4.607
  4.613   4.635   4.641   4.644   4.672   4.674   4.683   4.692
  4.701   4.712   4.725   4.739   4.750   4.783   4.788   4.794
  4.801   4.814   4.832   4.847   4.848   4.854   4.871   4.873
  4.885   4.899   4.904   4.925   4.933   4.936   4.940   4.947
  4.949   4.960   4.966   4.972   4.987   4.988   5.000   5.009
  5.025   5.032   5.049   5.058   5.078   5.084   5.091   5.097
  5.109   5.133   5.135   5.146   5.153   5.170   5.173   5.195
  5.213   5.234   5.238   5.243   5.255   5.261   5.280   5.283
  5.307   5.321   5.341   5.353   5.362   5.387   5.399   5.411
  5.433   5.434   5.455   5.460   5.470   5.486   5.513   5.525
  5.531   5.547   5.559   5.584   5.612   5.654   5.662   5.665
  5.695   5.705   5.724   5.736   5.763   5.778   5.805   5.828
  5.853   5.888   5.898   5.948   5.960   6.001   6.012   6.104
  6.134   6.150   6.165   6.188   6.206   6.226   6.265   6.288
  6.341   6.353   6.400   6.420   6.463   6.853   6.996   8.012
  8.931   9.684  10.164  10.937  11.164  11.226  11.737  12.032
 12.339  12.380  12.647  12.803  12.829  13.098  13.339  13.417
 13.537  13.587  13.737  13.843  14.268  14.740  15.000
 --------------------------------------------------------------
 
          Ground-State Mulliken Net Atomic Charges

     Atom                 Charge (a.u.)
  ----------------------------------------
      1 C                    -0.071478
      2 C                    -0.099396
      3 N                    -0.152123
      4 C                    -0.125365
      5 C                    -0.114063
      6 C                     0.094544
      7 C                    -0.002278
      8 C                    -0.075922
      9 C                     0.020633
     10 N                    -0.181223
     11 N                    -0.268966
     12 C                     0.026249
     13 C                     0.120561
     14 S                     0.411004
     15 N                    -0.284089
     16 C                    -0.062015
     17 S                     0.129491
     18 C                    -0.003992
     19 C                    -0.021465
     20 S                     0.094135
     21 C                     0.019430
     22 C                     0.037440
     23 C                    -0.162452
     24 C                    -0.159724
     25 N                    -0.183230
     26 S                     0.099640
     27 C                    -0.074898
     28 C                    -0.203178
     29 H                     0.124685
     30 H                     0.128723
     31 H                     0.122787
     32 H                     0.135364
     33 H                     0.133003
     34 H                     0.131256
     35 H                     0.141982
     36 H                     0.129185
     37 H                     0.145749
  ----------------------------------------
  Sum of atomic charges =     0.000000

 -----------------------------------------------------------------
                    Cartesian Multipole Moments
 -----------------------------------------------------------------
    Charge (ESU x 10^10)
                 0.0000
    Dipole Moment (Debye)
         X       1.7566      Y      -2.1911      Z      -1.5722
       Tot       3.2184
    Quadrupole Moments (Debye-Ang)
        XX    -167.1736     XY       2.2953     YY    -174.4017
        XZ      12.5635     YZ       0.2300     ZZ    -187.6831
    Octopole Moments (Debye-Ang^2)
       XXX     203.7120    XXY     -97.7385    XYY      52.6811
       YYY      -3.2639    XXZ     -98.7110    XYZ      -1.4359
       YYZ      -2.1959    XZZ     -13.6093    YZZ     -15.1310
       ZZZ      -2.5590
    Hexadecapole Moments (Debye-Ang^3)
      XXXX  -17109.7028   XXXY     -63.8985   XXYY   -3739.7633
      XYYY     123.6831   YYYY   -3498.2944   XXXZ     731.1718
      XXYZ     -25.3132   XYYZ      11.6146   YYYZ     -17.7291
      XXZZ   -3406.2049   XYZZ      36.3031   YYZZ    -738.3498
      XZZZ      31.5131   YZZZ       7.2435   ZZZZ    -376.6871
 -----------------------------------------------------------------
 Calculating analytic gradient of the SCF energy
 K construction time:  CPU 2922.92 s  wall 184.69 s
 Gradient of SCF Energy
            1           2           3           4           5           6
    1  -0.0017423   0.0016132   0.0014346  -0.0012041  -0.0018487   0.0035388
    2  -0.0012315   0.0010524   0.0001236   0.0041467   0.0000024  -0.0007737
    3  -0.0013088  -0.0003541   0.0000959  -0.0007015   0.0035763  -0.0001378
            7           8           9          10          11          12
    1  -0.0034476   0.0003954   0.0007392  -0.0012190   0.0019080   0.0001494
    2  -0.0009257  -0.0002498  -0.0000456   0.0009486  -0.0009801   0.0005791
    3  -0.0017832  -0.0025337   0.0038220  -0.0010027  -0.0004104  -0.0000578
           13          14          15          16          17          18
    1   0.0004227  -0.0005043  -0.0006492  -0.0011411   0.0010327   0.0006748
    2  -0.0009778  -0.0003365   0.0001118  -0.0002463  -0.0004381  -0.0003675
    3   0.0001213   0.0000091  -0.0004423   0.0000345  -0.0001013   0.0002770
           19          20          21          22          23          24
    1   0.0004268  -0.0004733  -0.0004519  -0.0001218  -0.0009784   0.0007294
    2   0.0006681   0.0002347  -0.0005735   0.0002884  -0.0006352   0.0017559
    3   0.0002292   0.0000747  -0.0003850  -0.0004537   0.0001086   0.0003437
           25          26          27          28          29          30
    1  -0.0006697  -0.0002375  -0.0004199   0.0005993   0.0001836  -0.0006979
    2   0.0001270  -0.0007777   0.0006516   0.0003283  -0.0001141  -0.0002445
    3   0.0003733   0.0003506  -0.0000576  -0.0000447  -0.0000852   0.0007239
           31          32          33          34          35          36
    1   0.0005073  -0.0007244   0.0013904   0.0003481  -0.0001575   0.0004980
    2  -0.0010709   0.0001153   0.0001788   0.0002393  -0.0007225  -0.0007618
    3   0.0002370  -0.0013073   0.0013188  -0.0002191  -0.0000927  -0.0001014
           37
    1   0.0000970
    2  -0.0000794
    3  -0.0001158
 Max gradient component =       4.147E-03
 RMS gradient           =       1.091E-03
 Gradient time:  CPU 3367.95 s  wall 214.40 s
 Geometry Optimization Parameters
   NAtoms,    NIC,     NZ,  NCons,   NDum,   NFix, NCnnct, MaxDiis
       37     280       0       3       0       0       0       0


** CONSTRAINED OPTIMIZATION IN DELOCALIZED INTERNAL COORDINATES **
   Searching for a Minimum

   Optimization Cycle:   1

                       Coordinates (Angstroms)
     ATOM                X               Y               Z
      1  C        -7.6016838820    0.5216717074   -0.0009148715
      2  C        -7.0047297564   -0.1997933983   -1.0214933740
      3  N        -6.9139544714    1.1047874114    0.9767481307
      4  C        -5.6297801450   -0.3258011517   -1.0267816781
      5  C        -5.5939224098    0.9754756372    0.9630755518
      6  C        -4.8889118574    0.2722223614   -0.0146781825
      7  C        -3.4186243189    0.1944774212    0.0045305033
      8  C        -2.6352002440    1.3148725810   -0.0345935906
      9  C        -2.7006520137   -1.0357713719    0.0593651554
     10  N        -1.2799916778    1.3451602021   -0.0362580677
     11  N        -3.2024219163   -2.2716139095    0.0969481253
     12  C        -1.2724236759   -1.0182069598    0.0548751150
     13  C        -0.5819559581    0.2362339347    0.0065829850
     14  S        -1.9459631045   -3.2780807141    0.1306483998
     15  N        -0.7249909853   -2.2297197362    0.0933425668
     16  C         0.8556231969    0.3741142920    0.0015222980
     17  S         1.9964780534   -0.9271933418    0.0303689288
     18  C         1.5327794214    1.5714657009   -0.0304570618
     19  C         3.3505624939    0.1345299610   -0.0009522413
     20  S         1.0269289447    3.2260060199   -0.0736530965
     21  C         2.9457605000    1.4527114910   -0.0331221397
     22  C         4.7115185357   -0.3593999815   -0.0023543848
     23  C         2.7022633751    3.7343565992   -0.0940114375
     24  C         3.5993799089    2.7328140135   -0.0693056624
     25  N         5.7538511033    0.4200636503   -0.0398332776
     26  S         5.1026558665   -2.0565864497    0.0444836681
     27  C         6.9090241565   -0.3036524069   -0.0384918388
     28  C         6.7680501884   -1.6509880991    0.0034394125
     29  H        -8.6783151855    0.6378773603    0.0354489996
     30  H        -7.6149048029   -0.6633494912   -1.7833713214
     31  H        -5.1270005681   -0.9003758118   -1.7943205396
     32  H        -5.0562480276    1.4590301029    1.7692593472
     33  H        -3.1000566854    2.2923054057   -0.0596960871
     34  H         2.9229239904    4.7899098262   -0.1305294328
     35  H         4.6698052072    2.8486236182   -0.0813054051
     36  H         7.8588653933    0.2079308222   -0.0702140973
     37  H         7.5334250560   -2.4070173764    0.0111224437
   Point Group: c1    Number of degrees of freedom:   105


   Energy is  -2595.905705334

              Constraints and their Current Values
                                        Value     Constraint
   Dihedral:        4   6   7   8      120.001      120.000
   Dihedral:       10  13  16  17     -179.124     -179.114
   Dihedral:       17  19  22  25      179.258      179.217

 Attempting to Generate Delocalized Internal Coordinates

   Using Lagrange Multiplier Algorithm


108 Hessian modes will be used to form the next step
  Hessian Eigenvalues:
    -0.977753   -0.977753   -0.977753    0.045000    0.045000    0.045000
     0.045000    0.045000    0.045000    0.045000    0.045000    0.045000
     0.045000    0.045000    0.045000    0.045000    0.045000    0.045000
     0.045000    0.045000    0.045000    0.045000    0.045000    0.045000
     0.045001    0.045001    0.045001    0.045001    0.045001    0.045003
     0.045005    0.045007    0.045009    0.045012    0.159961    0.159984
     0.159995    0.159997    0.159998    0.159999    0.160000    0.160000
     0.160000    0.220002    0.224572    0.225458    0.231978    0.233022
     0.234404    0.247446    0.247715    0.249914    0.249956    0.249989
     0.249992    0.249998    0.249998    0.249998    0.249999    0.249999
     0.249999    0.250000    0.250000    0.297526    0.305109    0.316329
     0.317278    0.326673    0.334469    0.354466    0.355754    0.356364
     0.356779    0.356811    0.359242    0.360771    0.361168    0.363913
     0.365013    0.372827    0.385325    0.386471    0.390169    0.393211
     0.397167    0.410399    0.431175    0.455299    0.463159    0.473297
     0.473331    0.475012    0.483101    0.491318    0.496880    0.499406
     0.517637    0.525692    0.538139    0.558615    0.574891    0.584500
     0.591081    0.623459    0.638969    1.022753    1.022753    1.022753

 Minimum Search - Taking P-RFO Step
 Searching for Lamda that Maximizes Along the Constraint modes Only
 Value Taken    Lamda =   0.00000986
 Searching for Lamda that Minimizes Along All other modes
 Value Taken    Lamda =  -0.00058872
 Step Taken.  Stepsize is  0.074956

                             Maximum     Tolerance    Cnvgd?
         Gradient            0.005852       0.000300      NO
         Displacement        0.025832       0.001200      NO
         Energy change     *********       0.000001      NO


 New Cartesian Coordinates Obtained by Inverse Iteration

 Displacement from previous Coordinates is:  0.494411
 ----------------------------------------------------------------
             Standard Nuclear Orientation (Angstroms)
    I     Atom           X                Y                Z
 ----------------------------------------------------------------
    1      C      -7.6036107179     0.4725751977     0.0208460480
    2      C      -7.0073776151    -0.2463639387    -1.0036173892
    3      N      -6.9180143628     1.0661021489     0.9923681343
    4      C      -5.6303439423    -0.3553116400    -1.0205299878
    5      C      -5.5964635871     0.9540428362     0.9653984756
    6      C      -4.8929265067     0.2578252003    -0.0143241077
    7      C      -3.4198358396     0.2115442979     0.0015409476
    8      C      -2.6522879843     1.3421982434    -0.0409200795
    9      C      -2.6921070317    -1.0094919418     0.0402081882
   10      N      -1.2956563223     1.3875362516    -0.0437732715
   11      N      -3.1864686671    -2.2477685144     0.0755556339
   12      C      -1.2651516619    -0.9772872872     0.0380833670
   13      C      -0.5874097129     0.2849224159    -0.0037018839
   14      S      -1.9186288999    -3.2411622386     0.1056856701
   15      N      -0.7054904715    -2.1832469150     0.0743630179
   16      C       0.8507041070     0.4211402897    -0.0081022685
   17      S       1.9718776307    -0.8953169180     0.0179272074
   18      C       1.5433742187     1.6100212664    -0.0382337010
   19      C       3.3408917334     0.1457714819    -0.0064127755
   20      S       1.0651402780     3.2723345568    -0.0799482111
   21      C       2.9552064520     1.4697403170    -0.0376030709
   22      C       4.6951326383    -0.3669117048    -0.0023944108
   23      C       2.7483186929     3.7547954556    -0.0942926439
   24      C       3.6286166105     2.7386456314    -0.0703396353
   25      N       5.7490616610     0.3971455415    -0.0353255077
   26      S       5.0616958754    -2.0685299873     0.0432648616
   27      C       6.8935668306    -0.3425012529    -0.0239857538
   28      C       6.7326963483    -1.6877498131     0.0175866581
   29      H      -8.6813265661     0.5785449098     0.0643959300
   30      H      -7.6136994486    -0.7135074136    -1.7664002165
   31      H      -5.1267714094    -0.9156319591    -1.7967073113
   32      H      -5.0558960090     1.4401540541     1.7706668128
   33      H      -3.1377186861     2.3099578744    -0.0782335458
   34      H       2.9838835402     4.8068297176    -0.1253060245
   35      H       4.7006970240     2.8419885060    -0.0781940458
   36      H       7.8478795083     0.1609014367    -0.0471679704
   37      H       7.4866059987    -2.4548461867     0.0330467029
 ----------------------------------------------------------------
 Molecular Point Group                 C1    NOp =  1
 Largest Abelian Subgroup              C1    NOp =  1
 Nuclear Repulsion Energy =  2966.5837976447 hartrees
 There are      111 alpha and      111 beta electrons
 Applying Cartesian multipole field
    Component          Value
    ---------          -----
     (2,0,0)        1.00000E-12
     (0,2,0)        2.00000E-11
     (0,0,2)       -3.00000E-11
 Nucleus-field energy     =     0.0000000648 hartrees
 Requested basis set is cc-pVTZ
 There are 342 shells and 982 basis functions
 A cutoff of  1.0D-11 yielded  29231 shell pairs
 There are    231897 function pairs (    302949 Cartesian)
 Smallest overlap matrix eigenvalue = 2.03E-05
 Guess MOs from SCF MO coefficient file
 Reading MOs from coefficient file
 Reading MOs from coefficient file
 Long-range K will be added via erf
 Coulomb attenuation parameter = 0.2 bohr**(-1)
 A restricted hybrid HF-DFT SCF calculation will be
 performed using Pulay DIIS extrapolation
 Exchange:     0.2220 Hartree-Fock + 1.0000 wB97X-D + LR-HF
 Correlation:  1.0000 wB97X-D
 Using SG-2 standard quadrature grid
 Dispersion:   Grimme D
 SCF converges when DIIS error is below 1.0E-08
 Geometry optimization detected.  Setting ReadMinima to 0
 Setting SaveMinima to 0
 using 16 threads for integral computing 
 using 16 threads for integral computing 
 K construction time:  CPU 1086.98 s  wall 71.04 s
 -------------------------------------------------------
 OpenMP BLAS3 based DFT computing Module                
 Release: version 1.0, May 2013, Q-Chem Inc. Pittsburgh 
 -------------------------------------------------------
 ---------------------------------------
  Cycle       Energy         DIIS Error
 ---------------------------------------
    1   -2595.9046178167      2.33E-04
 K construction time:  CPU 1092.05 s  wall 71.29 s
    2   -2595.9058884314      2.50E-05
 K construction time:  CPU 804.32 s  wall 52.49 s
    3   -2595.9059511364      2.49E-05
 K construction time:  CPU 753.86 s  wall 49.15 s
    4   -2595.9060133596      7.72E-06
 K construction time:  CPU 705.82 s  wall 46.03 s
    5   -2595.9060201662      3.72E-06
 K construction time:  CPU 654.50 s  wall 42.61 s
    6   -2595.9060217527      1.23E-06
 K construction time:  CPU 590.54 s  wall 38.42 s
    7   -2595.9060219495      4.47E-07
 K construction time:  CPU 533.84 s  wall 34.69 s
    8   -2595.9060219807      1.73E-07
 K construction time:  CPU 492.43 s  wall 31.96 s
    9   -2595.9060219874      7.76E-08
 K construction time:  CPU 424.31 s  wall 27.46 s
   10   -2595.9060219883      2.61E-08
 K construction time:  CPU 378.72 s  wall 24.48 s
   11   -2595.9060219908      1.22E-08
 K construction time:  CPU 343.20 s  wall 22.18 s
   12   -2595.9060219920      5.51E-09 Convergence criterion met
 ---------------------------------------
 SCF time:  CPU 10587.59 s  wall 705.46 s
 SCF   energy in the final basis set = -2595.9060219920
 Total energy in the final basis set = -2595.9060219920
 
 --------------------------------------------------------------
 
                    Orbital Energies (a.u.)
 --------------------------------------------------------------
 
 Alpha MOs
 -- Occupied --
-89.156 -89.094 -89.093 -89.075 -14.496 -14.489 -14.452 -14.445
-14.437 -10.375 -10.370 -10.363 -10.360 -10.345 -10.341 -10.340
-10.334 -10.329 -10.328 -10.328 -10.327 -10.325 -10.322 -10.318
-10.314 -10.314 -10.303 -10.296  -8.166  -8.109  -8.108  -8.089
 -6.116  -6.111  -6.110  -6.058  -6.057  -6.054  -6.054  -6.052
 -6.051  -6.039  -6.035  -6.031  -1.153  -1.084  -1.072  -1.056
 -1.024  -1.016  -0.957  -0.946  -0.912  -0.910  -0.907  -0.886
 -0.861  -0.844  -0.829  -0.807  -0.775  -0.751  -0.744  -0.731
 -0.723  -0.695  -0.690  -0.678  -0.648  -0.640  -0.623  -0.622
 -0.609  -0.595  -0.587  -0.577  -0.570  -0.569  -0.540  -0.537
 -0.526  -0.523  -0.518  -0.514  -0.511  -0.501  -0.497  -0.491
 -0.489  -0.482  -0.476  -0.462  -0.458  -0.446  -0.438  -0.432
 -0.431  -0.425  -0.404  -0.396  -0.380  -0.373  -0.371  -0.370
 -0.362  -0.354  -0.345  -0.337  -0.330  -0.321  -0.269
 -- Virtual --
 -0.057  -0.010   0.029   0.038   0.049   0.057   0.061   0.064
  0.074   0.102   0.107   0.112   0.115   0.123   0.131   0.135
  0.141   0.145   0.151   0.161   0.169   0.170   0.171   0.180
  0.186   0.197   0.201   0.211   0.214   0.224   0.229   0.240
  0.247   0.252   0.258   0.266   0.271   0.274   0.287   0.290
  0.295   0.297   0.304   0.308   0.312   0.318   0.323   0.326
  0.329   0.333   0.338   0.339   0.346   0.351   0.354   0.358
  0.359   0.367   0.370   0.374   0.378   0.381   0.385   0.388
  0.392   0.394   0.398   0.399   0.404   0.405   0.407   0.411
  0.419   0.425   0.429   0.433   0.433   0.436   0.441   0.444
  0.449   0.451   0.454   0.458   0.459   0.461   0.465   0.467
  0.470   0.472   0.474   0.475   0.480   0.487   0.489   0.491
  0.494   0.500   0.502   0.505   0.508   0.512   0.516   0.520
  0.524   0.525   0.533   0.539   0.541   0.546   0.549   0.552
  0.557   0.562   0.574   0.578   0.586   0.592   0.594   0.598
  0.603   0.607   0.614   0.629   0.635   0.643   0.649   0.659
  0.660   0.661   0.668   0.670   0.672   0.678   0.683   0.686
  0.689   0.694   0.697   0.704   0.712   0.715   0.721   0.727
  0.730   0.736   0.740   0.744   0.745   0.754   0.762   0.763
  0.767   0.773   0.777   0.780   0.784   0.786   0.791   0.800
  0.804   0.805   0.813   0.816   0.821   0.823   0.830   0.832
  0.835   0.839   0.844   0.853   0.858   0.859   0.865   0.871
  0.871   0.878   0.884   0.886   0.888   0.901   0.905   0.914
  0.920   0.927   0.930   0.939   0.941   0.947   0.948   0.956
  0.965   0.965   0.973   0.976   0.978   0.986   0.987   0.991
  0.993   0.996   1.011   1.013   1.017   1.026   1.030   1.040
  1.045   1.046   1.052   1.058   1.066   1.069   1.073   1.079
  1.086   1.091   1.097   1.105   1.110   1.115   1.119   1.130
  1.135   1.138   1.144   1.146   1.167   1.174   1.177   1.181
  1.188   1.194   1.198   1.207   1.220   1.223   1.224   1.235
  1.241   1.248   1.252   1.258   1.264   1.271   1.278   1.280
  1.282   1.293   1.299   1.301   1.317   1.320   1.323   1.330
  1.339   1.349   1.356   1.360   1.366   1.367   1.380   1.387
  1.391   1.408   1.411   1.417   1.423   1.426   1.432   1.434
  1.443   1.447   1.457   1.461   1.462   1.471   1.477   1.487
  1.498   1.500   1.503   1.509   1.529   1.537   1.542   1.545
  1.550   1.566   1.572   1.578   1.588   1.592   1.596   1.603
  1.609   1.612   1.622   1.626   1.630   1.634   1.638   1.643
  1.655   1.662   1.668   1.671   1.678   1.681   1.684   1.686
  1.692   1.695   1.700   1.712   1.718   1.727   1.732   1.742
  1.747   1.753   1.756   1.767   1.776   1.780   1.785   1.794
  1.811   1.815   1.822   1.834   1.843   1.859   1.861   1.871
  1.875   1.880   1.882   1.895   1.910   1.922   1.923   1.925
  1.937   1.945   1.949   1.959   1.961   1.973   1.974   1.991
  1.994   1.994   2.001   2.005   2.020   2.021   2.031   2.033
  2.045   2.060   2.067   2.073   2.075   2.092   2.098   2.102
  2.118   2.125   2.128   2.136   2.153   2.159   2.166   2.171
  2.177   2.182   2.188   2.193   2.206   2.211   2.226   2.233
  2.235   2.241   2.245   2.256   2.268   2.273   2.281   2.293
  2.299   2.308   2.313   2.336   2.346   2.352   2.358   2.366
  2.371   2.379   2.383   2.385   2.396   2.400   2.408   2.419
  2.421   2.425   2.436   2.441   2.446   2.451   2.464   2.471
  2.477   2.481   2.496   2.499   2.502   2.506   2.512   2.521
  2.526   2.538   2.542   2.546   2.555   2.571   2.579   2.582
  2.596   2.604   2.608   2.613   2.614   2.620   2.625   2.629
  2.644   2.650   2.656   2.661   2.667   2.685   2.694   2.708
  2.720   2.734   2.740   2.745   2.761   2.768   2.768   2.778
  2.785   2.787   2.790   2.793   2.799   2.810   2.812   2.819
  2.831   2.836   2.844   2.852   2.860   2.867   2.869   2.881
  2.891   2.893   2.904   2.914   2.925   2.935   2.937   2.938
  2.943   2.949   2.953   2.955   2.960   2.968   2.975   2.976
  2.983   2.987   2.995   3.007   3.010   3.013   3.018   3.023
  3.036   3.041   3.052   3.055   3.061   3.062   3.065   3.067
  3.072   3.076   3.081   3.091   3.093   3.096   3.102   3.105
  3.111   3.117   3.123   3.124   3.128   3.137   3.138   3.144
  3.150   3.155   3.165   3.166   3.173   3.175   3.178   3.185
  3.188   3.188   3.192   3.198   3.198   3.205   3.208   3.213
  3.218   3.219   3.229   3.236   3.244   3.245   3.248   3.249
  3.254   3.260   3.264   3.267   3.276   3.279   3.282   3.289
  3.294   3.297   3.303   3.307   3.312   3.314   3.319   3.322
  3.332   3.335   3.343   3.349   3.352   3.359   3.363   3.371
  3.376   3.380   3.384   3.388   3.403   3.407   3.414   3.420
  3.426   3.433   3.440   3.449   3.454   3.461   3.463   3.469
  3.474   3.483   3.484   3.489   3.497   3.501   3.509   3.517
  3.521   3.527   3.535   3.540   3.554   3.556   3.571   3.574
  3.578   3.586   3.596   3.598   3.605   3.612   3.621   3.625
  3.645   3.649   3.651   3.664   3.675   3.691   3.697   3.711
  3.717   3.723   3.733   3.733   3.739   3.748   3.755   3.760
  3.779   3.785   3.787   3.794   3.799   3.803   3.804   3.815
  3.818   3.830   3.835   3.841   3.855   3.857   3.863   3.866
  3.868   3.887   3.901   3.906   3.913   3.928   3.935   3.939
  3.947   3.951   3.962   3.965   3.967   3.968   3.983   3.987
  3.988   4.001   4.005   4.013   4.022   4.027   4.035   4.046
  4.051   4.053   4.081   4.087   4.093   4.105   4.115   4.125
  4.127   4.141   4.149   4.159   4.163   4.175   4.179   4.187
  4.187   4.201   4.205   4.213   4.216   4.228   4.240   4.247
  4.264   4.273   4.275   4.291   4.294   4.296   4.311   4.317
  4.321   4.339   4.344   4.352   4.355   4.373   4.386   4.389
  4.393   4.408   4.413   4.417   4.441   4.443   4.452   4.459
  4.467   4.479   4.486   4.498   4.506   4.523   4.529   4.535
  4.548   4.554   4.567   4.571   4.580   4.588   4.600   4.606
  4.615   4.636   4.641   4.645   4.672   4.675   4.685   4.692
  4.699   4.712   4.727   4.741   4.751   4.784   4.788   4.794
  4.804   4.812   4.833   4.847   4.849   4.853   4.871   4.875
  4.887   4.897   4.904   4.926   4.934   4.936   4.941   4.947
  4.950   4.960   4.967   4.971   4.988   4.989   4.998   5.009
  5.024   5.031   5.048   5.060   5.079   5.083   5.091   5.097
  5.108   5.131   5.134   5.147   5.153   5.170   5.173   5.194
  5.213   5.235   5.239   5.243   5.256   5.261   5.281   5.283
  5.308   5.319   5.342   5.353   5.361   5.387   5.398   5.411
  5.432   5.436   5.456   5.461   5.469   5.485   5.513   5.525
  5.532   5.548   5.560   5.584   5.613   5.655   5.664   5.666
  5.694   5.706   5.722   5.736   5.764   5.778   5.805   5.831
  5.852   5.888   5.898   5.948   5.963   5.999   6.017   6.105
  6.136   6.152   6.166   6.189   6.205   6.226   6.265   6.293
  6.343   6.356   6.401   6.419   6.460   6.853   6.997   8.012
  8.921   9.693  10.163  10.937  11.177  11.238  11.729  12.032
 12.348  12.376  12.653  12.813  12.831  13.095  13.336  13.415
 13.538  13.600  13.745  13.848  14.272  14.747  15.006
 --------------------------------------------------------------
 
          Ground-State Mulliken Net Atomic Charges

     Atom                 Charge (a.u.)
  ----------------------------------------
      1 C                    -0.071385
      2 C                    -0.100176
      3 N                    -0.151578
      4 C                    -0.125557
      5 C                    -0.115752
      6 C                     0.096172
      7 C                     0.000597
      8 C                    -0.074585
      9 C                     0.020676
     10 N                    -0.180872
     11 N                    -0.268906
     12 C                     0.026408
     13 C                     0.118618
     14 S                     0.409113
     15 N                    -0.284167
     16 C                    -0.060530
     17 S                     0.130152
     18 C                    -0.007862
     19 C                    -0.021262
     20 S                     0.093548
     21 C                     0.020621
     22 C                     0.037482
     23 C                    -0.162791
     24 C                    -0.159979
     25 N                    -0.183122
     26 S                     0.100032
     27 C                    -0.074903
     28 C                    -0.203459
     29 H                     0.124598
     30 H                     0.128945
     31 H                     0.123184
     32 H                     0.135164
     33 H                     0.132763
     34 H                     0.131601
     35 H                     0.142314
     36 H                     0.129218
     37 H                     0.145683
  ----------------------------------------
  Sum of atomic charges =     0.000000

 -----------------------------------------------------------------
                    Cartesian Multipole Moments
 -----------------------------------------------------------------
    Charge (ESU x 10^10)
                 0.0000
    Dipole Moment (Debye)
         X       1.7544      Y      -2.2225      Z      -1.5829
       Tot       3.2439
    Quadrupole Moments (Debye-Ang)
        XX    -167.4280     XY       2.3123     YY    -174.3376
        XZ      12.8008     YZ       0.3030     ZZ    -187.7016
    Octopole Moments (Debye-Ang^2)
       XXX     200.7345    XXY     -99.4310    XYY      54.1072
       YYY      -7.9087    XXZ     -96.9860    XYZ      -1.8984
       YYZ      -1.5260    XZZ     -13.3389    YZZ     -16.9343
       ZZZ      -0.6991
    Hexadecapole Moments (Debye-Ang^3)
      XXXX  -17110.2277   XXXY     -71.5749   XXYY   -3720.2198
      XYYY     104.9324   YYYY   -3508.4484   XXXZ     740.3287
      XXYZ     -24.9019   XYYZ      13.3633   YYYZ     -20.8095
      XXZZ   -3400.0661   XYZZ      30.7636   YYZZ    -740.2486
      XZZZ      33.5714   YZZZ       3.0050   ZZZZ    -375.4704
 -----------------------------------------------------------------
 Calculating analytic gradient of the SCF energy
 K construction time:  CPU 2914.90 s  wall 184.13 s
 Gradient of SCF Energy
            1           2           3           4           5           6
    1  -0.0002263   0.0002016   0.0010245  -0.0001406  -0.0012172   0.0007726
    2  -0.0005830   0.0004311   0.0000488   0.0024950  -0.0005163  -0.0016955
    3  -0.0003823  -0.0003978   0.0002824  -0.0013067   0.0006916   0.0006270
            7           8           9          10          11          12
    1  -0.0007151   0.0002169  -0.0002770  -0.0008311   0.0000639   0.0002518
    2  -0.0006315   0.0000992  -0.0001981   0.0001977  -0.0000951   0.0001513
    3   0.0005816  -0.0019047   0.0019035  -0.0008346  -0.0001146  -0.0000888
           13          14          15          16          17          18
    1   0.0006188  -0.0004367   0.0008337  -0.0002569  -0.0004493   0.0003659
    2  -0.0007263   0.0012169   0.0003589  -0.0008758  -0.0000351   0.0002207
    3   0.0003042  -0.0000900  -0.0001458   0.0002324  -0.0003766   0.0000844
           19          20          21          22          23          24
    1   0.0001565   0.0000609  -0.0002325   0.0000420  -0.0002679   0.0002691
    2   0.0003662   0.0001724  -0.0003211   0.0000717  -0.0003520   0.0008833
    3   0.0004066  -0.0000592  -0.0002030   0.0001119   0.0001309   0.0001202
           25          26          27          28          29          30
    1  -0.0001064  -0.0000851  -0.0002344   0.0001709   0.0001000  -0.0001620
    2  -0.0000973  -0.0002370   0.0002966   0.0000354   0.0000848  -0.0001895
    3  -0.0001525  -0.0000726  -0.0000267   0.0001663   0.0000666   0.0001711
           31          32          33          34          35          36
    1   0.0001117  -0.0000044  -0.0000243   0.0001823   0.0000786   0.0001287
    2  -0.0004102   0.0002423   0.0000930  -0.0000030  -0.0002904  -0.0002182
    3   0.0002389  -0.0001176   0.0004417  -0.0001079  -0.0000771  -0.0000280
           37
    1   0.0000168
    2   0.0000101
    3  -0.0000749
 Max gradient component =       2.495E-03
 RMS gradient           =       5.541E-04
 Gradient time:  CPU 3359.66 s  wall 214.00 s
 Geometry Optimization Parameters
   NAtoms,    NIC,     NZ,  NCons,   NDum,   NFix, NCnnct, MaxDiis
       37     280       0       3       0       0       0       0

 Cartesian Hessian Update
 Hessian Updated using BFGS Update


** CONSTRAINED OPTIMIZATION IN DELOCALIZED INTERNAL COORDINATES **
   Searching for a Minimum

   Optimization Cycle:   2

                       Coordinates (Angstroms)
     ATOM                X               Y               Z
      1  C        -7.6036107179    0.4725751977    0.0208460480
      2  C        -7.0073776151   -0.2463639387   -1.0036173892
      3  N        -6.9180143628    1.0661021489    0.9923681343
      4  C        -5.6303439423   -0.3553116400   -1.0205299878
      5  C        -5.5964635871    0.9540428362    0.9653984756
      6  C        -4.8929265067    0.2578252003   -0.0143241077
      7  C        -3.4198358396    0.2115442979    0.0015409476
      8  C        -2.6522879843    1.3421982434   -0.0409200795
      9  C        -2.6921070317   -1.0094919418    0.0402081882
     10  N        -1.2956563223    1.3875362516   -0.0437732715
     11  N        -3.1864686671   -2.2477685144    0.0755556339
     12  C        -1.2651516619   -0.9772872872    0.0380833670
     13  C        -0.5874097129    0.2849224159   -0.0037018839
     14  S        -1.9186288999   -3.2411622386    0.1056856701
     15  N        -0.7054904715   -2.1832469150    0.0743630179
     16  C         0.8507041070    0.4211402897   -0.0081022685
     17  S         1.9718776307   -0.8953169180    0.0179272074
     18  C         1.5433742187    1.6100212664   -0.0382337010
     19  C         3.3408917334    0.1457714819   -0.0064127755
     20  S         1.0651402780    3.2723345568   -0.0799482111
     21  C         2.9552064520    1.4697403170   -0.0376030709
     22  C         4.6951326383   -0.3669117048   -0.0023944108
     23  C         2.7483186929    3.7547954556   -0.0942926439
     24  C         3.6286166105    2.7386456314   -0.0703396353
     25  N         5.7490616610    0.3971455415   -0.0353255077
     26  S         5.0616958754   -2.0685299873    0.0432648616
     27  C         6.8935668306   -0.3425012529   -0.0239857538
     28  C         6.7326963483   -1.6877498131    0.0175866581
     29  H        -8.6813265661    0.5785449098    0.0643959300
     30  H        -7.6136994486   -0.7135074136   -1.7664002165
     31  H        -5.1267714094   -0.9156319591   -1.7967073113
     32  H        -5.0558960090    1.4401540541    1.7706668128
     33  H        -3.1377186861    2.3099578744   -0.0782335458
     34  H         2.9838835402    4.8068297176   -0.1253060245
     35  H         4.7006970240    2.8419885060   -0.0781940458
     36  H         7.8478795083    0.1609014367   -0.0471679704
     37  H         7.4866059987   -2.4548461867    0.0330467029
   Point Group: c1    Number of degrees of freedom:   105


   Energy is  -2595.906021992

              Constraints and their Current Values
                                        Value     Constraint
   Dihedral:        4   6   7   8      120.000      120.000
   Dihedral:       10  13  16  17     -179.114     -179.114
   Dihedral:       17  19  22  25      179.217      179.217
 Hessian Updated using BFGS Update

   Using Lagrange Multiplier Algorithm


104 Hessian modes will be used to form the next step
  Hessian Eigenvalues:
    -0.977628    0.033021    0.045000    0.045000    0.045000    0.045000
     0.045000    0.045000    0.045000    0.045000    0.045000    0.045000
     0.045000    0.045000    0.045000    0.045000    0.045000    0.045000
     0.045000    0.045000    0.045000    0.045000    0.045001    0.045001
     0.045001    0.045001    0.045002    0.045004    0.045006    0.045008
     0.045011    0.045513    0.154521    0.159961    0.159986    0.159998
     0.159998    0.159999    0.160000    0.160000    0.160727    0.219480
     0.223450    0.224572    0.226989    0.232471    0.233765    0.238333
     0.247461    0.247736    0.249942    0.249958    0.249989    0.249992
     0.249998    0.249998    0.249999    0.249999    0.250000    0.250000
     0.297491    0.304877    0.311345    0.316358    0.325335    0.331258
     0.334360    0.353090    0.355725    0.356655    0.356742    0.358487
     0.359337    0.360771    0.361179    0.364054    0.365024    0.374215
     0.385293    0.386219    0.389282    0.390556    0.397243    0.423086
     0.434160    0.455350    0.466174    0.472858    0.473607    0.475305
     0.483102    0.492612    0.497927    0.499681    0.517754    0.526712
     0.538464    0.558938    0.574973    0.587612    0.592161    0.624152
     0.638948    1.022983

 Minimum Search - Taking P-RFO Step
 Searching for Lamda that Maximizes Along the Constraint modes Only
 Value Taken    Lamda =   0.00000008
 Searching for Lamda that Minimizes Along All other modes
 Value Taken    Lamda =  -0.00011819
 Step Taken.  Stepsize is  0.048854

                             Maximum     Tolerance    Cnvgd?
         Gradient            0.001973       0.000300      NO
         Displacement        0.018260       0.001200      NO
         Energy change     -0.000317       0.000001      NO


 New Cartesian Coordinates Obtained by Inverse Iteration

 Displacement from previous Coordinates is:  0.137532
 ----------------------------------------------------------------
             Standard Nuclear Orientation (Angstroms)
    I     Atom           X                Y                Z
 ----------------------------------------------------------------
    1      C      -7.6000657248     0.4849330795     0.0285984276
    2      C      -7.0100170438    -0.2441189027    -0.9929226255
    3      N      -6.9098425416     1.0799016550     0.9950948314
    4      C      -5.6332984353    -0.3598652954    -1.0140238245
    5      C      -5.5881565213     0.9608163053     0.9643406534
    6      C      -4.8914355773     0.2556143401    -0.0123919058
    7      C      -3.4172441626     0.2108239493     0.0021709596
    8      C      -2.6475601698     1.3391995024    -0.0442908718
    9      C      -2.6942687630    -1.0131572048     0.0296499557
   10      N      -1.2904773313     1.3800761702    -0.0462205784
   11      N      -3.1941744058    -2.2497420447     0.0632502841
   12      C      -1.2679314221    -0.9867820482     0.0296721295
   13      C      -0.5864299127     0.2753476386    -0.0075096862
   14      S      -1.9317545287    -3.2513483640     0.0921821950
   15      N      -0.7154780131    -2.1966917598     0.0645678194
   16      C       0.8519296116     0.4128695296    -0.0114333298
   17      S       1.9764718649    -0.9011141867     0.0128870733
   18      C       1.5411641883     1.6029160060    -0.0408838744
   19      C       3.3427025544     0.1431626997    -0.0094552012
   20      S       1.0580206985     3.2634460833    -0.0809028364
   21      C       2.9534465228     1.4662922589    -0.0397983407
   22      C       4.6986625332    -0.3651283019    -0.0024740837
   23      C       2.7396769586     3.7510939049    -0.0941442922
   24      C       3.6224847437     2.7368541127    -0.0711225032
   25      N       5.7506853055     0.4017818910    -0.0338460288
   26      S       5.0701318145    -2.0650485311     0.0460260997
   27      C       6.8973187352    -0.3344453371    -0.0176079173
   28      C       6.7399591250    -1.6801162420     0.0249948960
   29      H      -8.6772977993     0.5974845473     0.0726467845
   30      H      -7.6187822942    -0.7080919211    -1.7555733309
   31      H      -5.1350837249    -0.9198085711    -1.7934539570
   32      H      -5.0423239211     1.4452718384     1.7675048230
   33      H      -3.1319493158     2.3071771703    -0.0888941243
   34      H       2.9706845491     4.8040712487    -0.1218980210
   35      H       4.6939510843     2.8463427300    -0.0771729927
   36      H       7.8487863579     0.1743567853    -0.0374367780
   37      H       7.4956586666    -2.4452848161     0.0452940145
 ----------------------------------------------------------------
 Molecular Point Group                 C1    NOp =  1
 Largest Abelian Subgroup              C1    NOp =  1
 Nuclear Repulsion Energy =  2966.2392064030 hartrees
 There are      111 alpha and      111 beta electrons
 Applying Cartesian multipole field
    Component          Value
    ---------          -----
     (2,0,0)        1.00000E-12
     (0,2,0)        2.00000E-11
     (0,0,2)       -3.00000E-11
 Nucleus-field energy     =     0.0000000648 hartrees
 Requested basis set is cc-pVTZ
 There are 342 shells and 982 basis functions
 A cutoff of  1.0D-11 yielded  29223 shell pairs
 There are    231791 function pairs (    302776 Cartesian)
 Smallest overlap matrix eigenvalue = 2.03E-05
 Guess MOs from SCF MO coefficient file
 Reading MOs from coefficient file
 Reading MOs from coefficient file
 Long-range K will be added via erf
 Coulomb attenuation parameter = 0.2 bohr**(-1)
 A restricted hybrid HF-DFT SCF calculation will be
 performed using Pulay DIIS extrapolation
 Exchange:     0.2220 Hartree-Fock + 1.0000 wB97X-D + LR-HF
 Correlation:  1.0000 wB97X-D
 Using SG-2 standard quadrature grid
 Dispersion:   Grimme D
 SCF converges when DIIS error is below 1.0E-08
 Geometry optimization detected.  Setting ReadMinima to 0
 Setting SaveMinima to 0
 using 16 threads for integral computing 
 using 16 threads for integral computing 
 K construction time:  CPU 1091.63 s  wall 71.27 s
 -------------------------------------------------------
 OpenMP BLAS3 based DFT computing Module                
 Release: version 1.0, May 2013, Q-Chem Inc. Pittsburgh 
 -------------------------------------------------------
 ---------------------------------------
  Cycle       Energy         DIIS Error
 ---------------------------------------
    1   -2595.9042979369      8.47E-05
 K construction time:  CPU 1086.45 s  wall 71.00 s
    2   -2595.9060600886      1.05E-05
 K construction time:  CPU 750.66 s  wall 49.03 s
    3   -2595.9060641112      1.28E-05
 K construction time:  CPU 705.89 s  wall 46.02 s
    4   -2595.9060809690      2.67E-06
 K construction time:  CPU 641.55 s  wall 41.79 s
    5   -2595.9060818291      1.70E-06
 K construction time:  CPU 601.15 s  wall 39.16 s
    6   -2595.9060821946      4.87E-07
 K construction time:  CPU 537.93 s  wall 34.99 s
    7   -2595.9060822391      1.77E-07
 K construction time:  CPU 480.66 s  wall 31.22 s
    8   -2595.9060822456      8.75E-08
 K construction time:  CPU 445.81 s  wall 28.98 s
    9   -2595.9060822484      3.55E-08
 K construction time:  CPU 378.59 s  wall 24.57 s
   10   -2595.9060822498      1.55E-08
 K construction time:  CPU 338.40 s  wall 21.87 s
   11   -2595.9060822467      5.95E-09 Convergence criterion met
 ---------------------------------------
 SCF time:  CPU 9527.87 s  wall 635.38 s
 SCF   energy in the final basis set = -2595.9060822467
 Total energy in the final basis set = -2595.9060822467
 
 --------------------------------------------------------------
 
                    Orbital Energies (a.u.)
 --------------------------------------------------------------
 
 Alpha MOs
 -- Occupied --
-89.156 -89.094 -89.093 -89.075 -14.496 -14.489 -14.452 -14.445
-14.437 -10.375 -10.371 -10.362 -10.361 -10.345 -10.341 -10.340
-10.334 -10.329 -10.328 -10.327 -10.327 -10.325 -10.322 -10.318
-10.314 -10.314 -10.303 -10.296  -8.166  -8.109  -8.108  -8.089
 -6.116  -6.111  -6.110  -6.058  -6.057  -6.054  -6.054  -6.052
 -6.051  -6.039  -6.035  -6.031  -1.153  -1.084  -1.073  -1.055
 -1.024  -1.016  -0.957  -0.946  -0.912  -0.910  -0.907  -0.886
 -0.861  -0.844  -0.829  -0.807  -0.775  -0.751  -0.744  -0.731
 -0.723  -0.695  -0.690  -0.678  -0.648  -0.640  -0.623  -0.622
 -0.609  -0.595  -0.587  -0.576  -0.570  -0.569  -0.540  -0.537
 -0.526  -0.523  -0.517  -0.514  -0.511  -0.501  -0.497  -0.491
 -0.489  -0.482  -0.476  -0.462  -0.458  -0.446  -0.438  -0.432
 -0.431  -0.425  -0.404  -0.396  -0.380  -0.373  -0.372  -0.370
 -0.362  -0.354  -0.345  -0.337  -0.330  -0.321  -0.269
 -- Virtual --
 -0.057  -0.010   0.029   0.038   0.048   0.057   0.061   0.064
  0.074   0.102   0.107   0.113   0.115   0.123   0.131   0.135
  0.141   0.145   0.151   0.161   0.169   0.170   0.171   0.180
  0.186   0.197   0.201   0.212   0.214   0.224   0.229   0.240
  0.247   0.252   0.258   0.266   0.271   0.274   0.287   0.290
  0.295   0.297   0.305   0.308   0.312   0.318   0.323   0.326
  0.329   0.333   0.338   0.339   0.346   0.351   0.354   0.358
  0.359   0.367   0.370   0.373   0.378   0.381   0.385   0.388
  0.392   0.394   0.398   0.399   0.404   0.405   0.407   0.411
  0.419   0.425   0.429   0.433   0.433   0.436   0.441   0.444
  0.449   0.451   0.454   0.458   0.459   0.461   0.465   0.467
  0.470   0.473   0.473   0.475   0.480   0.487   0.490   0.491
  0.494   0.500   0.503   0.505   0.508   0.511   0.516   0.520
  0.524   0.525   0.533   0.539   0.541   0.545   0.549   0.552
  0.557   0.562   0.574   0.577   0.586   0.593   0.594   0.598
  0.603   0.607   0.614   0.629   0.635   0.643   0.649   0.659
  0.660   0.660   0.667   0.670   0.672   0.678   0.682   0.685
  0.689   0.694   0.698   0.704   0.712   0.715   0.721   0.727
  0.731   0.736   0.740   0.744   0.745   0.754   0.762   0.764
  0.767   0.773   0.777   0.780   0.784   0.787   0.791   0.800
  0.804   0.806   0.813   0.816   0.821   0.823   0.830   0.832
  0.835   0.839   0.844   0.853   0.858   0.858   0.865   0.870
  0.871   0.878   0.883   0.885   0.888   0.901   0.905   0.914
  0.921   0.927   0.930   0.939   0.941   0.947   0.948   0.956
  0.964   0.966   0.973   0.977   0.978   0.985   0.987   0.991
  0.993   0.996   1.011   1.014   1.017   1.026   1.031   1.041
  1.045   1.046   1.052   1.059   1.066   1.069   1.073   1.079
  1.086   1.091   1.097   1.105   1.110   1.115   1.119   1.131
  1.135   1.137   1.144   1.147   1.167   1.173   1.176   1.182
  1.188   1.194   1.198   1.207   1.220   1.223   1.224   1.235
  1.240   1.249   1.252   1.259   1.264   1.272   1.278   1.280
  1.281   1.293   1.299   1.301   1.317   1.320   1.323   1.331
  1.339   1.349   1.356   1.361   1.366   1.367   1.380   1.387
  1.390   1.408   1.411   1.416   1.423   1.426   1.432   1.434
  1.443   1.448   1.456   1.462   1.463   1.471   1.477   1.486
  1.498   1.500   1.503   1.509   1.530   1.537   1.542   1.544
  1.550   1.566   1.573   1.578   1.588   1.591   1.595   1.603
  1.609   1.611   1.622   1.626   1.630   1.633   1.637   1.643
  1.655   1.661   1.668   1.671   1.678   1.681   1.684   1.686
  1.692   1.695   1.700   1.712   1.718   1.727   1.733   1.742
  1.748   1.753   1.756   1.767   1.776   1.780   1.784   1.795
  1.811   1.815   1.821   1.834   1.842   1.859   1.861   1.871
  1.875   1.880   1.882   1.895   1.911   1.921   1.923   1.925
  1.937   1.944   1.949   1.959   1.960   1.973   1.974   1.991
  1.994   1.994   2.001   2.005   2.020   2.022   2.031   2.033
  2.045   2.061   2.067   2.073   2.076   2.092   2.097   2.102
  2.117   2.125   2.129   2.136   2.154   2.160   2.166   2.170
  2.177   2.182   2.187   2.193   2.206   2.211   2.226   2.233
  2.234   2.241   2.245   2.256   2.269   2.273   2.281   2.293
  2.300   2.309   2.314   2.336   2.347   2.352   2.358   2.366
  2.371   2.380   2.383   2.385   2.396   2.400   2.408   2.419
  2.421   2.424   2.436   2.441   2.447   2.451   2.465   2.471
  2.477   2.481   2.496   2.500   2.502   2.506   2.512   2.521
  2.525   2.538   2.543   2.546   2.555   2.571   2.579   2.582
  2.596   2.605   2.607   2.614   2.615   2.621   2.625   2.629
  2.643   2.649   2.656   2.661   2.668   2.685   2.694   2.708
  2.720   2.734   2.741   2.744   2.761   2.767   2.768   2.778
  2.786   2.788   2.790   2.792   2.799   2.810   2.812   2.820
  2.830   2.835   2.845   2.852   2.860   2.866   2.869   2.881
  2.890   2.893   2.904   2.914   2.925   2.935   2.937   2.938
  2.943   2.950   2.953   2.955   2.960   2.968   2.976   2.977
  2.983   2.987   2.995   3.007   3.010   3.013   3.018   3.024
  3.035   3.041   3.052   3.054   3.061   3.062   3.065   3.067
  3.072   3.076   3.080   3.091   3.093   3.095   3.103   3.105
  3.110   3.117   3.123   3.125   3.128   3.137   3.138   3.144
  3.149   3.156   3.166   3.167   3.173   3.175   3.177   3.185
  3.188   3.189   3.192   3.198   3.199   3.205   3.208   3.213
  3.217   3.219   3.228   3.236   3.244   3.245   3.247   3.249
  3.254   3.260   3.264   3.267   3.276   3.279   3.282   3.289
  3.294   3.298   3.303   3.307   3.312   3.314   3.319   3.322
  3.332   3.335   3.343   3.350   3.352   3.358   3.364   3.371
  3.376   3.380   3.384   3.388   3.402   3.407   3.414   3.420
  3.425   3.433   3.440   3.449   3.454   3.461   3.463   3.469
  3.474   3.483   3.485   3.489   3.497   3.501   3.509   3.518
  3.521   3.527   3.535   3.540   3.554   3.556   3.571   3.574
  3.579   3.586   3.596   3.598   3.605   3.612   3.621   3.625
  3.646   3.649   3.651   3.665   3.675   3.691   3.696   3.711
  3.716   3.723   3.733   3.733   3.739   3.748   3.754   3.760
  3.779   3.785   3.787   3.794   3.798   3.802   3.803   3.814
  3.818   3.829   3.836   3.841   3.855   3.857   3.863   3.866
  3.868   3.888   3.902   3.906   3.912   3.928   3.935   3.939
  3.948   3.951   3.962   3.965   3.967   3.968   3.984   3.987
  3.988   4.001   4.005   4.013   4.022   4.026   4.034   4.045
  4.050   4.054   4.081   4.087   4.093   4.105   4.115   4.125
  4.127   4.141   4.149   4.160   4.162   4.175   4.179   4.187
  4.187   4.201   4.205   4.214   4.216   4.228   4.239   4.247
  4.265   4.273   4.275   4.291   4.293   4.296   4.311   4.317
  4.321   4.339   4.344   4.351   4.355   4.373   4.386   4.389
  4.394   4.407   4.413   4.417   4.440   4.444   4.452   4.459
  4.467   4.478   4.487   4.497   4.505   4.523   4.529   4.536
  4.547   4.554   4.567   4.571   4.580   4.588   4.600   4.606
  4.615   4.635   4.642   4.645   4.671   4.676   4.684   4.692
  4.698   4.712   4.729   4.741   4.750   4.784   4.788   4.794
  4.804   4.811   4.832   4.846   4.850   4.852   4.871   4.875
  4.887   4.896   4.904   4.927   4.933   4.936   4.941   4.947
  4.950   4.960   4.967   4.971   4.988   4.990   4.997   5.009
  5.024   5.031   5.048   5.060   5.079   5.082   5.091   5.096
  5.108   5.131   5.133   5.146   5.153   5.170   5.173   5.193
  5.213   5.235   5.239   5.244   5.255   5.261   5.282   5.284
  5.308   5.319   5.342   5.353   5.361   5.388   5.397   5.411
  5.432   5.437   5.456   5.461   5.468   5.484   5.512   5.525
  5.533   5.548   5.559   5.584   5.613   5.655   5.664   5.666
  5.694   5.706   5.722   5.735   5.764   5.778   5.805   5.830
  5.850   5.888   5.898   5.949   5.964   5.999   6.017   6.106
  6.137   6.153   6.165   6.188   6.205   6.226   6.263   6.293
  6.343   6.356   6.401   6.418   6.460   6.853   6.997   8.011
  8.919   9.695  10.161  10.936  11.168  11.235  11.729  12.018
 12.339  12.378  12.653  12.799  12.827  13.088  13.331  13.423
 13.537  13.604  13.757  13.848  14.272  14.753  15.008
 --------------------------------------------------------------
 
          Ground-State Mulliken Net Atomic Charges

     Atom                 Charge (a.u.)
  ----------------------------------------
      1 C                    -0.071372
      2 C                    -0.100539
      3 N                    -0.151572
      4 C                    -0.125468
      5 C                    -0.116911
      6 C                     0.097355
      7 C                     0.002117
      8 C                    -0.074961
      9 C                     0.021508
     10 N                    -0.180705
     11 N                    -0.270032
     12 C                     0.024702
     13 C                     0.117857
     14 S                     0.410071
     15 N                    -0.284218
     16 C                    -0.059953
     17 S                     0.129964
     18 C                    -0.007363
     19 C                    -0.021779
     20 S                     0.093597
     21 C                     0.020940
     22 C                     0.037579
     23 C                    -0.162709
     24 C                    -0.160403
     25 N                    -0.183078
     26 S                     0.100259
     27 C                    -0.074846
     28 C                    -0.203458
     29 H                     0.124503
     30 H                     0.128988
     31 H                     0.123317
     32 H                     0.135317
     33 H                     0.132697
     34 H                     0.131639
     35 H                     0.142102
     36 H                     0.129212
     37 H                     0.145642
  ----------------------------------------
  Sum of atomic charges =     0.000000

 -----------------------------------------------------------------
                    Cartesian Multipole Moments
 -----------------------------------------------------------------
    Charge (ESU x 10^10)
                 0.0000
    Dipole Moment (Debye)
         X       1.7452      Y      -2.2215      Z      -1.5826
       Tot       3.2381
    Quadrupole Moments (Debye-Ang)
        XX    -167.3568     XY       2.3896     YY    -174.3010
        XZ      12.9158     YZ       0.2647     ZZ    -187.7176
    Octopole Moments (Debye-Ang^2)
       XXX     200.5474    XXY     -99.1422    XYY      53.8519
       YYY      -7.1117    XXZ     -95.9217    XYZ      -1.6604
       YYZ      -1.2762    XZZ     -13.2014    YZZ     -16.5850
       ZZZ       0.0945
    Hexadecapole Moments (Debye-Ang^3)
      XXXX  -17105.5107   XXXY     -71.9841   XXYY   -3724.0150
      XYYY     107.5253   YYYY   -3507.1407   XXXZ     742.0122
      XXYZ     -28.2381   XYYZ      14.4071   YYYZ     -22.8727
      XXZZ   -3401.4577   XYZZ      31.1008   YYZZ    -740.1313
      XZZZ      32.2605   YZZZ       0.5578   ZZZZ    -374.0623
 -----------------------------------------------------------------
 Calculating analytic gradient of the SCF energy
 K construction time:  CPU 2926.04 s  wall 184.67 s
 Gradient of SCF Energy
            1           2           3           4           5           6
    1   0.0001580  -0.0003611   0.0002306   0.0003974  -0.0002376  -0.0005553
    2  -0.0001185   0.0001131  -0.0000719   0.0017894  -0.0004052  -0.0024850
    3   0.0000203  -0.0001066   0.0001524  -0.0013974  -0.0002770   0.0007705
            7           8           9          10          11          12
    1   0.0005847   0.0003605  -0.0002176   0.0000918   0.0003267  -0.0001400
    2   0.0005571   0.0000391   0.0006336   0.0001701  -0.0001628   0.0006669
    3   0.0022274  -0.0019539   0.0005020  -0.0005823   0.0000326  -0.0000403
           13          14          15          16          17          18
    1   0.0000331  -0.0002424  -0.0004990   0.0000642   0.0000386  -0.0000057
    2   0.0000275  -0.0007791  -0.0001741   0.0001303   0.0000839  -0.0000683
    3   0.0004079   0.0000303  -0.0000151   0.0002288  -0.0004527   0.0000160
           19          20          21          22          23          24
    1  -0.0000087   0.0001563  -0.0000853   0.0000044   0.0000320  -0.0001271
    2   0.0000086   0.0000461  -0.0000620   0.0000199   0.0000384   0.0000201
    3   0.0003930  -0.0000494  -0.0001229   0.0002202   0.0000433   0.0000304
           25          26          27          28          29          30
    1   0.0001196  -0.0000021  -0.0000126  -0.0000209  -0.0000128   0.0000882
    2  -0.0001275   0.0000507  -0.0000198  -0.0000383   0.0000928  -0.0000522
    3  -0.0002587  -0.0001111  -0.0000042   0.0001258   0.0000410  -0.0000260
           31          32          33          34          35          36
    1  -0.0000527   0.0002035  -0.0002552  -0.0000295   0.0000347  -0.0000475
    2  -0.0000383   0.0001104  -0.0000242  -0.0000479  -0.0000178   0.0000718
    3   0.0001108   0.0001689  -0.0000202  -0.0000316  -0.0000417   0.0000135
           37
    1  -0.0000113
    2   0.0000230
    3  -0.0000440
 Max gradient component =       2.485E-03
 RMS gradient           =       4.861E-04
 Gradient time:  CPU 3371.38 s  wall 214.46 s
 Geometry Optimization Parameters
   NAtoms,    NIC,     NZ,  NCons,   NDum,   NFix, NCnnct, MaxDiis
       37     280       0       3       0       0       0       0

 Cartesian Hessian Update
 Hessian Updated using BFGS Update


** CONSTRAINED OPTIMIZATION IN DELOCALIZED INTERNAL COORDINATES **
   Searching for a Minimum

   Optimization Cycle:   3

                       Coordinates (Angstroms)
     ATOM                X               Y               Z
      1  C        -7.6000657248    0.4849330795    0.0285984276
      2  C        -7.0100170438   -0.2441189027   -0.9929226255
      3  N        -6.9098425416    1.0799016550    0.9950948314
      4  C        -5.6332984353   -0.3598652954   -1.0140238245
      5  C        -5.5881565213    0.9608163053    0.9643406534
      6  C        -4.8914355773    0.2556143401   -0.0123919058
      7  C        -3.4172441626    0.2108239493    0.0021709596
      8  C        -2.6475601698    1.3391995024   -0.0442908718
      9  C        -2.6942687630   -1.0131572048    0.0296499557
     10  N        -1.2904773313    1.3800761702   -0.0462205784
     11  N        -3.1941744058   -2.2497420447    0.0632502841
     12  C        -1.2679314221   -0.9867820482    0.0296721295
     13  C        -0.5864299127    0.2753476386   -0.0075096862
     14  S        -1.9317545287   -3.2513483640    0.0921821950
     15  N        -0.7154780131   -2.1966917598    0.0645678194
     16  C         0.8519296116    0.4128695296   -0.0114333298
     17  S         1.9764718649   -0.9011141867    0.0128870733
     18  C         1.5411641883    1.6029160060   -0.0408838744
     19  C         3.3427025544    0.1431626997   -0.0094552012
     20  S         1.0580206985    3.2634460833   -0.0809028364
     21  C         2.9534465228    1.4662922589   -0.0397983407
     22  C         4.6986625332   -0.3651283019   -0.0024740837
     23  C         2.7396769586    3.7510939049   -0.0941442922
     24  C         3.6224847437    2.7368541127   -0.0711225032
     25  N         5.7506853055    0.4017818910   -0.0338460288
     26  S         5.0701318145   -2.0650485311    0.0460260997
     27  C         6.8973187352   -0.3344453371   -0.0176079173
     28  C         6.7399591250   -1.6801162420    0.0249948960
     29  H        -8.6772977993    0.5974845473    0.0726467845
     30  H        -7.6187822942   -0.7080919211   -1.7555733309
     31  H        -5.1350837249   -0.9198085711   -1.7934539570
     32  H        -5.0423239211    1.4452718384    1.7675048230
     33  H        -3.1319493158    2.3071771703   -0.0888941243
     34  H         2.9706845491    4.8040712487   -0.1218980210
     35  H         4.6939510843    2.8463427300   -0.0771729927
     36  H         7.8487863579    0.1743567853   -0.0374367780
     37  H         7.4956586666   -2.4452848161    0.0452940145
   Point Group: c1    Number of degrees of freedom:   105


   Energy is  -2595.906082247

              Constraints and their Current Values
                                        Value     Constraint
   Dihedral:        4   6   7   8      120.000      120.000
   Dihedral:       10  13  16  17     -179.114     -179.114
   Dihedral:       17  19  22  25      179.217      179.217
 Hessian Updated using BFGS Update

 82 Hessian modes will be used to form the next step
  Hessian Eigenvalues:
     0.023883    0.045000    0.045000    0.045000    0.045000    0.045000
     0.045000    0.045001    0.045001    0.045002    0.045004    0.045006
     0.045008    0.045010    0.045071    0.046270    0.157362    0.159962
     0.159986    0.159998    0.159998    0.160000    0.160067    0.162010
     0.219468    0.224571    0.225399    0.230778    0.232387    0.234553
     0.240927    0.247460    0.247812    0.249947    0.249963    0.249990
     0.249992    0.250000    0.264482    0.297569    0.304951    0.315401
     0.316308    0.326688    0.334333    0.346541    0.355688    0.356519
     0.356704    0.357404    0.358168    0.359531    0.360771    0.361202
     0.364066    0.365021    0.374039    0.385332    0.386510    0.390269
     0.396839    0.411017    0.427512    0.435757    0.456326    0.464969
[...]
     27  C         6.8977869313   -0.3306622883   -0.0268812395
     28  C         6.7422650888   -1.6763662587    0.0204086104
     29  H        -8.6764005991    0.6218441105    0.0434866565
     30  H        -7.6113640668   -0.7131333075   -1.7574977999
     31  H        -5.1283595910   -0.9400996687   -1.7730060205
     32  H        -5.0512630860    1.4660125703    1.7607792132
     33  H        -3.1318582276    2.3007538432   -0.0723341015
     34  H         2.9634455994    4.8030315648   -0.1156152055
     35  H         4.6898204686    2.8483229026   -0.0815234938
     36  H         7.8490434277    0.1784347621   -0.0497210304
     37  H         7.4990035031   -2.4404608786    0.0443360940
   Point Group: c1    Number of degrees of freedom:   105


   Energy is  -2595.906104006

              Constraints and their Current Values
                                        Value     Constraint
   Dihedral:        4   6   7   8      120.000      120.000
   Dihedral:       10  13  16  17     -179.114     -179.114
   Dihedral:       17  19  22  25      179.217      179.217
 Hessian Updated using BFGS Update

 98 Hessian modes will be used to form the next step
  Hessian Eigenvalues:
     0.010049    0.025096    0.043251    0.045000    0.045000    0.045000
     0.045000    0.045000    0.045000    0.045000    0.045000    0.045000
     0.045000    0.045000    0.045000    0.045000    0.045001    0.045001
     0.045001    0.045001    0.045003    0.045006    0.045007    0.045010
     0.045020    0.045125    0.046346    0.155408    0.159172    0.159929
     0.159995    0.159997    0.160000    0.160011    0.160206    0.161434
     0.219839    0.224580    0.225263    0.228079    0.232503    0.234619
     0.238894    0.246566    0.247570    0.248318    0.249897    0.249981
     0.249991    0.249995    0.249999    0.249999    0.251791    0.272506
     0.297596    0.304920    0.311094    0.316415    0.325412    0.328700
     0.334425    0.353173    0.355720    0.356590    0.356732    0.357092
     0.359304    0.360080    0.360776    0.361281    0.364116    0.365028
     0.385363    0.386694    0.392608    0.395989    0.410447    0.414116
     0.432669    0.444912    0.456769    0.466783    0.473213    0.474306
     0.480437    0.484203    0.493659    0.499352    0.504109    0.517634
     0.526664    0.538637    0.566486    0.575430    0.588883    0.624767
     0.639118    0.647192

 Minimum Search - Taking Simple RFO Step
 Searching for Lamda that Minimizes Along All modes
 Value Taken    Lamda =   0.00000000
 Step Taken.  Stepsize is  0.002940

                             Maximum     Tolerance    Cnvgd?
         Gradient           0.000043      0.000300     YES
         Displacement       0.001089      0.001200     YES
         Energy change     -0.000001      0.000001     YES

 Final energy is   -2595.90610400553     


 ******************************
 **  OPTIMIZATION CONVERGED  **
 ******************************

                       Coordinates (Angstroms)
     ATOM                X               Y               Z
      1  C        -7.5996139406    0.5017770989    0.0111456016
      2  C        -7.0054423982   -0.2450534190   -0.9950562486
      3  N        -6.9135796759    1.1050145173    0.9753258193
      4  C        -5.6297717397   -0.3698359311   -1.0029964158
      5  C        -5.5924310122    0.9746665538    0.9592134255
      6  C        -4.8917238008    0.2501000497   -0.0010528092
      7  C        -3.4182713511    0.2036470094    0.0197051869
      8  C        -2.6489613165    1.3321088174   -0.0294092179
      9  C        -2.6929147050   -1.0205218032    0.0357145243
     10  N        -1.2918564803    1.3738689861   -0.0320942929
     11  N        -3.1908112024   -2.2577414226    0.0619165533
     12  C        -1.2662890287   -0.9926538206    0.0328381171
     13  C        -0.5864551104    0.2701163443    0.0007568201
     14  S        -1.9259061368   -3.2570102273    0.0813637331
     15  N        -0.7109078602   -2.2009231784    0.0586522313
     16  C         0.8516585574    0.4086132352   -0.0051401567
     17  S         1.9779284065   -0.9040213159    0.0117145370
     18  C         1.5392254519    1.5996456185   -0.0351888948
     19  C         3.3426614685    0.1423357246   -0.0149500870
     20  S         1.0528792177    3.2592836177   -0.0700952129
     21  C         2.9517481464    1.4651005717   -0.0404003666
     22  C         4.6992564569   -0.3642149663   -0.0093326186
     23  C         2.7339011356    3.7496078124   -0.0895337142
     24  C         3.6186272569    2.7368517865   -0.0719564799
     25  N         5.7501014658    0.4041809342   -0.0439625198
     26  S         5.0729924522   -2.0635300252    0.0458146454
     27  C         6.8977869313   -0.3306622883   -0.0268812395
     28  C         6.7422650888   -1.6763662587    0.0204086104
     29  H        -8.6764005991    0.6218441105    0.0434866565
     30  H        -7.6113640668   -0.7131333075   -1.7574977999
     31  H        -5.1283595910   -0.9400996687   -1.7730060205
     32  H        -5.0512630860    1.4660125703    1.7607792132
     33  H        -3.1318582276    2.3007538432   -0.0723341015
     34  H         2.9634455994    4.8030315648   -0.1156152055
     35  H         4.6898204686    2.8483229026   -0.0815234938
     36  H         7.8490434277    0.1784347621   -0.0497210304
     37  H         7.4990035031   -2.4404608786    0.0443360940

Z-matrix Print:
$molecule
0 1
S 
C  1 1.719904
C  2 1.379553 1 111.025119
C  3 1.418926 2 111.896695 1 -0.106297 0
C  4 1.375576 3 114.554791 2 -0.056139 0
C  3 1.436341 2 135.873638 1 179.827112 0
H  6 1.077020 3 123.615249 2 0.005271 0
C  6 1.344888 3 111.198933 2 -179.905401 0
H  8 1.078458 6 126.573810 3 179.889884 0
C  5 1.444779 4 125.494322 3 179.735063 0
N  10 1.310321 5 117.065473 4 -0.362265 0
C  11 1.357750 10 120.805750 5 -179.991816 0
H  12 1.083192 11 114.709303 10 179.187909 0
C  12 1.366630 11 126.024101 10 -0.724092 0
C  14 1.423021 12 115.074998 11 1.610230 0
N  15 1.333904 14 127.435277 12 178.951754 0
C  15 1.426901 14 119.525312 12 -1.474438 0
N  17 1.330049 15 113.559595 14 -179.542625 0
C  2 1.448094 1 122.037981 3 -179.972881 0
N  19 1.302270 2 123.328835 1 -179.216987 0
C  20 1.362890 19 111.164274 2 -179.907967 0
H  21 1.079162 20 119.187196 19 179.878210 0
C  21 1.355486 20 116.047002 19 -0.037923 0
H  23 1.075670 21 128.702449 20 179.790623 0
C  14 1.474331 12 122.416294 11 179.093026 0
C  25 1.390297 14 121.778533 12 -119.999998 0
H  26 1.081448 25 120.140907 14 -2.588633 0
C  26 1.381341 25 118.963626 14 177.467547 0
H  28 1.080536 26 121.015533 25 179.991073 0
C  28 1.386808 26 118.653032 25 -0.325621 0
H  30 1.083943 28 120.458652 26 -179.781523 0
N  30 1.328225 28 123.365426 26 0.149963 0
C  32 1.327661 30 117.424004 28 0.037911 0
H  33 1.084800 32 116.294243 30 179.381762 0
S  18 1.609986 17 106.323088 15 -0.094386 0
S  23 1.713771 21 109.667193 20 0.009895 0
S  4 1.729783 3 111.764595 2 179.894772 0
$end

 
 --------------------------------------------------------------
 
                    Orbital Energies (a.u.)
 --------------------------------------------------------------
 
 Alpha MOs
 -- Occupied --
-89.156 -89.094 -89.093 -89.075 -14.496 -14.489 -14.452 -14.445
-14.437 -10.375 -10.370 -10.363 -10.361 -10.345 -10.341 -10.340
-10.334 -10.329 -10.328 -10.328 -10.327 -10.325 -10.322 -10.318
-10.314 -10.314 -10.303 -10.296  -8.166  -8.109  -8.108  -8.089
 -6.116  -6.111  -6.110  -6.058  -6.057  -6.054  -6.054  -6.052
 -6.051  -6.039  -6.035  -6.031  -1.153  -1.084  -1.073  -1.055
 -1.024  -1.016  -0.957  -0.946  -0.912  -0.910  -0.907  -0.886
 -0.861  -0.844  -0.829  -0.807  -0.775  -0.751  -0.744  -0.731
 -0.723  -0.695  -0.690  -0.679  -0.648  -0.640  -0.623  -0.622
 -0.609  -0.595  -0.587  -0.577  -0.570  -0.569  -0.540  -0.537
 -0.526  -0.523  -0.517  -0.514  -0.511  -0.501  -0.497  -0.491
 -0.489  -0.482  -0.476  -0.462  -0.458  -0.446  -0.438  -0.432
 -0.431  -0.425  -0.404  -0.397  -0.380  -0.373  -0.372  -0.370
 -0.362  -0.354  -0.345  -0.337  -0.330  -0.321  -0.269
 -- Virtual --
 -0.057  -0.010   0.029   0.038   0.048   0.057   0.061   0.064
  0.074   0.102   0.107   0.113   0.115   0.123   0.131   0.135
  0.141   0.146   0.151   0.161   0.169   0.170   0.171   0.180
  0.186   0.197   0.201   0.212   0.214   0.224   0.229   0.240
  0.247   0.252   0.258   0.266   0.271   0.274   0.287   0.290
  0.295   0.297   0.305   0.308   0.312   0.318   0.323   0.326
  0.329   0.333   0.338   0.339   0.346   0.351   0.354   0.358
  0.359   0.367   0.370   0.373   0.378   0.381   0.385   0.388
  0.392   0.394   0.398   0.399   0.404   0.405   0.407   0.411
  0.419   0.425   0.429   0.433   0.433   0.436   0.441   0.444
  0.449   0.451   0.454   0.458   0.459   0.461   0.465   0.467
  0.470   0.473   0.473   0.475   0.480   0.487   0.490   0.491
  0.494   0.500   0.503   0.505   0.508   0.512   0.516   0.520
  0.524   0.525   0.533   0.539   0.541   0.545   0.549   0.552
  0.557   0.562   0.574   0.577   0.586   0.592   0.594   0.598
  0.603   0.607   0.614   0.629   0.635   0.643   0.649   0.659
  0.660   0.660   0.667   0.670   0.672   0.677   0.682   0.685
  0.689   0.694   0.698   0.704   0.712   0.715   0.721   0.728
  0.731   0.736   0.740   0.744   0.745   0.754   0.762   0.764
  0.768   0.773   0.777   0.779   0.784   0.788   0.791   0.800
  0.804   0.806   0.814   0.816   0.821   0.822   0.830   0.832
  0.835   0.840   0.843   0.853   0.857   0.858   0.865   0.870
  0.872   0.878   0.883   0.885   0.888   0.901   0.904   0.914
  0.921   0.926   0.931   0.939   0.941   0.946   0.948   0.956
  0.964   0.966   0.973   0.976   0.978   0.985   0.987   0.991
  0.993   0.996   1.012   1.015   1.017   1.026   1.031   1.040
  1.045   1.047   1.052   1.058   1.065   1.070   1.073   1.080
  1.086   1.091   1.097   1.104   1.109   1.115   1.119   1.131
  1.135   1.137   1.145   1.147   1.167   1.173   1.176   1.183
  1.188   1.194   1.198   1.208   1.220   1.222   1.224   1.235
  1.239   1.248   1.252   1.259   1.264   1.272   1.278   1.280
  1.281   1.293   1.298   1.301   1.316   1.320   1.324   1.332
  1.338   1.349   1.357   1.360   1.366   1.367   1.380   1.387
  1.390   1.408   1.411   1.416   1.423   1.426   1.431   1.434
  1.442   1.448   1.456   1.461   1.462   1.472   1.476   1.486
  1.499   1.500   1.503   1.508   1.530   1.537   1.542   1.544
  1.550   1.565   1.573   1.578   1.589   1.591   1.595   1.603
  1.610   1.611   1.622   1.626   1.630   1.633   1.637   1.642
  1.655   1.661   1.668   1.670   1.678   1.680   1.684   1.686
  1.692   1.695   1.700   1.711   1.718   1.727   1.733   1.741
  1.748   1.752   1.757   1.767   1.776   1.780   1.785   1.794
  1.811   1.814   1.822   1.834   1.841   1.859   1.861   1.871
  1.874   1.880   1.882   1.894   1.910   1.921   1.923   1.925
  1.937   1.944   1.949   1.959   1.960   1.972   1.974   1.991
  1.994   1.994   2.001   2.005   2.020   2.022   2.031   2.033
  2.045   2.061   2.068   2.072   2.075   2.092   2.097   2.102
  2.116   2.125   2.128   2.136   2.154   2.160   2.166   2.171
  2.176   2.182   2.187   2.193   2.206   2.212   2.226   2.233
  2.234   2.242   2.245   2.256   2.268   2.274   2.280   2.292
  2.301   2.309   2.315   2.335   2.347   2.352   2.357   2.366
  2.372   2.380   2.383   2.385   2.395   2.400   2.409   2.418
  2.421   2.423   2.436   2.442   2.447   2.451   2.466   2.471
  2.477   2.481   2.496   2.500   2.500   2.507   2.512   2.520
  2.525   2.537   2.543   2.546   2.554   2.571   2.578   2.582
  2.595   2.604   2.607   2.614   2.615   2.621   2.625   2.629
  2.644   2.649   2.656   2.660   2.667   2.685   2.694   2.708
  2.719   2.734   2.741   2.743   2.761   2.767   2.768   2.778
  2.786   2.788   2.790   2.792   2.799   2.810   2.812   2.819
  2.829   2.834   2.846   2.852   2.859   2.866   2.869   2.880
  2.890   2.892   2.904   2.914   2.926   2.935   2.937   2.938
  2.943   2.950   2.953   2.955   2.960   2.969   2.976   2.977
  2.982   2.987   2.995   3.006   3.009   3.013   3.018   3.024
  3.035   3.041   3.053   3.054   3.061   3.062   3.065   3.068
  3.070   3.077   3.080   3.090   3.092   3.095   3.103   3.105
  3.110   3.117   3.122   3.125   3.128   3.137   3.138   3.145
  3.149   3.156   3.166   3.167   3.173   3.175   3.178   3.185
  3.187   3.189   3.192   3.198   3.199   3.205   3.208   3.213
  3.217   3.219   3.229   3.236   3.243   3.244   3.248   3.249
  3.254   3.259   3.263   3.267   3.276   3.279   3.283   3.288
  3.294   3.298   3.304   3.307   3.312   3.314   3.319   3.322
  3.332   3.335   3.342   3.350   3.352   3.358   3.364   3.370
  3.376   3.380   3.384   3.388   3.401   3.407   3.413   3.420
  3.425   3.433   3.440   3.450   3.454   3.462   3.464   3.469
  3.473   3.483   3.485   3.489   3.497   3.501   3.509   3.518
  3.521   3.527   3.535   3.541   3.554   3.556   3.571   3.574
  3.579   3.586   3.596   3.598   3.605   3.612   3.621   3.625
  3.645   3.648   3.651   3.665   3.675   3.691   3.696   3.711
  3.716   3.723   3.733   3.733   3.739   3.748   3.754   3.760
  3.779   3.785   3.787   3.794   3.798   3.802   3.803   3.814
  3.818   3.829   3.835   3.841   3.855   3.857   3.863   3.866
  3.868   3.887   3.902   3.906   3.912   3.928   3.935   3.939
  3.948   3.951   3.962   3.964   3.967   3.968   3.983   3.986
  3.987   4.001   4.005   4.013   4.022   4.027   4.034   4.045
  4.050   4.054   4.082   4.087   4.093   4.105   4.116   4.125
  4.127   4.141   4.150   4.160   4.162   4.175   4.178   4.187
  4.187   4.202   4.204   4.214   4.216   4.228   4.238   4.247
  4.264   4.273   4.275   4.290   4.294   4.296   4.310   4.317
  4.321   4.338   4.344   4.350   4.355   4.374   4.386   4.389
  4.393   4.408   4.414   4.416   4.440   4.444   4.452   4.459
  4.466   4.478   4.486   4.496   4.505   4.524   4.529   4.536
  4.547   4.555   4.567   4.571   4.580   4.588   4.600   4.606
  4.616   4.636   4.642   4.643   4.671   4.676   4.684   4.691
  4.698   4.712   4.729   4.741   4.750   4.784   4.788   4.793
  4.804   4.812   4.833   4.846   4.849   4.852   4.870   4.875
  4.887   4.896   4.904   4.927   4.933   4.936   4.941   4.947
  4.950   4.960   4.967   4.971   4.988   4.990   4.997   5.009
  5.024   5.031   5.048   5.061   5.079   5.083   5.091   5.097
  5.109   5.131   5.133   5.146   5.153   5.170   5.173   5.193
  5.213   5.234   5.239   5.244   5.256   5.261   5.282   5.283
  5.308   5.319   5.341   5.352   5.361   5.387   5.398   5.411
  5.432   5.438   5.457   5.461   5.468   5.484   5.512   5.525
  5.532   5.548   5.559   5.584   5.614   5.655   5.664   5.666
  5.694   5.706   5.722   5.736   5.764   5.777   5.805   5.830
  5.851   5.887   5.898   5.949   5.964   5.999   6.016   6.106
  6.136   6.153   6.164   6.188   6.205   6.226   6.263   6.294
  6.343   6.356   6.401   6.418   6.462   6.853   6.998   8.012
  8.924   9.702  10.163  10.937  11.168  11.235  11.729  12.025
 12.329  12.384  12.649  12.792  12.827  13.093  13.341  13.421
 13.535  13.596  13.766  13.847  14.271  14.751  15.010
 --------------------------------------------------------------
 
          Ground-State Mulliken Net Atomic Charges

     Atom                 Charge (a.u.)
  ----------------------------------------
      1 C                    -0.071327
      2 C                    -0.100992
      3 N                    -0.151557
      4 C                    -0.125604
      5 C                    -0.118935
      6 C                     0.099402
      7 C                     0.003909
      8 C                    -0.075221
      9 C                     0.020534
     10 N                    -0.181027
     11 N                    -0.270158
     12 C                     0.024799
     13 C                     0.118058
     14 S                     0.409490
     15 N                    -0.283864
     16 C                    -0.060180
     17 S                     0.129973
     18 C                    -0.007257
     19 C                    -0.021689
     20 S                     0.093697
     21 C                     0.020870
     22 C                     0.037550
     23 C                    -0.162727
     24 C                    -0.160394
     25 N                    -0.183116
     26 S                     0.100218
     27 C                    -0.074834
     28 C                    -0.203425
     29 H                     0.124512
     30 H                     0.128890
     31 H                     0.123188
     32 H                     0.135587
     33 H                     0.133068
     34 H                     0.131614
     35 H                     0.142102
     36 H                     0.129217
     37 H                     0.145631
  ----------------------------------------
  Sum of atomic charges =     0.000000

 -----------------------------------------------------------------
                    Cartesian Multipole Moments
 -----------------------------------------------------------------
    Charge (ESU x 10^10)
                 0.0000
    Dipole Moment (Debye)
         X       1.7586      Y      -2.2339      Z      -1.5672
       Tot       3.2464
    Quadrupole Moments (Debye-Ang)
        XX    -167.4563     XY       2.5023     YY    -174.3624
        XZ      12.8528     YZ       0.2852     ZZ    -187.6894
    Octopole Moments (Debye-Ang^2)
       XXX     201.8636    XXY     -99.7598    XYY      54.1943
       YYY      -6.5641    XXZ     -95.4170    XYZ      -1.7171
       YYZ      -1.4060    XZZ     -13.5498    YZZ     -16.3358
       ZZZ       0.2105
    Hexadecapole Moments (Debye-Ang^3)
      XXXX  -17111.7476   XXXY     -61.7039   XXYY   -3728.7283
      XYYY     113.3608   YYYY   -3512.3008   XXXZ     741.5721
      XXYZ     -30.4317   XYYZ      16.0148   YYYZ     -26.5521
      XXZZ   -3397.8398   XYZZ      32.3599   YYZZ    -740.2575
      XZZZ      31.5318   YZZZ      -3.9626   ZZZZ    -371.0876
 -----------------------------------------------------------------
Archival summary:
1\1\mn169\OPT\ProcedureUnspecified\BasisUnspecified\45199\afmv_a\FriJun208:07:412017FriJun208:07:412017\0\\#,OPT,ProcedureUnspecified,BasisUnspecified,\\0,1\S\C,1,1.7199\C,2,1.37955,1,111.025\C,3,1.41893,2,111.897,1,-0.106297,0\C,4,1.37558,3,114.555,2,-0.0561393,0\C,3,1.43634,2,135.874,1,179.827,0\H,6,1.07702,3,123.615,2,0.00527077,0\C,6,1.34489,3,111.199,2,-179.905,0\H,8,1.07846,6,126.574,3,179.89,0\C,5,1.44478,4,125.494,3,179.735,0\N,10,1.31032,5,117.065,4,-0.362265,0\C,11,1.35775,10,120.806,5,-179.992,0\H,12,1.08319,11,114.709,10,179.188,0\C,12,1.36663,11,126.024,10,-0.724092,0\C,14,1.42302,12,115.075,11,1.61023,0\N,15,1.3339,14,127.435,12,178.952,0\C,15,1.4269,14,119.525,12,-1.47444,0\N,17,1.33005,15,113.56,14,-179.543,0\C,2,1.44809,1,122.038,3,-179.973,0\N,19,1.30227,2,123.329,1,-179.217,0\C,20,1.36289,19,111.164,2,-179.908,0\H,21,1.07916,20,119.187,19,179.878,0\C,21,1.35549,20,116.047,19,-0.0379229,0\H,23,1.07567,21,128.702,20,179.791,0\C,14,1.47433,12,122.416,11,179.093,0\C,25,1.3903,14,121.779,12,-120,0\H,26,1.08145,25,120.141,14,-2.58863,0\C,26,1.38134,25,118.964,14,177.468,0\H,28,1.08054,26,121.016,25,179.991,0\C,28,1.38681,26,118.653,25,-0.325621,0\H,30,1.08394,28,120.459,26,-179.782,0\N,30,1.32823,28,123.365,26,0.149963,0\C,32,1.32766,30,117.424,28,0.037911,0\H,33,1.0848,32,116.294,30,179.382,0\S,18,1.60999,17,106.323,15,-0.0943857,0\S,23,1.71377,21,109.667,20,0.00989459,0\S,4,1.72978,3,111.765,2,179.895,0\\\@

 Total job time:  6044.98s(wall), 91509.69s(cpu) 
 Fri Jun  2 08:07:41 2017

        *************************************************************
        *                                                           *
        *  Thank you very much for using Q-Chem.  Have a nice day.  *
        *                                                           *
        *************************************************************


0 sent ACK to 0 
now end server 0 ... 
cleanup process ... done
