
Running Job 1 of 1 C271_3/C271_135.qcin
qchem C271_3/C271_135.qcin_24445.0 /tmpu/cab_g/afmv_a/scratch_qchem/qchem24445/ 1
/tmpu/appuserlic/qchem4.4/parallel-MPICH/bin/mpi/mpirun_qchem -machinefile /tmpu/appuserlic/qchem4.4/parallel-MPICH/bin/mpi/machines -np 1 /tmpu/appuserlic/qchem4.4/parallel-MPICH/exe/qcprog.exe C271_3/C271_135.qcin_24445.0 /tmpu/cab_g/afmv_a/scratch_qchem/qchem24445/

Process 0 of 1 is on mn256 - thread support 0
initial socket setup ...start
initial socket setup ...done 
now start server 0 ... 
Check license passed

                  Welcome to Q-Chem
     A Quantum Leap Into The Future Of Chemistry


 Q-Chem 4.4, Q-Chem, Inc., Pleasanton, CA (2016)

 Y. Shao,  Z. Gan,  E. Epifanovsky,  A. T. B. Gilbert,  M. Wormit,  
 J. Kussmann,  A. W. Lange,  A. Behn,  J. Deng,  X. Feng,  D. Ghosh,  
 M. Goldey,  P. R. Horn,  L. D. Jacobson,  I. Kaliman,  F. Rob,  
 R. Z. Khaliullin,  T. Kus,  A. Landau,  J. Liu,  E. I. Proynov,  Y. M. Rhee,  
 R. M. Richard,  M. A. Rohrdanz,  R. P. Steele,  E. J. Sundstrom,  
 H. L. Woodcock III,  P. M. Zimmerman,  D. Zuev,  B. Albrecht,  E. Alguire,  
 B. Austin,  S. A. Baeppler,  G. J. O. Beran,  Y. A. Bernard,  E. Berquist,  
 K. Brandhorst,  K. B. Bravaya,  S. T. Brown,  D. Casanova,  C.-M. Chang,  
 Y. Chen,  S. H. Chien,  K. D. Closser,  M. P. Coons,  D. L. Crittenden,  
 S. Dasgupta,  M. Diedenhofen,  R. A. DiStasio Jr.,  H. Do,  A. D. Dutoi,  
 R. G. Edgar,  P.-T. Fang,  S. Fatehi,  Q. Feng,  L. Fusti-Molnar,  
 A. Ghysels,  A. Golubeva-Zadorozhnaya,  J. Gomes,  A. Gunina,  
 M. W. D. Hanson-Heine,  P. H. P. Harbach,  A. W. Hauser,  J. E. Herr,  
 E. G. Hohenstein,  Z. C. Holden,  K. Hui,  T.-C. Jagau,  H. Ji,  B. Kaduk,  
 K. Khistyaev,  Jaehoon Kim,  Jihan Kim,  R. A. King,  P. Klunzinger,  
 K. Koh,  D. Kosenkov,  T. Kowalczyk,  C. M. Krauter,  A. Kunitsa,  
 K. U. Lao,  A. Laurent,  K. V. Lawler,  J. Lee,  D. Lefrancois,  S. Lehtola,  
 S. V. Levchenko,  C. Y. Lin,  Y.-S. Lin,  F. Liu,  E. Livshits,  
 R. C. Lochan,  A. Luenser,  P. Manohar,  S. F. Manzer,  S.-P. Mao,  Y. Mao,  
 N. Mardirossian,  A. V. Marenich,  L. A. Martinez-Martinez,  S. A. Maurer,  
 N. J. Mayhall,  J.-M. Mewes,  A. F. Morrison,  K. Nanda,  T. S. Nguyen-Beck,  
 C. M. Oana,  R. Olivares-Amaya,  D. P. O'Neill,  J. A. Parkhill,  
 T. M. Perrine,  R. Peverati,  P. A. Pieniazek,  F. Plasser,  A. Prociuk,  
 D. R. Rehn,  E. Rosta,  N. J. Russ,  N. Sergueev,  S. M. Sharada,  
 S. Sharma,  D. W. Small,  A. Sodt,  T. Stauch,  T. Stein,  D. Stuck,  
 Y.-C. Su,  A. J. W. Thom,  T. Tsuchimochi,  L. Vogt,  O. Vydrov,  T. Wang,  
 M. A. Watson,  J. Wenzel,  A. White,  C. F. Williams,  V. Vanovschi,  
 K. Yao,  S. Yeganeh,  S. R. Yost,  Z.-Q. You,  I. Y. Zhang,  X. Zhang,  
 Y. Zhao,  B. R. Brooks,  G. K. L. Chan,  D. M. Chipman,  C. J. Cramer,  
 W. A. Goddard III,  M. S. Gordon,  W. J. Hehre,  A. Klamt,  
 H. F. Schaefer III,  M. W. Schmidt,  C. D. Sherrill,  D. G. Truhlar,  
 A. Warshel,  X. Xu,  A. Aspuru-Guzik,  R. Baer,  A. T. Bell,  N. A. Besley,  
 J.-D. Chai,  A. Dreuw,  B. D. Dunietz,  T. R. Furlani,  S. R. Gwaltney,  
 C.-P. Hsu,  Y. Jung,  J. Kong,  D. S. Lambrecht,  W. Liang,  C. Ochsenfeld,  
 V. A. Rassolov,  L. V. Slipchenko,  J. E. Subotnik,  T. Van Voorhis,  
 J. M. Herbert,  A. I. Krylov,  P. M. W. Gill,  M. Head-Gordon

 Contributors to earlier versions of Q-Chem not listed above: 
 R. D. Adamson,  J. Baker,  E. F. C. Byrd,  A. K. Chakraborty,  C.-L. Cheng,  
 H. Dachsel,  R. J. Doerksen,  G. Hawkins,  A. Heyden,  S. Hirata,  
 G. Kedziora,  F. J. Keil,  C. Kelley,  P. P. Korambath,  W. Kurlancheek,  
 A. M. Lee,  M. S. Lee,  D. Liotard,  I. Lotan,  P. E. Maslen,  N. Nair,  
 D. Neuhauser,  R. Olson,  B. Peters,  J. Ritchie,  N. E. Schultz,  
 N. Shenvi,  A. C. Simmonett,  K. S. Thanthiriwatte,  Q. Wu,  W. Zhang

 Please cite Q-Chem as follows:
 Y. Shao et al., Mol. Phys. 113, 184-215 (2015)
 DOI: 10.1080/00268976.2014.952696

 Q-Chem 4.4.2 for Intel X86 Linux

 Parts of Q-Chem use Armadillo 5.200.1 (Boston Tea Smuggler).
 http://arma.sourceforge.net/

 Q-Chem begins on Sat Jun  3 00:01:38 2017  

Host: 
0

     Scratch files written to /tmpu/cab_g/afmv_a/scratch_qchem/qchem24445//
 Dec716 11556_ 22328  22283 4050   
 Parallel job on  1  processors
Processing $rem in /tmpu/appuserlic/qchem4.4/parallel-MPICH/config/preferences.
 MEM_TOTAL  2000 
FILE_GEOM_ORG=        593

Checking the input file for inconsistencies... 	...done.

--------------------------------------------------------------
User input:
--------------------------------------------------------------
$comment
OPTIMIZATION
$end

$rem
JOBTYPE OPT
EXCHANGE omegaB97X-D
BASIS cc-pVTZ
$end

$molecule
0 1
C          0.00000        0.00000        0.00000
C          1.38508        0.00000        0.00000
N         -0.72771       -1.11322        0.00000
C          2.04720       -1.21160       -0.00386
C         -0.08136       -2.27149       -0.00595
C          1.30925       -2.38901       -0.00649
C          1.96927       -3.70493        0.02329
C          3.04486       -3.95576        0.82999
C          1.55200       -4.80802       -0.77739
N          3.72631       -5.12438        0.91627
N          0.54624       -4.84522       -1.65350
C          2.26335       -6.04410       -0.69858
C          3.37925       -6.16090        0.19241
S          0.53898       -6.32692       -2.28381
N          1.78433       -6.98642       -1.50573
C          4.16725       -7.35995        0.35676
S          3.93086       -8.84971       -0.49207
C          5.23222       -7.49170        1.21798
C          5.24541       -9.62206        0.30618
S          5.99863       -6.41836        2.33861
C          5.85372       -8.76608        1.20048
C          5.61707      -10.99188        0.02046
C          7.13339       -7.68106        2.76702
C          6.95917       -8.84504        2.11640
N          6.84880      -11.37544       -0.15601
S          4.45158      -12.27930       -0.12017
C          6.91484      -12.71183       -0.41656
C          5.73221      -13.37347       -0.44027
H         -0.55134        0.93273        0.00000
H          1.92494        0.93597       -0.01293
H          3.12873       -1.25416       -0.02668
H         -0.69553       -3.16348       -0.00579
H          3.41622       -3.17720        1.48423
H          7.89362       -7.46677        3.50210
H          7.55900       -9.73031        2.24234
H          7.87452      -13.17487       -0.58838
H          5.54966      -14.41752       -0.62489
$end

$opt
CONSTRAINT
tors 4 6 7 8 42.24575
tors 10 13 16 17 -179.11427
tors 17 19 22 25 135.00000
ENDCONSTRAINT
$end
--------------------------------------------------------------
 ----------------------------------------------------------------
             Standard Nuclear Orientation (Angstroms)
    I     Atom           X                Y                Z
 ----------------------------------------------------------------
    1      C       7.6127221879     0.4107108846    -0.1193909516
    2      C       6.9380320312     1.3226196581     0.6753808317
    3      N       6.9971431657    -0.5250417914    -0.8365032228
    4      C       5.5599458208     1.2591115655     0.7322796248
    5      C       5.6733319707    -0.5783755310    -0.7726866888
    6      C       4.8935730187     0.2886265680    -0.0059463473
    7      C       3.4236471667     0.2021735846    -0.0043443374
    8      C       2.6341753770     1.3165283524    -0.0786556543
    9      C       2.7122914340    -1.0303356651     0.0787473845
   10      N       1.2788779704     1.3402633975    -0.0688254732
   11      N       3.2208008730    -2.2606695329     0.1693148937
   12      C       1.2840798580    -1.0193013935     0.0933605316
   13      C       0.5868584700     0.2297661865     0.0130439906
   14      S       1.9698857702    -3.2710239347     0.2540124853
   15      N       0.7432744130    -2.2306008506     0.1892842572
   16      C      -0.8514026041     0.3604382344     0.0154364557
   17      S      -1.9850068480    -0.9419822544     0.1355187063
   18      C      -1.5351095144     1.5510545527    -0.0750991459
   19      C      -3.3448377792     0.1104386630     0.0645304060
   20      S      -1.0383757626     3.2031436177    -0.2133450924
   21      C      -2.9473213512     1.4264426645    -0.0478504825
   22      C      -4.7028997476    -0.3870827143     0.1302120277
   23      C      -2.7163859279     3.7026512553    -0.2333621061
   24      C      -3.6079301891     2.6998851685    -0.1432652769
   25      N      -5.6268499221     0.1551590620     0.8702854419
   26      S      -5.2488403534    -1.7712676709    -0.7761956368
   27      C      -6.8083750945    -0.5139788959     0.7501252300
   28      C      -6.8074712178    -1.5789666200    -0.0881728680
   29      H       8.6940644705     0.4303257687    -0.1847757566
   30      H       7.4914129629     2.0538277271     1.2470102131
   31      H       4.9973606897     1.9393095899     1.3590713483
   32      H       5.1952158662    -1.3485261930    -1.3652437942
   33      H       3.0936258860     2.2932726200    -0.1621407804
   34      H      -2.9427682654     4.7549731642    -0.3080755634
   35      H      -4.6788682851     2.8111424173    -0.1347034691
   36      H      -7.6693355440    -0.1805175140     1.3091104424
   37      H      -7.6175816346    -2.2439348062    -0.3310470603
 ----------------------------------------------------------------
 Molecular Point Group                 C1    NOp =  1
 Largest Abelian Subgroup              C1    NOp =  1
 Nuclear Repulsion Energy =  2963.1180154189 hartrees
 There are      111 alpha and      111 beta electrons
 Requested basis set is cc-pVTZ
 There are 342 shells and 982 basis functions

 Total QAlloc Memory Limit   2000 MB
 Mega-Array Size        61 MB
 MEM_STATIC part        62 MB
 A cutoff of  1.0D-11 yielded  29192 shell pairs
 There are    231466 function pairs (    302368 Cartesian)
 
 -------------------------------------------------------
 OpenMP Integral Computing Module                       
 Release: version 1.0, May 2013, Q-Chem Inc. Pittsburgh 
 -------------------------------------------------------
 Integral Job Info:
 Integral job number is                      11
 Integral operator is                         1
 short-range coefficients              22203600
 long-range coefficients              100000000
 Omega coefficients                         200
 if combine SR and LR in K                    1
 Integral screening is                        0
 Integral computing path is                   2
 max size of driver memory is            800000
 size of driver memory is                776718
 size of scratch memory is             26248924
 max col of scratch BK array              10000
 max len of scratch array in speh3          662
 max len of scratch index in speh4           32
 max int batch size is                      520
 min int batch size is                       52
 fixed nKL is                                52
 max L of basis functions is                  3
 order of int derivative is                   0
 number of shells is                        342
 number of basis is                        1131
 number of cartesian basis is              1131
 number of contracted shell pairs         29192
 number of primitive shell pairs          92264
 maxK2 (contraction) of shell pair          121
 max number of K2 of shell pair               1
 max number of CS2 of shell pair           3964
 max number of PS2 of shell pair          11711
 mem total for path MDJ                  807016
 -------------------------------------------------------
 Smallest overlap matrix eigenvalue = 2.22E-05

 Scale SEOQF with 1.000000e-02/1.000000e-01/1.000000e+00

 Standard Electronic Orientation quadrupole field applied
 Nucleus-field energy     =     0.0000000211 hartrees
 Guess from superposition of atomic densities
 Warning:  Energy on first SCF cycle will be non-variational
 Long-range K will be added via erf
 Coulomb attenuation parameter = 0.2 bohr**(-1)
 A restricted hybrid HF-DFT SCF calculation will be
 performed using Pulay DIIS extrapolation
 Exchange:     0.2220 Hartree-Fock + 1.0000 wB97X-D + LR-HF
 Correlation:  1.0000 wB97X-D
 Using SG-2 standard quadrature grid
 Dispersion:   Grimme D
 SCF converges when DIIS error is below 1.0E-08
 using 16 threads for integral computing 
 using 16 threads for integral computing 
 K construction time:  CPU 71.93 s  wall 4.68 s
 -------------------------------------------------------
 OpenMP BLAS3 based DFT computing Module                
 Release: version 1.0, May 2013, Q-Chem Inc. Pittsburgh 
 -------------------------------------------------------
 ---------------------------------------
  Cycle       Energy         DIIS Error
 ---------------------------------------
    1   -2605.9130872546      1.87E-02
 K construction time:  CPU 1080.77 s  wall 70.57 s
    2   -2595.6582485303      1.38E-03
 K construction time:  CPU 1036.34 s  wall 67.64 s
    3   -2595.6550184580      1.51E-03
 K construction time:  CPU 986.81 s  wall 64.41 s
    4   -2595.8954082615      2.51E-04
 K construction time:  CPU 916.63 s  wall 59.88 s
    5   -2595.9012735719      1.39E-04
 K construction time:  CPU 864.07 s  wall 56.40 s
    6   -2595.9033662091      4.32E-05
 K construction time:  CPU 810.06 s  wall 52.93 s
    7   -2595.9035748046      1.94E-05
 K construction time:  CPU 760.28 s  wall 49.55 s
    8   -2595.9036269107      6.26E-06
 K construction time:  CPU 728.45 s  wall 47.55 s
    9   -2595.9036375120      3.45E-06
 K construction time:  CPU 695.86 s  wall 45.35 s
   10   -2595.9036407488      1.32E-06
 K construction time:  CPU 631.47 s  wall 41.02 s
   11   -2595.9036411948      6.72E-07
 K construction time:  CPU 592.13 s  wall 38.55 s
   12   -2595.9036413227      2.12E-07
 K construction time:  CPU 523.43 s  wall 34.04 s
   13   -2595.9036413369      9.46E-08
 K construction time:  CPU 464.46 s  wall 30.16 s
   14   -2595.9036413395      2.99E-08
 K construction time:  CPU 385.54 s  wall 24.95 s
   15   -2595.9036413407      1.35E-08
 K construction time:  CPU 1080.56 s  wall 70.51 s
   16   -2595.9036413356      4.80E-09 Convergence criterion met
 ---------------------------------------
 SCF time:  CPU 15482.06 s  wall 1032.50 s
 SCF   energy in the final basis set = -2595.9036413356
 Total energy in the final basis set = -2595.9036413356
 
 --------------------------------------------------------------
 
                    Orbital Energies (a.u.)
 --------------------------------------------------------------
 
 Alpha MOs
 -- Occupied --
-89.156 -89.095 -89.094 -89.075 -14.495 -14.488 -14.452 -14.447
-14.436 -10.374 -10.370 -10.363 -10.360 -10.345 -10.340 -10.339
-10.334 -10.329 -10.328 -10.326 -10.326 -10.326 -10.323 -10.318
-10.314 -10.314 -10.302 -10.299  -8.166  -8.110  -8.109  -8.090
 -6.116  -6.110  -6.109  -6.059  -6.058  -6.055  -6.055  -6.053
 -6.052  -6.039  -6.035  -6.032  -1.153  -1.084  -1.073  -1.054
 -1.024  -1.015  -0.957  -0.946  -0.912  -0.910  -0.907  -0.884
 -0.862  -0.845  -0.829  -0.808  -0.776  -0.752  -0.744  -0.728
 -0.724  -0.694  -0.689  -0.679  -0.649  -0.641  -0.623  -0.621
 -0.612  -0.596  -0.584  -0.577  -0.570  -0.568  -0.541  -0.535
 -0.526  -0.523  -0.519  -0.514  -0.512  -0.503  -0.496  -0.491
 -0.489  -0.481  -0.477  -0.463  -0.458  -0.448  -0.439  -0.431
 -0.430  -0.423  -0.403  -0.393  -0.379  -0.374  -0.371  -0.369
 -0.364  -0.357  -0.342  -0.338  -0.327  -0.319  -0.272
 -- Virtual --
 -0.055  -0.003   0.027   0.038   0.043   0.050   0.065   0.071
  0.076   0.092   0.105   0.109   0.115   0.121   0.131   0.134
  0.141   0.144   0.146   0.167   0.168   0.170   0.174   0.176
  0.189   0.192   0.198   0.213   0.215   0.229   0.236   0.246
  0.251   0.255   0.260   0.262   0.266   0.272   0.287   0.289
  0.293   0.299   0.300   0.308   0.310   0.317   0.322   0.325
  0.330   0.335   0.336   0.339   0.345   0.352   0.354   0.355
  0.361   0.363   0.369   0.372   0.376   0.378   0.385   0.386
  0.393   0.396   0.397   0.400   0.403   0.406   0.408   0.411
  0.415   0.425   0.426   0.429   0.433   0.437   0.440   0.445
  0.446   0.450   0.452   0.458   0.462   0.463   0.466   0.468
  0.469   0.472   0.476   0.479   0.480   0.483   0.486   0.490
  0.495   0.500   0.507   0.508   0.510   0.516   0.519   0.526
  0.527   0.532   0.536   0.538   0.543   0.545   0.551   0.555
  0.557   0.563   0.570   0.573   0.582   0.587   0.591   0.595
  0.604   0.609   0.613   0.623   0.631   0.636   0.637   0.642
  0.648   0.654   0.658   0.661   0.664   0.671   0.674   0.681
  0.687   0.690   0.701   0.702   0.710   0.713   0.720   0.731
  0.732   0.734   0.736   0.742   0.747   0.750   0.760   0.764
  0.769   0.770   0.773   0.775   0.786   0.791   0.792   0.798
  0.802   0.803   0.808   0.812   0.820   0.822   0.828   0.829
  0.835   0.842   0.844   0.853   0.859   0.861   0.863   0.865
  0.870   0.873   0.883   0.891   0.895   0.900   0.907   0.910
  0.919   0.923   0.929   0.931   0.939   0.947   0.950   0.953
  0.959   0.965   0.971   0.972   0.978   0.983   0.989   0.993
  0.997   1.010   1.016   1.022   1.025   1.032   1.037   1.042
  1.044   1.051   1.057   1.058   1.066   1.070   1.073   1.078
  1.082   1.088   1.092   1.097   1.107   1.116   1.120   1.125
  1.133   1.141   1.145   1.148   1.157   1.168   1.169   1.174
  1.185   1.190   1.197   1.202   1.204   1.219   1.225   1.227
  1.233   1.241   1.247   1.253   1.260   1.263   1.269   1.282
  1.284   1.291   1.295   1.302   1.313   1.317   1.325   1.332
  1.342   1.350   1.358   1.367   1.369   1.373   1.379   1.382
  1.393   1.402   1.402   1.403   1.409   1.426   1.427   1.434
  1.448   1.451   1.453   1.457   1.461   1.474   1.480   1.485
  1.495   1.501   1.507   1.511   1.521   1.532   1.542   1.548
  1.550   1.560   1.570   1.575   1.591   1.592   1.598   1.605
  1.607   1.612   1.617   1.629   1.631   1.635   1.637   1.642
  1.658   1.659   1.663   1.667   1.670   1.681   1.685   1.690
  1.695   1.698   1.703   1.709   1.714   1.723   1.728   1.732
  1.737   1.742   1.749   1.757   1.761   1.770   1.776   1.784
  1.802   1.811   1.820   1.827   1.843   1.846   1.859   1.870
  1.872   1.883   1.888   1.898   1.908   1.909   1.924   1.925
  1.929   1.932   1.941   1.949   1.963   1.972   1.978   1.979
  1.983   1.989   1.998   2.002   2.020   2.026   2.039   2.044
  2.046   2.064   2.073   2.078   2.085   2.087   2.099   2.108
  2.119   2.123   2.129   2.139   2.145   2.154   2.168   2.174
  2.181   2.185   2.189   2.197   2.204   2.220   2.229   2.235
  2.237   2.244   2.257   2.260   2.272   2.275   2.279   2.283
  2.289   2.302   2.326   2.331   2.343   2.354   2.360   2.364
  2.371   2.375   2.377   2.383   2.391   2.396   2.404   2.407
  2.424   2.432   2.439   2.445   2.451   2.454   2.459   2.462
  2.479   2.485   2.489   2.501   2.505   2.506   2.517   2.519
  2.529   2.535   2.537   2.544   2.551   2.556   2.566   2.572
  2.580   2.589   2.597   2.606   2.613   2.619   2.624   2.630
  2.643   2.643   2.654   2.660   2.668   2.672   2.680   2.688
  2.711   2.727   2.738   2.747   2.751   2.757   2.772   2.773
  2.779   2.785   2.789   2.790   2.795   2.798   2.811   2.812
  2.823   2.833   2.836   2.850   2.855   2.867   2.876   2.881
  2.883   2.884   2.899   2.918   2.925   2.930   2.941   2.943
  2.943   2.950   2.952   2.953   2.961   2.966   2.974   2.976
  2.986   2.989   2.993   3.004   3.008   3.014   3.018   3.027
  3.027   3.033   3.036   3.046   3.051   3.056   3.060   3.061
  3.070   3.075   3.087   3.090   3.094   3.096   3.100   3.108
  3.111   3.116   3.121   3.126   3.138   3.139   3.141   3.147
  3.154   3.157   3.162   3.169   3.173   3.176   3.179   3.182
  3.188   3.191   3.195   3.198   3.205   3.209   3.218   3.219
  3.225   3.227   3.231   3.232   3.237   3.243   3.247   3.252
  3.256   3.259   3.262   3.267   3.273   3.274   3.277   3.283
  3.285   3.293   3.296   3.302   3.308   3.312   3.320   3.327
  3.331   3.338   3.345   3.347   3.353   3.361   3.366   3.374
  3.381   3.383   3.393   3.395   3.404   3.417   3.421   3.426
  3.437   3.438   3.442   3.453   3.457   3.464   3.473   3.475
  3.480   3.482   3.487   3.490   3.495   3.506   3.509   3.510
  3.514   3.527   3.533   3.537   3.548   3.558   3.561   3.567
  3.576   3.590   3.591   3.601   3.609   3.613   3.630   3.639
  3.651   3.653   3.659   3.666   3.677   3.683   3.687   3.692
  3.702   3.712   3.730   3.739   3.744   3.752   3.756   3.757
  3.769   3.777   3.778   3.787   3.790   3.796   3.804   3.814
  3.827   3.830   3.835   3.843   3.847   3.855   3.864   3.868
  3.872   3.878   3.891   3.911   3.914   3.925   3.926   3.939
  3.941   3.946   3.948   3.952   3.955   3.965   3.969   3.976
  3.985   3.991   3.999   4.008   4.011   4.023   4.034   4.039
  4.061   4.074   4.082   4.088   4.095   4.099   4.104   4.122
  4.137   4.139   4.144   4.152   4.170   4.173   4.177   4.184
  4.192   4.197   4.202   4.211   4.223   4.229   4.233   4.245
  4.252   4.264   4.273   4.281   4.292   4.296   4.303   4.322
  4.326   4.342   4.344   4.351   4.353   4.377   4.383   4.386
  4.397   4.399   4.409   4.422   4.433   4.439   4.446   4.460
  4.466   4.473   4.476   4.495   4.504   4.519   4.522   4.527
  4.538   4.547   4.553   4.558   4.572   4.574   4.593   4.609
  4.616   4.631   4.636   4.653   4.664   4.670   4.682   4.693
  4.703   4.718   4.722   4.731   4.742   4.790   4.791   4.797
  4.813   4.818   4.824   4.843   4.849   4.853   4.857   4.871
  4.885   4.900   4.903   4.923   4.936   4.942   4.945   4.953
  4.957   4.962   4.968   4.975   4.983   4.996   4.997   5.008
  5.028   5.040   5.042   5.055   5.071   5.086   5.089   5.091
  5.111   5.120   5.137   5.142   5.154   5.167   5.174   5.196
  5.202   5.211   5.218   5.242   5.249   5.258   5.276   5.286
  5.316   5.318   5.323   5.338   5.344   5.355   5.394   5.400
  5.430   5.440   5.455   5.465   5.480   5.485   5.509   5.517
  5.532   5.550   5.559   5.587   5.603   5.643   5.649   5.666
  5.694   5.704   5.726   5.736   5.762   5.776   5.803   5.822
  5.854   5.877   5.892   5.944   5.948   5.960   6.003   6.057
  6.109   6.134   6.146   6.169   6.190   6.219   6.257   6.300
  6.318   6.330   6.354   6.407   6.491   6.855   7.020   7.997
  8.926   9.767  10.025  10.794  11.149  11.201  11.688  12.012
 12.328  12.497  12.557  12.867  12.954  13.156  13.184  13.423
 13.481  13.584  13.631  13.909  14.090  14.755  14.998
 --------------------------------------------------------------
 
          Ground-State Mulliken Net Atomic Charges

     Atom                 Charge (a.u.)
  ----------------------------------------
      1 C                    -0.072255
      2 C                    -0.102108
      3 N                    -0.155722
      4 C                    -0.157330
      5 C                    -0.094793
      6 C                     0.111338
      7 C                     0.031671
      8 C                    -0.095051
      9 C                     0.019470
     10 N                    -0.183987
     11 N                    -0.276156
     12 C                     0.027563
     13 C                     0.114896
     14 S                     0.413633
     15 N                    -0.284230
     16 C                    -0.062856
     17 S                     0.150102
     18 C                    -0.002785
     19 C                     0.032565
     20 S                     0.092069
     21 C                     0.005093
     22 C                    -0.034710
     23 C                    -0.161420
     24 C                    -0.151975
     25 N                    -0.171924
     26 S                     0.110016
     27 C                    -0.088950
     28 C                    -0.194670
     29 H                     0.124156
     30 H                     0.128482
     31 H                     0.131022
     32 H                     0.128365
     33 H                     0.131421
     34 H                     0.130614
     35 H                     0.132236
     36 H                     0.132952
     37 H                     0.143257
  ----------------------------------------
  Sum of atomic charges =     0.000000

 -----------------------------------------------------------------
                    Cartesian Multipole Moments
 -----------------------------------------------------------------
    Charge (ESU x 10^10)
                 0.0000
    Dipole Moment (Debye)
         X      -2.1060      Y       0.2946      Z       0.4689
       Tot       2.1776
    Quadrupole Moments (Debye-Ang)
        XX    -167.7311     XY      16.2569     YY    -171.5868
        XZ      12.7094     YZ       1.3219     ZZ    -188.8700
    Octopole Moments (Debye-Ang^2)
       XXX    -240.8628    XXY      49.8892    XYY     -27.1134
       YYY       3.8948    XXZ      59.3347    XYZ       7.7196
       YYZ      -1.3542    XZZ       3.6335    YZZ     -10.9626
       ZZZ       1.7006
    Hexadecapole Moments (Debye-Ang^3)
      XXXX  -17385.3844   XXXY    1204.4440   XXYY   -3612.4582
      XYYY    -118.7287   YYYY   -3455.4460   XXXZ     521.6733
      XXYZ      69.2550   XYYZ      73.9283   YYYZ      -9.5344
      XXZZ   -3419.4460   XYZZ      29.0542   YYZZ    -722.8993
      XZZZ      17.0150   YZZZ       6.3060   ZZZZ    -426.1059
 -----------------------------------------------------------------
 Calculating analytic gradient of the SCF energy
 K construction time:  CPU 2856.08 s  wall 180.32 s
 Gradient of SCF Energy
            1           2           3           4           5           6
    1   0.0012976  -0.0025006   0.0003976   0.0014780  -0.0006139   0.0000982
    2   0.0003934  -0.0002416   0.0000870  -0.0004203   0.0000834   0.0007192
    3   0.0004798  -0.0003267  -0.0000794  -0.0008079  -0.0000309   0.0010790
            7           8           9          10          11          12
    1  -0.0002875   0.0010953  -0.0001388   0.0002883  -0.0004767  -0.0003881
    2   0.0002268  -0.0000401   0.0001225   0.0006118  -0.0005522   0.0003661
    3   0.0000328  -0.0006764   0.0000019  -0.0000135   0.0001535   0.0003324
           13          14          15          16          17          18
    1  -0.0004508   0.0004927   0.0004480   0.0015164   0.0006041  -0.0009764
    2  -0.0008656  -0.0003910   0.0002675   0.0004055  -0.0004121  -0.0002203
    3  -0.0001015  -0.0001813   0.0001042   0.0009176   0.0007483  -0.0003905
           19          20          21          22          23          24
    1  -0.0060701   0.0005412  -0.0000591   0.0061207   0.0023711  -0.0015130
    2  -0.0034742   0.0001754   0.0021937   0.0030666  -0.0007647   0.0025472
    3   0.0032623  -0.0002401  -0.0026181  -0.0036350   0.0000012   0.0003511
           25          26          27          28          29          30
    1  -0.0006902  -0.0006663   0.0012910  -0.0018198  -0.0002008   0.0005452
    2  -0.0011296  -0.0017239  -0.0004273   0.0013768  -0.0000026  -0.0004372
    3   0.0018242  -0.0014754   0.0013621   0.0007479  -0.0000596  -0.0000347
           31          32          33          34          35          36
    1  -0.0005184  -0.0002010  -0.0008709  -0.0003460   0.0007606  -0.0004858
    2   0.0000759   0.0001757  -0.0000548   0.0002976  -0.0015590  -0.0007077
    3   0.0000174  -0.0001416   0.0002646   0.0003163  -0.0005862  -0.0003003
           37
    1  -0.0000717
    2   0.0002318
    3  -0.0002975
 Max gradient component =       6.121E-03
 RMS gradient           =       1.334E-03
 Gradient time:  CPU 3299.08 s  wall 209.90 s
 Geometry Optimization Parameters
   NAtoms,    NIC,     NZ,  NCons,   NDum,   NFix, NCnnct, MaxDiis
       37     280       0       3       0       0       0       0


** CONSTRAINED OPTIMIZATION IN DELOCALIZED INTERNAL COORDINATES **
   Searching for a Minimum

   Optimization Cycle:   1

                       Coordinates (Angstroms)
     ATOM                X               Y               Z
      1  C         7.6127221879    0.4107108846   -0.1193909516
      2  C         6.9380320312    1.3226196581    0.6753808317
      3  N         6.9971431657   -0.5250417914   -0.8365032228
      4  C         5.5599458208    1.2591115655    0.7322796248
      5  C         5.6733319707   -0.5783755310   -0.7726866888
      6  C         4.8935730187    0.2886265680   -0.0059463473
      7  C         3.4236471667    0.2021735846   -0.0043443374
      8  C         2.6341753770    1.3165283524   -0.0786556543
      9  C         2.7122914340   -1.0303356651    0.0787473845
     10  N         1.2788779704    1.3402633975   -0.0688254732
     11  N         3.2208008730   -2.2606695329    0.1693148937
     12  C         1.2840798580   -1.0193013935    0.0933605316
     13  C         0.5868584700    0.2297661865    0.0130439906
     14  S         1.9698857702   -3.2710239347    0.2540124853
     15  N         0.7432744130   -2.2306008506    0.1892842572
     16  C        -0.8514026041    0.3604382344    0.0154364557
     17  S        -1.9850068480   -0.9419822544    0.1355187063
     18  C        -1.5351095144    1.5510545527   -0.0750991459
     19  C        -3.3448377792    0.1104386630    0.0645304060
     20  S        -1.0383757626    3.2031436177   -0.2133450924
     21  C        -2.9473213512    1.4264426645   -0.0478504825
     22  C        -4.7028997476   -0.3870827143    0.1302120277
     23  C        -2.7163859279    3.7026512553   -0.2333621061
     24  C        -3.6079301891    2.6998851685   -0.1432652769
     25  N        -5.6268499221    0.1551590620    0.8702854419
     26  S        -5.2488403534   -1.7712676709   -0.7761956368
     27  C        -6.8083750945   -0.5139788959    0.7501252300
     28  C        -6.8074712178   -1.5789666200   -0.0881728680
     29  H         8.6940644705    0.4303257687   -0.1847757566
     30  H         7.4914129629    2.0538277271    1.2470102131
     31  H         4.9973606897    1.9393095899    1.3590713483
     32  H         5.1952158662   -1.3485261930   -1.3652437942
     33  H         3.0936258860    2.2932726200   -0.1621407804
     34  H        -2.9427682654    4.7549731642   -0.3080755634
     35  H        -4.6788682851    2.8111424173   -0.1347034691
     36  H        -7.6693355440   -0.1805175140    1.3091104424
     37  H        -7.6175816346   -2.2439348062   -0.3310470603
   Point Group: c1    Number of degrees of freedom:   105


   Energy is  -2595.903641336

              Constraints and their Current Values
                                        Value     Constraint
   Dihedral:        4   6   7   8       42.189       42.246
   Dihedral:       10  13  16  17     -179.124     -179.114
   Dihedral:       17  19  22  25      135.001      135.000

 Attempting to Generate Delocalized Internal Coordinates

   Using Lagrange Multiplier Algorithm


108 Hessian modes will be used to form the next step
  Hessian Eigenvalues:
    -0.977753   -0.977753   -0.977753    0.045000    0.045000    0.045000
     0.045000    0.045000    0.045000    0.045000    0.045000    0.045000
     0.045000    0.045000    0.045000    0.045000    0.045000    0.045000
     0.045000    0.045000    0.045000    0.045000    0.045000    0.045000
     0.045001    0.045001    0.045001    0.045001    0.045001    0.045003
     0.045005    0.045007    0.045009    0.045012    0.159961    0.159984
     0.159995    0.159997    0.159998    0.159999    0.160000    0.160000
     0.160000    0.220002    0.224572    0.225458    0.231978    0.233022
     0.234404    0.247446    0.247715    0.249914    0.249956    0.249989
     0.249992    0.249998    0.249998    0.249998    0.249999    0.249999
     0.249999    0.250000    0.250000    0.297515    0.305117    0.316329
     0.317280    0.326677    0.334483    0.354466    0.355754    0.356364
     0.356781    0.356811    0.359242    0.360776    0.361170    0.363916
     0.365006    0.372838    0.385324    0.386480    0.390167    0.393199
     0.397174    0.410394    0.431175    0.455299    0.463153    0.473302
     0.473331    0.475009    0.483101    0.491312    0.496878    0.499409
     0.517640    0.525704    0.538145    0.558610    0.574891    0.584500
     0.591081    0.623467    0.638975    1.022753    1.022753    1.022753

 Minimum Search - Taking P-RFO Step
 Searching for Lamda that Maximizes Along the Constraint modes Only
 Value Taken    Lamda =   0.00001826
 Searching for Lamda that Minimizes Along All other modes
 Value Taken    Lamda =  -0.00059234
 Step Taken.  Stepsize is  0.076979

                             Maximum     Tolerance    Cnvgd?
         Gradient            0.005851       0.000300      NO
         Displacement        0.041817       0.001200      NO
         Energy change     *********       0.000001      NO


 New Cartesian Coordinates Obtained by Inverse Iteration

 Displacement from previous Coordinates is:  0.470907
 ----------------------------------------------------------------
             Standard Nuclear Orientation (Angstroms)
    I     Atom           X                Y                Z
 ----------------------------------------------------------------
    1      C       7.6161626497     0.3687572879    -0.1280449191
    2      C       6.9566228321     1.2947216997     0.6633852527
    3      N       6.9885199030    -0.5658461022    -0.8357903326
    4      C       5.5767614846     1.2464931638     0.7246655157
    5      C       5.6649588002    -0.6029108565    -0.7694057287
    6      C       4.8969941546     0.2798682843    -0.0084995800
    7      C       3.4258562740     0.2111826634    -0.0022259122
    8      C       2.6470065577     1.3335577909    -0.0799576072
    9      C       2.7022678629    -1.0127907946     0.0863364671
   10      N       1.2913592299     1.3725163128    -0.0688112032
   11      N       3.1982027583    -2.2474983713     0.1806695687
   12      C       1.2746011845    -0.9863583380     0.1011264647
   13      C       0.5891234322     0.2691577815     0.0181172609
   14      S       1.9353800552    -3.2429957528     0.2716520200
   15      N       0.7195115660    -2.1908871281     0.2014883288
   16      C      -0.8497623563     0.4006554181     0.0212442283
   17      S      -1.9706050549    -0.9110278663     0.1490337852
   18      C      -1.5436967301     1.5863051540    -0.0663700356
   19      C      -3.3368345070     0.1271690562     0.0591218866
   20      S      -1.0735448528     3.2465704811    -0.2000198970
   21      C      -2.9542211454     1.4444003174    -0.0413464698
   22      C      -4.6950216231    -0.3849191374     0.1243128901
   23      C      -2.7591856170     3.7236914285    -0.2199124956
   24      C      -3.6338417876     2.7074043920    -0.1304218533
   25      N      -5.6336407672     0.1490316655     0.8496297565
   26      S      -5.1990014919    -1.7905473024    -0.7658462666
   27      C      -6.8016676107    -0.5425209505     0.7203642786
   28      C      -6.7658072804    -1.6259095078    -0.0948942380
   29      H       8.6977477630     0.3750058487    -0.1968142688
   30      H       7.5168608394     2.0261331116     1.2281325272
   31      H       5.0260215216     1.9377520081     1.3490365856
   32      H       5.1779361819    -1.3739181110    -1.3534205807
   33      H       3.1215796325     2.3030437824    -0.1715043989
   34      H      -2.9990900380     4.7725267686    -0.2942532146
   35      H      -4.7067673426     2.8119100768    -0.1179894205
   36      H      -7.6727989718    -0.2142061425     1.2664491731
   37      H      -7.5570281451    -2.3152587972    -0.3321430044
 ----------------------------------------------------------------
 Molecular Point Group                 C1    NOp =  1
 Largest Abelian Subgroup              C1    NOp =  1
 Nuclear Repulsion Energy =  2964.3817208704 hartrees
 There are      111 alpha and      111 beta electrons
 Applying Cartesian multipole field
    Component          Value
    ---------          -----
     (2,0,0)        1.00000E-12
     (0,2,0)        2.00000E-11
     (0,0,2)       -3.00000E-10
 Nucleus-field energy     =     0.0000000224 hartrees
 Requested basis set is cc-pVTZ
 There are 342 shells and 982 basis functions
 A cutoff of  1.0D-11 yielded  29198 shell pairs
 There are    231490 function pairs (    302399 Cartesian)
 Smallest overlap matrix eigenvalue = 2.19E-05
 Guess MOs from SCF MO coefficient file
 Reading MOs from coefficient file
 Reading MOs from coefficient file
 Long-range K will be added via erf
 Coulomb attenuation parameter = 0.2 bohr**(-1)
 A restricted hybrid HF-DFT SCF calculation will be
 performed using Pulay DIIS extrapolation
 Exchange:     0.2220 Hartree-Fock + 1.0000 wB97X-D + LR-HF
 Correlation:  1.0000 wB97X-D
 Using SG-2 standard quadrature grid
 Dispersion:   Grimme D
 SCF converges when DIIS error is below 1.0E-08
 Geometry optimization detected.  Setting ReadMinima to 0
 Setting SaveMinima to 0
 using 16 threads for integral computing 
 using 16 threads for integral computing 
 K construction time:  CPU 1078.77 s  wall 70.47 s
 -------------------------------------------------------
 OpenMP BLAS3 based DFT computing Module                
 Release: version 1.0, May 2013, Q-Chem Inc. Pittsburgh 
 -------------------------------------------------------
 ---------------------------------------
  Cycle       Energy         DIIS Error
 ---------------------------------------
    1   -2595.9056378487      2.55E-04
 K construction time:  CPU 1082.17 s  wall 70.65 s
    2   -2595.9037938816      2.70E-05
 K construction time:  CPU 796.38 s  wall 52.04 s
    3   -2595.9038913521      2.47E-05
 K construction time:  CPU 746.45 s  wall 48.70 s
    4   -2595.9039488443      1.03E-05
 K construction time:  CPU 704.29 s  wall 46.02 s
    5   -2595.9039617334      3.59E-06
 K construction time:  CPU 649.62 s  wall 42.41 s
    6   -2595.9039634561      1.44E-06
 K construction time:  CPU 596.66 s  wall 38.88 s
    7   -2595.9039637653      4.99E-07
 K construction time:  CPU 535.75 s  wall 34.82 s
    8   -2595.9039638105      2.35E-07
 K construction time:  CPU 493.38 s  wall 32.03 s
    9   -2595.9039638218      8.77E-08
 K construction time:  CPU 415.18 s  wall 27.05 s
   10   -2595.9039638237      3.06E-08
 K construction time:  CPU 362.30 s  wall 23.40 s
   11   -2595.9039638254      1.24E-08
 K construction time:  CPU 308.32 s  wall 19.98 s
   12   -2595.9039638266      4.92E-09 Convergence criterion met
 ---------------------------------------
 SCF time:  CPU 10484.58 s  wall 700.26 s
 SCF   energy in the final basis set = -2595.9039638266
 Total energy in the final basis set = -2595.9039638266
 
 --------------------------------------------------------------
 
                    Orbital Energies (a.u.)
 --------------------------------------------------------------
 
 Alpha MOs
 -- Occupied --
-89.156 -89.094 -89.094 -89.075 -14.495 -14.488 -14.452 -14.447
-14.436 -10.374 -10.369 -10.363 -10.360 -10.344 -10.340 -10.339
-10.334 -10.329 -10.328 -10.326 -10.326 -10.326 -10.323 -10.318
-10.314 -10.314 -10.303 -10.299  -8.166  -8.110  -8.109  -8.090
 -6.116  -6.110  -6.109  -6.059  -6.058  -6.055  -6.054  -6.053
 -6.052  -6.039  -6.035  -6.032  -1.153  -1.084  -1.072  -1.054
 -1.024  -1.016  -0.957  -0.946  -0.913  -0.911  -0.907  -0.884
 -0.861  -0.845  -0.830  -0.808  -0.775  -0.752  -0.744  -0.728
 -0.723  -0.695  -0.690  -0.679  -0.649  -0.641  -0.623  -0.621
 -0.612  -0.596  -0.584  -0.577  -0.570  -0.568  -0.540  -0.535
 -0.527  -0.523  -0.519  -0.514  -0.512  -0.503  -0.496  -0.491
 -0.489  -0.481  -0.477  -0.463  -0.458  -0.448  -0.439  -0.431
 -0.430  -0.423  -0.403  -0.393  -0.379  -0.374  -0.370  -0.370
 -0.364  -0.357  -0.342  -0.338  -0.327  -0.319  -0.272
 -- Virtual --
 -0.055  -0.003   0.027   0.038   0.043   0.050   0.065   0.071
  0.076   0.092   0.105   0.109   0.115   0.121   0.131   0.134
  0.141   0.145   0.146   0.167   0.168   0.170   0.174   0.176
  0.188   0.193   0.197   0.212   0.214   0.229   0.236   0.246
  0.252   0.255   0.260   0.262   0.267   0.272   0.288   0.289
  0.293   0.299   0.300   0.307   0.309   0.318   0.322   0.325
  0.330   0.335   0.336   0.339   0.344   0.352   0.354   0.355
  0.361   0.363   0.370   0.372   0.376   0.378   0.385   0.386
  0.393   0.395   0.397   0.400   0.402   0.406   0.408   0.411
  0.416   0.424   0.426   0.429   0.433   0.437   0.440   0.445
  0.447   0.450   0.452   0.458   0.462   0.463   0.466   0.468
  0.469   0.472   0.476   0.479   0.480   0.483   0.486   0.490
  0.495   0.500   0.507   0.508   0.510   0.516   0.519   0.526
  0.527   0.532   0.536   0.539   0.544   0.545   0.551   0.555
  0.558   0.563   0.571   0.573   0.582   0.586   0.592   0.595
  0.604   0.610   0.613   0.623   0.631   0.636   0.637   0.643
  0.649   0.654   0.658   0.660   0.665   0.671   0.675   0.681
  0.688   0.689   0.701   0.702   0.711   0.713   0.719   0.731
  0.732   0.735   0.737   0.742   0.747   0.749   0.760   0.765
  0.768   0.770   0.773   0.775   0.788   0.791   0.792   0.798
  0.801   0.803   0.807   0.813   0.820   0.823   0.827   0.830
  0.836   0.841   0.845   0.852   0.859   0.861   0.863   0.865
  0.870   0.874   0.882   0.890   0.896   0.900   0.907   0.909
  0.919   0.923   0.929   0.931   0.940   0.947   0.950   0.954
  0.959   0.965   0.970   0.972   0.978   0.983   0.989   0.995
  0.998   1.010   1.016   1.023   1.025   1.030   1.038   1.042
  1.045   1.052   1.057   1.058   1.066   1.069   1.073   1.078
  1.082   1.089   1.092   1.097   1.107   1.116   1.120   1.125
  1.134   1.141   1.146   1.146   1.158   1.167   1.170   1.175
  1.186   1.190   1.198   1.202   1.204   1.218   1.225   1.227
  1.233   1.241   1.246   1.254   1.260   1.262   1.269   1.282
  1.283   1.290   1.295   1.302   1.314   1.317   1.325   1.331
  1.342   1.350   1.358   1.367   1.369   1.373   1.378   1.382
  1.392   1.402   1.402   1.403   1.409   1.425   1.428   1.435
  1.448   1.450   1.454   1.458   1.461   1.474   1.481   1.485
  1.495   1.500   1.508   1.510   1.522   1.532   1.544   1.548
  1.550   1.560   1.569   1.575   1.591   1.592   1.597   1.603
  1.607   1.612   1.617   1.629   1.631   1.636   1.637   1.642
  1.658   1.659   1.663   1.668   1.670   1.680   1.685   1.691
  1.697   1.697   1.703   1.709   1.716   1.723   1.729   1.732
  1.735   1.743   1.749   1.755   1.762   1.768   1.776   1.785
  1.803   1.812   1.819   1.825   1.844   1.846   1.860   1.868
  1.872   1.883   1.889   1.899   1.908   1.910   1.923   1.925
  1.931   1.932   1.942   1.950   1.963   1.972   1.977   1.980
  1.985   1.988   1.998   2.002   2.019   2.028   2.041   2.045
  2.046   2.065   2.073   2.078   2.084   2.087   2.099   2.109
  2.118   2.123   2.130   2.139   2.144   2.153   2.168   2.174
  2.181   2.185   2.190   2.197   2.204   2.220   2.230   2.235
  2.236   2.245   2.259   2.260   2.273   2.275   2.278   2.283
  2.289   2.303   2.326   2.331   2.344   2.357   2.360   2.363
  2.370   2.376   2.379   2.385   2.391   2.396   2.404   2.408
  2.424   2.432   2.439   2.445   2.451   2.453   2.458   2.462
  2.478   2.485   2.489   2.499   2.505   2.508   2.517   2.520
  2.529   2.535   2.538   2.544   2.551   2.556   2.566   2.573
  2.581   2.589   2.598   2.607   2.612   2.619   2.624   2.631
  2.642   2.646   2.654   2.660   2.668   2.672   2.680   2.688
  2.712   2.725   2.738   2.747   2.752   2.758   2.772   2.775
  2.780   2.786   2.788   2.791   2.796   2.798   2.811   2.814
  2.823   2.832   2.836   2.851   2.855   2.868   2.876   2.881
  2.882   2.883   2.899   2.917   2.925   2.930   2.942   2.942
  2.943   2.950   2.952   2.953   2.963   2.966   2.975   2.975
  2.985   2.989   2.992   3.003   3.008   3.014   3.017   3.027
  3.027   3.033   3.037   3.047   3.052   3.056   3.060   3.061
  3.070   3.077   3.087   3.089   3.094   3.095   3.100   3.109
  3.112   3.116   3.121   3.125   3.137   3.139   3.141   3.147
  3.155   3.157   3.162   3.170   3.174   3.176   3.178   3.182
  3.189   3.191   3.193   3.199   3.204   3.208   3.218   3.219
  3.225   3.227   3.231   3.232   3.238   3.242   3.247   3.252
  3.257   3.260   3.262   3.267   3.272   3.274   3.277   3.283
  3.285   3.293   3.297   3.304   3.307   3.313   3.319   3.327
  3.332   3.338   3.346   3.346   3.353   3.361   3.366   3.374
  3.381   3.384   3.393   3.395   3.404   3.417   3.419   3.427
  3.438   3.438   3.443   3.452   3.457   3.464   3.472   3.475
  3.480   3.481   3.486   3.490   3.495   3.506   3.510   3.511
  3.515   3.526   3.534   3.537   3.548   3.558   3.561   3.566
  3.576   3.591   3.591   3.602   3.609   3.612   3.629   3.638
  3.652   3.654   3.658   3.666   3.676   3.682   3.687   3.692
  3.702   3.711   3.731   3.740   3.745   3.751   3.756   3.756
  3.769   3.778   3.780   3.786   3.788   3.796   3.804   3.816
  3.826   3.831   3.836   3.842   3.848   3.854   3.864   3.867
  3.872   3.878   3.892   3.912   3.914   3.924   3.927   3.939
  3.940   3.946   3.947   3.953   3.955   3.964   3.969   3.976
  3.985   3.989   3.999   4.009   4.011   4.022   4.033   4.038
  4.060   4.074   4.080   4.088   4.093   4.098   4.105   4.123
  4.137   4.139   4.144   4.152   4.169   4.173   4.176   4.184
  4.192   4.197   4.202   4.212   4.222   4.229   4.233   4.245
  4.253   4.262   4.274   4.282   4.291   4.294   4.303   4.321
  4.325   4.341   4.344   4.351   4.352   4.375   4.383   4.385
  4.396   4.400   4.407   4.420   4.433   4.437   4.446   4.460
  4.466   4.474   4.476   4.497   4.504   4.518   4.522   4.526
  4.538   4.546   4.553   4.558   4.573   4.575   4.593   4.610
  4.616   4.630   4.638   4.653   4.663   4.669   4.682   4.692
  4.703   4.717   4.722   4.732   4.743   4.789   4.791   4.799
  4.815   4.816   4.823   4.844   4.850   4.854   4.857   4.872
  4.885   4.899   4.903   4.925   4.936   4.942   4.944   4.953
  4.956   4.962   4.968   4.975   4.982   4.997   4.998   5.008
  5.028   5.040   5.043   5.056   5.070   5.087   5.088   5.092
  5.112   5.120   5.139   5.142   5.154   5.168   5.174   5.195
  5.202   5.212   5.219   5.241   5.248   5.258   5.276   5.286
  5.316   5.319   5.325   5.337   5.345   5.355   5.395   5.399
  5.430   5.441   5.457   5.465   5.481   5.485   5.510   5.518
  5.532   5.550   5.558   5.587   5.603   5.642   5.651   5.665
  5.695   5.706   5.726   5.735   5.762   5.779   5.806   5.823
  5.853   5.878   5.893   5.944   5.950   5.963   6.002   6.057
  6.114   6.133   6.145   6.169   6.189   6.217   6.260   6.299
  6.318   6.335   6.357   6.405   6.488   6.853   7.020   8.004
  8.921   9.763  10.013  10.779  11.163  11.211  11.670  12.012
 12.328  12.493  12.556  12.876  12.968  13.145  13.182  13.455
 13.472  13.585  13.644  13.904  14.116  14.748  14.986
 --------------------------------------------------------------
 
          Ground-State Mulliken Net Atomic Charges

     Atom                 Charge (a.u.)
  ----------------------------------------
      1 C                    -0.071989
      2 C                    -0.102706
      3 N                    -0.155413
      4 C                    -0.157380
      5 C                    -0.094780
      6 C                     0.109887
      7 C                     0.031554
      8 C                    -0.093479
      9 C                     0.019339
     10 N                    -0.183224
     11 N                    -0.276051
     12 C                     0.029692
     13 C                     0.113436
     14 S                     0.412355
     15 N                    -0.284677
     16 C                    -0.062835
     17 S                     0.151152
     18 C                    -0.006259
     19 C                     0.025790
     20 S                     0.090577
     21 C                     0.009041
     22 C                    -0.030267
     23 C                    -0.161700
     24 C                    -0.152589
     25 N                    -0.171740
     26 S                     0.111728
     27 C                    -0.087878
     28 C                    -0.195240
     29 H                     0.124029
     30 H                     0.128761
     31 H                     0.131471
     32 H                     0.128310
     33 H                     0.131413
     34 H                     0.131016
     35 H                     0.132765
     36 H                     0.132877
     37 H                     0.143018
  ----------------------------------------
  Sum of atomic charges =     0.000000

 -----------------------------------------------------------------
                    Cartesian Multipole Moments
 -----------------------------------------------------------------
    Charge (ESU x 10^10)
                 0.0000
    Dipole Moment (Debye)
         X      -2.0992      Y       0.2528      Z       0.4805
       Tot       2.1683
    Quadrupole Moments (Debye-Ang)
        XX    -167.7801     XY      16.5233     YY    -171.5853
        XZ      12.6148     YZ       1.2578     ZZ    -188.8869
    Octopole Moments (Debye-Ang^2)
       XXX    -231.6068    XXY      49.0754    XYY     -30.5786
       YYY      -0.6749    XXZ      57.9779    XYZ       7.3235
       YYZ      -1.8531    XZZ       3.9298    YZZ     -12.4686
       ZZZ      -0.2838
    Hexadecapole Moments (Debye-Ang^3)
      XXXX  -17358.6720   XXXY    1221.0702   XXYY   -3600.5354
      XYYY    -102.5293   YYYY   -3473.3997   XXXZ     516.6733
      XXYZ      65.3889   XYYZ      74.4753   YYYZ      -9.0528
      XXZZ   -3413.9074   XYZZ      33.5823   YYZZ    -726.1596
      XZZZ      17.2789   YZZZ       6.0340   ZZZZ    -420.9482
 -----------------------------------------------------------------
 Calculating analytic gradient of the SCF energy
 K construction time:  CPU 2864.80 s  wall 180.91 s
 Gradient of SCF Energy
            1           2           3           4           5           6
    1   0.0001421  -0.0006659   0.0000196   0.0005055  -0.0000362  -0.0000053
    2  -0.0000310   0.0001687  -0.0001241   0.0000315   0.0000723  -0.0000005
    3   0.0000592   0.0000391  -0.0001399   0.0001568  -0.0001097   0.0000835
            7           8           9          10          11          12
    1  -0.0001123   0.0003210   0.0002116   0.0004854   0.0000829  -0.0001626
    2  -0.0002696   0.0000455   0.0000325  -0.0000485   0.0000674  -0.0000644
    3   0.0002297  -0.0003168   0.0001570  -0.0001707  -0.0001970   0.0002146
           13          14          15          16          17          18
    1  -0.0002990   0.0001731  -0.0006761   0.0002605   0.0008077  -0.0008289
    2  -0.0005263   0.0005658   0.0001904  -0.0005809   0.0002945  -0.0001340
    3   0.0000857   0.0000537  -0.0001340   0.0001038   0.0021190  -0.0001445
           19          20          21          22          23          24
    1  -0.0007962  -0.0003599   0.0003024   0.0003381   0.0006198  -0.0001132
    2  -0.0007609   0.0000415   0.0000026   0.0023748  -0.0003915   0.0012521
    3   0.0002818   0.0000783  -0.0018459  -0.0030285  -0.0001839   0.0007806
           25          26          27          28          29          30
    1   0.0001422  -0.0004934   0.0007188  -0.0001335  -0.0000647   0.0002097
    2  -0.0019039  -0.0003305   0.0006252   0.0001383   0.0000106  -0.0001044
    3   0.0029478  -0.0008330  -0.0002655   0.0005268  -0.0000228   0.0000658
           31          32          33          34          35          36
    1  -0.0000657  -0.0000340  -0.0000576  -0.0002624  -0.0001038  -0.0001164
    2   0.0000319   0.0000295   0.0000248   0.0000190  -0.0004589  -0.0002401
    3  -0.0000641  -0.0000745   0.0000365   0.0001282  -0.0004439  -0.0000029
           37
    1   0.0000469
    2  -0.0000494
    3  -0.0001703
 Max gradient component =       3.029E-03
 RMS gradient           =       6.524E-04
 Gradient time:  CPU 3307.79 s  wall 210.54 s
 Geometry Optimization Parameters
   NAtoms,    NIC,     NZ,  NCons,   NDum,   NFix, NCnnct, MaxDiis
       37     280       0       3       0       0       0       0

 Cartesian Hessian Update
 Hessian Updated using BFGS Update


** CONSTRAINED OPTIMIZATION IN DELOCALIZED INTERNAL COORDINATES **
   Searching for a Minimum

   Optimization Cycle:   2

                       Coordinates (Angstroms)
     ATOM                X               Y               Z
      1  C         7.6161626497    0.3687572879   -0.1280449191
      2  C         6.9566228321    1.2947216997    0.6633852527
      3  N         6.9885199030   -0.5658461022   -0.8357903326
      4  C         5.5767614846    1.2464931638    0.7246655157
      5  C         5.6649588002   -0.6029108565   -0.7694057287
      6  C         4.8969941546    0.2798682843   -0.0084995800
      7  C         3.4258562740    0.2111826634   -0.0022259122
      8  C         2.6470065577    1.3335577909   -0.0799576072
      9  C         2.7022678629   -1.0127907946    0.0863364671
     10  N         1.2913592299    1.3725163128   -0.0688112032
     11  N         3.1982027583   -2.2474983713    0.1806695687
     12  C         1.2746011845   -0.9863583380    0.1011264647
     13  C         0.5891234322    0.2691577815    0.0181172609
     14  S         1.9353800552   -3.2429957528    0.2716520200
     15  N         0.7195115660   -2.1908871281    0.2014883288
     16  C        -0.8497623563    0.4006554181    0.0212442283
     17  S        -1.9706050549   -0.9110278663    0.1490337852
     18  C        -1.5436967301    1.5863051540   -0.0663700356
     19  C        -3.3368345070    0.1271690562    0.0591218866
     20  S        -1.0735448528    3.2465704811   -0.2000198970
     21  C        -2.9542211454    1.4444003174   -0.0413464698
     22  C        -4.6950216231   -0.3849191374    0.1243128901
     23  C        -2.7591856170    3.7236914285   -0.2199124956
     24  C        -3.6338417876    2.7074043920   -0.1304218533
     25  N        -5.6336407672    0.1490316655    0.8496297565
     26  S        -5.1990014919   -1.7905473024   -0.7658462666
     27  C        -6.8016676107   -0.5425209505    0.7203642786
     28  C        -6.7658072804   -1.6259095078   -0.0948942380
     29  H         8.6977477630    0.3750058487   -0.1968142688
     30  H         7.5168608394    2.0261331116    1.2281325272
     31  H         5.0260215216    1.9377520081    1.3490365856
     32  H         5.1779361819   -1.3739181110   -1.3534205807
     33  H         3.1215796325    2.3030437824   -0.1715043989
     34  H        -2.9990900380    4.7725267686   -0.2942532146
     35  H        -4.7067673426    2.8119100768   -0.1179894205
     36  H        -7.6727989718   -0.2142061425    1.2664491731
     37  H        -7.5570281451   -2.3152587972   -0.3321430044
   Point Group: c1    Number of degrees of freedom:   105


   Energy is  -2595.903963827

              Constraints and their Current Values
                                        Value     Constraint
   Dihedral:        4   6   7   8       42.246       42.246
   Dihedral:       10  13  16  17     -179.114     -179.114
   Dihedral:       17  19  22  25      135.000      135.000
 Hessian Updated using BFGS Update

   Using Lagrange Multiplier Algorithm


104 Hessian modes will be used to form the next step
  Hessian Eigenvalues:
    -0.977596    0.032162    0.045000    0.045000    0.045000    0.045000
     0.045000    0.045000    0.045000    0.045000    0.045000    0.045000
     0.045000    0.045000    0.045000    0.045000    0.045000    0.045000
     0.045000    0.045000    0.045000    0.045001    0.045001    0.045001
     0.045001    0.045001    0.045003    0.045005    0.045007    0.045009
     0.045012    0.048101    0.152581    0.159962    0.159985    0.159997
     0.159999    0.159999    0.159999    0.160000    0.160416    0.219686
     0.224551    0.225084    0.231985    0.232152    0.234428    0.237212
     0.247505    0.247966    0.249918    0.249956    0.249989    0.249992
     0.249998    0.249998    0.249998    0.249999    0.249999    0.250000
     0.296829    0.299392    0.307303    0.316308    0.320348    0.329017
     0.337733    0.354507    0.355723    0.356358    0.356800    0.356987
     0.359273    0.360775    0.361134    0.364777    0.365068    0.373654
     0.380494    0.386512    0.390176    0.393973    0.397604    0.413702
     0.431184    0.455524    0.471859    0.473288    0.474217    0.474994
     0.483470    0.488920    0.497055    0.499515    0.518915    0.526845
     0.540894    0.559264    0.574887    0.585639    0.591542    0.623409
     0.637421    1.023033

 Minimum Search - Taking P-RFO Step
 Searching for Lamda that Maximizes Along the Constraint modes Only
 Value Taken    Lamda =   0.00000010
 Searching for Lamda that Minimizes Along All other modes
 Value Taken    Lamda =  -0.00013560
 Step Taken.  Stepsize is  0.055089

                             Maximum     Tolerance    Cnvgd?
         Gradient            0.002042       0.000300      NO
         Displacement        0.027103       0.001200      NO
         Energy change     -0.000322       0.000001      NO


 New Cartesian Coordinates Obtained by Inverse Iteration

 Displacement from previous Coordinates is:  0.155466
 ----------------------------------------------------------------
             Standard Nuclear Orientation (Angstroms)
    I     Atom           X                Y                Z
 ----------------------------------------------------------------
    1      C       7.6145020833     0.3798949635    -0.1211084504
    2      C       6.9495079624     1.3045174154     0.6669981083
    3      N       6.9925552803    -0.5595077998    -0.8272938259
    4      C       5.5690628301     1.2496358742     0.7251663671
    5      C       5.6690733608    -0.6020736709    -0.7650617611
    6      C       4.8950809090     0.2799895440    -0.0094761029
    7      C       3.4241141754     0.2066239111    -0.0052355889
    8      C       2.6424015617     1.3270939612    -0.0842495915
    9      C       2.7035800776    -1.0195090722     0.0811624878
   10      N       1.2868229455     1.3638265910    -0.0749593241
   11      N       3.2023137515    -2.2532374068     0.1771376045
   12      C       1.2760682613    -0.9962275577     0.0922200535
   13      C       0.5876143659     0.2589563900     0.0098258491
   14      S       1.9425467853    -3.2533691070     0.2638284921
   15      N       0.7252977792    -2.2031070798     0.1915972022
   16      C      -0.8513209577     0.3922256412     0.0116692950
   17      S      -1.9778448489    -0.9160184562     0.1363100950
   18      C      -1.5394953095     1.5808645200    -0.0713142211
   19      C      -3.3383205453     0.1275325011     0.0425016466
   20      S      -1.0643967594     3.2401933023    -0.1977016922
   21      C      -2.9506453066     1.4429537957    -0.0463332711
   22      C      -4.7009582538    -0.3778266599     0.1169898220
   23      C      -2.7493186320     3.7226409203    -0.2120490219
   24      C      -3.6262368924     2.7078946271    -0.1264321745
   25      N      -5.6374478990     0.1626724577     0.8388360892
   26      S      -5.2023409701    -1.7950492822    -0.7518364264
   27      C      -6.8054557702    -0.5323146776     0.7200386779
   28      C      -6.7683799569    -1.6263111640    -0.0814810669
   29      H       8.6963827829     0.3905882857    -0.1873181861
   30      H       7.5028973814     2.0413462779     1.2312494912
   31      H       5.0146868966     1.9395615707     1.3475654934
   32      H       5.1876410811    -1.3778374587    -1.3472709716
   33      H       3.1165662097     2.2969552275    -0.1757376295
   34      H      -2.9841560887     4.7727495914    -0.2811751184
   35      H      -4.6984046303     2.8209445864    -0.1075657807
   36      H      -7.6746421635    -0.1960240227     1.2642880548
   37      H      -7.5583921352    -2.3209892051    -0.3066900619
 ----------------------------------------------------------------
 Molecular Point Group                 C1    NOp =  1
 Largest Abelian Subgroup              C1    NOp =  1
 Nuclear Repulsion Energy =  2964.1999955234 hartrees
 There are      111 alpha and      111 beta electrons
 Applying Cartesian multipole field
    Component          Value
    ---------          -----
     (2,0,0)        1.00000E-12
     (0,2,0)        2.00000E-11
     (0,0,2)       -3.00000E-10
 Nucleus-field energy     =     0.0000000235 hartrees
 Requested basis set is cc-pVTZ
 There are 342 shells and 982 basis functions
 A cutoff of  1.0D-11 yielded  29195 shell pairs
 There are    231389 function pairs (    302227 Cartesian)
 Smallest overlap matrix eigenvalue = 2.18E-05
 Guess MOs from SCF MO coefficient file
 Reading MOs from coefficient file
 Reading MOs from coefficient file
 Long-range K will be added via erf
 Coulomb attenuation parameter = 0.2 bohr**(-1)
 A restricted hybrid HF-DFT SCF calculation will be
 performed using Pulay DIIS extrapolation
 Exchange:     0.2220 Hartree-Fock + 1.0000 wB97X-D + LR-HF
 Correlation:  1.0000 wB97X-D
 Using SG-2 standard quadrature grid
 Dispersion:   Grimme D
 SCF converges when DIIS error is below 1.0E-08
 Geometry optimization detected.  Setting ReadMinima to 0
 Setting SaveMinima to 0
 using 16 threads for integral computing 
 using 16 threads for integral computing 
 K construction time:  CPU 1078.14 s  wall 70.34 s
 -------------------------------------------------------
 OpenMP BLAS3 based DFT computing Module                
 Release: version 1.0, May 2013, Q-Chem Inc. Pittsburgh 
 -------------------------------------------------------
 ---------------------------------------
  Cycle       Energy         DIIS Error
 ---------------------------------------
    1   -2595.9043130225      1.11E-04
 K construction time:  CPU 1077.26 s  wall 70.44 s
    2   -2595.9040039851      1.24E-05
 K construction time:  CPU 755.80 s  wall 49.45 s
    3   -2595.9040226085      1.29E-05
 K construction time:  CPU 717.74 s  wall 46.84 s
    4   -2595.9040417796      3.71E-06
 K construction time:  CPU 658.35 s  wall 42.94 s
    5   -2595.9040440695      1.63E-06
 K construction time:  CPU 599.53 s  wall 39.04 s
    6   -2595.9040444376      7.49E-07
 K construction time:  CPU 543.27 s  wall 35.35 s
    7   -2595.9040445138      2.71E-07
 K construction time:  CPU 491.40 s  wall 31.97 s
    8   -2595.9040445258      1.26E-07
 K construction time:  CPU 450.38 s  wall 29.26 s
    9   -2595.9040445297      4.70E-08
 K construction time:  CPU 385.51 s  wall 24.99 s
   10   -2595.9040445316      1.68E-08
 K construction time:  CPU 326.22 s  wall 21.17 s
   11   -2595.9040445289      6.49E-09 Convergence criterion met
 ---------------------------------------
 SCF time:  CPU 9572.36 s  wall 638.71 s
 SCF   energy in the final basis set = -2595.9040445289
 Total energy in the final basis set = -2595.9040445289
 
 --------------------------------------------------------------
 
                    Orbital Energies (a.u.)
 --------------------------------------------------------------
 
 Alpha MOs
 -- Occupied --
-89.156 -89.095 -89.094 -89.075 -14.495 -14.488 -14.452 -14.447
-14.436 -10.374 -10.370 -10.363 -10.360 -10.344 -10.340 -10.339
-10.334 -10.329 -10.328 -10.326 -10.326 -10.326 -10.323 -10.318
-10.314 -10.313 -10.302 -10.299  -8.166  -8.110  -8.109  -8.090
 -6.116  -6.110  -6.109  -6.059  -6.058  -6.055  -6.054  -6.053
 -6.052  -6.039  -6.035  -6.032  -1.153  -1.085  -1.073  -1.054
 -1.024  -1.015  -0.957  -0.946  -0.913  -0.911  -0.907  -0.884
 -0.861  -0.845  -0.830  -0.808  -0.775  -0.752  -0.744  -0.728
 -0.723  -0.695  -0.690  -0.679  -0.649  -0.641  -0.623  -0.621
 -0.612  -0.597  -0.584  -0.577  -0.570  -0.568  -0.540  -0.535
 -0.527  -0.523  -0.519  -0.514  -0.512  -0.503  -0.496  -0.491
 -0.489  -0.481  -0.477  -0.463  -0.459  -0.448  -0.439  -0.431
 -0.430  -0.423  -0.403  -0.393  -0.379  -0.374  -0.370  -0.370
 -0.364  -0.357  -0.342  -0.338  -0.327  -0.319  -0.272
 -- Virtual --
 -0.055  -0.003   0.027   0.038   0.043   0.050   0.065   0.070
  0.076   0.092   0.105   0.109   0.115   0.121   0.131   0.134
  0.141   0.145   0.146   0.167   0.168   0.170   0.174   0.177
  0.188   0.193   0.197   0.212   0.214   0.229   0.235   0.245
  0.252   0.255   0.260   0.262   0.267   0.272   0.288   0.289
  0.293   0.299   0.300   0.308   0.309   0.317   0.322   0.325
  0.330   0.335   0.336   0.339   0.344   0.352   0.354   0.355
  0.362   0.364   0.370   0.373   0.376   0.378   0.385   0.386
  0.393   0.395   0.397   0.400   0.402   0.406   0.408   0.412
  0.416   0.424   0.426   0.429   0.433   0.437   0.441   0.445
  0.447   0.450   0.452   0.458   0.462   0.463   0.466   0.468
  0.469   0.472   0.476   0.479   0.480   0.483   0.486   0.490
  0.495   0.500   0.507   0.508   0.510   0.516   0.519   0.526
  0.527   0.532   0.536   0.539   0.544   0.545   0.551   0.555
  0.557   0.563   0.571   0.573   0.583   0.586   0.592   0.596
  0.604   0.609   0.613   0.623   0.631   0.636   0.637   0.643
  0.649   0.654   0.658   0.661   0.665   0.671   0.675   0.681
  0.687   0.689   0.701   0.702   0.711   0.713   0.719   0.731
  0.732   0.735   0.737   0.742   0.747   0.748   0.760   0.765
  0.768   0.770   0.773   0.775   0.788   0.792   0.792   0.798
  0.801   0.803   0.807   0.812   0.820   0.822   0.827   0.830
  0.836   0.842   0.844   0.852   0.859   0.861   0.863   0.865
  0.871   0.874   0.882   0.890   0.896   0.901   0.907   0.910
  0.919   0.923   0.929   0.931   0.940   0.947   0.951   0.954
  0.959   0.965   0.971   0.972   0.977   0.983   0.989   0.995
  0.998   1.011   1.016   1.023   1.025   1.030   1.038   1.042
  1.045   1.052   1.057   1.058   1.066   1.069   1.072   1.078
  1.081   1.088   1.092   1.098   1.107   1.116   1.120   1.125
  1.134   1.141   1.146   1.146   1.158   1.167   1.170   1.175
  1.186   1.190   1.198   1.202   1.203   1.218   1.224   1.227
  1.233   1.241   1.246   1.254   1.260   1.263   1.269   1.282
  1.283   1.290   1.295   1.302   1.313   1.317   1.325   1.332
  1.342   1.349   1.357   1.367   1.369   1.372   1.378   1.382
  1.393   1.401   1.403   1.403   1.409   1.426   1.428   1.435
  1.447   1.450   1.454   1.457   1.461   1.474   1.481   1.485
  1.494   1.500   1.508   1.510   1.522   1.532   1.544   1.548
  1.551   1.560   1.570   1.575   1.590   1.592   1.597   1.604
  1.608   1.612   1.618   1.629   1.631   1.636   1.638   1.642
  1.658   1.659   1.664   1.667   1.669   1.680   1.685   1.691
  1.697   1.697   1.703   1.709   1.716   1.723   1.729   1.732
  1.736   1.743   1.749   1.755   1.762   1.769   1.776   1.785
  1.803   1.812   1.819   1.825   1.844   1.846   1.860   1.868
  1.872   1.883   1.889   1.900   1.908   1.909   1.923   1.925
  1.930   1.932   1.942   1.950   1.963   1.972   1.977   1.981
  1.985   1.988   1.998   2.002   2.019   2.028   2.040   2.045
  2.046   2.065   2.073   2.079   2.084   2.087   2.099   2.109
  2.118   2.123   2.129   2.139   2.144   2.153   2.169   2.174
  2.181   2.185   2.190   2.197   2.203   2.220   2.229   2.234
  2.236   2.245   2.258   2.260   2.273   2.275   2.278   2.283
  2.289   2.303   2.326   2.332   2.343   2.357   2.360   2.364
  2.370   2.376   2.380   2.385   2.391   2.396   2.404   2.409
  2.425   2.432   2.439   2.445   2.450   2.453   2.458   2.462
  2.478   2.485   2.489   2.499   2.505   2.509   2.517   2.520
  2.529   2.534   2.538   2.545   2.551   2.555   2.567   2.573
  2.581   2.589   2.597   2.607   2.612   2.619   2.625   2.630
  2.641   2.646   2.654   2.659   2.669   2.672   2.679   2.688
  2.713   2.725   2.738   2.748   2.751   2.758   2.772   2.775
  2.780   2.786   2.788   2.791   2.796   2.798   2.811   2.814
  2.823   2.832   2.836   2.851   2.855   2.866   2.876   2.880
  2.882   2.883   2.899   2.918   2.926   2.930   2.942   2.942
  2.943   2.949   2.953   2.954   2.963   2.966   2.974   2.975
  2.985   2.989   2.992   3.003   3.008   3.014   3.017   3.026
  3.027   3.032   3.037   3.048   3.052   3.056   3.060   3.062
  3.070   3.077   3.086   3.089   3.094   3.095   3.100   3.109
  3.112   3.116   3.122   3.124   3.137   3.139   3.141   3.147
  3.155   3.157   3.162   3.170   3.173   3.176   3.178   3.182
  3.189   3.191   3.193   3.200   3.205   3.208   3.218   3.220
  3.224   3.227   3.230   3.232   3.237   3.242   3.247   3.252
  3.257   3.260   3.261   3.266   3.272   3.274   3.277   3.283
  3.284   3.294   3.297   3.305   3.307   3.313   3.320   3.327
  3.332   3.338   3.346   3.347   3.353   3.360   3.366   3.374
  3.381   3.384   3.393   3.395   3.404   3.417   3.419   3.426
  3.438   3.438   3.442   3.451   3.457   3.464   3.471   3.475
  3.480   3.481   3.486   3.491   3.495   3.505   3.510   3.512
  3.516   3.527   3.534   3.537   3.548   3.558   3.562   3.566
  3.576   3.591   3.591   3.602   3.610   3.613   3.628   3.638
  3.653   3.655   3.658   3.666   3.676   3.682   3.688   3.692
  3.702   3.711   3.730   3.739   3.745   3.751   3.756   3.756
  3.768   3.778   3.781   3.785   3.788   3.796   3.804   3.816
  3.826   3.830   3.836   3.843   3.847   3.854   3.865   3.866
  3.871   3.878   3.892   3.912   3.914   3.924   3.927   3.939
  3.940   3.946   3.948   3.953   3.957   3.964   3.969   3.976
  3.985   3.990   3.999   4.008   4.011   4.023   4.032   4.038
  4.061   4.073   4.080   4.088   4.092   4.098   4.105   4.122
  4.136   4.139   4.144   4.152   4.169   4.174   4.176   4.184
  4.192   4.197   4.202   4.211   4.222   4.229   4.233   4.246
  4.253   4.262   4.275   4.281   4.290   4.294   4.304   4.321
  4.324   4.341   4.344   4.351   4.353   4.375   4.383   4.385
  4.395   4.401   4.407   4.420   4.433   4.436   4.446   4.460
  4.465   4.473   4.476   4.497   4.504   4.518   4.522   4.526
  4.539   4.545   4.553   4.558   4.573   4.575   4.594   4.610
  4.617   4.630   4.638   4.653   4.663   4.668   4.681   4.691
  4.703   4.716   4.721   4.732   4.743   4.789   4.791   4.800
  4.815   4.815   4.824   4.845   4.850   4.853   4.857   4.871
  4.885   4.898   4.903   4.925   4.936   4.942   4.944   4.953
  4.957   4.962   4.968   4.974   4.981   4.998   4.998   5.007
  5.027   5.040   5.043   5.055   5.070   5.086   5.088   5.092
  5.113   5.121   5.139   5.142   5.154   5.168   5.174   5.195
  5.202   5.213   5.220   5.241   5.249   5.258   5.276   5.287
  5.316   5.319   5.326   5.337   5.345   5.356   5.395   5.399
  5.431   5.440   5.458   5.465   5.481   5.486   5.510   5.520
  5.532   5.550   5.558   5.587   5.603   5.641   5.652   5.665
  5.695   5.706   5.726   5.734   5.762   5.780   5.806   5.823
  5.853   5.879   5.892   5.945   5.952   5.965   6.001   6.057
  6.117   6.133   6.144   6.168   6.189   6.217   6.259   6.298
  6.318   6.337   6.355   6.406   6.489   6.853   7.020   8.006
  8.921   9.761  10.007  10.770  11.166  11.207  11.665  12.004
 12.322  12.493  12.554  12.873  12.974  13.148  13.176  13.459
 13.477  13.583  13.651  13.905  14.127  14.751  14.983
 --------------------------------------------------------------
 
          Ground-State Mulliken Net Atomic Charges

     Atom                 Charge (a.u.)
  ----------------------------------------
      1 C                    -0.071969
      2 C                    -0.102968
      3 N                    -0.155328
      4 C                    -0.157503
      5 C                    -0.094994
      6 C                     0.109810
      7 C                     0.031618
      8 C                    -0.093740
      9 C                     0.020206
     10 N                    -0.182920
     11 N                    -0.276700
     12 C                     0.028730
     13 C                     0.113279
     14 S                     0.413071
     15 N                    -0.284659
     16 C                    -0.062783
     17 S                     0.150855
     18 C                    -0.005739
     19 C                     0.020380
     20 S                     0.090285
     21 C                     0.010689
     22 C                    -0.025821
     23 C                    -0.161831
     24 C                    -0.153751
     25 N                    -0.171747
     26 S                     0.112225
     27 C                    -0.087050
     28 C                    -0.195534
     29 H                     0.123918
     30 H                     0.128914
     31 H                     0.131511
     32 H                     0.128326
     33 H                     0.131250
     34 H                     0.131038
     35 H                     0.132966
     36 H                     0.132856
     37 H                     0.143110
  ----------------------------------------
  Sum of atomic charges =     0.000000

 -----------------------------------------------------------------
                    Cartesian Multipole Moments
 -----------------------------------------------------------------
    Charge (ESU x 10^10)
                 0.0000
    Dipole Moment (Debye)
         X      -2.1147      Y       0.2498      Z       0.5090
       Tot       2.1894
    Quadrupole Moments (Debye-Ang)
        XX    -168.0156     XY      16.5693     YY    -171.4367
        XZ      12.3409     YZ       1.3047     ZZ    -188.8714
    Octopole Moments (Debye-Ang^2)
       XXX    -233.8922    XXY      49.1320    XYY     -30.2604
       YYY       0.2456    XXZ      59.2669    XYZ       7.5705
       YYZ      -1.2464    XZZ       3.9728    YZZ     -12.0018
       ZZZ       0.6680
    Hexadecapole Moments (Debye-Ang^3)
      XXXX  -17384.4358   XXXY    1223.2247   XXYY   -3598.4945
      XYYY    -102.8399   YYYY   -3475.8983   XXXZ     506.5927
      XXYZ      64.9270   XYYZ      73.1882   YYYZ      -9.3861
      XXZZ   -3413.1298   XYZZ      32.2436   YYZZ    -726.7388
      XZZZ      17.4145   YZZZ       4.4033   ZZZZ    -416.6447
 -----------------------------------------------------------------
 Calculating analytic gradient of the SCF energy
 K construction time:  CPU 2850.77 s  wall 180.00 s
 Gradient of SCF Energy
            1           2           3           4           5           6
    1  -0.0002249   0.0002916  -0.0000090  -0.0001686   0.0000530   0.0000009
    2  -0.0001187   0.0001723  -0.0000365  -0.0000846   0.0000592  -0.0000321
    3  -0.0000944   0.0000546  -0.0000159   0.0004448  -0.0000888  -0.0004852
            7           8           9          10          11          12
    1  -0.0000094  -0.0002920  -0.0000305  -0.0002346  -0.0002418   0.0001367
    2  -0.0001499  -0.0000717   0.0002588  -0.0000146  -0.0001050   0.0002643
    3   0.0004542  -0.0002630   0.0000655  -0.0001557   0.0000005  -0.0000144
           13          14          15          16          17          18
    1   0.0001086   0.0001416   0.0003354  -0.0001408  -0.0002541  -0.0001212
    2   0.0002703  -0.0005344  -0.0000916   0.0001437   0.0004466  -0.0002144
    3   0.0001253   0.0000030   0.0000135  -0.0001816   0.0026229  -0.0000806
           19          20          21          22          23          24
    1   0.0014541  -0.0002246   0.0002082  -0.0021110  -0.0001086   0.0003317
    2  -0.0004972   0.0000946  -0.0006493   0.0025411   0.0000310  -0.0000862
    3  -0.0014954   0.0000719  -0.0012137  -0.0026926  -0.0001236   0.0007438
           25          26          27          28          29          30
    1   0.0008663  -0.0001094  -0.0000038   0.0002297   0.0000384  -0.0000310
    2  -0.0022997   0.0004639   0.0004231  -0.0002644   0.0000104  -0.0000038
    3   0.0028878  -0.0000128  -0.0003377  -0.0000510   0.0000132   0.0000585
           31          32          33          34          35          36
    1   0.0000554   0.0000501   0.0001392  -0.0000008  -0.0001941   0.0000392
    2   0.0000231   0.0000197   0.0000233  -0.0000762   0.0001056   0.0000246
    3  -0.0000810  -0.0000220  -0.0000026   0.0000339  -0.0002723   0.0001096
           37
    1   0.0000300
    2  -0.0000456
    3  -0.0000186
 Max gradient component =       2.888E-03
 RMS gradient           =       6.702E-04
 Gradient time:  CPU 3292.36 s  wall 209.63 s
 Geometry Optimization Parameters
   NAtoms,    NIC,     NZ,  NCons,   NDum,   NFix, NCnnct, MaxDiis
       37     280       0       3       0       0       0       0

 Cartesian Hessian Update
 Hessian Updated using BFGS Update


** CONSTRAINED OPTIMIZATION IN DELOCALIZED INTERNAL COORDINATES **
   Searching for a Minimum

   Optimization Cycle:   3

                       Coordinates (Angstroms)
     ATOM                X               Y               Z
      1  C         7.6145020833    0.3798949635   -0.1211084504
      2  C         6.9495079624    1.3045174154    0.6669981083
      3  N         6.9925552803   -0.5595077998   -0.8272938259
      4  C         5.5690628301    1.2496358742    0.7251663671
      5  C         5.6690733608   -0.6020736709   -0.7650617611
      6  C         4.8950809090    0.2799895440   -0.0094761029
      7  C         3.4241141754    0.2066239111   -0.0052355889
      8  C         2.6424015617    1.3270939612   -0.0842495915
      9  C         2.7035800776   -1.0195090722    0.0811624878
     10  N         1.2868229455    1.3638265910   -0.0749593241
     11  N         3.2023137515   -2.2532374068    0.1771376045
     12  C         1.2760682613   -0.9962275577    0.0922200535
     13  C         0.5876143659    0.2589563900    0.0098258491
     14  S         1.9425467853   -3.2533691070    0.2638284921
     15  N         0.7252977792   -2.2031070798    0.1915972022
     16  C        -0.8513209577    0.3922256412    0.0116692950
     17  S        -1.9778448489   -0.9160184562    0.1363100950
     18  C        -1.5394953095    1.5808645200   -0.0713142211
     19  C        -3.3383205453    0.1275325011    0.0425016466
     20  S        -1.0643967594    3.2401933023   -0.1977016922
     21  C        -2.9506453066    1.4429537957   -0.0463332711
     22  C        -4.7009582538   -0.3778266599    0.1169898220
     23  C        -2.7493186320    3.7226409203   -0.2120490219
     24  C        -3.6262368924    2.7078946271   -0.1264321745
     25  N        -5.6374478990    0.1626724577    0.8388360892
     26  S        -5.2023409701   -1.7950492822   -0.7518364264
     27  C        -6.8054557702   -0.5323146776    0.7200386779
     28  C        -6.7683799569   -1.6263111640   -0.0814810669
     29  H         8.6963827829    0.3905882857   -0.1873181861
     30  H         7.5028973814    2.0413462779    1.2312494912
     31  H         5.0146868966    1.9395615707    1.3475654934
     32  H         5.1876410811   -1.3778374587   -1.3472709716
     33  H         3.1165662097    2.2969552275   -0.1757376295
     34  H        -2.9841560887    4.7727495914   -0.2811751184
     35  H        -4.6984046303    2.8209445864   -0.1075657807
     36  H        -7.6746421635   -0.1960240227    1.2642880548
     37  H        -7.5583921352   -2.3209892051   -0.3066900619
   Point Group: c1    Number of degrees of freedom:   105


   Energy is  -2595.904044529

              Constraints and their Current Values
                                        Value     Constraint
   Dihedral:        4   6   7   8       42.246       42.246
   Dihedral:       10  13  16  17     -179.114     -179.114
   Dihedral:       17  19  22  25      135.000      135.000
 Hessian Updated using BFGS Update

 79 Hessian modes will be used to form the next step
  Hessian Eigenvalues:
     0.018771    0.045000    0.045000    0.045001    0.045001    0.045003
     0.045005    0.045007    0.045009    0.045012    0.045519    0.047454
     0.158270    0.159964    0.159987    0.159998    0.159999    0.159999
     0.160000    0.160019    0.161045    0.220246    0.224580    0.225583
     0.231912    0.233258    0.234371    0.243971    0.247534    0.248125
     0.249918    0.249956    0.249989    0.249998    0.249999    0.259124
     0.296792    0.304310    0.313255    0.316539    0.327572    0.335444
     0.344851    0.354493    0.355818    0.356430    0.356802    0.356937
     0.359327    0.360773    0.361282    0.364505    0.365023    0.373681
     0.386414    0.388996    0.390570    0.396730    0.405668    0.425217
     0.431236    0.456094    0.470671    0.473287    0.474067    0.474791
[...]
     25  N        -5.6304976792    0.1739393326    0.8218818411
     26  S        -5.2052406221   -1.8157959582   -0.7323414330
     27  C        -6.7950862552   -0.5318999294    0.7362372992
     28  C        -6.7627893225   -1.6416511064   -0.0428621862
     29  H         8.6956584671    0.3879177764   -0.1733578362
     30  H         7.5004926876    2.0355514989    1.2468730291
     31  H         5.0119885988    1.9339450477    1.3601945346
     32  H         5.1876663464   -1.3758051333   -1.3432624571
     33  H         3.1168122684    2.2994401032   -0.1629100323
     34  H        -2.9812778360    4.7789246491   -0.2738391466
     35  H        -4.6979435035    2.8266314736   -0.1160261132
     36  H        -7.6594605361   -0.1891799417    1.2840427323
     37  H        -7.5519382803   -2.3450544889   -0.2425701272
   Point Group: c1    Number of degrees of freedom:   105


   Energy is  -2595.904092617

              Constraints and their Current Values
                                        Value     Constraint
   Dihedral:        4   6   7   8       42.246       42.246
   Dihedral:       10  13  16  17     -179.114     -179.114
   Dihedral:       17  19  22  25      135.000      135.000
 Hessian Updated using BFGS Update

 90 Hessian modes will be used to form the next step
  Hessian Eigenvalues:
     0.011286    0.022418    0.044310    0.045000    0.045000    0.045000
     0.045000    0.045000    0.045001    0.045001    0.045001    0.045002
     0.045006    0.045008    0.045009    0.045024    0.045330    0.046056
     0.047129    0.152433    0.158825    0.159970    0.159988    0.159996
     0.160002    0.160012    0.160137    0.160628    0.220048    0.224577
     0.225302    0.231732    0.233414    0.234480    0.238796    0.246543
     0.247997    0.248554    0.249789    0.249937    0.249965    0.249995
     0.249998    0.249999    0.251840    0.267829    0.296802    0.299388
     0.312422    0.316211    0.324683    0.332400    0.338887    0.354438
     0.355668    0.355985    0.356811    0.357059    0.357431    0.359460
     0.360800    0.361310    0.364794    0.365186    0.379998    0.387735
     0.391674    0.397412    0.405490    0.413762    0.430984    0.442543
     0.455509    0.467589    0.473793    0.475801    0.476102    0.483324
     0.492920    0.497534    0.498642    0.513547    0.528063    0.540270
     0.562910    0.575180    0.591574    0.626154    0.635112    0.659984

 Minimum Search - Taking Simple RFO Step
 Searching for Lamda that Minimizes Along All modes
 Value Taken    Lamda =   0.00000000
 Step Taken.  Stepsize is  0.002751

                             Maximum     Tolerance    Cnvgd?
         Gradient           0.000051      0.000300     YES
         Displacement       0.000973      0.001200     YES
         Energy change      0.000000      0.000001     YES

 Final energy is   -2595.90409261657     


 ******************************
 **  OPTIMIZATION CONVERGED  **
 ******************************

                       Coordinates (Angstroms)
     ATOM                X               Y               Z
      1  C         7.6137486074    0.3776884626   -0.1089231699
      2  C         6.9474264355    1.3003444732    0.6801832694
      3  N         6.9922790220   -0.5598406403   -0.8181649728
      4  C         5.5670686692    1.2463686768    0.7356579259
      5  C         5.6685856257   -0.6014266150   -0.7587916672
      6  C         4.8935938941    0.2802064042   -0.0036083916
      7  C         3.4226944375    0.2075807318   -0.0026996036
      8  C         2.6424148969    1.3291484377   -0.0792250878
      9  C         2.7004033903   -1.0185600351    0.0721920631
     10  N         1.2868451455    1.3667546304   -0.0759891162
     11  N         3.1972603498   -2.2531362710    0.1652710250
     12  C         1.2727114300   -0.9940990106    0.0738947615
     13  C         0.5860472154    0.2617652197   -0.0046527291
     14  S         1.9352057799   -3.2516818383    0.2386701414
     15  N         0.7193427164   -2.2003410712    0.1633557977
     16  C        -0.8526878055    0.3952397015   -0.0082293819
     17  S        -1.9792218488   -0.9141150892    0.0991513899
     18  C        -1.5406537726    1.5845907484   -0.0837689100
     19  C        -3.3406551544    0.1296678859    0.0049977047
     20  S        -1.0631154402    3.2438985955   -0.1965584049
     21  C        -2.9522229715    1.4471535656   -0.0645112730
     22  C        -4.7006353971   -0.3752241870    0.0975889253
     23  C        -2.7476813092    3.7279392411   -0.2124179689
     24  C        -3.6261788881    2.7133739944   -0.1383878687
     25  N        -5.6304976792    0.1739393326    0.8218818411
     26  S        -5.2052406221   -1.8157959582   -0.7323414330
     27  C        -6.7950862552   -0.5318999294    0.7362372992
     28  C        -6.7627893225   -1.6416511064   -0.0428621862
     29  H         8.6956584671    0.3879177764   -0.1733578362
     30  H         7.5004926876    2.0355514989    1.2468730291
     31  H         5.0119885988    1.9339450477    1.3601945346
     32  H         5.1876663464   -1.3758051333   -1.3432624571
     33  H         3.1168122684    2.2994401032   -0.1629100323
     34  H        -2.9812778360    4.7789246491   -0.2738391466
     35  H        -4.6979435035    2.8266314736   -0.1160261132
     36  H        -7.6594605361   -0.1891799417    1.2840427323
     37  H        -7.5519382803   -2.3450544889   -0.2425701272

Z-matrix Print:
$molecule
0 1
S 
C  1 1.718094
C  2 1.375311 1 111.158432
C  3 1.418375 2 111.998783 1 -1.918218 0
C  4 1.376067 3 114.397019 2 0.999392 0
C  3 1.436311 2 135.609360 1 179.006895 0
H  6 1.077964 3 123.923501 2 -2.290318 0
C  6 1.344091 3 111.197953 2 178.885314 0
H  8 1.078383 6 126.670491 3 179.781514 0
C  5 1.444918 4 125.295163 3 179.771546 0
N  10 1.310423 5 117.030902 4 -0.179667 0
C  11 1.356095 10 120.752226 5 179.946033 0
H  12 1.083292 11 114.399598 10 -178.746489 0
C  12 1.368432 11 126.339870 10 0.531410 0
C  14 1.425038 12 114.779996 11 -0.691038 0
N  15 1.334057 14 127.673195 12 179.412038 0
C  15 1.427903 14 119.479061 12 0.516287 0
N  17 1.330128 15 113.610087 14 179.242899 0
C  2 1.453628 1 121.793256 3 175.631057 0
N  19 1.300317 2 123.905541 1 -134.999998 0
C  20 1.364482 19 110.910663 2 178.703842 0
H  21 1.079208 20 119.173970 19 179.716377 0
C  21 1.356314 20 116.039297 19 -0.846154 0
H  23 1.075833 21 128.618284 20 -179.239770 0
C  14 1.472692 12 121.941475 11 179.511295 0
C  25 1.390522 14 121.176740 12 -42.245741 0
H  26 1.082091 25 119.993003 14 -2.744677 0
C  26 1.382526 25 119.298967 14 178.385237 0
H  28 1.080532 26 121.102040 25 179.661422 0
C  28 1.384907 26 118.504614 25 0.409766 0
H  30 1.083875 28 120.520348 26 179.769775 0
N  30 1.329740 28 123.282240 26 -0.016128 0
C  32 1.325677 30 117.703193 28 -0.060034 0
H  33 1.082844 32 116.213735 30 179.833860 0
S  18 1.609134 17 106.338002 15 -0.055216 0
S  23 1.712211 21 109.644972 20 0.851012 0
S  4 1.730337 3 111.620720 2 -179.098253 0
$end

 
 --------------------------------------------------------------
 
                    Orbital Energies (a.u.)
 --------------------------------------------------------------
 
 Alpha MOs
 -- Occupied --
-89.156 -89.095 -89.094 -89.075 -14.495 -14.488 -14.452 -14.447
-14.436 -10.374 -10.370 -10.363 -10.360 -10.344 -10.340 -10.339
-10.334 -10.329 -10.328 -10.326 -10.326 -10.326 -10.323 -10.318
-10.314 -10.313 -10.302 -10.299  -8.166  -8.110  -8.109  -8.090
 -6.116  -6.110  -6.109  -6.058  -6.058  -6.055  -6.054  -6.053
 -6.052  -6.039  -6.035  -6.032  -1.153  -1.085  -1.073  -1.054
 -1.024  -1.015  -0.957  -0.946  -0.913  -0.911  -0.907  -0.884
 -0.861  -0.845  -0.830  -0.808  -0.775  -0.752  -0.744  -0.728
 -0.723  -0.695  -0.690  -0.679  -0.649  -0.641  -0.623  -0.621
 -0.611  -0.596  -0.584  -0.577  -0.570  -0.568  -0.540  -0.535
 -0.527  -0.523  -0.519  -0.514  -0.512  -0.503  -0.496  -0.491
 -0.489  -0.481  -0.477  -0.463  -0.458  -0.448  -0.439  -0.431
 -0.430  -0.423  -0.403  -0.393  -0.380  -0.374  -0.370  -0.370
 -0.364  -0.358  -0.342  -0.338  -0.327  -0.319  -0.272
 -- Virtual --
 -0.055  -0.004   0.027   0.038   0.043   0.051   0.065   0.070
  0.076   0.093   0.105   0.109   0.115   0.121   0.131   0.134
  0.141   0.145   0.146   0.167   0.168   0.170   0.174   0.176
  0.189   0.193   0.198   0.212   0.214   0.229   0.235   0.245
  0.252   0.255   0.260   0.262   0.267   0.272   0.288   0.289
  0.292   0.299   0.300   0.308   0.309   0.317   0.322   0.325
  0.331   0.335   0.336   0.339   0.344   0.352   0.354   0.355
  0.362   0.364   0.370   0.373   0.376   0.379   0.385   0.386
  0.393   0.395   0.397   0.399   0.402   0.406   0.408   0.412
  0.416   0.424   0.426   0.429   0.433   0.437   0.441   0.445
  0.448   0.450   0.452   0.458   0.461   0.463   0.466   0.468
  0.469   0.472   0.475   0.479   0.480   0.483   0.486   0.490
  0.495   0.500   0.507   0.508   0.510   0.516   0.519   0.525
  0.527   0.532   0.536   0.540   0.544   0.545   0.551   0.555
  0.557   0.562   0.571   0.574   0.583   0.586   0.592   0.596
  0.604   0.609   0.613   0.623   0.632   0.636   0.638   0.643
  0.649   0.654   0.659   0.661   0.665   0.671   0.675   0.681
  0.687   0.689   0.701   0.702   0.710   0.713   0.719   0.731
  0.733   0.735   0.737   0.742   0.747   0.748   0.760   0.765
  0.768   0.770   0.773   0.775   0.788   0.792   0.792   0.798
  0.801   0.803   0.807   0.812   0.820   0.823   0.828   0.830
  0.836   0.842   0.844   0.852   0.859   0.861   0.863   0.865
  0.871   0.874   0.881   0.890   0.895   0.901   0.908   0.910
  0.919   0.923   0.929   0.931   0.940   0.947   0.951   0.954
  0.959   0.965   0.971   0.972   0.977   0.983   0.989   0.995
  0.998   1.011   1.016   1.023   1.025   1.030   1.038   1.042
  1.044   1.052   1.057   1.058   1.066   1.070   1.072   1.078
  1.081   1.088   1.092   1.098   1.106   1.117   1.120   1.125
  1.133   1.142   1.145   1.147   1.159   1.167   1.170   1.175
  1.186   1.189   1.198   1.202   1.203   1.219   1.225   1.227
  1.234   1.241   1.246   1.255   1.259   1.263   1.268   1.282
  1.283   1.290   1.295   1.302   1.311   1.318   1.325   1.332
  1.342   1.349   1.358   1.366   1.368   1.372   1.378   1.382
  1.395   1.401   1.403   1.403   1.409   1.425   1.428   1.435
  1.447   1.450   1.454   1.456   1.460   1.474   1.482   1.486
  1.495   1.500   1.508   1.511   1.522   1.532   1.545   1.547
  1.552   1.561   1.569   1.575   1.590   1.593   1.597   1.604
  1.609   1.612   1.619   1.629   1.631   1.636   1.638   1.642
  1.657   1.659   1.664   1.668   1.669   1.680   1.684   1.691
  1.697   1.698   1.704   1.709   1.715   1.723   1.729   1.733
  1.736   1.744   1.750   1.755   1.762   1.770   1.776   1.784
  1.804   1.813   1.820   1.824   1.844   1.846   1.860   1.867
  1.873   1.883   1.889   1.901   1.908   1.910   1.923   1.925
  1.930   1.933   1.942   1.950   1.963   1.972   1.977   1.981
  1.985   1.988   1.997   2.002   2.018   2.029   2.041   2.045
  2.047   2.065   2.072   2.078   2.084   2.088   2.099   2.109
  2.118   2.122   2.129   2.139   2.145   2.152   2.168   2.173
  2.181   2.185   2.190   2.197   2.203   2.219   2.230   2.234
  2.236   2.245   2.258   2.261   2.272   2.274   2.279   2.284
  2.289   2.303   2.326   2.333   2.343   2.357   2.360   2.363
  2.369   2.377   2.380   2.386   2.392   2.396   2.404   2.409
  2.427   2.431   2.440   2.446   2.451   2.453   2.458   2.462
  2.479   2.485   2.489   2.497   2.505   2.509   2.515   2.519
  2.529   2.534   2.539   2.545   2.552   2.554   2.567   2.572
  2.582   2.589   2.596   2.607   2.612   2.620   2.625   2.631
  2.640   2.647   2.654   2.660   2.668   2.673   2.679   2.689
  2.713   2.726   2.739   2.748   2.751   2.758   2.771   2.775
  2.779   2.786   2.788   2.792   2.797   2.798   2.811   2.814
  2.823   2.832   2.836   2.851   2.855   2.865   2.876   2.877
  2.882   2.884   2.899   2.918   2.927   2.931   2.941   2.942
  2.943   2.948   2.953   2.954   2.963   2.965   2.974   2.975
  2.985   2.989   2.992   3.003   3.008   3.014   3.017   3.026
  3.027   3.033   3.037   3.047   3.052   3.056   3.060   3.062
  3.070   3.077   3.085   3.089   3.093   3.094   3.100   3.108
  3.111   3.117   3.121   3.124   3.137   3.139   3.141   3.146
  3.155   3.158   3.163   3.171   3.173   3.176   3.178   3.183
  3.189   3.190   3.193   3.201   3.205   3.208   3.218   3.221
  3.224   3.228   3.230   3.232   3.237   3.242   3.248   3.252
  3.257   3.261   3.262   3.265   3.272   3.274   3.277   3.283
  3.284   3.294   3.297   3.305   3.307   3.314   3.320   3.327
  3.333   3.338   3.346   3.347   3.354   3.360   3.366   3.374
  3.381   3.383   3.393   3.396   3.404   3.416   3.419   3.426
  3.436   3.438   3.442   3.450   3.457   3.464   3.472   3.475
  3.480   3.481   3.486   3.491   3.495   3.503   3.509   3.513
  3.517   3.527   3.535   3.537   3.547   3.557   3.561   3.565
  3.576   3.591   3.592   3.601   3.609   3.613   3.626   3.637
  3.653   3.655   3.658   3.666   3.674   3.682   3.687   3.692
  3.703   3.712   3.731   3.739   3.745   3.752   3.755   3.757
  3.768   3.778   3.780   3.785   3.788   3.797   3.804   3.817
  3.826   3.830   3.837   3.843   3.848   3.855   3.865   3.866
  3.869   3.878   3.892   3.912   3.914   3.924   3.927   3.939
  3.941   3.946   3.948   3.953   3.958   3.966   3.969   3.975
  3.985   3.990   3.999   4.009   4.011   4.023   4.032   4.037
  4.060   4.074   4.081   4.088   4.092   4.098   4.106   4.122
  4.136   4.140   4.143   4.152   4.170   4.173   4.178   4.185
  4.193   4.197   4.201   4.212   4.223   4.229   4.233   4.245
  4.253   4.262   4.275   4.281   4.290   4.294   4.304   4.321
  4.324   4.341   4.344   4.350   4.353   4.376   4.383   4.385
  4.395   4.401   4.408   4.421   4.433   4.435   4.447   4.460
  4.465   4.473   4.476   4.496   4.504   4.518   4.522   4.526
  4.540   4.546   4.553   4.558   4.573   4.576   4.594   4.610
  4.617   4.630   4.638   4.652   4.663   4.668   4.681   4.692
  4.704   4.716   4.721   4.732   4.744   4.789   4.791   4.800
  4.814   4.815   4.823   4.844   4.850   4.853   4.857   4.872
  4.885   4.897   4.903   4.926   4.936   4.942   4.944   4.953
  4.957   4.962   4.969   4.975   4.982   4.998   4.999   5.007
  5.027   5.040   5.042   5.055   5.070   5.087   5.088   5.093
  5.113   5.121   5.139   5.143   5.154   5.169   5.174   5.196
  5.202   5.213   5.220   5.241   5.249   5.258   5.276   5.287
  5.316   5.319   5.326   5.337   5.346   5.355   5.396   5.399
  5.430   5.440   5.458   5.465   5.481   5.486   5.511   5.521
  5.532   5.548   5.558   5.587   5.603   5.641   5.651   5.665
  5.695   5.705   5.726   5.734   5.762   5.783   5.806   5.823
  5.853   5.881   5.893   5.945   5.952   5.965   6.002   6.058
  6.117   6.133   6.145   6.168   6.189   6.218   6.260   6.298
  6.318   6.339   6.356   6.406   6.489   6.853   7.021   8.006
  8.924   9.763  10.013  10.778  11.167  11.209  11.666  12.007
 12.321  12.492  12.554  12.875  12.969  13.150  13.181  13.448
 13.474  13.583  13.657  13.907  14.131  14.750  14.985
 --------------------------------------------------------------
 
          Ground-State Mulliken Net Atomic Charges

     Atom                 Charge (a.u.)
  ----------------------------------------
      1 C                    -0.072019
      2 C                    -0.102837
      3 N                    -0.155404
      4 C                    -0.157492
      5 C                    -0.095109
      6 C                     0.109784
      7 C                     0.032111
      8 C                    -0.093619
      9 C                     0.019678
     10 N                    -0.183222
     11 N                    -0.276543
     12 C                     0.028923
     13 C                     0.113643
     14 S                     0.412800
     15 N                    -0.284510
     16 C                    -0.062673
     17 S                     0.150526
     18 C                    -0.005387
     19 C                     0.016029
     20 S                     0.090493
     21 C                     0.010209
     22 C                    -0.020567
     23 C                    -0.162022
     24 C                    -0.154728
     25 N                    -0.171676
     26 S                     0.111538
     27 C                    -0.086322
     28 C                    -0.195393
     29 H                     0.123950
     30 H                     0.128845
     31 H                     0.131424
     32 H                     0.128346
     33 H                     0.131254
     34 H                     0.131002
     35 H                     0.133016
     36 H                     0.132706
     37 H                     0.143243
  ----------------------------------------
  Sum of atomic charges =     0.000000

 -----------------------------------------------------------------
                    Cartesian Multipole Moments
 -----------------------------------------------------------------
    Charge (ESU x 10^10)
                 0.0000
    Dipole Moment (Debye)
         X      -2.1090      Y       0.2360      Z       0.5682
       Tot       2.1969
    Quadrupole Moments (Debye-Ang)
        XX    -168.0979     XY      16.6581     YY    -171.4061
        XZ      11.9181     YZ       1.3250     ZZ    -188.8077
    Octopole Moments (Debye-Ang^2)
       XXX    -232.3650    XXY      48.3721    XYY     -30.8152
       YYY       0.1820    XXZ      63.4113    XYZ       8.3215
       YYZ       0.0124    XZZ       4.2080    YZZ     -11.7346
       ZZZ       3.7760
    Hexadecapole Moments (Debye-Ang^3)
      XXXX  -17381.5078   XXXY    1221.1233   XXYY   -3595.1562
      XYYY    -104.3318   YYYY   -3484.9656   XXXZ     484.5308
      XXYZ      60.4083   XYYZ      69.9000   YYYZ     -11.3077
      XXZZ   -3407.1888   XYZZ      29.8197   YYZZ    -728.5633
      XZZZ      13.5312   YZZZ       1.2030   ZZZZ    -411.9783
 -----------------------------------------------------------------
Archival summary:
1\1\mn256\OPT\ProcedureUnspecified\BasisUnspecified\45199\afmv_a\SatJun301:42:292017SatJun301:42:292017\0\\#,OPT,ProcedureUnspecified,BasisUnspecified,\\0,1\S\C,1,1.71809\C,2,1.37531,1,111.158\C,3,1.41837,2,111.999,1,-1.91822,0\C,4,1.37607,3,114.397,2,0.999392,0\C,3,1.43631,2,135.609,1,179.007,0\H,6,1.07796,3,123.924,2,-2.29032,0\C,6,1.34409,3,111.198,2,178.885,0\H,8,1.07838,6,126.67,3,179.782,0\C,5,1.44492,4,125.295,3,179.772,0\N,10,1.31042,5,117.031,4,-0.179667,0\C,11,1.3561,10,120.752,5,179.946,0\H,12,1.08329,11,114.4,10,-178.746,0\C,12,1.36843,11,126.34,10,0.53141,0\C,14,1.42504,12,114.78,11,-0.691038,0\N,15,1.33406,14,127.673,12,179.412,0\C,15,1.4279,14,119.479,12,0.516287,0\N,17,1.33013,15,113.61,14,179.243,0\C,2,1.45363,1,121.793,3,175.631,0\N,19,1.30032,2,123.906,1,-135,0\C,20,1.36448,19,110.911,2,178.704,0\H,21,1.07921,20,119.174,19,179.716,0\C,21,1.35631,20,116.039,19,-0.846154,0\H,23,1.07583,21,128.618,20,-179.24,0\C,14,1.47269,12,121.941,11,179.511,0\C,25,1.39052,14,121.177,12,-42.2457,0\H,26,1.08209,25,119.993,14,-2.74468,0\C,26,1.38253,25,119.299,14,178.385,0\H,28,1.08053,26,121.102,25,179.661,0\C,28,1.38491,26,118.505,25,0.409766,0\H,30,1.08388,28,120.52,26,179.77,0\N,30,1.32974,28,123.282,26,-0.0161284,0\C,32,1.32568,30,117.703,28,-0.0600339,0\H,33,1.08284,32,116.214,30,179.834,0\S,18,1.60913,17,106.338,15,-0.0552161,0\S,23,1.71221,21,109.645,20,0.851012,0\S,4,1.73034,3,111.621,2,-179.098,0\\\@

 Total job time:  6051.20s(wall), 91559.59s(cpu) 
 Sat Jun  3 01:42:29 2017

        *************************************************************
        *                                                           *
        *  Thank you very much for using Q-Chem.  Have a nice day.  *
        *                                                           *
        *************************************************************


0 sent ACK to 0 
now end server 0 ... 
cleanup process ... done
