
Running Job 1 of 1 C271_3/C271_30.qcin
qchem C271_3/C271_30.qcin_10833.0 /tmpu/cab_g/afmv_a/scratch_qchem/qchem10833/ 1
/tmpu/appuserlic/qchem4.4/parallel-MPICH/bin/mpi/mpirun_qchem -machinefile /tmpu/appuserlic/qchem4.4/parallel-MPICH/bin/mpi/machines -np 1 /tmpu/appuserlic/qchem4.4/parallel-MPICH/exe/qcprog.exe C271_3/C271_30.qcin_10833.0 /tmpu/cab_g/afmv_a/scratch_qchem/qchem10833/

Process 0 of 1 is on mn256 - thread support 0
initial socket setup ...start
initial socket setup ...done 
now start server 0 ... 
Check license passed

                  Welcome to Q-Chem
     A Quantum Leap Into The Future Of Chemistry


 Q-Chem 4.4, Q-Chem, Inc., Pleasanton, CA (2016)

 Y. Shao,  Z. Gan,  E. Epifanovsky,  A. T. B. Gilbert,  M. Wormit,  
 J. Kussmann,  A. W. Lange,  A. Behn,  J. Deng,  X. Feng,  D. Ghosh,  
 M. Goldey,  P. R. Horn,  L. D. Jacobson,  I. Kaliman,  F. Rob,  
 R. Z. Khaliullin,  T. Kus,  A. Landau,  J. Liu,  E. I. Proynov,  Y. M. Rhee,  
 R. M. Richard,  M. A. Rohrdanz,  R. P. Steele,  E. J. Sundstrom,  
 H. L. Woodcock III,  P. M. Zimmerman,  D. Zuev,  B. Albrecht,  E. Alguire,  
 B. Austin,  S. A. Baeppler,  G. J. O. Beran,  Y. A. Bernard,  E. Berquist,  
 K. Brandhorst,  K. B. Bravaya,  S. T. Brown,  D. Casanova,  C.-M. Chang,  
 Y. Chen,  S. H. Chien,  K. D. Closser,  M. P. Coons,  D. L. Crittenden,  
 S. Dasgupta,  M. Diedenhofen,  R. A. DiStasio Jr.,  H. Do,  A. D. Dutoi,  
 R. G. Edgar,  P.-T. Fang,  S. Fatehi,  Q. Feng,  L. Fusti-Molnar,  
 A. Ghysels,  A. Golubeva-Zadorozhnaya,  J. Gomes,  A. Gunina,  
 M. W. D. Hanson-Heine,  P. H. P. Harbach,  A. W. Hauser,  J. E. Herr,  
 E. G. Hohenstein,  Z. C. Holden,  K. Hui,  T.-C. Jagau,  H. Ji,  B. Kaduk,  
 K. Khistyaev,  Jaehoon Kim,  Jihan Kim,  R. A. King,  P. Klunzinger,  
 K. Koh,  D. Kosenkov,  T. Kowalczyk,  C. M. Krauter,  A. Kunitsa,  
 K. U. Lao,  A. Laurent,  K. V. Lawler,  J. Lee,  D. Lefrancois,  S. Lehtola,  
 S. V. Levchenko,  C. Y. Lin,  Y.-S. Lin,  F. Liu,  E. Livshits,  
 R. C. Lochan,  A. Luenser,  P. Manohar,  S. F. Manzer,  S.-P. Mao,  Y. Mao,  
 N. Mardirossian,  A. V. Marenich,  L. A. Martinez-Martinez,  S. A. Maurer,  
 N. J. Mayhall,  J.-M. Mewes,  A. F. Morrison,  K. Nanda,  T. S. Nguyen-Beck,  
 C. M. Oana,  R. Olivares-Amaya,  D. P. O'Neill,  J. A. Parkhill,  
 T. M. Perrine,  R. Peverati,  P. A. Pieniazek,  F. Plasser,  A. Prociuk,  
 D. R. Rehn,  E. Rosta,  N. J. Russ,  N. Sergueev,  S. M. Sharada,  
 S. Sharma,  D. W. Small,  A. Sodt,  T. Stauch,  T. Stein,  D. Stuck,  
 Y.-C. Su,  A. J. W. Thom,  T. Tsuchimochi,  L. Vogt,  O. Vydrov,  T. Wang,  
 M. A. Watson,  J. Wenzel,  A. White,  C. F. Williams,  V. Vanovschi,  
 K. Yao,  S. Yeganeh,  S. R. Yost,  Z.-Q. You,  I. Y. Zhang,  X. Zhang,  
 Y. Zhao,  B. R. Brooks,  G. K. L. Chan,  D. M. Chipman,  C. J. Cramer,  
 W. A. Goddard III,  M. S. Gordon,  W. J. Hehre,  A. Klamt,  
 H. F. Schaefer III,  M. W. Schmidt,  C. D. Sherrill,  D. G. Truhlar,  
 A. Warshel,  X. Xu,  A. Aspuru-Guzik,  R. Baer,  A. T. Bell,  N. A. Besley,  
 J.-D. Chai,  A. Dreuw,  B. D. Dunietz,  T. R. Furlani,  S. R. Gwaltney,  
 C.-P. Hsu,  Y. Jung,  J. Kong,  D. S. Lambrecht,  W. Liang,  C. Ochsenfeld,  
 V. A. Rassolov,  L. V. Slipchenko,  J. E. Subotnik,  T. Van Voorhis,  
 J. M. Herbert,  A. I. Krylov,  P. M. W. Gill,  M. Head-Gordon

 Contributors to earlier versions of Q-Chem not listed above: 
 R. D. Adamson,  J. Baker,  E. F. C. Byrd,  A. K. Chakraborty,  C.-L. Cheng,  
 H. Dachsel,  R. J. Doerksen,  G. Hawkins,  A. Heyden,  S. Hirata,  
 G. Kedziora,  F. J. Keil,  C. Kelley,  P. P. Korambath,  W. Kurlancheek,  
 A. M. Lee,  M. S. Lee,  D. Liotard,  I. Lotan,  P. E. Maslen,  N. Nair,  
 D. Neuhauser,  R. Olson,  B. Peters,  J. Ritchie,  N. E. Schultz,  
 N. Shenvi,  A. C. Simmonett,  K. S. Thanthiriwatte,  Q. Wu,  W. Zhang

 Please cite Q-Chem as follows:
 Y. Shao et al., Mol. Phys. 113, 184-215 (2015)
 DOI: 10.1080/00268976.2014.952696

 Q-Chem 4.4.2 for Intel X86 Linux

 Parts of Q-Chem use Armadillo 5.200.1 (Boston Tea Smuggler).
 http://arma.sourceforge.net/

 Q-Chem begins on Fri Jun  2 09:02:19 2017  

Host: 
0

     Scratch files written to /tmpu/cab_g/afmv_a/scratch_qchem/qchem10833//
 Dec716 11556_ 22328  22283 4050   
 Parallel job on  1  processors
Processing $rem in /tmpu/appuserlic/qchem4.4/parallel-MPICH/config/preferences.
 MEM_TOTAL  2000 
FILE_GEOM_ORG=        593

Checking the input file for inconsistencies... 	...done.

--------------------------------------------------------------
User input:
--------------------------------------------------------------
$comment
OPTIMIZATION
$end

$rem
JOBTYPE OPT
EXCHANGE omegaB97X-D
BASIS cc-pVTZ
$end

$molecule
0 1
C          0.00000        0.00000        0.00000
C          1.38508        0.00000        0.00000
N         -0.72771       -1.11322        0.00000
C          2.04720       -1.21160       -0.00386
C         -0.08136       -2.27149       -0.00595
C          1.30925       -2.38901       -0.00649
C          1.96927       -3.70493        0.02329
C          3.04486       -3.95576        0.82999
C          1.55200       -4.80802       -0.77739
N          3.72631       -5.12438        0.91627
N          0.54624       -4.84522       -1.65350
C          2.26335       -6.04410       -0.69858
C          3.37925       -6.16090        0.19241
S          0.53898       -6.32692       -2.28381
N          1.78433       -6.98642       -1.50573
C          4.16725       -7.35995        0.35676
S          3.93086       -8.84971       -0.49207
C          5.23222       -7.49170        1.21798
C          5.24541       -9.62206        0.30618
S          5.99863       -6.41836        2.33861
C          5.85372       -8.76608        1.20048
C          5.61707      -10.99188        0.02046
C          7.13339       -7.68106        2.76702
C          6.95917       -8.84504        2.11640
N          5.44081      -11.55185       -1.14177
S          6.34151      -12.04314        1.20606
C          5.87102      -12.84531       -1.13440
C          6.38726      -13.29494        0.03533
H         -0.55134        0.93273        0.00000
H          1.92494        0.93597       -0.01293
H          3.12873       -1.25416       -0.02668
H         -0.69553       -3.16348       -0.00579
H          3.41622       -3.17720        1.48423
H          7.89362       -7.46677        3.50210
H          7.55900       -9.73031        2.24234
H          5.78601      -13.44071       -2.03062
H          6.78064      -14.26936        0.26602
$end

$opt
CONSTRAINT
tors 4 6 7 8 42.24575
tors 10 13 16 17 -179.11427
tors 17 19 22 25 30.00000
ENDCONSTRAINT
$end
--------------------------------------------------------------
 ----------------------------------------------------------------
             Standard Nuclear Orientation (Angstroms)
    I     Atom           X                Y                Z
 ----------------------------------------------------------------
    1      C       7.6296416593     0.5894055869    -0.1105554625
    2      C       6.9267470119     1.4259837857     0.7406334932
    3      N       7.0440794553    -0.3199859283    -0.8844705675
    4      C       5.5518118140     1.3119063392     0.7947804400
    5      C       5.7230622582    -0.4224921421    -0.8228332492
    6      C       4.9166035742     0.3674590607    -0.0023401643
    7      C       3.4504916742     0.2308249985    -0.0047328503
    8      C       2.6232602116     1.3199766916    -0.0080681046
    9      C       2.7818308988    -1.0280893273     0.0014113407
   10      N       1.2679788708     1.2966545102     0.0045655111
   11      N       3.3322694765    -2.2435586878     0.0139554855
   12      C       1.3541260892    -1.0668752789     0.0180916214
   13      C       0.6144796178     0.1601782750     0.0171411559
   14      S       2.1167970905    -3.2994518863     0.0361979205
   15      N       0.8552327319    -2.2996035546     0.0382083161
   16      C      -0.8273856651     0.2411472734     0.0291558224
   17      S      -1.9155482675    -1.1042717211     0.0682370027
   18      C      -1.5515648939     1.4110033997     0.0143187088
   19      C      -3.3106827293    -0.0966220382     0.0648847641
   20      S      -1.1118769831     3.0845421368    -0.0202829858
   21      C      -2.9586154316     1.2366726742     0.0350664084
   22      C      -4.6507818502    -0.6434677991     0.1004932798
   23      C      -2.8059950621     3.5266051854    -0.0072112209
   24      C      -3.6625490550     2.4902397375     0.0205439386
   25      N      -4.9462004770    -1.7720044779     0.6788922432
   26      S      -6.0174929189     0.1519084290    -0.6310022921
   27      C      -6.2745840790    -2.0531126851     0.5582733625
   28      C      -7.0182910546    -1.1402849742    -0.1129826632
   29      H       8.7094766844     0.6500803110    -0.1756396003
   30      H       7.4566653162     2.1383614904     1.3565559249
   31      H       4.9683299074     1.9317516102     1.4636451136
   32      H       5.2696267480    -1.1698229711    -1.4621640279
   33      H       3.0488815541     2.3151852330    -0.0304362247
   34      H      -3.0683536230     4.5731773931    -0.0154004157
   35      H      -4.7366254876     2.5640262798     0.0371345536
   36      H      -6.6685449580    -2.9616522866     0.9875620379
   37      H      -8.0726692093    -1.1580039987    -0.3261323289
 ----------------------------------------------------------------
 Molecular Point Group                 C1    NOp =  1
 Largest Abelian Subgroup              C1    NOp =  1
 Nuclear Repulsion Energy =  2962.3275075717 hartrees
 There are      111 alpha and      111 beta electrons
 Requested basis set is cc-pVTZ
 There are 342 shells and 982 basis functions

 Total QAlloc Memory Limit   2000 MB
 Mega-Array Size        61 MB
 MEM_STATIC part        62 MB
 A cutoff of  1.0D-11 yielded  29210 shell pairs
 There are    231636 function pairs (    302685 Cartesian)
 
 -------------------------------------------------------
 OpenMP Integral Computing Module                       
 Release: version 1.0, May 2013, Q-Chem Inc. Pittsburgh 
 -------------------------------------------------------
 Integral Job Info:
 Integral job number is                      11
 Integral operator is                         1
 short-range coefficients              22203600
 long-range coefficients              100000000
 Omega coefficients                         200
 if combine SR and LR in K                    1
 Integral screening is                        0
 Integral computing path is                   2
 max size of driver memory is            800000
 size of driver memory is                776718
 size of scratch memory is             26248924
 max col of scratch BK array              10000
 max len of scratch array in speh3          662
 max len of scratch index in speh4           32
 max int batch size is                      520
 min int batch size is                       52
 fixed nKL is                                52
 max L of basis functions is                  3
 order of int derivative is                   0
 number of shells is                        342
 number of basis is                        1131
 number of cartesian basis is              1131
 number of contracted shell pairs         29210
 number of primitive shell pairs          92406
 maxK2 (contraction) of shell pair          121
 max number of K2 of shell pair               1
 max number of CS2 of shell pair           3959
 max number of PS2 of shell pair          11662
 mem total for path MDJ                  810124
 -------------------------------------------------------
 Smallest overlap matrix eigenvalue = 2.14E-05

 Scale SEOQF with 1.000000e-02/1.000000e-01/1.000000e-01

 Standard Electronic Orientation quadrupole field applied
 Nucleus-field energy     =     0.0000000621 hartrees
 Guess from superposition of atomic densities
 Warning:  Energy on first SCF cycle will be non-variational
 Long-range K will be added via erf
 Coulomb attenuation parameter = 0.2 bohr**(-1)
 A restricted hybrid HF-DFT SCF calculation will be
 performed using Pulay DIIS extrapolation
 Exchange:     0.2220 Hartree-Fock + 1.0000 wB97X-D + LR-HF
 Correlation:  1.0000 wB97X-D
 Using SG-2 standard quadrature grid
 Dispersion:   Grimme D
 SCF converges when DIIS error is below 1.0E-08
 using 16 threads for integral computing 
 using 16 threads for integral computing 
 K construction time:  CPU 72.47 s  wall 4.69 s
 -------------------------------------------------------
 OpenMP BLAS3 based DFT computing Module                
 Release: version 1.0, May 2013, Q-Chem Inc. Pittsburgh 
 -------------------------------------------------------
 ---------------------------------------
  Cycle       Energy         DIIS Error
 ---------------------------------------
    1   -2605.8683098456      1.87E-02
 K construction time:  CPU 1082.50 s  wall 70.67 s
    2   -2595.6644365210      1.36E-03
 K construction time:  CPU 1030.87 s  wall 67.26 s
    3   -2595.6933389425      1.40E-03
 K construction time:  CPU 985.18 s  wall 64.14 s
    4   -2595.8980004148      2.25E-04
 K construction time:  CPU 915.03 s  wall 59.71 s
    5   -2595.9024855662      1.32E-04
 K construction time:  CPU 866.69 s  wall 56.54 s
    6   -2595.9044136377      3.92E-05
 K construction time:  CPU 814.09 s  wall 53.05 s
    7   -2595.9046090490      1.60E-05
 K construction time:  CPU 759.74 s  wall 49.54 s
    8   -2595.9046495204      5.77E-06
 K construction time:  CPU 730.38 s  wall 47.57 s
    9   -2595.9046589868      3.65E-06
 K construction time:  CPU 690.82 s  wall 44.93 s
   10   -2595.9046620493      1.23E-06
 K construction time:  CPU 628.52 s  wall 40.94 s
   11   -2595.9046624644      6.75E-07
 K construction time:  CPU 590.72 s  wall 38.48 s
   12   -2595.9046625799      2.25E-07
 K construction time:  CPU 521.76 s  wall 33.93 s
   13   -2595.9046625936      9.95E-08
 K construction time:  CPU 471.18 s  wall 30.59 s
   14   -2595.9046625970      3.25E-08
 K construction time:  CPU 390.15 s  wall 25.27 s
   15   -2595.9046625983      1.48E-08
 K construction time:  CPU 1082.80 s  wall 70.57 s
   16   -2595.9046625926      4.82E-09 Convergence criterion met
 ---------------------------------------
 SCF time:  CPU 15491.26 s  wall 1032.37 s
 SCF   energy in the final basis set = -2595.9046625926
 Total energy in the final basis set = -2595.9046625926
 
 --------------------------------------------------------------
 
                    Orbital Energies (a.u.)
 --------------------------------------------------------------
 
 Alpha MOs
 -- Occupied --
-89.155 -89.095 -89.092 -89.078 -14.494 -14.487 -14.452 -14.445
-14.436 -10.374 -10.369 -10.362 -10.359 -10.345 -10.339 -10.339
-10.334 -10.329 -10.327 -10.327 -10.326 -10.326 -10.325 -10.318
-10.315 -10.314 -10.304 -10.302  -8.165  -8.110  -8.106  -8.092
 -6.115  -6.109  -6.109  -6.059  -6.056  -6.056  -6.053  -6.052
 -6.049  -6.041  -6.038  -6.034  -1.152  -1.084  -1.073  -1.054
 -1.024  -1.015  -0.958  -0.946  -0.912  -0.911  -0.908  -0.884
 -0.862  -0.846  -0.830  -0.809  -0.776  -0.752  -0.744  -0.728
 -0.722  -0.699  -0.693  -0.676  -0.646  -0.640  -0.624  -0.621
 -0.615  -0.596  -0.584  -0.577  -0.570  -0.568  -0.542  -0.536
 -0.528  -0.526  -0.518  -0.514  -0.512  -0.503  -0.496  -0.490
 -0.487  -0.480  -0.478  -0.463  -0.458  -0.448  -0.439  -0.433
 -0.430  -0.423  -0.402  -0.394  -0.381  -0.374  -0.370  -0.369
 -0.364  -0.358  -0.342  -0.338  -0.327  -0.320  -0.271
 -- Virtual --
 -0.056  -0.007   0.027   0.039   0.045   0.053   0.063   0.075
  0.086   0.088   0.104   0.106   0.118   0.121   0.128   0.132
  0.136   0.144   0.146   0.166   0.167   0.170   0.172   0.183
  0.188   0.194   0.197   0.213   0.216   0.229   0.240   0.245
  0.250   0.255   0.263   0.264   0.271   0.275   0.285   0.290
  0.297   0.299   0.303   0.306   0.307   0.316   0.322   0.328
  0.332   0.334   0.336   0.345   0.346   0.350   0.358   0.361
  0.363   0.364   0.367   0.373   0.375   0.380   0.383   0.387
  0.388   0.393   0.396   0.401   0.403   0.406   0.406   0.416
  0.416   0.420   0.425   0.430   0.433   0.437   0.438   0.441
  0.444   0.447   0.450   0.459   0.460   0.465   0.466   0.469
  0.472   0.473   0.477   0.479   0.482   0.485   0.487   0.494
  0.495   0.504   0.506   0.510   0.513   0.516   0.520   0.525
  0.527   0.529   0.539   0.542   0.545   0.548   0.552   0.555
  0.559   0.563   0.566   0.575   0.581   0.589   0.595   0.596
  0.610   0.612   0.615   0.622   0.624   0.635   0.639   0.646
  0.651   0.658   0.660   0.666   0.669   0.672   0.680   0.687
  0.690   0.697   0.700   0.702   0.709   0.719   0.725   0.728
  0.733   0.735   0.741   0.747   0.750   0.751   0.753   0.761
  0.764   0.770   0.772   0.777   0.790   0.791   0.796   0.799
  0.801   0.807   0.812   0.815   0.820   0.822   0.827   0.834
  0.836   0.843   0.846   0.851   0.856   0.860   0.862   0.863
  0.868   0.876   0.883   0.889   0.894   0.898   0.906   0.912
  0.915   0.924   0.925   0.934   0.940   0.947   0.948   0.953
  0.957   0.963   0.969   0.972   0.975   0.976   0.983   0.992
  0.999   1.013   1.015   1.021   1.025   1.031   1.032   1.037
  1.048   1.050   1.052   1.057   1.061   1.070   1.075   1.077
  1.082   1.088   1.095   1.096   1.107   1.109   1.119   1.126
  1.130   1.140   1.143   1.152   1.155   1.167   1.171   1.182
  1.185   1.192   1.200   1.201   1.206   1.219   1.222   1.226
  1.231   1.238   1.245   1.254   1.257   1.264   1.271   1.274
  1.280   1.287   1.293   1.298   1.300   1.314   1.321   1.328
  1.340   1.348   1.354   1.358   1.365   1.374   1.379   1.381
  1.392   1.400   1.402   1.404   1.412   1.424   1.430   1.432
  1.446   1.450   1.453   1.459   1.464   1.475   1.484   1.487
  1.492   1.502   1.504   1.507   1.519   1.531   1.538   1.553
  1.565   1.566   1.569   1.580   1.588   1.596   1.601   1.608
  1.609   1.611   1.621   1.625   1.629   1.637   1.639   1.643
  1.656   1.659   1.664   1.672   1.678   1.680   1.684   1.688
  1.692   1.701   1.705   1.712   1.719   1.721   1.726   1.740
  1.744   1.752   1.756   1.760   1.767   1.777   1.785   1.791
  1.799   1.813   1.818   1.825   1.836   1.854   1.861   1.870
  1.883   1.886   1.889   1.895   1.900   1.911   1.917   1.926
  1.929   1.940   1.944   1.952   1.962   1.968   1.976   1.980
  1.986   1.994   1.998   2.002   2.012   2.031   2.035   2.042
  2.062   2.066   2.078   2.082   2.085   2.089   2.098   2.114
  2.121   2.127   2.130   2.142   2.151   2.159   2.166   2.173
  2.178   2.186   2.189   2.196   2.206   2.219   2.224   2.234
  2.241   2.242   2.253   2.261   2.267   2.275   2.282   2.287
  2.302   2.314   2.324   2.331   2.345   2.351   2.355   2.361
  2.364   2.373   2.380   2.384   2.395   2.397   2.404   2.408
  2.413   2.427   2.438   2.440   2.450   2.457   2.461   2.462
  2.479   2.485   2.490   2.496   2.499   2.509   2.514   2.520
  2.522   2.532   2.538   2.545   2.553   2.560   2.568   2.576
  2.579   2.591   2.600   2.605   2.618   2.624   2.626   2.630
  2.642   2.648   2.657   2.661   2.671   2.676   2.682   2.690
  2.723   2.726   2.739   2.746   2.753   2.758   2.766   2.775
  2.782   2.783   2.788   2.790   2.793   2.799   2.811   2.813
  2.822   2.830   2.837   2.847   2.851   2.872   2.873   2.878
  2.884   2.892   2.899   2.908   2.913   2.930   2.935   2.939
  2.944   2.948   2.951   2.955   2.964   2.972   2.976   2.980
  2.983   2.989   2.990   3.003   3.007   3.010   3.020   3.026
  3.027   3.030   3.041   3.047   3.051   3.058   3.059   3.065
  3.069   3.073   3.086   3.090   3.092   3.097   3.105   3.106
  3.109   3.119   3.122   3.129   3.136   3.138   3.142   3.148
  3.153   3.158   3.161   3.167   3.174   3.177   3.180   3.183
  3.186   3.191   3.194   3.200   3.201   3.207   3.216   3.217
  3.225   3.229   3.231   3.233   3.240   3.243   3.245   3.252
  3.255   3.257   3.265   3.268   3.271   3.276   3.279   3.282
  3.289   3.291   3.297   3.305   3.308   3.313   3.320   3.324
  3.335   3.338   3.348   3.356   3.357   3.360   3.366   3.375
  3.378   3.383   3.393   3.395   3.398   3.416   3.418   3.426
  3.429   3.434   3.440   3.442   3.449   3.458   3.460   3.467
  3.469   3.480   3.483   3.484   3.499   3.504   3.509   3.514
  3.525   3.532   3.534   3.543   3.545   3.555   3.560   3.574
  3.580   3.584   3.594   3.600   3.603   3.619   3.623   3.629
  3.647   3.652   3.657   3.666   3.671   3.681   3.687   3.692
  3.706   3.715   3.729   3.734   3.744   3.753   3.754   3.760
  3.767   3.773   3.779   3.788   3.791   3.800   3.804   3.818
  3.826   3.828   3.832   3.842   3.848   3.852   3.864   3.868
  3.870   3.877   3.894   3.897   3.916   3.922   3.927   3.932
  3.936   3.944   3.948   3.950   3.963   3.967   3.975   3.978
  3.988   3.999   4.000   4.011   4.013   4.030   4.036   4.049
  4.061   4.073   4.082   4.089   4.097   4.106   4.110   4.116
  4.133   4.141   4.143   4.153   4.162   4.171   4.178   4.189
  4.198   4.199   4.201   4.207   4.212   4.227   4.233   4.245
  4.249   4.256   4.265   4.281   4.288   4.297   4.308   4.318
  4.323   4.335   4.346   4.348   4.355   4.380   4.386   4.390
  4.394   4.407   4.416   4.424   4.436   4.444   4.460   4.463
  4.469   4.471   4.478   4.487   4.503   4.513   4.520   4.522
  4.539   4.547   4.557   4.565   4.578   4.585   4.602   4.613
  4.617   4.634   4.644   4.651   4.666   4.675   4.680   4.691
  4.700   4.715   4.724   4.732   4.736   4.782   4.791   4.794
  4.811   4.816   4.826   4.838   4.843   4.851   4.856   4.858
  4.872   4.886   4.904   4.933   4.935   4.937   4.944   4.954
  4.955   4.962   4.967   4.977   4.990   4.998   4.999   5.009
  5.023   5.030   5.043   5.056   5.070   5.084   5.087   5.089
  5.111   5.114   5.136   5.150   5.156   5.161   5.175   5.197
  5.205   5.221   5.230   5.237   5.255   5.259   5.274   5.285
  5.315   5.318   5.338   5.347   5.356   5.370   5.391   5.400
  5.429   5.438   5.449   5.458   5.466   5.481   5.490   5.515
  5.532   5.554   5.561   5.574   5.606   5.636   5.665   5.689
  5.695   5.705   5.735   5.744   5.764   5.804   5.821   5.828
  5.853   5.866   5.891   5.931   5.946   5.977   6.003   6.067
  6.117   6.142   6.168   6.182   6.190   6.214   6.251   6.282
  6.315   6.321   6.354   6.407   6.491   6.855   7.020   8.064
  8.960   9.794  10.023  10.817  11.165  11.212  11.676  12.008
 12.314  12.484  12.555  12.865  13.024  13.156  13.182  13.445
 13.498  13.591  13.653  13.910  14.120  14.756  14.998
 --------------------------------------------------------------
 
          Ground-State Mulliken Net Atomic Charges

     Atom                 Charge (a.u.)
  ----------------------------------------
      1 C                    -0.072499
      2 C                    -0.102039
      3 N                    -0.155362
      4 C                    -0.157055
      5 C                    -0.094933
      6 C                     0.111489
      7 C                     0.031926
      8 C                    -0.095772
      9 C                     0.018711
     10 N                    -0.185420
     11 N                    -0.276466
     12 C                     0.027895
     13 C                     0.114201
     14 S                     0.415381
     15 N                    -0.281216
     16 C                    -0.060977
     17 S                     0.168398
     18 C                    -0.009416
     19 C                     0.047453
     20 S                     0.094387
     21 C                    -0.004982
     22 C                    -0.032822
     23 C                    -0.165475
     24 C                    -0.165376
     25 N                    -0.171154
     26 S                     0.099824
     27 C                    -0.086615
     28 C                    -0.200265
     29 H                     0.124027
     30 H                     0.128511
     31 H                     0.130588
     32 H                     0.128732
     33 H                     0.131229
     34 H                     0.131636
     35 H                     0.135219
     36 H                     0.132618
     37 H                     0.145620
  ----------------------------------------
  Sum of atomic charges =     0.000000

 -----------------------------------------------------------------
                    Cartesian Multipole Moments
 -----------------------------------------------------------------
    Charge (ESU x 10^10)
                 0.0000
    Dipole Moment (Debye)
         X      -2.5998      Y       1.7156      Z       0.7077
       Tot       3.1942
    Quadrupole Moments (Debye-Ang)
        XX    -163.1306     XY       8.0973     YY    -173.3136
        XZ      12.5891     YZ       2.4637     ZZ    -188.7126
    Octopole Moments (Debye-Ang^2)
       XXX    -292.4447    XXY      77.0106    XYY     -14.4186
       YYY       2.2225    XXZ      62.1675    XYZ      13.6239
       YYZ       5.7792    XZZ       5.5439    YZZ      -7.6945
       ZZZ       0.7196
    Hexadecapole Moments (Debye-Ang^3)
      XXXX  -17616.0989   XXXY    1015.4245   XXYY   -3659.2098
      XYYY    -135.7732   YYYY   -3337.1988   XXXZ     674.5231
      XXYZ      30.2698   XYYZ      15.9698   YYYZ      -1.1128
      XXZZ   -3497.0072   XYZZ      16.4066   YYZZ    -692.3139
      XZZZ      20.4966   YZZZ       5.6559   ZZZZ    -387.3832
 -----------------------------------------------------------------
 Calculating analytic gradient of the SCF energy
 K construction time:  CPU 2892.05 s  wall 182.70 s
 Gradient of SCF Energy
            1           2           3           4           5           6
    1   0.0011989  -0.0022529   0.0003619   0.0014832  -0.0004431   0.0000077
    2   0.0003512  -0.0002086   0.0000882  -0.0001331   0.0003196   0.0004167
    3   0.0004658  -0.0003743  -0.0000235  -0.0009483  -0.0001830   0.0011057
            7           8           9          10          11          12
    1  -0.0001968   0.0010956  -0.0000712   0.0002305  -0.0005163  -0.0005660
    2   0.0003831  -0.0002665  -0.0000302   0.0004487  -0.0007164   0.0004861
    3  -0.0000065  -0.0006426  -0.0000646   0.0000789   0.0001767   0.0003578
           13          14          15          16          17          18
    1  -0.0004327   0.0006977   0.0003450   0.0036698   0.0026384  -0.0006182
    2  -0.0007683  -0.0004630   0.0004035   0.0003272   0.0014487  -0.0009973
    3  -0.0002547  -0.0002482   0.0002200   0.0002732  -0.0015333  -0.0003088
           19          20          21          22          23          24
    1  -0.0009427   0.0016090  -0.0029392   0.0001308   0.0009914  -0.0029546
    2  -0.0064187  -0.0004729   0.0014770   0.0055564  -0.0020572   0.0031892
    3   0.0010481  -0.0003340   0.0026691  -0.0042746   0.0000513  -0.0005970
           25          26          27          28          29          30
    1   0.0002812  -0.0014147   0.0006249  -0.0003775  -0.0001975   0.0004815
    2   0.0004484   0.0017131   0.0007206  -0.0012695  -0.0000351  -0.0003832
    3   0.0027840   0.0003610   0.0006807  -0.0000729  -0.0000387  -0.0000167
           31          32          33          34          35          36
    1  -0.0005414  -0.0003528  -0.0009507  -0.0002359   0.0006704  -0.0006863
    2  -0.0001202   0.0000675  -0.0000471   0.0002505  -0.0036211   0.0001126
    3   0.0001492  -0.0000176   0.0003523   0.0001882  -0.0003933  -0.0002380
           37
    1   0.0001725
    2  -0.0001996
    3  -0.0003913
 Max gradient component =       6.419E-03
 RMS gradient           =       1.390E-03
 Gradient time:  CPU 3333.95 s  wall 212.39 s
 Geometry Optimization Parameters
   NAtoms,    NIC,     NZ,  NCons,   NDum,   NFix, NCnnct, MaxDiis
       37     280       0       3       0       0       0       0


** CONSTRAINED OPTIMIZATION IN DELOCALIZED INTERNAL COORDINATES **
   Searching for a Minimum

   Optimization Cycle:   1

                       Coordinates (Angstroms)
     ATOM                X               Y               Z
      1  C         7.6296416593    0.5894055869   -0.1105554625
      2  C         6.9267470119    1.4259837857    0.7406334932
      3  N         7.0440794553   -0.3199859283   -0.8844705675
      4  C         5.5518118140    1.3119063392    0.7947804400
      5  C         5.7230622582   -0.4224921421   -0.8228332492
      6  C         4.9166035742    0.3674590607   -0.0023401643
      7  C         3.4504916742    0.2308249985   -0.0047328503
      8  C         2.6232602116    1.3199766916   -0.0080681046
      9  C         2.7818308988   -1.0280893273    0.0014113407
     10  N         1.2679788708    1.2966545102    0.0045655111
     11  N         3.3322694765   -2.2435586878    0.0139554855
     12  C         1.3541260892   -1.0668752789    0.0180916214
     13  C         0.6144796178    0.1601782750    0.0171411559
     14  S         2.1167970905   -3.2994518863    0.0361979205
     15  N         0.8552327319   -2.2996035546    0.0382083161
     16  C        -0.8273856651    0.2411472734    0.0291558224
     17  S        -1.9155482675   -1.1042717211    0.0682370027
     18  C        -1.5515648939    1.4110033997    0.0143187088
     19  C        -3.3106827293   -0.0966220382    0.0648847641
     20  S        -1.1118769831    3.0845421368   -0.0202829858
     21  C        -2.9586154316    1.2366726742    0.0350664084
     22  C        -4.6507818502   -0.6434677991    0.1004932798
     23  C        -2.8059950621    3.5266051854   -0.0072112209
     24  C        -3.6625490550    2.4902397375    0.0205439386
     25  N        -4.9462004770   -1.7720044779    0.6788922432
     26  S        -6.0174929189    0.1519084290   -0.6310022921
     27  C        -6.2745840790   -2.0531126851    0.5582733625
     28  C        -7.0182910546   -1.1402849742   -0.1129826632
     29  H         8.7094766844    0.6500803110   -0.1756396003
     30  H         7.4566653162    2.1383614904    1.3565559249
     31  H         4.9683299074    1.9317516102    1.4636451136
     32  H         5.2696267480   -1.1698229711   -1.4621640279
     33  H         3.0488815541    2.3151852330   -0.0304362247
     34  H        -3.0683536230    4.5731773931   -0.0154004157
     35  H        -4.7366254876    2.5640262798    0.0371345536
     36  H        -6.6685449580   -2.9616522866    0.9875620379
     37  H        -8.0726692093   -1.1580039987   -0.3261323289
   Point Group: c1    Number of degrees of freedom:   105


   Energy is  -2595.904662593

              Constraints and their Current Values
                                        Value     Constraint
   Dihedral:        4   6   7   8       42.189       42.246
   Dihedral:       10  13  16  17     -179.124     -179.114
   Dihedral:       17  19  22  25       30.000       30.000

 Attempting to Generate Delocalized Internal Coordinates

   Using Lagrange Multiplier Algorithm


108 Hessian modes will be used to form the next step
  Hessian Eigenvalues:
    -0.977753   -0.977753   -0.977753    0.045000    0.045000    0.045000
     0.045000    0.045000    0.045000    0.045000    0.045000    0.045000
     0.045000    0.045000    0.045000    0.045000    0.045000    0.045000
     0.045000    0.045000    0.045000    0.045000    0.045000    0.045000
     0.045001    0.045001    0.045001    0.045001    0.045001    0.045003
     0.045005    0.045007    0.045009    0.045012    0.159961    0.159984
     0.159995    0.159997    0.159998    0.159999    0.160000    0.160000
     0.160000    0.220002    0.224572    0.225458    0.231978    0.233022
     0.234404    0.247446    0.247715    0.249914    0.249956    0.249989
     0.249992    0.249998    0.249998    0.249998    0.249999    0.249999
     0.249999    0.250000    0.250000    0.297515    0.305113    0.316329
     0.317280    0.326677    0.334478    0.354466    0.355754    0.356364
     0.356781    0.356811    0.359242    0.360762    0.361170    0.363916
     0.365000    0.372838    0.385324    0.386480    0.390167    0.393199
     0.397174    0.410394    0.431175    0.455299    0.463153    0.473302
     0.473331    0.475009    0.483101    0.491312    0.496878    0.499415
     0.517645    0.525704    0.538145    0.558610    0.574891    0.584500
     0.591081    0.623467    0.638981    1.022753    1.022753    1.022753

 Minimum Search - Taking P-RFO Step
 Searching for Lamda that Maximizes Along the Constraint modes Only
 Value Taken    Lamda =   0.00000879
 Searching for Lamda that Minimizes Along All other modes
 Value Taken    Lamda =  -0.00127421
 Step Taken.  Stepsize is  0.088708

                             Maximum     Tolerance    Cnvgd?
         Gradient            0.008015       0.000300      NO
         Displacement        0.037618       0.001200      NO
         Energy change     *********       0.000001      NO


 New Cartesian Coordinates Obtained by Inverse Iteration

 Displacement from previous Coordinates is:  0.709596
 ----------------------------------------------------------------
             Standard Nuclear Orientation (Angstroms)
    I     Atom           X                Y                Z
 ----------------------------------------------------------------
    1      C       7.6223478946     0.5347195066    -0.1208919368
    2      C       6.9369002117     1.3897875427     0.7262532578
    3      N       7.0215126622    -0.3736267241    -0.8838958691
    4      C       5.5594058913     1.2960494016     0.7857960438
    5      C       5.6998878671    -0.4555036100    -0.8182620963
    6      C       4.9074214680     0.3556183639    -0.0043228476
    7      C       3.4391003889     0.2410108534    -0.0004586722
    8      C       2.6253599994     1.3411033584    -0.0082464512
    9      C       2.7547748781    -1.0082777144     0.0134202078
   10      N       1.2691733074     1.3356947209     0.0081051764
   11      N       3.2901448805    -2.2298412276     0.0304485694
   12      C       1.3271883667    -1.0288533131     0.0311609765
   13      C       0.6022790277     0.2070917092     0.0271029564
   14      S       2.0599395016    -3.2690409530     0.0611769288
   15      N       0.8109426005    -2.2543769112     0.0569765378
   16      C      -0.8400109438     0.2944944006     0.0416110518
   17      S      -1.9196768584    -1.0554183275     0.0891995881
   18      C      -1.5623301004     1.4651132743     0.0255706420
   19      C      -3.3126218428    -0.0526717830     0.0807344849
   20      S      -1.1250026251     3.1401157757    -0.0116613303
   21      C      -2.9681073538     1.2851348619     0.0454566362
   22      C      -4.6316443556    -0.6542629382     0.1029116461
   23      C      -2.8164379914     3.5822681403    -0.0004199676
   24      C      -3.6692362158     2.5431316895     0.0319444100
   25      N      -4.8927422462    -1.7965229005     0.6693766924
   26      S      -6.0125738902     0.0869621933    -0.6521879495
   27      C      -6.2084265829    -2.1253842808     0.5327106512
   28      C      -6.9770950768    -1.2330469745    -0.1385147875
   29      H       8.7029842672     0.5788685651    -0.1906635345
   30      H       7.4767027964     2.1023760357     1.3333450949
   31      H       4.9898216599     1.9323361908     1.4504278535
   32      H       5.2357473004    -1.2031680502    -1.4491932454
   33      H       3.0693278147     2.3286442876    -0.0414906683
   34      H      -3.0791420115     4.6282836032    -0.0110185531
   35      H      -4.7426297118     2.6411095011     0.0535223721
   36      H      -6.5704255643    -3.0490384857     0.9576359733
   37      H      -8.0292285144    -1.2830891385    -0.3581635549
 ----------------------------------------------------------------
 Molecular Point Group                 C1    NOp =  1
 Largest Abelian Subgroup              C1    NOp =  1
 Nuclear Repulsion Energy =  2963.5269009730 hartrees
 There are      111 alpha and      111 beta electrons
 Applying Cartesian multipole field
    Component          Value
    ---------          -----
     (2,0,0)        1.00000E-12
     (0,2,0)        2.00000E-11
     (0,0,2)       -3.00000E-11
 Nucleus-field energy     =     0.0000000627 hartrees
 Requested basis set is cc-pVTZ
 There are 342 shells and 982 basis functions
 A cutoff of  1.0D-11 yielded  29210 shell pairs
 There are    231558 function pairs (    302548 Cartesian)
 Smallest overlap matrix eigenvalue = 2.08E-05
 Guess MOs from SCF MO coefficient file
 Reading MOs from coefficient file
 Reading MOs from coefficient file
 Long-range K will be added via erf
 Coulomb attenuation parameter = 0.2 bohr**(-1)
 A restricted hybrid HF-DFT SCF calculation will be
 performed using Pulay DIIS extrapolation
 Exchange:     0.2220 Hartree-Fock + 1.0000 wB97X-D + LR-HF
 Correlation:  1.0000 wB97X-D
 Using SG-2 standard quadrature grid
 Dispersion:   Grimme D
 SCF converges when DIIS error is below 1.0E-08
 Geometry optimization detected.  Setting ReadMinima to 0
 Setting SaveMinima to 0
 using 16 threads for integral computing 
 using 16 threads for integral computing 
 K construction time:  CPU 1085.35 s  wall 70.78 s
 -------------------------------------------------------
 OpenMP BLAS3 based DFT computing Module                
 Release: version 1.0, May 2013, Q-Chem Inc. Pittsburgh 
 -------------------------------------------------------
 ---------------------------------------
  Cycle       Energy         DIIS Error
 ---------------------------------------
    1   -2595.9018649739      3.05E-04
 K construction time:  CPU 1082.49 s  wall 70.67 s
    2   -2595.9050866522      3.36E-05
 K construction time:  CPU 812.62 s  wall 52.94 s
    3   -2595.9052291872      3.18E-05
 K construction time:  CPU 768.08 s  wall 50.07 s
    4   -2595.9053282858      1.22E-05
 K construction time:  CPU 725.69 s  wall 47.29 s
    5   -2595.9053458429      5.26E-06
 K construction time:  CPU 669.79 s  wall 43.62 s
    6   -2595.9053495172      1.45E-06
 K construction time:  CPU 597.20 s  wall 38.85 s
    7   -2595.9053498519      5.24E-07
 K construction time:  CPU 546.01 s  wall 35.49 s
    8   -2595.9053499083      2.28E-07
 K construction time:  CPU 493.41 s  wall 32.01 s
    9   -2595.9053499196      8.12E-08
 K construction time:  CPU 424.73 s  wall 27.53 s
   10   -2595.9053499207      2.88E-08
 K construction time:  CPU 374.64 s  wall 24.18 s
   11   -2595.9053499223      1.70E-08
 K construction time:  CPU 331.99 s  wall 21.47 s
   12   -2595.9053499252      5.32E-09 Convergence criterion met
 ---------------------------------------
 SCF time:  CPU 10659.06 s  wall 710.25 s
 SCF   energy in the final basis set = -2595.9053499252
 Total energy in the final basis set = -2595.9053499252
 
 --------------------------------------------------------------
 
                    Orbital Energies (a.u.)
 --------------------------------------------------------------
 
 Alpha MOs
 -- Occupied --
-89.154 -89.094 -89.092 -89.077 -14.494 -14.487 -14.452 -14.445
-14.435 -10.374 -10.369 -10.362 -10.359 -10.345 -10.340 -10.338
-10.334 -10.329 -10.328 -10.327 -10.326 -10.326 -10.325 -10.318
-10.317 -10.314 -10.305 -10.302  -8.165  -8.110  -8.106  -8.092
 -6.115  -6.109  -6.108  -6.059  -6.055  -6.055  -6.053  -6.051
 -6.049  -6.041  -6.037  -6.034  -1.152  -1.084  -1.072  -1.054
 -1.024  -1.015  -0.958  -0.945  -0.912  -0.910  -0.907  -0.884
 -0.861  -0.846  -0.831  -0.809  -0.775  -0.752  -0.744  -0.728
 -0.722  -0.699  -0.693  -0.675  -0.646  -0.640  -0.623  -0.621
 -0.615  -0.596  -0.584  -0.577  -0.570  -0.568  -0.542  -0.536
 -0.528  -0.527  -0.519  -0.514  -0.512  -0.502  -0.496  -0.489
 -0.486  -0.480  -0.478  -0.463  -0.459  -0.448  -0.440  -0.433
 -0.430  -0.422  -0.402  -0.394  -0.381  -0.374  -0.370  -0.369
 -0.364  -0.357  -0.342  -0.338  -0.327  -0.320  -0.270
 -- Virtual --
 -0.055  -0.006   0.027   0.039   0.045   0.054   0.064   0.075
  0.086   0.088   0.104   0.106   0.118   0.121   0.129   0.131
  0.136   0.145   0.146   0.165   0.168   0.170   0.172   0.184
  0.189   0.194   0.197   0.213   0.216   0.230   0.240   0.245
  0.250   0.255   0.264   0.264   0.271   0.275   0.283   0.289
  0.297   0.299   0.303   0.305   0.307   0.317   0.322   0.328
  0.332   0.334   0.336   0.346   0.346   0.350   0.358   0.360
  0.361   0.365   0.367   0.373   0.375   0.379   0.383   0.386
  0.388   0.393   0.396   0.400   0.404   0.406   0.406   0.415
  0.417   0.421   0.424   0.429   0.434   0.437   0.438   0.442
  0.444   0.447   0.450   0.459   0.460   0.465   0.467   0.470
  0.472   0.473   0.477   0.479   0.482   0.484   0.487   0.494
  0.495   0.502   0.505   0.509   0.512   0.516   0.519   0.524
  0.527   0.530   0.538   0.541   0.544   0.548   0.551   0.555
  0.559   0.563   0.565   0.577   0.580   0.589   0.594   0.595
  0.608   0.612   0.615   0.622   0.625   0.636   0.639   0.645
  0.651   0.658   0.660   0.666   0.670   0.673   0.680   0.686
  0.690   0.697   0.700   0.703   0.709   0.718   0.725   0.728
  0.733   0.734   0.741   0.748   0.750   0.753   0.753   0.763
  0.764   0.768   0.773   0.777   0.788   0.790   0.796   0.798
  0.801   0.806   0.812   0.814   0.821   0.824   0.830   0.835
  0.836   0.843   0.846   0.852   0.856   0.860   0.862   0.862
  0.868   0.877   0.884   0.888   0.895   0.899   0.905   0.911
  0.916   0.924   0.925   0.933   0.940   0.948   0.950   0.953
  0.959   0.965   0.970   0.973   0.976   0.979   0.983   0.994
  1.001   1.013   1.014   1.022   1.026   1.031   1.032   1.037
  1.047   1.050   1.052   1.056   1.061   1.068   1.076   1.077
  1.083   1.088   1.095   1.097   1.106   1.110   1.120   1.125
  1.134   1.141   1.142   1.151   1.157   1.167   1.171   1.182
  1.186   1.192   1.201   1.205   1.206   1.219   1.222   1.227
  1.232   1.239   1.248   1.255   1.258   1.262   1.271   1.274
  1.280   1.286   1.292   1.297   1.300   1.312   1.320   1.329
  1.339   1.349   1.352   1.359   1.364   1.374   1.379   1.381
  1.390   1.402   1.403   1.404   1.410   1.424   1.432   1.433
  1.447   1.449   1.453   1.457   1.463   1.475   1.484   1.487
  1.493   1.502   1.504   1.506   1.520   1.531   1.541   1.553
  1.564   1.566   1.569   1.580   1.585   1.596   1.598   1.608
  1.608   1.612   1.620   1.623   1.628   1.637   1.639   1.643
  1.657   1.658   1.664   1.674   1.677   1.681   1.684   1.687
  1.692   1.701   1.707   1.711   1.720   1.721   1.728   1.741
  1.745   1.754   1.756   1.761   1.769   1.774   1.785   1.794
  1.795   1.813   1.818   1.825   1.838   1.854   1.862   1.869
  1.883   1.887   1.889   1.895   1.903   1.911   1.917   1.926
  1.931   1.940   1.946   1.950   1.961   1.968   1.974   1.981
  1.986   1.994   1.997   2.003   2.010   2.031   2.036   2.043
  2.061   2.067   2.078   2.083   2.085   2.089   2.096   2.114
  2.121   2.124   2.131   2.142   2.152   2.160   2.167   2.172
  2.175   2.187   2.189   2.196   2.206   2.218   2.224   2.234
  2.238   2.241   2.252   2.261   2.267   2.275   2.282   2.287
  2.302   2.313   2.324   2.333   2.345   2.351   2.355   2.361
  2.364   2.372   2.380   2.384   2.396   2.398   2.405   2.409
  2.414   2.428   2.439   2.439   2.450   2.456   2.461   2.462
  2.479   2.486   2.491   2.496   2.499   2.510   2.518   2.522
  2.522   2.532   2.537   2.544   2.554   2.559   2.568   2.575
  2.579   2.590   2.601   2.605   2.619   2.623   2.627   2.631
  2.643   2.649   2.656   2.661   2.668   2.677   2.681   2.690
  2.723   2.727   2.739   2.746   2.754   2.759   2.766   2.775
  2.783   2.784   2.790   2.790   2.793   2.802   2.812   2.814
  2.824   2.830   2.838   2.846   2.852   2.871   2.873   2.878
  2.883   2.892   2.900   2.908   2.916   2.930   2.934   2.940
  2.945   2.948   2.952   2.955   2.964   2.972   2.975   2.982
  2.983   2.988   2.991   3.002   3.006   3.009   3.019   3.025
  3.026   3.029   3.040   3.047   3.053   3.058   3.059   3.066
  3.071   3.072   3.086   3.090   3.093   3.099   3.105   3.106
  3.110   3.118   3.122   3.126   3.136   3.137   3.141   3.148
  3.153   3.157   3.160   3.167   3.174   3.178   3.181   3.185
  3.186   3.192   3.194   3.200   3.201   3.206   3.215   3.216
  3.225   3.229   3.231   3.234   3.240   3.243   3.245   3.252
  3.254   3.255   3.265   3.268   3.272   3.276   3.279   3.283
  3.289   3.292   3.297   3.304   3.308   3.312   3.320   3.323
  3.335   3.338   3.348   3.355   3.357   3.359   3.367   3.374
  3.378   3.384   3.392   3.394   3.397   3.417   3.418   3.422
  3.428   3.434   3.440   3.444   3.447   3.457   3.461   3.467
  3.469   3.480   3.483   3.484   3.499   3.507   3.509   3.514
  3.524   3.532   3.534   3.544   3.546   3.556   3.559   3.574
  3.577   3.582   3.593   3.599   3.601   3.621   3.626   3.629
  3.646   3.651   3.657   3.664   3.671   3.681   3.688   3.692
  3.706   3.715   3.728   3.734   3.744   3.753   3.753   3.760
  3.768   3.771   3.779   3.788   3.790   3.799   3.802   3.818
  3.827   3.829   3.830   3.843   3.848   3.851   3.863   3.868
  3.870   3.878   3.894   3.900   3.915   3.920   3.923   3.931
  3.935   3.942   3.947   3.949   3.963   3.966   3.974   3.978
  3.987   3.995   4.000   4.010   4.012   4.029   4.035   4.047
  4.061   4.072   4.083   4.087   4.094   4.104   4.110   4.118
  4.133   4.141   4.143   4.151   4.158   4.170   4.177   4.186
  4.197   4.199   4.203   4.206   4.215   4.230   4.233   4.243
  4.250   4.256   4.261   4.280   4.287   4.296   4.305   4.315
  4.324   4.336   4.345   4.348   4.353   4.379   4.386   4.389
  4.393   4.404   4.414   4.422   4.434   4.443   4.458   4.462
  4.468   4.474   4.478   4.484   4.503   4.512   4.519   4.522
  4.538   4.546   4.557   4.566   4.577   4.586   4.602   4.611
  4.617   4.633   4.645   4.651   4.666   4.675   4.681   4.691
  4.696   4.715   4.724   4.731   4.735   4.782   4.791   4.793
  4.810   4.815   4.825   4.842   4.843   4.853   4.856   4.859
  4.873   4.887   4.905   4.934   4.935   4.937   4.944   4.953
  4.956   4.963   4.967   4.975   4.990   4.994   4.998   5.011
  5.022   5.029   5.043   5.056   5.070   5.084   5.087   5.092
  5.112   5.114   5.135   5.150   5.154   5.161   5.175   5.196
  5.206   5.221   5.234   5.237   5.255   5.259   5.271   5.285
  5.315   5.318   5.335   5.346   5.355   5.371   5.392   5.399
  5.430   5.437   5.447   5.455   5.466   5.482   5.490   5.515
  5.532   5.555   5.563   5.573   5.604   5.633   5.666   5.691
  5.694   5.702   5.734   5.744   5.764   5.805   5.822   5.832
  5.852   5.868   5.891   5.931   5.946   5.980   6.002   6.068
  6.120   6.142   6.168   6.181   6.190   6.211   6.255   6.294
  6.316   6.322   6.356   6.406   6.489   6.853   7.020   8.080
  8.963   9.796  10.013  10.800  11.133  11.206  11.666  12.008
 12.319  12.486  12.555  12.875  13.029  13.149  13.178  13.412
 13.494  13.589  13.641  13.903  14.098  14.748  14.988
 --------------------------------------------------------------
 
          Ground-State Mulliken Net Atomic Charges

     Atom                 Charge (a.u.)
  ----------------------------------------
      1 C                    -0.072163
      2 C                    -0.102672
      3 N                    -0.155218
      4 C                    -0.156784
      5 C                    -0.095076
      6 C                     0.109641
      7 C                     0.032299
      8 C                    -0.094314
      9 C                     0.018853
     10 N                    -0.185280
     11 N                    -0.276337
     12 C                     0.029500
     13 C                     0.112720
     14 S                     0.414130
     15 N                    -0.281774
     16 C                    -0.061027
     17 S                     0.170892
     18 C                    -0.007818
     19 C                     0.043957
     20 S                     0.094003
     21 C                    -0.004966
     22 C                    -0.031579
     23 C                    -0.164645
     24 C                    -0.165745
     25 N                    -0.172080
     26 S                     0.100532
     27 C                    -0.086354
     28 C                    -0.200066
     29 H                     0.123846
     30 H                     0.128656
     31 H                     0.130913
     32 H                     0.128826
     33 H                     0.130848
     34 H                     0.132454
     35 H                     0.133692
     36 H                     0.133006
     37 H                     0.145126
  ----------------------------------------
  Sum of atomic charges =     0.000000

 -----------------------------------------------------------------
                    Cartesian Multipole Moments
 -----------------------------------------------------------------
    Charge (ESU x 10^10)
                 0.0000
    Dipole Moment (Debye)
         X      -2.6161      Y       1.6705      Z       0.6871
       Tot       3.1791
    Quadrupole Moments (Debye-Ang)
        XX    -163.0708     XY       8.7221     YY    -173.0322
        XZ      12.6173     YZ       2.3620     ZZ    -188.7376
    Octopole Moments (Debye-Ang^2)
       XXX    -279.4293    XXY      73.8993    XYY     -18.2299
       YYY      -1.3109    XXZ      59.1455    XYZ      12.4374
       YYZ       5.4176    XZZ       6.3587    YZZ      -9.2057
       ZZZ      -1.3944
    Hexadecapole Moments (Debye-Ang^3)
      XXXX  -17512.7554   XXXY    1031.3007   XXYY   -3637.0829
      XYYY    -138.1221   YYYY   -3372.5940   XXXZ     668.3017
      XXYZ      31.1822   XYYZ      12.4412   YYYZ      -3.3690
      XXZZ   -3475.7142   XYZZ      14.3323   YYZZ    -701.5955
      XZZZ      11.2421   YZZZ       5.3153   ZZZZ    -387.2213
 -----------------------------------------------------------------
 Calculating analytic gradient of the SCF energy
 K construction time:  CPU 2899.12 s  wall 182.99 s
 Gradient of SCF Energy
            1           2           3           4           5           6
    1   0.0001190  -0.0006520   0.0000043   0.0004301  -0.0000409   0.0000637
    2  -0.0000339   0.0001559  -0.0001373   0.0000795   0.0000993   0.0000059
    3   0.0000588   0.0000175  -0.0001520   0.0001869  -0.0001460   0.0000523
            7           8           9          10          11          12
    1  -0.0001235   0.0004018   0.0002361   0.0001238   0.0000609  -0.0001614
    2  -0.0002156   0.0000242  -0.0000028   0.0001608   0.0001381  -0.0002308
    3   0.0002402  -0.0003405   0.0001072   0.0000350  -0.0002207   0.0002726
           13          14          15          16          17          18
    1  -0.0004342   0.0001685  -0.0007179  -0.0001122   0.0004320  -0.0003101
    2  -0.0005651   0.0005663   0.0001587   0.0006420  -0.0000990  -0.0001282
    3  -0.0002442   0.0001163  -0.0000748  -0.0000814  -0.0011281   0.0000372
           19          20          21          22          23          24
    1   0.0005387  -0.0001132   0.0006202   0.0007535   0.0000284  -0.0000272
    2  -0.0038269   0.0001717   0.0006509   0.0012252  -0.0001564   0.0023166
    3   0.0011165  -0.0000394   0.0016905  -0.0025553  -0.0002634  -0.0002124
           25          26          27          28          29          30
    1  -0.0008212  -0.0006889   0.0000092  -0.0000025  -0.0000601   0.0001764
    2   0.0005295  -0.0003863  -0.0000319  -0.0002805  -0.0000128  -0.0000936
    3   0.0015365  -0.0007206   0.0000378   0.0007711  -0.0000328   0.0000560
           31          32          33          34          35          36
    1  -0.0000241  -0.0000607  -0.0000846   0.0000482   0.0003231  -0.0001369
    2   0.0000032  -0.0000641   0.0000355   0.0001581  -0.0008694  -0.0000056
    3  -0.0000027  -0.0000405   0.0001028   0.0000946  -0.0000691  -0.0000462
           37
    1   0.0000336
    2   0.0000185
    3  -0.0001595
 Max gradient component =       3.827E-03
 RMS gradient           =       6.378E-04
 Gradient time:  CPU 3340.02 s  wall 212.65 s
 Geometry Optimization Parameters
   NAtoms,    NIC,     NZ,  NCons,   NDum,   NFix, NCnnct, MaxDiis
       37     280       0       3       0       0       0       0

 Cartesian Hessian Update
 Hessian Updated using BFGS Update


** CONSTRAINED OPTIMIZATION IN DELOCALIZED INTERNAL COORDINATES **
   Searching for a Minimum

   Optimization Cycle:   2

                       Coordinates (Angstroms)
     ATOM                X               Y               Z
      1  C         7.6223478946    0.5347195066   -0.1208919368
      2  C         6.9369002117    1.3897875427    0.7262532578
      3  N         7.0215126622   -0.3736267241   -0.8838958691
      4  C         5.5594058913    1.2960494016    0.7857960438
      5  C         5.6998878671   -0.4555036100   -0.8182620963
      6  C         4.9074214680    0.3556183639   -0.0043228476
      7  C         3.4391003889    0.2410108534   -0.0004586722
      8  C         2.6253599994    1.3411033584   -0.0082464512
      9  C         2.7547748781   -1.0082777144    0.0134202078
     10  N         1.2691733074    1.3356947209    0.0081051764
     11  N         3.2901448805   -2.2298412276    0.0304485694
     12  C         1.3271883667   -1.0288533131    0.0311609765
     13  C         0.6022790277    0.2070917092    0.0271029564
     14  S         2.0599395016   -3.2690409530    0.0611769288
     15  N         0.8109426005   -2.2543769112    0.0569765378
     16  C        -0.8400109438    0.2944944006    0.0416110518
     17  S        -1.9196768584   -1.0554183275    0.0891995881
     18  C        -1.5623301004    1.4651132743    0.0255706420
     19  C        -3.3126218428   -0.0526717830    0.0807344849
     20  S        -1.1250026251    3.1401157757   -0.0116613303
     21  C        -2.9681073538    1.2851348619    0.0454566362
     22  C        -4.6316443556   -0.6542629382    0.1029116461
     23  C        -2.8164379914    3.5822681403   -0.0004199676
     24  C        -3.6692362158    2.5431316895    0.0319444100
     25  N        -4.8927422462   -1.7965229005    0.6693766924
     26  S        -6.0125738902    0.0869621933   -0.6521879495
     27  C        -6.2084265829   -2.1253842808    0.5327106512
     28  C        -6.9770950768   -1.2330469745   -0.1385147875
     29  H         8.7029842672    0.5788685651   -0.1906635345
     30  H         7.4767027964    2.1023760357    1.3333450949
     31  H         4.9898216599    1.9323361908    1.4504278535
     32  H         5.2357473004   -1.2031680502   -1.4491932454
     33  H         3.0693278147    2.3286442876   -0.0414906683
     34  H        -3.0791420115    4.6282836032   -0.0110185531
     35  H        -4.7426297118    2.6411095011    0.0535223721
     36  H        -6.5704255643   -3.0490384857    0.9576359733
     37  H        -8.0292285144   -1.2830891385   -0.3581635549
   Point Group: c1    Number of degrees of freedom:   105


   Energy is  -2595.905349925

              Constraints and their Current Values
                                        Value     Constraint
   Dihedral:        4   6   7   8       42.246       42.246
   Dihedral:       10  13  16  17     -179.114     -179.114
   Dihedral:       17  19  22  25       30.000       30.000
 Hessian Updated using BFGS Update

   Using Lagrange Multiplier Algorithm


104 Hessian modes will be used to form the next step
  Hessian Eigenvalues:
    -0.977747    0.041432    0.045000    0.045000    0.045000    0.045000
     0.045000    0.045000    0.045000    0.045000    0.045000    0.045000
     0.045000    0.045000    0.045000    0.045000    0.045000    0.045000
     0.045000    0.045000    0.045000    0.045000    0.045001    0.045001
     0.045001    0.045001    0.045003    0.045005    0.045007    0.045009
     0.045012    0.047095    0.146375    0.159967    0.159984    0.159997
     0.159999    0.159999    0.160000    0.160000    0.160149    0.212283
     0.220178    0.224646    0.226930    0.232064    0.233095    0.234506
     0.247583    0.248082    0.249917    0.249956    0.249989    0.249998
     0.249998    0.249998    0.249999    0.249999    0.249999    0.250000
     0.276843    0.299328    0.305074    0.316406    0.317283    0.326938
     0.334396    0.354457    0.355744    0.356360    0.356788    0.356810
     0.359250    0.360761    0.361141    0.363663    0.365001    0.373057
     0.385474    0.388436    0.390339    0.393151    0.402353    0.411720
     0.431181    0.455059    0.473043    0.473302    0.474885    0.476707
     0.483105    0.496403    0.498746    0.502642    0.517725    0.526371
     0.538541    0.559066    0.574891    0.585063    0.591284    0.623625
     0.638789    1.022763

 Minimum Search - Taking P-RFO Step
 Searching for Lamda that Maximizes Along the Constraint modes Only
 Value Taken    Lamda =   0.00000001
 Searching for Lamda that Minimizes Along All other modes
 Value Taken    Lamda =  -0.00014715
 Step Taken.  Stepsize is  0.041619

                             Maximum     Tolerance    Cnvgd?
         Gradient            0.001509       0.000300      NO
         Displacement        0.016345       0.001200      NO
         Energy change     -0.000687       0.000001      NO


 New Cartesian Coordinates Obtained by Inverse Iteration

 Displacement from previous Coordinates is:  0.124511
 ----------------------------------------------------------------
             Standard Nuclear Orientation (Angstroms)
    I     Atom           X                Y                Z
 ----------------------------------------------------------------
    1      C       7.6207581872     0.5386167342    -0.1240785104
    2      C       6.9334320602     1.3958904610     0.7189256742
    3      N       7.0218408432    -0.3751230564    -0.8819234336
    4      C       5.5556430530     1.2986042011     0.7787672004
    5      C       5.7003889123    -0.4598818053    -0.8165284192
    6      C       4.9054975834     0.3539325796    -0.0076710460
    7      C       3.4372534626     0.2371169673    -0.0012481928
    8      C       2.6224909182     1.3365542228    -0.0116874448
    9      C       2.7537580559    -1.0127604946     0.0172139195
   10      N       1.2665408246     1.3311051897     0.0075095591
   11      N       3.2897712881    -2.2343556961     0.0384279140
   12      C       1.3263813263    -1.0336025138     0.0355221119
   13      C       0.6001243980     0.2026844447     0.0302337417
   14      S       2.0611098451    -3.2756106839     0.0709518385
   15      N       0.8126952227    -2.2603683237     0.0652136170
   16      C      -0.8429323837     0.2927797456     0.0470497351
   17      S      -1.9282123365    -1.0516377414     0.0995510391
   18      C      -1.5622781851     1.4658077993     0.0301450704
   19      C      -3.3168257545    -0.0434735630     0.0941243891
   20      S      -1.1205108032     3.1391698672    -0.0106502161
   21      C      -2.9694533304     1.2908526361     0.0524103363
   22      C      -4.6314641880    -0.6541445577     0.1099305500
   23      C      -2.8108998651     3.5855259750     0.0031671852
   24      C      -3.6671559837     2.5491702782     0.0386760396
   25      N      -4.8908577036    -1.8005894410     0.6670876655
   26      S      -6.0082230379     0.0926292609    -0.6436616921
   27      C      -6.2049309070    -2.1311399225     0.5187880554
   28      C      -6.9719593364    -1.2349436487    -0.1501540019
   29      H       8.7014036913     0.5851344443    -0.1941383725
   30      H       7.4698529279     2.1141576395     1.3221382094
   31      H       4.9849174953     1.9370183555     1.4402479641
   32      H       5.2388530978    -1.2120756718    -1.4436921530
   33      H       3.0671588917     2.3236592301    -0.0504378782
   34      H      -3.0710200090     4.6318857283    -0.0093674860
   35      H      -4.7401050898     2.6591171130     0.0636886622
   36      H      -6.5662315682    -3.0588808732     0.9351533121
   37      H      -8.0231807039    -1.2850342368    -0.3741886565
 ----------------------------------------------------------------
 Molecular Point Group                 C1    NOp =  1
 Largest Abelian Subgroup              C1    NOp =  1
 Nuclear Repulsion Energy =  2963.5909278570 hartrees
 There are      111 alpha and      111 beta electrons
 Applying Cartesian multipole field
    Component          Value
    ---------          -----
     (2,0,0)        1.00000E-12
     (0,2,0)        2.00000E-11
     (0,0,2)       -3.00000E-11
 Nucleus-field energy     =     0.0000000628 hartrees
 Requested basis set is cc-pVTZ
 There are 342 shells and 982 basis functions
 A cutoff of  1.0D-11 yielded  29209 shell pairs
 There are    231515 function pairs (    302469 Cartesian)
 Smallest overlap matrix eigenvalue = 2.05E-05
 Guess MOs from SCF MO coefficient file
 Reading MOs from coefficient file
 Reading MOs from coefficient file
 Long-range K will be added via erf
 Coulomb attenuation parameter = 0.2 bohr**(-1)
 A restricted hybrid HF-DFT SCF calculation will be
 performed using Pulay DIIS extrapolation
 Exchange:     0.2220 Hartree-Fock + 1.0000 wB97X-D + LR-HF
 Correlation:  1.0000 wB97X-D
 Using SG-2 standard quadrature grid
 Dispersion:   Grimme D
 SCF converges when DIIS error is below 1.0E-08
 Geometry optimization detected.  Setting ReadMinima to 0
 Setting SaveMinima to 0
 using 16 threads for integral computing 
 using 16 threads for integral computing 
 K construction time:  CPU 1080.66 s  wall 70.72 s
 -------------------------------------------------------
 OpenMP BLAS3 based DFT computing Module                
 Release: version 1.0, May 2013, Q-Chem Inc. Pittsburgh 
 -------------------------------------------------------
 ---------------------------------------
  Cycle       Energy         DIIS Error
 ---------------------------------------
    1   -2595.9056323399      9.27E-05
 K construction time:  CPU 1082.25 s  wall 70.50 s
    2   -2595.9054052871      9.87E-06
 K construction time:  CPU 739.57 s  wall 48.23 s
    3   -2595.9054213514      9.45E-06
 K construction time:  CPU 698.43 s  wall 45.42 s
    4   -2595.9054315954      2.91E-06
 K construction time:  CPU 644.40 s  wall 41.99 s
    5   -2595.9054330864      1.33E-06
 K construction time:  CPU 585.18 s  wall 38.06 s
    6   -2595.9054333221      4.64E-07
 K construction time:  CPU 514.17 s  wall 33.44 s
    7   -2595.9054333519      1.39E-07
 K construction time:  CPU 455.58 s  wall 29.54 s
    8   -2595.9054333560      6.60E-08
 K construction time:  CPU 406.08 s  wall 26.28 s
    9   -2595.9054333575      2.40E-08
 K construction time:  CPU 332.65 s  wall 21.48 s
   10   -2595.9054333583      1.18E-08
 K construction time:  CPU 304.19 s  wall 19.64 s
   11   -2595.9054333584      5.49E-09 Convergence criterion met
 ---------------------------------------
 SCF time:  CPU 9272.44 s  wall 619.23 s
 SCF   energy in the final basis set = -2595.9054333584
 Total energy in the final basis set = -2595.9054333584
 
 --------------------------------------------------------------
 
                    Orbital Energies (a.u.)
 --------------------------------------------------------------
 
 Alpha MOs
 -- Occupied --
-89.155 -89.094 -89.091 -89.077 -14.493 -14.487 -14.452 -14.445
-14.435 -10.374 -10.369 -10.362 -10.359 -10.345 -10.339 -10.338
-10.334 -10.329 -10.328 -10.327 -10.326 -10.326 -10.325 -10.318
-10.317 -10.314 -10.305 -10.302  -8.165  -8.110  -8.106  -8.092
 -6.115  -6.109  -6.108  -6.059  -6.055  -6.055  -6.053  -6.051
 -6.049  -6.041  -6.037  -6.034  -1.151  -1.085  -1.072  -1.054
 -1.024  -1.015  -0.958  -0.945  -0.912  -0.910  -0.907  -0.884
 -0.861  -0.846  -0.831  -0.809  -0.775  -0.752  -0.743  -0.727
 -0.722  -0.699  -0.693  -0.676  -0.646  -0.640  -0.623  -0.621
 -0.615  -0.596  -0.584  -0.576  -0.570  -0.568  -0.542  -0.536
 -0.528  -0.527  -0.519  -0.514  -0.512  -0.502  -0.496  -0.490
 -0.486  -0.480  -0.478  -0.463  -0.459  -0.448  -0.440  -0.433
 -0.430  -0.422  -0.402  -0.394  -0.381  -0.374  -0.370  -0.369
 -0.364  -0.357  -0.342  -0.338  -0.326  -0.320  -0.270
 -- Virtual --
 -0.055  -0.006   0.027   0.039   0.045   0.054   0.064   0.075
  0.086   0.088   0.104   0.106   0.118   0.121   0.129   0.131
  0.136   0.145   0.147   0.165   0.168   0.170   0.172   0.185
  0.189   0.194   0.197   0.213   0.216   0.230   0.240   0.245
  0.250   0.255   0.264   0.265   0.271   0.275   0.283   0.289
  0.297   0.299   0.303   0.305   0.307   0.317   0.322   0.328
  0.332   0.334   0.336   0.346   0.346   0.350   0.358   0.360
  0.361   0.365   0.367   0.373   0.375   0.379   0.383   0.386
  0.388   0.393   0.396   0.400   0.404   0.406   0.406   0.416
  0.418   0.421   0.424   0.430   0.434   0.437   0.438   0.442
  0.444   0.447   0.450   0.459   0.460   0.465   0.467   0.470
  0.472   0.473   0.476   0.479   0.482   0.484   0.487   0.494
  0.495   0.502   0.505   0.509   0.512   0.516   0.519   0.524
  0.527   0.530   0.538   0.541   0.544   0.548   0.551   0.554
  0.559   0.563   0.565   0.578   0.579   0.589   0.594   0.595
  0.609   0.612   0.616   0.622   0.625   0.636   0.639   0.645
  0.651   0.658   0.659   0.666   0.670   0.673   0.680   0.686
  0.690   0.698   0.700   0.703   0.709   0.718   0.725   0.729
  0.733   0.735   0.741   0.748   0.750   0.753   0.754   0.763
  0.764   0.769   0.773   0.777   0.788   0.791   0.796   0.798
  0.801   0.806   0.812   0.814   0.821   0.823   0.830   0.835
  0.837   0.843   0.846   0.853   0.856   0.860   0.862   0.862
  0.867   0.877   0.883   0.888   0.895   0.899   0.905   0.911
  0.916   0.924   0.925   0.933   0.941   0.948   0.950   0.953
  0.960   0.964   0.970   0.973   0.976   0.979   0.983   0.994
  1.001   1.014   1.014   1.022   1.026   1.031   1.031   1.036
  1.046   1.050   1.052   1.056   1.061   1.068   1.076   1.077
  1.083   1.087   1.095   1.097   1.106   1.110   1.120   1.126
  1.134   1.142   1.142   1.151   1.159   1.167   1.171   1.183
  1.186   1.192   1.201   1.205   1.207   1.219   1.222   1.226
  1.232   1.238   1.247   1.255   1.258   1.262   1.271   1.274
  1.281   1.287   1.292   1.298   1.300   1.312   1.320   1.329
  1.338   1.349   1.352   1.359   1.364   1.373   1.379   1.382
  1.390   1.402   1.403   1.404   1.410   1.424   1.432   1.434
  1.447   1.449   1.453   1.456   1.463   1.475   1.484   1.488
  1.493   1.503   1.504   1.507   1.520   1.531   1.542   1.554
  1.564   1.566   1.570   1.581   1.585   1.597   1.597   1.607
  1.608   1.612   1.620   1.623   1.629   1.637   1.638   1.644
  1.657   1.658   1.664   1.673   1.677   1.682   1.684   1.687
  1.692   1.702   1.708   1.711   1.721   1.721   1.729   1.742
  1.744   1.754   1.756   1.761   1.769   1.772   1.785   1.794
  1.795   1.814   1.818   1.825   1.838   1.854   1.862   1.870
  1.883   1.887   1.890   1.895   1.904   1.910   1.917   1.926
  1.930   1.940   1.946   1.950   1.962   1.968   1.974   1.981
  1.986   1.994   1.997   2.003   2.010   2.030   2.036   2.043
  2.062   2.067   2.078   2.083   2.085   2.089   2.097   2.114
  2.121   2.123   2.131   2.142   2.152   2.160   2.168   2.172
  2.175   2.187   2.189   2.195   2.207   2.218   2.224   2.234
  2.238   2.241   2.251   2.260   2.267   2.275   2.282   2.287
  2.302   2.313   2.324   2.333   2.345   2.352   2.355   2.362
  2.364   2.372   2.379   2.384   2.396   2.398   2.405   2.409
  2.414   2.428   2.439   2.440   2.450   2.456   2.461   2.462
  2.479   2.486   2.491   2.496   2.499   2.510   2.519   2.522
  2.523   2.532   2.538   2.544   2.553   2.558   2.568   2.575
  2.579   2.590   2.602   2.605   2.619   2.624   2.627   2.631
  2.641   2.650   2.656   2.661   2.669   2.677   2.681   2.690
  2.723   2.727   2.738   2.747   2.754   2.758   2.766   2.775
  2.784   2.784   2.790   2.790   2.793   2.802   2.812   2.813
  2.824   2.831   2.838   2.846   2.851   2.871   2.873   2.878
  2.883   2.892   2.900   2.908   2.917   2.929   2.934   2.939
  2.944   2.948   2.953   2.955   2.964   2.972   2.975   2.982
  2.983   2.988   2.992   3.002   3.005   3.009   3.019   3.025
  3.027   3.029   3.040   3.047   3.053   3.057   3.059   3.066
  3.071   3.072   3.086   3.090   3.094   3.099   3.105   3.106
  3.109   3.118   3.122   3.126   3.136   3.137   3.140   3.148
  3.153   3.157   3.160   3.166   3.174   3.177   3.181   3.186
  3.186   3.193   3.195   3.200   3.201   3.206   3.215   3.216
  3.225   3.229   3.230   3.235   3.240   3.243   3.245   3.252
  3.254   3.256   3.265   3.268   3.273   3.275   3.279   3.283
  3.289   3.292   3.297   3.305   3.308   3.312   3.321   3.323
  3.334   3.338   3.348   3.355   3.357   3.360   3.367   3.374
  3.378   3.383   3.391   3.394   3.397   3.417   3.418   3.422
  3.428   3.434   3.440   3.445   3.447   3.457   3.462   3.467
  3.470   3.480   3.482   3.484   3.499   3.507   3.509   3.514
  3.523   3.532   3.535   3.544   3.547   3.556   3.560   3.574
  3.577   3.582   3.592   3.599   3.601   3.621   3.627   3.629
  3.647   3.651   3.657   3.664   3.672   3.681   3.688   3.692
  3.706   3.714   3.728   3.734   3.744   3.752   3.753   3.759
  3.768   3.771   3.779   3.787   3.790   3.799   3.803   3.818
  3.828   3.829   3.830   3.843   3.848   3.852   3.862   3.867
  3.871   3.879   3.894   3.900   3.915   3.920   3.921   3.930
  3.936   3.942   3.947   3.949   3.963   3.966   3.974   3.978
  3.987   3.996   4.000   4.009   4.012   4.028   4.035   4.046
  4.061   4.071   4.083   4.086   4.094   4.103   4.110   4.118
  4.133   4.141   4.144   4.150   4.159   4.171   4.176   4.186
  4.197   4.199   4.203   4.208   4.214   4.230   4.233   4.243
  4.251   4.256   4.261   4.280   4.287   4.296   4.305   4.315
  4.324   4.335   4.345   4.348   4.353   4.379   4.385   4.389
  4.393   4.403   4.414   4.423   4.434   4.443   4.457   4.462
  4.468   4.475   4.478   4.486   4.503   4.512   4.519   4.522
  4.538   4.546   4.556   4.566   4.578   4.586   4.603   4.611
  4.617   4.632   4.645   4.651   4.667   4.676   4.681   4.691
  4.697   4.715   4.724   4.731   4.735   4.783   4.791   4.793
  4.810   4.815   4.826   4.843   4.844   4.853   4.857   4.861
  4.872   4.887   4.905   4.935   4.935   4.937   4.944   4.953
  4.956   4.963   4.967   4.975   4.990   4.994   4.999   5.011
  5.023   5.029   5.043   5.056   5.071   5.084   5.087   5.093
  5.113   5.115   5.135   5.150   5.153   5.162   5.176   5.196
  5.206   5.222   5.235   5.237   5.256   5.259   5.272   5.285
  5.315   5.318   5.335   5.346   5.354   5.372   5.391   5.399
  5.430   5.437   5.447   5.456   5.466   5.481   5.490   5.515
  5.532   5.555   5.563   5.574   5.604   5.634   5.665   5.692
  5.695   5.701   5.734   5.744   5.763   5.805   5.823   5.834
  5.852   5.870   5.891   5.932   5.947   5.982   6.001   6.068
  6.121   6.142   6.167   6.181   6.190   6.212   6.254   6.298
  6.316   6.324   6.355   6.406   6.489   6.853   7.020   8.090
  8.961   9.797  10.014  10.803  11.144  11.201  11.665  12.002
 12.312  12.485  12.552  12.871  13.038  13.150  13.172  13.423
 13.491  13.590  13.647  13.903  14.119  14.749  14.986
 --------------------------------------------------------------
 
          Ground-State Mulliken Net Atomic Charges

     Atom                 Charge (a.u.)
  ----------------------------------------
      1 C                    -0.072137
      2 C                    -0.102836
      3 N                    -0.155176
      4 C                    -0.156857
      5 C                    -0.095163
      6 C                     0.109542
      7 C                     0.032421
      8 C                    -0.094634
      9 C                     0.019549
     10 N                    -0.184983
     11 N                    -0.276879
     12 C                     0.028793
     13 C                     0.112654
     14 S                     0.414874
     15 N                    -0.281576
     16 C                    -0.061883
     17 S                     0.170127
     18 C                    -0.006913
     19 C                     0.044188
     20 S                     0.094039
     21 C                    -0.004104
     22 C                    -0.030774
     23 C                    -0.164562
     24 C                    -0.166885
     25 N                    -0.172075
     26 S                     0.100652
     27 C                    -0.086113
     28 C                    -0.200682
     29 H                     0.123763
     30 H                     0.128769
     31 H                     0.130908
     32 H                     0.128782
     33 H                     0.130805
     34 H                     0.132507
     35 H                     0.133694
     36 H                     0.133012
     37 H                     0.145149
  ----------------------------------------
  Sum of atomic charges =     0.000000

 -----------------------------------------------------------------
                    Cartesian Multipole Moments
 -----------------------------------------------------------------
    Charge (ESU x 10^10)
                 0.0000
    Dipole Moment (Debye)
         X      -2.6275      Y       1.6914      Z       0.6701
       Tot       3.1959
    Quadrupole Moments (Debye-Ang)
        XX    -163.1790     XY       8.6847     YY    -172.9104
        XZ      12.5964     YZ       2.3802     ZZ    -188.7669
    Octopole Moments (Debye-Ang^2)
       XXX    -279.6702    XXY      74.7014    XYY     -18.1177
       YYY      -1.1895    XXZ      57.3953    XYZ      12.0636
       YYZ       4.8665    XZZ       6.3013    YZZ      -9.1200
       ZZZ      -2.8953
    Hexadecapole Moments (Debye-Ang^3)
      XXXX  -17515.9982   XXXY    1033.4747   XXYY   -3633.2708
      XYYY    -136.1258   YYYY   -3378.7426   XXXZ     671.4453
      XXYZ      33.2249   XYYZ      13.9472   YYYZ      -2.3027
      XXZZ   -3474.2273   XYZZ      14.1787   YYZZ    -703.0800
      XZZZ      13.6803   YZZZ       6.2895   ZZZZ    -385.2269
 -----------------------------------------------------------------
 Calculating analytic gradient of the SCF energy
 K construction time:  CPU 2889.33 s  wall 182.52 s
 Gradient of SCF Energy
            1           2           3           4           5           6
    1  -0.0000649   0.0000613   0.0000359  -0.0000600  -0.0000296   0.0000220
    2  -0.0000721   0.0000919  -0.0000111  -0.0001554   0.0000403   0.0000873
    3  -0.0000485   0.0000086  -0.0000159   0.0002927  -0.0000670  -0.0003467
            7           8           9          10          11          12
    1  -0.0000641  -0.0001026  -0.0000624  -0.0000855  -0.0002981   0.0001516
    2  -0.0000958  -0.0000304   0.0002803   0.0000881  -0.0001428   0.0003220
    3   0.0004177  -0.0002656   0.0000149   0.0000805   0.0000193   0.0000906
           13          14          15          16          17          18
    1   0.0000326   0.0001981   0.0003553  -0.0002151  -0.0005661  -0.0002622
    2  -0.0000915  -0.0006325   0.0000164   0.0002518   0.0002846  -0.0000456
    3  -0.0002148  -0.0000370   0.0000555  -0.0000904  -0.0012810   0.0001309
           19          20          21          22          23          24
    1   0.0003129  -0.0000251   0.0002544   0.0004764  -0.0002655   0.0003138
    2  -0.0002195  -0.0000044   0.0000613  -0.0011018  -0.0001832   0.0005131
    3   0.0014590  -0.0000184   0.0011191  -0.0026114  -0.0001677  -0.0001959
           25          26          27          28          29          30
    1  -0.0006132  -0.0000378   0.0003059   0.0001395   0.0000201   0.0000320
    2   0.0007028  -0.0002199   0.0000490   0.0001380   0.0000121  -0.0000418
    3   0.0017974  -0.0002738   0.0000086   0.0001654   0.0000001   0.0000201
           31          32          33          34          35          36
    1   0.0000173   0.0000319   0.0000721   0.0000616  -0.0001847   0.0000462
    2   0.0000143   0.0000135  -0.0000007  -0.0000556   0.0000379   0.0000270
    3  -0.0000558   0.0000029   0.0000305   0.0000442   0.0000006   0.0000316
           37
    1  -0.0000041
    2   0.0000725
    3  -0.0001005
 Max gradient component =       2.611E-03
 RMS gradient           =       4.310E-04
 Gradient time:  CPU 3330.88 s  wall 212.26 s
 Geometry Optimization Parameters
   NAtoms,    NIC,     NZ,  NCons,   NDum,   NFix, NCnnct, MaxDiis
       37     280       0       3       0       0       0       0

 Cartesian Hessian Update
 Hessian Updated using BFGS Update


** CONSTRAINED OPTIMIZATION IN DELOCALIZED INTERNAL COORDINATES **
   Searching for a Minimum

   Optimization Cycle:   3

                       Coordinates (Angstroms)
     ATOM                X               Y               Z
      1  C         7.6207581872    0.5386167342   -0.1240785104
      2  C         6.9334320602    1.3958904610    0.7189256742
      3  N         7.0218408432   -0.3751230564   -0.8819234336
      4  C         5.5556430530    1.2986042011    0.7787672004
      5  C         5.7003889123   -0.4598818053   -0.8165284192
      6  C         4.9054975834    0.3539325796   -0.0076710460
      7  C         3.4372534626    0.2371169673   -0.0012481928
      8  C         2.6224909182    1.3365542228   -0.0116874448
      9  C         2.7537580559   -1.0127604946    0.0172139195
     10  N         1.2665408246    1.3311051897    0.0075095591
     11  N         3.2897712881   -2.2343556961    0.0384279140
     12  C         1.3263813263   -1.0336025138    0.0355221119
     13  C         0.6001243980    0.2026844447    0.0302337417
     14  S         2.0611098451   -3.2756106839    0.0709518385
     15  N         0.8126952227   -2.2603683237    0.0652136170
     16  C        -0.8429323837    0.2927797456    0.0470497351
     17  S        -1.9282123365   -1.0516377414    0.0995510391
     18  C        -1.5622781851    1.4658077993    0.0301450704
     19  C        -3.3168257545   -0.0434735630    0.0941243891
     20  S        -1.1205108032    3.1391698672   -0.0106502161
     21  C        -2.9694533304    1.2908526361    0.0524103363
     22  C        -4.6314641880   -0.6541445577    0.1099305500
     23  C        -2.8108998651    3.5855259750    0.0031671852
     24  C        -3.6671559837    2.5491702782    0.0386760396
     25  N        -4.8908577036   -1.8005894410    0.6670876655
     26  S        -6.0082230379    0.0926292609   -0.6436616921
     27  C        -6.2049309070   -2.1311399225    0.5187880554
     28  C        -6.9719593364   -1.2349436487   -0.1501540019
     29  H         8.7014036913    0.5851344443   -0.1941383725
     30  H         7.4698529279    2.1141576395    1.3221382094
     31  H         4.9849174953    1.9370183555    1.4402479641
     32  H         5.2388530978   -1.2120756718   -1.4436921530
     33  H         3.0671588917    2.3236592301   -0.0504378782
     34  H        -3.0710200090    4.6318857283   -0.0093674860
     35  H        -4.7401050898    2.6591171130    0.0636886622
     36  H        -6.5662315682   -3.0588808732    0.9351533121
     37  H        -8.0231807039   -1.2850342368   -0.3741886565
   Point Group: c1    Number of degrees of freedom:   105


   Energy is  -2595.905433358

              Constraints and their Current Values
                                        Value     Constraint
   Dihedral:        4   6   7   8       42.246       42.246
   Dihedral:       10  13  16  17     -179.114     -179.114
   Dihedral:       17  19  22  25       30.000       30.000
 Hessian Updated using BFGS Update

 85 Hessian modes will be used to form the next step
  Hessian Eigenvalues:
     0.028505    0.045000    0.045000    0.045000    0.045000    0.045000
     0.045001    0.045001    0.045001    0.045001    0.045003    0.045005
     0.045007    0.045008    0.045011    0.045293    0.046295    0.151512
     0.159969    0.159986    0.159999    0.160000    0.160046    0.160625
     0.217930    0.220177    0.225012    0.227141    0.232214    0.233089
     0.234568    0.247609    0.248094    0.249918    0.249956    0.249989
     0.249998    0.249998    0.249999    0.249999    0.250000    0.258291
     0.292301    0.299899    0.308932    0.316400    0.317289    0.331635
     0.336861    0.354547    0.355769    0.356418    0.356792    0.356837
     0.359250    0.360773    0.361307    0.364985    0.365385    0.372972
     0.385308    0.388120    0.391396    0.397486    0.403373    0.414892
[...]
     26  S        -6.0073101783    0.1079851088   -0.6277636833
     27  C        -6.2076277030   -2.1376006031    0.4918320020
     28  C        -6.9727261283   -1.2288932527   -0.1619921390
     29  H         8.7012627619    0.5850843864   -0.2041028491
     30  H         7.4706570182    2.1274566784    1.3003384226
     31  H         4.9868386765    1.9479458272    1.4257803463
     32  H         5.2375336553   -1.2248722716   -1.4320620040
     33  H         3.0668797835    2.3228802421   -0.0623558148
     34  H        -3.0699135937    4.6307142875   -0.0050489449
     35  H        -4.7384126398    2.6585074914    0.0781339742
     36  H        -6.5702830260   -3.0725538109    0.8906141412
     37  H        -8.0239302524   -1.2743931428   -0.3869193352
   Point Group: c1    Number of degrees of freedom:   105


   Energy is  -2595.905469658

              Constraints and their Current Values
                                        Value     Constraint
   Dihedral:        4   6   7   8       42.246       42.246
   Dihedral:       10  13  16  17     -179.114     -179.114
   Dihedral:       17  19  22  25       30.000       30.000
 Hessian Updated using BFGS Update

 98 Hessian modes will be used to form the next step
  Hessian Eigenvalues:
     0.010874    0.032467    0.044902    0.045000    0.045000    0.045000
     0.045000    0.045000    0.045000    0.045000    0.045000    0.045000
     0.045000    0.045000    0.045001    0.045001    0.045001    0.045001
     0.045002    0.045005    0.045005    0.045007    0.045008    0.045017
     0.045172    0.045614    0.046946    0.145352    0.157563    0.159969
     0.159982    0.159999    0.160004    0.160057    0.160122    0.160340
     0.213805    0.220029    0.224892    0.229164    0.232167    0.233269
     0.234553    0.243867    0.247910    0.248557    0.249197    0.249929
     0.249964    0.249992    0.249998    0.249999    0.251401    0.260363
     0.297389    0.300363    0.307694    0.315236    0.317028    0.320631
     0.335384    0.351050    0.354664    0.355752    0.356476    0.356812
     0.356862    0.359254    0.360788    0.361355    0.364903    0.365545
     0.385720    0.388442    0.391519    0.395163    0.405394    0.409110
     0.430916    0.439673    0.455404    0.471781    0.473717    0.475515
     0.480045    0.483551    0.492378    0.497744    0.501235    0.526052
     0.529868    0.540266    0.563658    0.574939    0.591351    0.623547
     0.632009    0.652137

 Minimum Search - Taking Simple RFO Step
 Searching for Lamda that Minimizes Along All modes
 Value Taken    Lamda =   0.00000000
 Step Taken.  Stepsize is  0.001899

                             Maximum     Tolerance    Cnvgd?
         Gradient           0.000054      0.000300     YES
         Displacement       0.000657      0.001200     YES
         Energy change     -0.000001      0.000001     YES

 Final energy is   -2595.90546965776     


 ******************************
 **  OPTIMIZATION CONVERGED  **
 ******************************

                       Coordinates (Angstroms)
     ATOM                X               Y               Z
      1  C         7.6207854627    0.5388801189   -0.1319122897
      2  C         6.9342093449    1.4030047799    0.7045818732
      3  N         7.0210123597   -0.3820050071   -0.8804673806
      4  C         5.5566950562    1.3052817240    0.7675994515
      5  C         5.6997066817   -0.4666632213   -0.8126344830
      6  C         4.9055414950    0.3542785869   -0.0102553670
      7  C         3.4375225671    0.2364641088    0.0008121605
      8  C         2.6228200448    1.3358932788   -0.0156663090
      9  C         2.7538334512   -1.0133719461    0.0269857161
     10  N         1.2670098842    1.3305837995    0.0070186135
     11  N         3.2894627123   -2.2348537847    0.0545355509
     12  C         1.3262786041   -1.0337866815    0.0458246603
     13  C         0.6006358635    0.2023819820    0.0365399140
     14  S         2.0595911146   -3.2747243782    0.0927142164
     15  N         0.8113532800   -2.2597417659    0.0815855243
     16  C        -0.8421996928    0.2914465803    0.0550096441
     17  S        -1.9271359690   -1.0529094322    0.1160269406
     18  C        -1.5612877427    1.4644641347    0.0350569896
     19  C        -3.3171496645   -0.0435016418    0.1155207502
     20  S        -1.1192324624    3.1376410867   -0.0100025666
     21  C        -2.9688127360    1.2898565175    0.0616924461
     22  C        -4.6312737897   -0.6552170241    0.1116583102
     23  C        -2.8093306043    3.5843902701    0.0091815439
     24  C        -3.6659328652    2.5479990802    0.0486373125
     25  N        -4.8934398701   -1.8102614628    0.6489989489
     26  S        -6.0073101783    0.1079851088   -0.6277636833
     27  C        -6.2076277030   -2.1376006031    0.4918320020
     28  C        -6.9727261283   -1.2288932527   -0.1619921390
     29  H         8.7012627619    0.5850843864   -0.2041028491
     30  H         7.4706570182    2.1274566784    1.3003384226
     31  H         4.9868386765    1.9479458272    1.4257803463
     32  H         5.2375336553   -1.2248722716   -1.4320620040
     33  H         3.0668797835    2.3228802421   -0.0623558148
     34  H        -3.0699135937    4.6307142875   -0.0050489449
     35  H        -4.7384126398    2.6585074914    0.0781339742
     36  H        -6.5702830260   -3.0725538109    0.8906141412
     37  H        -8.0239302524   -1.2743931428   -0.3869193352

Z-matrix Print:
$molecule
0 1
S 
C  1 1.717860
C  2 1.379159 1 111.329091
C  3 1.418564 2 111.736540 1 0.588945 0
C  4 1.376029 3 114.413260 2 -0.578181 0
C  3 1.438426 2 136.349730 1 179.263528 0
H  6 1.078562 3 124.839350 2 0.423959 0
C  6 1.345151 3 111.440975 2 -178.905869 0
H  8 1.078378 6 126.446336 3 179.800021 0
C  5 1.445700 4 125.021158 3 179.917437 0
N  10 1.310635 5 117.044669 4 -0.452270 0
C  11 1.356010 10 120.804352 5 179.816482 0
H  12 1.083288 11 114.465580 10 -178.653378 0
C  12 1.368487 11 126.291663 10 0.629043 0
C  14 1.424853 12 114.788599 11 -0.855441 0
N  15 1.334045 14 127.653072 12 179.591366 0
C  15 1.427825 14 119.506642 12 0.546978 0
N  17 1.330185 15 113.613621 14 179.430742 0
C  2 1.449528 1 119.051687 3 -177.439955 0
N  19 1.300613 2 123.808463 1 -29.999999 0
C  20 1.363430 19 111.092868 2 179.798885 0
H  21 1.079205 20 119.294691 19 179.927377 0
C  21 1.355954 20 116.012040 19 0.461753 0
H  23 1.075961 21 128.588941 20 179.321563 0
C  14 1.472780 12 121.941210 11 179.241409 0
C  25 1.390491 14 121.150206 12 -42.245735 0
H  26 1.082107 25 119.989033 14 -2.500830 0
C  26 1.382413 25 119.306231 14 178.516396 0
H  28 1.080524 26 121.129345 25 179.649335 0
C  28 1.384854 26 118.518569 25 0.340282 0
H  30 1.083872 28 120.520984 26 179.812335 0
N  30 1.329696 28 123.268055 26 -0.051294 0
C  32 1.325751 30 117.708156 28 0.028069 0
H  33 1.082670 32 116.161151 30 179.986363 0
S  18 1.608854 17 106.336944 15 -0.113189 0
S  23 1.713539 21 109.634318 20 -0.628820 0
S  4 1.731174 3 111.889363 2 179.195981 0
$end

 
 --------------------------------------------------------------
 
                    Orbital Energies (a.u.)
 --------------------------------------------------------------
 
 Alpha MOs
 -- Occupied --
-89.155 -89.094 -89.091 -89.078 -14.493 -14.487 -14.452 -14.445
-14.435 -10.374 -10.369 -10.362 -10.359 -10.345 -10.340 -10.338
-10.334 -10.329 -10.328 -10.327 -10.326 -10.326 -10.325 -10.318
-10.317 -10.314 -10.305 -10.302  -8.165  -8.110  -8.106  -8.092
 -6.115  -6.109  -6.108  -6.059  -6.055  -6.055  -6.053  -6.051
 -6.048  -6.041  -6.038  -6.034  -1.152  -1.084  -1.072  -1.054
 -1.024  -1.015  -0.958  -0.945  -0.912  -0.910  -0.907  -0.884
 -0.861  -0.846  -0.831  -0.809  -0.775  -0.752  -0.744  -0.728
 -0.722  -0.699  -0.693  -0.676  -0.646  -0.640  -0.623  -0.621
 -0.615  -0.596  -0.584  -0.577  -0.570  -0.568  -0.542  -0.536
 -0.528  -0.527  -0.519  -0.514  -0.512  -0.502  -0.496  -0.490
 -0.486  -0.480  -0.478  -0.463  -0.459  -0.448  -0.440  -0.433
 -0.430  -0.422  -0.402  -0.394  -0.381  -0.374  -0.370  -0.369
 -0.364  -0.358  -0.342  -0.338  -0.326  -0.320  -0.270
 -- Virtual --
 -0.055  -0.007   0.027   0.039   0.045   0.054   0.064   0.075
  0.086   0.088   0.104   0.106   0.118   0.121   0.129   0.131
  0.136   0.145   0.147   0.165   0.168   0.170   0.172   0.185
  0.189   0.195   0.197   0.213   0.216   0.230   0.240   0.245
  0.250   0.255   0.264   0.265   0.271   0.275   0.283   0.289
  0.297   0.299   0.303   0.305   0.307   0.317   0.322   0.328
  0.332   0.334   0.336   0.346   0.346   0.350   0.358   0.360
  0.361   0.365   0.368   0.372   0.375   0.379   0.383   0.386
  0.388   0.394   0.396   0.400   0.404   0.406   0.406   0.416
  0.418   0.421   0.424   0.430   0.434   0.437   0.438   0.442
  0.443   0.448   0.451   0.459   0.460   0.465   0.467   0.470
  0.472   0.473   0.476   0.479   0.482   0.484   0.487   0.494
  0.495   0.502   0.505   0.509   0.512   0.516   0.519   0.524
  0.527   0.530   0.538   0.541   0.544   0.548   0.551   0.554
  0.559   0.563   0.565   0.578   0.579   0.589   0.594   0.595
  0.609   0.612   0.617   0.622   0.625   0.636   0.639   0.645
  0.651   0.658   0.660   0.666   0.670   0.673   0.680   0.686
  0.691   0.698   0.701   0.703   0.709   0.718   0.725   0.729
  0.733   0.736   0.741   0.749   0.749   0.753   0.754   0.763
  0.764   0.769   0.773   0.777   0.789   0.792   0.796   0.799
  0.801   0.806   0.812   0.814   0.821   0.824   0.831   0.835
  0.837   0.843   0.845   0.853   0.856   0.859   0.861   0.862
  0.867   0.877   0.883   0.887   0.895   0.898   0.905   0.912
  0.917   0.924   0.925   0.933   0.941   0.948   0.950   0.954
  0.960   0.964   0.969   0.973   0.976   0.979   0.983   0.994
  1.001   1.014   1.014   1.021   1.026   1.030   1.031   1.036
  1.046   1.049   1.052   1.055   1.060   1.068   1.076   1.077
  1.082   1.087   1.096   1.098   1.106   1.110   1.121   1.126
  1.134   1.142   1.142   1.151   1.159   1.166   1.171   1.182
  1.186   1.193   1.201   1.205   1.208   1.219   1.222   1.226
  1.232   1.238   1.246   1.255   1.259   1.262   1.271   1.273
  1.281   1.286   1.293   1.298   1.300   1.311   1.320   1.328
  1.338   1.348   1.352   1.359   1.364   1.373   1.379   1.381
  1.389   1.401   1.402   1.404   1.409   1.424   1.432   1.434
  1.447   1.449   1.453   1.456   1.462   1.474   1.484   1.488
  1.493   1.503   1.504   1.507   1.520   1.532   1.542   1.553
  1.565   1.566   1.570   1.581   1.585   1.597   1.598   1.607
  1.608   1.612   1.619   1.624   1.629   1.637   1.639   1.644
  1.658   1.658   1.664   1.674   1.678   1.682   1.684   1.687
  1.692   1.702   1.708   1.711   1.721   1.723   1.729   1.743
  1.744   1.753   1.757   1.761   1.769   1.772   1.785   1.793
  1.795   1.814   1.818   1.825   1.839   1.854   1.861   1.869
  1.883   1.887   1.890   1.895   1.904   1.911   1.916   1.926
  1.931   1.940   1.946   1.951   1.962   1.968   1.973   1.982
  1.986   1.994   1.997   2.003   2.010   2.030   2.036   2.042
  2.061   2.067   2.078   2.083   2.086   2.089   2.098   2.114
  2.120   2.122   2.131   2.142   2.153   2.160   2.167   2.172
  2.175   2.187   2.189   2.195   2.206   2.218   2.224   2.234
  2.238   2.241   2.251   2.260   2.267   2.276   2.282   2.287
  2.302   2.313   2.324   2.334   2.345   2.351   2.356   2.362
  2.364   2.373   2.379   2.384   2.396   2.398   2.405   2.409
  2.415   2.427   2.438   2.440   2.450   2.456   2.461   2.462
  2.479   2.486   2.490   2.497   2.498   2.508   2.518   2.521
  2.522   2.532   2.537   2.544   2.553   2.557   2.568   2.574
  2.579   2.590   2.602   2.606   2.619   2.624   2.627   2.633
  2.639   2.650   2.655   2.662   2.670   2.677   2.681   2.691
  2.723   2.727   2.739   2.747   2.754   2.759   2.766   2.774
  2.784   2.784   2.789   2.791   2.794   2.803   2.812   2.814
  2.825   2.830   2.838   2.845   2.852   2.871   2.873   2.878
  2.883   2.892   2.899   2.909   2.916   2.929   2.935   2.939
  2.945   2.949   2.953   2.955   2.964   2.972   2.975   2.981
  2.983   2.988   2.992   3.002   3.005   3.008   3.019   3.025
  3.028   3.029   3.041   3.046   3.053   3.057   3.058   3.066
  3.071   3.071   3.086   3.090   3.094   3.099   3.104   3.106
  3.109   3.117   3.123   3.126   3.135   3.137   3.139   3.149
  3.154   3.157   3.160   3.165   3.174   3.177   3.182   3.186
  3.187   3.193   3.195   3.200   3.201   3.205   3.215   3.216
  3.224   3.228   3.230   3.235   3.240   3.243   3.244   3.252
  3.254   3.256   3.265   3.269   3.273   3.276   3.280   3.284
  3.289   3.292   3.297   3.305   3.308   3.312   3.321   3.323
  3.334   3.339   3.347   3.355   3.357   3.360   3.367   3.374
  3.378   3.383   3.390   3.393   3.396   3.417   3.418   3.421
  3.428   3.435   3.440   3.445   3.448   3.458   3.463   3.467
  3.470   3.480   3.482   3.484   3.500   3.507   3.509   3.514
  3.523   3.532   3.535   3.544   3.547   3.556   3.560   3.574
  3.577   3.582   3.593   3.599   3.602   3.620   3.625   3.628
  3.648   3.651   3.657   3.664   3.672   3.682   3.688   3.692
  3.707   3.714   3.728   3.734   3.744   3.752   3.753   3.759
  3.768   3.771   3.779   3.787   3.791   3.798   3.803   3.818
  3.827   3.829   3.830   3.844   3.847   3.852   3.862   3.867
  3.872   3.880   3.894   3.899   3.914   3.920   3.920   3.930
  3.936   3.942   3.946   3.949   3.963   3.966   3.974   3.978
  3.987   3.996   4.000   4.008   4.013   4.029   4.036   4.046
  4.062   4.071   4.083   4.086   4.095   4.103   4.110   4.118
  4.133   4.141   4.144   4.150   4.160   4.171   4.177   4.186
  4.197   4.198   4.203   4.209   4.214   4.231   4.234   4.243
  4.251   4.256   4.261   4.281   4.287   4.296   4.305   4.315
  4.324   4.335   4.345   4.348   4.354   4.379   4.385   4.389
  4.394   4.404   4.414   4.423   4.434   4.444   4.457   4.462
  4.467   4.475   4.478   4.486   4.504   4.512   4.519   4.523
  4.538   4.546   4.556   4.567   4.578   4.586   4.604   4.611
  4.617   4.632   4.645   4.651   4.667   4.677   4.681   4.691
  4.698   4.716   4.725   4.732   4.734   4.783   4.791   4.792
  4.809   4.814   4.825   4.842   4.844   4.853   4.857   4.860
  4.872   4.887   4.905   4.934   4.935   4.937   4.944   4.953
  4.955   4.963   4.967   4.975   4.991   4.993   4.998   5.011
  5.023   5.029   5.043   5.056   5.071   5.084   5.087   5.093
  5.113   5.115   5.135   5.150   5.153   5.162   5.176   5.196
  5.206   5.222   5.236   5.237   5.256   5.259   5.271   5.285
  5.315   5.318   5.335   5.346   5.354   5.371   5.391   5.399
  5.430   5.436   5.446   5.456   5.466   5.482   5.490   5.515
  5.532   5.555   5.563   5.574   5.605   5.634   5.665   5.692
  5.695   5.701   5.734   5.743   5.763   5.805   5.823   5.834
  5.852   5.872   5.891   5.933   5.947   5.984   6.002   6.068
  6.121   6.142   6.168   6.182   6.190   6.213   6.255   6.297
  6.317   6.325   6.355   6.406   6.490   6.853   7.021   8.089
  8.964   9.799  10.017  10.805  11.149  11.204  11.665  12.004
 12.312  12.485  12.552  12.874  13.045  13.152  13.175  13.424
 13.492  13.592  13.644  13.904  14.127  14.750  14.986
 --------------------------------------------------------------
 
          Ground-State Mulliken Net Atomic Charges

     Atom                 Charge (a.u.)
  ----------------------------------------
      1 C                    -0.072102
      2 C                    -0.102854
      3 N                    -0.155193
      4 C                    -0.156831
      5 C                    -0.095255
      6 C                     0.109491
      7 C                     0.032722
      8 C                    -0.094891
      9 C                     0.019249
     10 N                    -0.185075
     11 N                    -0.276711
     12 C                     0.029135
     13 C                     0.113210
     14 S                     0.414675
     15 N                    -0.281360
     16 C                    -0.062595
     17 S                     0.169492
     18 C                    -0.006200
     19 C                     0.047495
     20 S                     0.094329
     21 C                    -0.005984
     22 C                    -0.031099
     23 C                    -0.164618
     24 C                    -0.167178
     25 N                    -0.171922
     26 S                     0.099057
     27 C                    -0.085866
     28 C                    -0.200859
     29 H                     0.123785
     30 H                     0.128773
     31 H                     0.130897
     32 H                     0.128720
     33 H                     0.130905
     34 H                     0.132524
     35 H                     0.133868
     36 H                     0.133004
     37 H                     0.145258
  ----------------------------------------
  Sum of atomic charges =     0.000000

 -----------------------------------------------------------------
                    Cartesian Multipole Moments
 -----------------------------------------------------------------
    Charge (ESU x 10^10)
                 0.0000
    Dipole Moment (Debye)
         X      -2.6108      Y       1.7197      Z       0.6659
       Tot       3.1964
    Quadrupole Moments (Debye-Ang)
        XX    -163.2141     XY       8.7112     YY    -172.8881
        XZ      12.5051     YZ       2.3646     ZZ    -188.8241
    Octopole Moments (Debye-Ang^2)
       XXX    -279.0768    XXY      75.7427    XYY     -17.9944
       YYY      -1.1843    XXZ      55.3074    XYZ      11.4650
       YYZ       4.0522    XZZ       6.2670    YZZ      -9.1733
       ZZZ      -5.3153
    Hexadecapole Moments (Debye-Ang^3)
      XXXX  -17513.5640   XXXY    1037.9219   XXYY   -3631.9014
      XYYY    -132.7242   YYYY   -3380.5565   XXXZ     669.9505
      XXYZ      35.4544   XYYZ      15.8825   YYYZ       0.2756
      XXZZ   -3476.5780   XYZZ      13.4596   YYZZ    -703.2477
      XZZZ      15.3662   YZZZ       8.6160   ZZZZ    -381.0772
 -----------------------------------------------------------------
Archival summary:
1\1\mn256\OPT\ProcedureUnspecified\BasisUnspecified\45199\afmv_a\FriJun210:42:182017FriJun210:42:182017\0\\#,OPT,ProcedureUnspecified,BasisUnspecified,\\0,1\S\C,1,1.71786\C,2,1.37916,1,111.329\C,3,1.41856,2,111.737,1,0.588945,0\C,4,1.37603,3,114.413,2,-0.578181,0\C,3,1.43843,2,136.35,1,179.264,0\H,6,1.07856,3,124.839,2,0.423959,0\C,6,1.34515,3,111.441,2,-178.906,0\H,8,1.07838,6,126.446,3,179.8,0\C,5,1.4457,4,125.021,3,179.917,0\N,10,1.31064,5,117.045,4,-0.45227,0\C,11,1.35601,10,120.804,5,179.816,0\H,12,1.08329,11,114.466,10,-178.653,0\C,12,1.36849,11,126.292,10,0.629043,0\C,14,1.42485,12,114.789,11,-0.855441,0\N,15,1.33404,14,127.653,12,179.591,0\C,15,1.42783,14,119.507,12,0.546978,0\N,17,1.33019,15,113.614,14,179.431,0\C,2,1.44953,1,119.052,3,-177.44,0\N,19,1.30061,2,123.808,1,-30,0\C,20,1.36343,19,111.093,2,179.799,0\H,21,1.07921,20,119.295,19,179.927,0\C,21,1.35595,20,116.012,19,0.461753,0\H,23,1.07596,21,128.589,20,179.322,0\C,14,1.47278,12,121.941,11,179.241,0\C,25,1.39049,14,121.15,12,-42.2457,0\H,26,1.08211,25,119.989,14,-2.50083,0\C,26,1.38241,25,119.306,14,178.516,0\H,28,1.08052,26,121.129,25,179.649,0\C,28,1.38485,26,118.519,25,0.340282,0\H,30,1.08387,28,120.521,26,179.812,0\N,30,1.3297,28,123.268,26,-0.0512941,0\C,32,1.32575,30,117.708,28,0.0280687,0\H,33,1.08267,32,116.161,30,179.986,0\S,18,1.60885,17,106.337,15,-0.113189,0\S,23,1.71354,21,109.634,20,-0.62882,0\S,4,1.73117,3,111.889,2,179.196,0\\\@

 Total job time:  5998.82s(wall), 90846.73s(cpu) 
 Fri Jun  2 10:42:18 2017

        *************************************************************
        *                                                           *
        *  Thank you very much for using Q-Chem.  Have a nice day.  *
        *                                                           *
        *************************************************************


0 sent ACK to 0 
now end server 0 ... 
cleanup process ... done
