
Running Job 1 of 1 C271_3/C271_315.qcin
qchem C271_3/C271_315.qcin_20077.0 /tmpu/cab_g/afmv_a/scratch_qchem/qchem20077/ 1
/tmpu/appuserlic/qchem4.4/parallel-MPICH/bin/mpi/mpirun_qchem -machinefile /tmpu/appuserlic/qchem4.4/parallel-MPICH/bin/mpi/machines -np 1 /tmpu/appuserlic/qchem4.4/parallel-MPICH/exe/qcprog.exe C271_3/C271_315.qcin_20077.0 /tmpu/cab_g/afmv_a/scratch_qchem/qchem20077/

Process 0 of 1 is on mn256 - thread support 0
initial socket setup ...start
initial socket setup ...done 
now start server 0 ... 
Check license passed

                  Welcome to Q-Chem
     A Quantum Leap Into The Future Of Chemistry


 Q-Chem 4.4, Q-Chem, Inc., Pleasanton, CA (2016)

 Y. Shao,  Z. Gan,  E. Epifanovsky,  A. T. B. Gilbert,  M. Wormit,  
 J. Kussmann,  A. W. Lange,  A. Behn,  J. Deng,  X. Feng,  D. Ghosh,  
 M. Goldey,  P. R. Horn,  L. D. Jacobson,  I. Kaliman,  F. Rob,  
 R. Z. Khaliullin,  T. Kus,  A. Landau,  J. Liu,  E. I. Proynov,  Y. M. Rhee,  
 R. M. Richard,  M. A. Rohrdanz,  R. P. Steele,  E. J. Sundstrom,  
 H. L. Woodcock III,  P. M. Zimmerman,  D. Zuev,  B. Albrecht,  E. Alguire,  
 B. Austin,  S. A. Baeppler,  G. J. O. Beran,  Y. A. Bernard,  E. Berquist,  
 K. Brandhorst,  K. B. Bravaya,  S. T. Brown,  D. Casanova,  C.-M. Chang,  
 Y. Chen,  S. H. Chien,  K. D. Closser,  M. P. Coons,  D. L. Crittenden,  
 S. Dasgupta,  M. Diedenhofen,  R. A. DiStasio Jr.,  H. Do,  A. D. Dutoi,  
 R. G. Edgar,  P.-T. Fang,  S. Fatehi,  Q. Feng,  L. Fusti-Molnar,  
 A. Ghysels,  A. Golubeva-Zadorozhnaya,  J. Gomes,  A. Gunina,  
 M. W. D. Hanson-Heine,  P. H. P. Harbach,  A. W. Hauser,  J. E. Herr,  
 E. G. Hohenstein,  Z. C. Holden,  K. Hui,  T.-C. Jagau,  H. Ji,  B. Kaduk,  
 K. Khistyaev,  Jaehoon Kim,  Jihan Kim,  R. A. King,  P. Klunzinger,  
 K. Koh,  D. Kosenkov,  T. Kowalczyk,  C. M. Krauter,  A. Kunitsa,  
 K. U. Lao,  A. Laurent,  K. V. Lawler,  J. Lee,  D. Lefrancois,  S. Lehtola,  
 S. V. Levchenko,  C. Y. Lin,  Y.-S. Lin,  F. Liu,  E. Livshits,  
 R. C. Lochan,  A. Luenser,  P. Manohar,  S. F. Manzer,  S.-P. Mao,  Y. Mao,  
 N. Mardirossian,  A. V. Marenich,  L. A. Martinez-Martinez,  S. A. Maurer,  
 N. J. Mayhall,  J.-M. Mewes,  A. F. Morrison,  K. Nanda,  T. S. Nguyen-Beck,  
 C. M. Oana,  R. Olivares-Amaya,  D. P. O'Neill,  J. A. Parkhill,  
 T. M. Perrine,  R. Peverati,  P. A. Pieniazek,  F. Plasser,  A. Prociuk,  
 D. R. Rehn,  E. Rosta,  N. J. Russ,  N. Sergueev,  S. M. Sharada,  
 S. Sharma,  D. W. Small,  A. Sodt,  T. Stauch,  T. Stein,  D. Stuck,  
 Y.-C. Su,  A. J. W. Thom,  T. Tsuchimochi,  L. Vogt,  O. Vydrov,  T. Wang,  
 M. A. Watson,  J. Wenzel,  A. White,  C. F. Williams,  V. Vanovschi,  
 K. Yao,  S. Yeganeh,  S. R. Yost,  Z.-Q. You,  I. Y. Zhang,  X. Zhang,  
 Y. Zhao,  B. R. Brooks,  G. K. L. Chan,  D. M. Chipman,  C. J. Cramer,  
 W. A. Goddard III,  M. S. Gordon,  W. J. Hehre,  A. Klamt,  
 H. F. Schaefer III,  M. W. Schmidt,  C. D. Sherrill,  D. G. Truhlar,  
 A. Warshel,  X. Xu,  A. Aspuru-Guzik,  R. Baer,  A. T. Bell,  N. A. Besley,  
 J.-D. Chai,  A. Dreuw,  B. D. Dunietz,  T. R. Furlani,  S. R. Gwaltney,  
 C.-P. Hsu,  Y. Jung,  J. Kong,  D. S. Lambrecht,  W. Liang,  C. Ochsenfeld,  
 V. A. Rassolov,  L. V. Slipchenko,  J. E. Subotnik,  T. Van Voorhis,  
 J. M. Herbert,  A. I. Krylov,  P. M. W. Gill,  M. Head-Gordon

 Contributors to earlier versions of Q-Chem not listed above: 
 R. D. Adamson,  J. Baker,  E. F. C. Byrd,  A. K. Chakraborty,  C.-L. Cheng,  
 H. Dachsel,  R. J. Doerksen,  G. Hawkins,  A. Heyden,  S. Hirata,  
 G. Kedziora,  F. J. Keil,  C. Kelley,  P. P. Korambath,  W. Kurlancheek,  
 A. M. Lee,  M. S. Lee,  D. Liotard,  I. Lotan,  P. E. Maslen,  N. Nair,  
 D. Neuhauser,  R. Olson,  B. Peters,  J. Ritchie,  N. E. Schultz,  
 N. Shenvi,  A. C. Simmonett,  K. S. Thanthiriwatte,  Q. Wu,  W. Zhang

 Please cite Q-Chem as follows:
 Y. Shao et al., Mol. Phys. 113, 184-215 (2015)
 DOI: 10.1080/00268976.2014.952696

 Q-Chem 4.4.2 for Intel X86 Linux

 Parts of Q-Chem use Armadillo 5.200.1 (Boston Tea Smuggler).
 http://arma.sourceforge.net/

 Q-Chem begins on Fri Jun  2 18:46:15 2017  

Host: 
0

     Scratch files written to /tmpu/cab_g/afmv_a/scratch_qchem/qchem20077//
 Dec716 11556_ 22328  22283 4050   
 Parallel job on  1  processors
Processing $rem in /tmpu/appuserlic/qchem4.4/parallel-MPICH/config/preferences.
 MEM_TOTAL  2000 
FILE_GEOM_ORG=        593

Checking the input file for inconsistencies... 	...done.

--------------------------------------------------------------
User input:
--------------------------------------------------------------
$comment
OPTIMIZATION
$end

$rem
JOBTYPE OPT
EXCHANGE omegaB97X-D
BASIS cc-pVTZ
$end

$molecule
0 1
C          0.00000        0.00000        0.00000
C          1.38508        0.00000        0.00000
N         -0.72771       -1.11322        0.00000
C          2.04720       -1.21160       -0.00386
C         -0.08136       -2.27149       -0.00595
C          1.30925       -2.38901       -0.00649
C          1.96927       -3.70493        0.02329
C          3.04486       -3.95576        0.82999
C          1.55200       -4.80802       -0.77739
N          3.72631       -5.12438        0.91627
N          0.54624       -4.84522       -1.65350
C          2.26335       -6.04410       -0.69858
C          3.37925       -6.16090        0.19241
S          0.53898       -6.32692       -2.28381
N          1.78433       -6.98642       -1.50573
C          4.16725       -7.35995        0.35676
S          3.93086       -8.84971       -0.49207
C          5.23222       -7.49170        1.21798
C          5.24541       -9.62206        0.30618
S          5.99863       -6.41836        2.33861
C          5.85372       -8.76608        1.20048
C          5.61707      -10.99188        0.02046
C          7.13339       -7.68106        2.76702
C          6.95917       -8.84504        2.11640
N          4.75187      -11.95923       -0.08483
S          7.26858      -11.49572       -0.21252
C          5.37009      -13.14477       -0.35031
C          6.72065      -13.10207       -0.45570
H         -0.55134        0.93273        0.00000
H          1.92494        0.93597       -0.01293
H          3.12873       -1.25416       -0.02668
H         -0.69553       -3.16348       -0.00579
H          3.41622       -3.17720        1.48423
H          7.89362       -7.46677        3.50210
H          7.55900       -9.73031        2.24234
H          4.77922      -14.04105       -0.46201
H          7.40499      -13.90747       -0.65684
$end

$opt
CONSTRAINT
tors 4 6 7 8 42.24575
tors 10 13 16 17 -179.11427
tors 17 19 22 25 -45.00000
ENDCONSTRAINT
$end
--------------------------------------------------------------
 ----------------------------------------------------------------
             Standard Nuclear Orientation (Angstroms)
    I     Atom           X                Y                Z
 ----------------------------------------------------------------
    1      C       7.6292132649     0.5714418279     0.0039535367
    2      C       6.9056685738     1.4451650934     0.7986467741
    3      N       7.0624203847    -0.3690485488    -0.7464092387
    4      C       5.5293945612     1.3363603968     0.8192315837
    5      C       5.7398728594    -0.4660835338    -0.7173339427
    6      C       4.9135055776     0.3599554154     0.0458070563
    7      C       3.4475882813     0.2263820301     0.0083460587
    8      C       2.6243288547     1.3161028367    -0.0646396035
    9      C       2.7749090285    -1.0297257626     0.0496510139
   10      N       1.2691509982     1.2961510929    -0.0888460192
   11      N       3.3208156816    -2.2446801464     0.1295103969
   12      C       1.3471731202    -1.0648036779     0.0281261193
   13      C       0.6118482715     0.1626128259    -0.0459300972
   14      S       2.1017542853    -3.2961311621     0.1629523986
   15      N       0.8438919622    -2.2945027565     0.0870032567
   16      C      -0.8295219734     0.2470092001    -0.0776301587
   17      S      -1.9227365427    -1.0932438023    -0.0114391200
   18      C      -1.5491864132     1.4166540491    -0.1626776348
   19      C      -3.3139421582    -0.0837741864    -0.0968049058
   20      S      -1.1032459805     3.0862603359    -0.2565212186
   21      C      -2.9568316481     1.2462874691    -0.1737684203
   22      C      -4.6562912339    -0.6258153225    -0.0752579289
   23      C      -2.7956208721     3.5319864929    -0.3096446114
   24      C      -3.6559938915     2.4995377840    -0.2615159911
   25      N      -5.0209120457    -1.6577819601    -0.7806085999
   26      S      -5.9337262349     0.0479809092     0.8993076986
   27      C      -6.3365112729    -1.9515540251    -0.5779331505
   28      C      -6.9994273219    -1.1490356205     0.2900813528
   29      H       8.7106323057     0.6270358464    -0.0335059348
   30      H       7.4205871425     2.1821709835     1.3980940454
   31      H       4.9295754991     1.9854933387     1.4444377604
   32      H       5.3019435976    -1.2391714847    -1.3365301606
   33      H       3.0536539094     2.3085560391    -0.1176541226
   34      H      -3.0542326967     4.5777887788    -0.3698938126
   35      H      -4.7298699334     2.5761923263    -0.2780753741
   36      H      -6.7836020779    -2.7838637134    -1.0997496701
   37      H      -8.0300386978    -1.1952461283     0.5952902583
 ----------------------------------------------------------------
 Molecular Point Group                 C1    NOp =  1
 Largest Abelian Subgroup              C1    NOp =  1
 Nuclear Repulsion Energy =  2961.1781683111 hartrees
 There are      111 alpha and      111 beta electrons
 Requested basis set is cc-pVTZ
 There are 342 shells and 982 basis functions

 Total QAlloc Memory Limit   2000 MB
 Mega-Array Size        61 MB
 MEM_STATIC part        62 MB
 A cutoff of  1.0D-11 yielded  29208 shell pairs
 There are    231562 function pairs (    302568 Cartesian)
 
 -------------------------------------------------------
 OpenMP Integral Computing Module                       
 Release: version 1.0, May 2013, Q-Chem Inc. Pittsburgh 
 -------------------------------------------------------
 Integral Job Info:
 Integral job number is                      11
 Integral operator is                         1
 short-range coefficients              22203600
 long-range coefficients              100000000
 Omega coefficients                         200
 if combine SR and LR in K                    1
 Integral screening is                        0
 Integral computing path is                   2
 max size of driver memory is            800000
 size of driver memory is                776718
 size of scratch memory is             26248924
 max col of scratch BK array              10000
 max len of scratch array in speh3          662
 max len of scratch index in speh4           32
 max int batch size is                      520
 min int batch size is                       52
 fixed nKL is                                52
 max L of basis functions is                  3
 order of int derivative is                   0
 number of shells is                        342
 number of basis is                        1131
 number of cartesian basis is              1131
 number of contracted shell pairs         29208
 number of primitive shell pairs          92378
 maxK2 (contraction) of shell pair          121
 max number of K2 of shell pair               1
 max number of CS2 of shell pair           3963
 max number of PS2 of shell pair          11662
 mem total for path MDJ                  810124
 -------------------------------------------------------
 Smallest overlap matrix eigenvalue = 2.23E-05

 Scale SEOQF with 1.000000e-02/1.000000e-01/1.000000e+00

 Standard Electronic Orientation quadrupole field applied
 Nucleus-field energy     =     0.0000000169 hartrees
 Guess from superposition of atomic densities
 Warning:  Energy on first SCF cycle will be non-variational
 Long-range K will be added via erf
 Coulomb attenuation parameter = 0.2 bohr**(-1)
 A restricted hybrid HF-DFT SCF calculation will be
 performed using Pulay DIIS extrapolation
 Exchange:     0.2220 Hartree-Fock + 1.0000 wB97X-D + LR-HF
 Correlation:  1.0000 wB97X-D
 Using SG-2 standard quadrature grid
 Dispersion:   Grimme D
 SCF converges when DIIS error is below 1.0E-08
 using 16 threads for integral computing 
 using 16 threads for integral computing 
 K construction time:  CPU 70.79 s  wall 4.68 s
 -------------------------------------------------------
 OpenMP BLAS3 based DFT computing Module                
 Release: version 1.0, May 2013, Q-Chem Inc. Pittsburgh 
 -------------------------------------------------------
 ---------------------------------------
  Cycle       Energy         DIIS Error
 ---------------------------------------
    1   -2605.9226472445      1.87E-02
 K construction time:  CPU 1079.35 s  wall 70.43 s
    2   -2595.6643632659      1.36E-03
 K construction time:  CPU 1028.42 s  wall 67.05 s
    3   -2595.6910198083      1.40E-03
 K construction time:  CPU 979.45 s  wall 63.93 s
    4   -2595.8964747537      2.26E-04
 K construction time:  CPU 910.58 s  wall 59.34 s
    5   -2595.9009980732      1.33E-04
 K construction time:  CPU 870.45 s  wall 56.73 s
    6   -2595.9029677450      3.98E-05
 K construction time:  CPU 810.48 s  wall 52.81 s
    7   -2595.9031658332      1.63E-05
 K construction time:  CPU 758.37 s  wall 49.37 s
    8   -2595.9032069653      5.65E-06
 K construction time:  CPU 725.92 s  wall 47.24 s
    9   -2595.9032160283      3.57E-06
 K construction time:  CPU 687.71 s  wall 44.81 s
   10   -2595.9032189436      1.26E-06
 K construction time:  CPU 626.46 s  wall 40.73 s
   11   -2595.9032193612      6.68E-07
 K construction time:  CPU 591.69 s  wall 38.45 s
   12   -2595.9032194781      2.23E-07
 K construction time:  CPU 519.56 s  wall 33.77 s
   13   -2595.9032194917      9.72E-08
 K construction time:  CPU 468.13 s  wall 30.42 s
   14   -2595.9032194949      3.17E-08
 K construction time:  CPU 387.34 s  wall 25.02 s
   15   -2595.9032194961      1.44E-08
 K construction time:  CPU 1082.47 s  wall 70.61 s
   16   -2595.9032194906      4.61E-09 Convergence criterion met
 ---------------------------------------
 SCF time:  CPU 15451.35 s  wall 1029.42 s
 SCF   energy in the final basis set = -2595.9032194906
 Total energy in the final basis set = -2595.9032194906
 
 --------------------------------------------------------------
 
                    Orbital Energies (a.u.)
 --------------------------------------------------------------
 
 Alpha MOs
 -- Occupied --
-89.155 -89.095 -89.093 -89.077 -14.494 -14.487 -14.452 -14.446
-14.435 -10.374 -10.369 -10.362 -10.359 -10.344 -10.339 -10.338
-10.334 -10.330 -10.327 -10.326 -10.326 -10.326 -10.325 -10.318
-10.315 -10.314 -10.304 -10.302  -8.165  -8.111  -8.107  -8.091
 -6.115  -6.109  -6.109  -6.060  -6.056  -6.056  -6.054  -6.052
 -6.050  -6.041  -6.037  -6.033  -1.152  -1.084  -1.072  -1.054
 -1.024  -1.015  -0.957  -0.946  -0.912  -0.910  -0.908  -0.884
 -0.861  -0.846  -0.830  -0.809  -0.775  -0.752  -0.744  -0.728
 -0.723  -0.698  -0.692  -0.675  -0.647  -0.640  -0.623  -0.621
 -0.616  -0.597  -0.584  -0.577  -0.570  -0.568  -0.541  -0.535
 -0.527  -0.526  -0.518  -0.515  -0.512  -0.502  -0.496  -0.491
 -0.487  -0.480  -0.478  -0.463  -0.459  -0.448  -0.440  -0.431
 -0.430  -0.423  -0.402  -0.393  -0.380  -0.374  -0.370  -0.369
 -0.364  -0.357  -0.342  -0.339  -0.327  -0.320  -0.272
 -- Virtual --
 -0.055  -0.003   0.027   0.038   0.043   0.048   0.064   0.074
  0.085   0.087   0.103   0.108   0.113   0.121   0.129   0.133
  0.136   0.144   0.145   0.166   0.167   0.170   0.173   0.180
  0.189   0.191   0.197   0.213   0.215   0.230   0.239   0.244
  0.249   0.255   0.263   0.264   0.269   0.274   0.282   0.289
  0.298   0.298   0.300   0.306   0.307   0.317   0.322   0.325
  0.331   0.335   0.336   0.344   0.345   0.351   0.356   0.360
  0.361   0.362   0.369   0.371   0.374   0.379   0.383   0.386
  0.388   0.392   0.395   0.401   0.403   0.404   0.407   0.413
  0.417   0.421   0.426   0.429   0.434   0.434   0.437   0.440
  0.444   0.448   0.452   0.459   0.460   0.465   0.467   0.467
  0.471   0.472   0.476   0.480   0.481   0.484   0.489   0.491
  0.495   0.503   0.505   0.509   0.515   0.517   0.519   0.522
  0.528   0.531   0.541   0.542   0.544   0.549   0.551   0.555
  0.559   0.565   0.568   0.574   0.577   0.586   0.591   0.596
  0.599   0.611   0.613   0.619   0.623   0.636   0.637   0.647
  0.650   0.653   0.661   0.664   0.669   0.670   0.678   0.687
  0.691   0.695   0.698   0.700   0.711   0.716   0.723   0.725
  0.733   0.734   0.737   0.741   0.742   0.746   0.755   0.763
  0.765   0.770   0.772   0.773   0.781   0.784   0.797   0.798
  0.800   0.808   0.810   0.813   0.816   0.821   0.825   0.833
  0.834   0.846   0.848   0.850   0.854   0.857   0.859   0.863
  0.868   0.878   0.884   0.889   0.895   0.900   0.903   0.912
  0.917   0.923   0.927   0.936   0.938   0.947   0.951   0.955
  0.957   0.959   0.969   0.973   0.975   0.982   0.982   0.992
  0.998   1.014   1.015   1.024   1.025   1.030   1.033   1.042
  1.045   1.048   1.056   1.060   1.067   1.068   1.074   1.081
  1.084   1.087   1.088   1.097   1.105   1.111   1.122   1.128
  1.134   1.139   1.143   1.149   1.156   1.168   1.174   1.183
  1.184   1.190   1.198   1.203   1.205   1.219   1.226   1.228
  1.233   1.240   1.247   1.250   1.255   1.263   1.268   1.278
  1.286   1.288   1.293   1.297   1.301   1.314   1.323   1.338
  1.343   1.349   1.355   1.358   1.369   1.372   1.381   1.383
  1.391   1.401   1.402   1.405   1.410   1.424   1.433   1.439
  1.445   1.450   1.455   1.461   1.463   1.473   1.481   1.486
  1.493   1.496   1.506   1.508   1.521   1.532   1.541   1.549
  1.558   1.566   1.569   1.576   1.584   1.594   1.597   1.604
  1.609   1.611   1.619   1.623   1.632   1.633   1.638   1.645
  1.653   1.659   1.663   1.670   1.675   1.683   1.684   1.687
  1.695   1.697   1.708   1.712   1.714   1.719   1.725   1.739
  1.745   1.750   1.756   1.758   1.763   1.775   1.780   1.789
  1.802   1.808   1.820   1.822   1.832   1.858   1.860   1.870
  1.883   1.886   1.890   1.895   1.897   1.909   1.924   1.925
  1.929   1.939   1.945   1.947   1.959   1.968   1.973   1.980
  1.982   1.994   1.999   2.006   2.010   2.025   2.037   2.050
  2.051   2.063   2.076   2.081   2.085   2.087   2.096   2.110
  2.120   2.123   2.134   2.138   2.145   2.158   2.169   2.173
  2.180   2.189   2.189   2.201   2.202   2.222   2.223   2.231
  2.239   2.243   2.254   2.263   2.268   2.274   2.280   2.287
  2.303   2.304   2.318   2.326   2.344   2.349   2.356   2.360
  2.367   2.373   2.380   2.384   2.394   2.397   2.398   2.405
  2.416   2.433   2.440   2.443   2.448   2.456   2.460   2.463
  2.479   2.482   2.488   2.495   2.503   2.506   2.519   2.525
  2.530   2.534   2.537   2.546   2.550   2.563   2.567   2.573
  2.580   2.589   2.593   2.600   2.613   2.621   2.627   2.636
  2.643   2.646   2.657   2.661   2.669   2.673   2.680   2.688
  2.713   2.730   2.737   2.748   2.753   2.757   2.770   2.774
  2.777   2.785   2.789   2.792   2.794   2.801   2.811   2.812
  2.823   2.834   2.837   2.852   2.857   2.869   2.871   2.878
  2.884   2.885   2.897   2.909   2.914   2.928   2.937   2.940
  2.946   2.948   2.951   2.955   2.964   2.972   2.974   2.978
  2.982   2.986   2.993   3.001   3.007   3.017   3.017   3.027
  3.030   3.031   3.040   3.045   3.054   3.058   3.059   3.062
  3.071   3.073   3.080   3.090   3.093   3.097   3.104   3.105
  3.113   3.121   3.124   3.130   3.134   3.138   3.140   3.148
  3.152   3.159   3.161   3.170   3.174   3.177   3.179   3.184
  3.190   3.192   3.194   3.201   3.203   3.209   3.216   3.221
  3.225   3.229   3.233   3.235   3.239   3.243   3.248   3.252
  3.254   3.258   3.265   3.270   3.272   3.274   3.277   3.285
  3.289   3.294   3.300   3.306   3.308   3.313   3.321   3.330
  3.334   3.341   3.346   3.352   3.353   3.364   3.369   3.374
  3.379   3.383   3.390   3.401   3.402   3.412   3.419   3.424
  3.428   3.431   3.440   3.447   3.450   3.458   3.458   3.467
  3.476   3.477   3.482   3.485   3.494   3.501   3.508   3.515
  3.523   3.530   3.532   3.543   3.545   3.556   3.559   3.574
  3.586   3.589   3.592   3.602   3.606   3.619   3.634   3.637
  3.639   3.650   3.657   3.667   3.668   3.680   3.686   3.693
  3.701   3.718   3.723   3.735   3.742   3.750   3.756   3.759
  3.768   3.773   3.777   3.788   3.792   3.801   3.805   3.818
  3.826   3.831   3.833   3.845   3.847   3.858   3.864   3.864
  3.870   3.873   3.893   3.903   3.913   3.919   3.930   3.933
  3.942   3.945   3.948   3.953   3.963   3.971   3.974   3.978
  3.986   3.991   4.000   4.010   4.012   4.027   4.034   4.051
  4.059   4.075   4.080   4.084   4.092   4.108   4.110   4.119
  4.134   4.139   4.143   4.153   4.162   4.172   4.177   4.185
  4.196   4.197   4.202   4.209   4.212   4.229   4.235   4.246
  4.248   4.252   4.262   4.273   4.287   4.297   4.309   4.313
  4.324   4.336   4.346   4.347   4.351   4.380   4.385   4.393
  4.397   4.406   4.413   4.422   4.434   4.441   4.454   4.461
  4.465   4.475   4.481   4.492   4.497   4.516   4.519   4.527
  4.534   4.548   4.554   4.558   4.573   4.585   4.603   4.610
  4.616   4.635   4.642   4.649   4.660   4.673   4.677   4.687
  4.696   4.712   4.720   4.732   4.737   4.784   4.789   4.792
  4.817   4.817   4.823   4.841   4.845   4.854   4.856   4.869
  4.879   4.889   4.904   4.934   4.935   4.939   4.944   4.954
  4.955   4.962   4.967   4.977   4.990   4.997   4.998   5.005
  5.018   5.030   5.042   5.055   5.070   5.081   5.085   5.089
  5.111   5.114   5.135   5.149   5.156   5.159   5.175   5.197
  5.204   5.210   5.227   5.236   5.252   5.259   5.279   5.283
  5.314   5.318   5.337   5.342   5.357   5.361   5.387   5.400
  5.428   5.438   5.447   5.460   5.467   5.481   5.490   5.515
  5.532   5.556   5.561   5.575   5.605   5.637   5.665   5.686
  5.694   5.703   5.735   5.747   5.764   5.803   5.820   5.823
  5.846   5.860   5.891   5.929   5.946   5.959   6.003   6.058
  6.114   6.141   6.167   6.171   6.189   6.203   6.249   6.282
  6.308   6.319   6.353   6.407   6.491   6.855   7.020   8.027
  8.937   9.770   9.998  10.773  11.151  11.204  11.668  12.008
 12.315  12.487  12.555  12.866  12.992  13.156  13.185  13.425
 13.493  13.584  13.630  13.910  14.091  14.755  14.998
 --------------------------------------------------------------
 
          Ground-State Mulliken Net Atomic Charges

     Atom                 Charge (a.u.)
  ----------------------------------------
      1 C                    -0.072623
      2 C                    -0.102202
      3 N                    -0.155364
      4 C                    -0.157387
      5 C                    -0.094752
      6 C                     0.111590
      7 C                     0.032311
      8 C                    -0.095865
      9 C                     0.018503
     10 N                    -0.185408
     11 N                    -0.276173
     12 C                     0.028003
     13 C                     0.113886
     14 S                     0.415061
     15 N                    -0.282034
     16 C                    -0.064008
     17 S                     0.169986
     18 C                    -0.007218
     19 C                     0.063381
     20 S                     0.093825
     21 C                    -0.007985
     22 C                    -0.055014
     23 C                    -0.164204
     24 C                    -0.165607
     25 N                    -0.166558
     26 S                     0.105015
     27 C                    -0.090899
     28 C                    -0.195501
     29 H                     0.124119
     30 H                     0.128617
     31 H                     0.130162
     32 H                     0.128775
     33 H                     0.131353
     34 H                     0.131155
     35 H                     0.135173
     36 H                     0.133337
     37 H                     0.144550
  ----------------------------------------
  Sum of atomic charges =     0.000000

 -----------------------------------------------------------------
                    Cartesian Multipole Moments
 -----------------------------------------------------------------
    Charge (ESU x 10^10)
                 0.0000
    Dipole Moment (Debye)
         X      -2.6483      Y       1.6794      Z       1.9803
       Tot       3.7089
    Quadrupole Moments (Debye-Ang)
        XX    -163.7355     XY       8.8056     YY    -173.2609
        XZ       5.6355     YZ       1.0283     ZZ    -188.3980
    Octopole Moments (Debye-Ang^2)
       XXX    -296.4804    XXY      77.5239    XYY     -12.9593
       YYY       3.2494    XXZ      93.2497    XYZ      14.0824
       YYZ       1.5396    XZZ       4.7789    YZZ      -7.2968
       ZZZ       5.3913
    Hexadecapole Moments (Debye-Ang^3)
      XXXX  -17645.8838   XXXY    1053.2136   XXYY   -3656.6132
      XYYY    -137.8528   YYYY   -3321.2720   XXXZ     389.7419
      XXYZ      81.5708   XYYZ      63.7384   YYYZ      -4.8947
      XXZZ   -3457.9941   XYZZ      16.1888   YYZZ    -693.7221
      XZZZ      -5.1711   YZZZ       9.0598   ZZZZ    -435.3973
 -----------------------------------------------------------------
 Calculating analytic gradient of the SCF energy
 K construction time:  CPU 2866.53 s  wall 180.99 s
 Gradient of SCF Energy
            1           2           3           4           5           6
    1   0.0011943  -0.0023116   0.0003753   0.0015479  -0.0003730  -0.0000518
    2   0.0003848  -0.0001929   0.0000849  -0.0002891   0.0002565   0.0005490
    3   0.0005338  -0.0004832  -0.0000293  -0.0007477  -0.0001125   0.0010356
            7           8           9          10          11          12
    1  -0.0001847   0.0010226  -0.0000664   0.0003748  -0.0005003  -0.0005332
    2   0.0002897  -0.0001834  -0.0000285   0.0005244  -0.0006465   0.0004839
    3   0.0000694  -0.0007698  -0.0000194   0.0000263   0.0001260   0.0004437
           13          14          15          16          17          18
    1  -0.0006153   0.0007363   0.0003226   0.0033563   0.0026180  -0.0011798
    2  -0.0009008  -0.0004940   0.0004198   0.0003926   0.0005831  -0.0006853
    3   0.0000062  -0.0001003  -0.0000542  -0.0000012   0.0018301  -0.0000572
           19          20          21          22          23          24
    1  -0.0044908   0.0012961  -0.0021519   0.0039100   0.0016236  -0.0026799
    2  -0.0076249  -0.0003187   0.0025795   0.0067438  -0.0017559   0.0027952
    3  -0.0021399   0.0001987  -0.0028322   0.0048581  -0.0003121  -0.0003001
           25          26          27          28          29          30
    1  -0.0002631  -0.0020866   0.0008126  -0.0004513  -0.0001977   0.0005116
    2   0.0001778   0.0008431   0.0009515  -0.0018974  -0.0000273  -0.0004419
    3  -0.0026898   0.0010568  -0.0008852  -0.0003529  -0.0000620   0.0000359
           31          32          33          34          35          36
    1  -0.0005947  -0.0004011  -0.0009437  -0.0002918   0.0011177  -0.0007131
    2  -0.0000132   0.0000559  -0.0000519   0.0002839  -0.0029089   0.0001991
    3  -0.0000213  -0.0000362   0.0003227   0.0003655   0.0006672   0.0001918
           37
    1   0.0002622
    2  -0.0001380
    3   0.0002387
 Max gradient component =       7.625E-03
 RMS gradient           =       1.600E-03
 Gradient time:  CPU 3310.00 s  wall 210.56 s
 Geometry Optimization Parameters
   NAtoms,    NIC,     NZ,  NCons,   NDum,   NFix, NCnnct, MaxDiis
       37     280       0       3       0       0       0       0


** CONSTRAINED OPTIMIZATION IN DELOCALIZED INTERNAL COORDINATES **
   Searching for a Minimum

   Optimization Cycle:   1

                       Coordinates (Angstroms)
     ATOM                X               Y               Z
      1  C         7.6292132649    0.5714418279    0.0039535367
      2  C         6.9056685738    1.4451650934    0.7986467741
      3  N         7.0624203847   -0.3690485488   -0.7464092387
      4  C         5.5293945612    1.3363603968    0.8192315837
      5  C         5.7398728594   -0.4660835338   -0.7173339427
      6  C         4.9135055776    0.3599554154    0.0458070563
      7  C         3.4475882813    0.2263820301    0.0083460587
      8  C         2.6243288547    1.3161028367   -0.0646396035
      9  C         2.7749090285   -1.0297257626    0.0496510139
     10  N         1.2691509982    1.2961510929   -0.0888460192
     11  N         3.3208156816   -2.2446801464    0.1295103969
     12  C         1.3471731202   -1.0648036779    0.0281261193
     13  C         0.6118482715    0.1626128259   -0.0459300972
     14  S         2.1017542853   -3.2961311621    0.1629523986
     15  N         0.8438919622   -2.2945027565    0.0870032567
     16  C        -0.8295219734    0.2470092001   -0.0776301587
     17  S        -1.9227365427   -1.0932438023   -0.0114391200
     18  C        -1.5491864132    1.4166540491   -0.1626776348
     19  C        -3.3139421582   -0.0837741864   -0.0968049058
     20  S        -1.1032459805    3.0862603359   -0.2565212186
     21  C        -2.9568316481    1.2462874691   -0.1737684203
     22  C        -4.6562912339   -0.6258153225   -0.0752579289
     23  C        -2.7956208721    3.5319864929   -0.3096446114
     24  C        -3.6559938915    2.4995377840   -0.2615159911
     25  N        -5.0209120457   -1.6577819601   -0.7806085999
     26  S        -5.9337262349    0.0479809092    0.8993076986
     27  C        -6.3365112729   -1.9515540251   -0.5779331505
     28  C        -6.9994273219   -1.1490356205    0.2900813528
     29  H         8.7106323057    0.6270358464   -0.0335059348
     30  H         7.4205871425    2.1821709835    1.3980940454
     31  H         4.9295754991    1.9854933387    1.4444377604
     32  H         5.3019435976   -1.2391714847   -1.3365301606
     33  H         3.0536539094    2.3085560391   -0.1176541226
     34  H        -3.0542326967    4.5777887788   -0.3698938126
     35  H        -4.7298699334    2.5761923263   -0.2780753741
     36  H        -6.7836020779   -2.7838637134   -1.0997496701
     37  H        -8.0300386978   -1.1952461283    0.5952902583
   Point Group: c1    Number of degrees of freedom:   105


   Energy is  -2595.903219491

              Constraints and their Current Values
                                        Value     Constraint
   Dihedral:        4   6   7   8       42.189       42.246
   Dihedral:       10  13  16  17     -179.124     -179.114
   Dihedral:       17  19  22  25      -45.000      -45.000

 Attempting to Generate Delocalized Internal Coordinates

   Using Lagrange Multiplier Algorithm


108 Hessian modes will be used to form the next step
  Hessian Eigenvalues:
    -0.977753   -0.977753   -0.977753    0.045000    0.045000    0.045000
     0.045000    0.045000    0.045000    0.045000    0.045000    0.045000
     0.045000    0.045000    0.045000    0.045000    0.045000    0.045000
     0.045000    0.045000    0.045000    0.045000    0.045000    0.045000
     0.045001    0.045001    0.045001    0.045001    0.045001    0.045003
     0.045005    0.045007    0.045009    0.045012    0.159961    0.159984
     0.159995    0.159997    0.159998    0.159999    0.160000    0.160000
     0.160000    0.220002    0.224572    0.225458    0.231978    0.233022
     0.234404    0.247446    0.247715    0.249914    0.249956    0.249989
     0.249992    0.249998    0.249998    0.249998    0.249999    0.249999
     0.249999    0.250000    0.250000    0.297515    0.305110    0.316329
     0.317280    0.326677    0.334472    0.354466    0.355754    0.356364
     0.356781    0.356811    0.359242    0.360771    0.361170    0.363916
     0.365007    0.372838    0.385324    0.386480    0.390167    0.393199
     0.397174    0.410394    0.431175    0.455299    0.463153    0.473302
     0.473331    0.475009    0.483101    0.491312    0.496878    0.499411
     0.517641    0.525704    0.538145    0.558610    0.574891    0.584500
     0.591081    0.623467    0.638971    1.022753    1.022753    1.022753

 Minimum Search - Taking P-RFO Step
 Searching for Lamda that Maximizes Along the Constraint modes Only
 Value Taken    Lamda =   0.00001511
 Searching for Lamda that Minimizes Along All other modes
 Value Taken    Lamda =  -0.00090593
 Step Taken.  Stepsize is  0.076734

                             Maximum     Tolerance    Cnvgd?
         Gradient            0.005324       0.000300      NO
         Displacement        0.026195       0.001200      NO
         Energy change     *********       0.000001      NO


 New Cartesian Coordinates Obtained by Inverse Iteration

 Displacement from previous Coordinates is:  0.438371
 ----------------------------------------------------------------
             Standard Nuclear Orientation (Angstroms)
    I     Atom           X                Y                Z
 ----------------------------------------------------------------
    1      C       7.6284314628     0.5345277337     0.0094790969
    2      C       6.9158859234     1.4148076223     0.8069970794
    3      N       7.0527632016    -0.3993813953    -0.7419812121
    4      C       5.5373327899     1.3196355051     0.8268218305
    5      C       5.7298509377    -0.4823279308    -0.7147767560
    6      C       4.9113935330     0.3524752563     0.0478725052
    7      C       3.4436993091     0.2354330741     0.0093384762
    8      C       2.6302624952     1.3335067457    -0.0602214290
    9      C       2.7594415938    -1.0136086329     0.0443613892
   10      N       1.2742152997     1.3270647547    -0.0873663184
   11      N       3.2939272108    -2.2333696381     0.1202886295
   12      C       1.3319287072    -1.0351214044     0.0189425198
   13      C       0.6073766292     0.1990205059    -0.0508245497
   14      S       2.0633161996    -3.2721491313     0.1489599112
   15      N       0.8150814973    -2.2594796576     0.0727933450
   16      C      -0.8347715538     0.2850056825    -0.0841497775
   17      S      -1.9167780755    -1.0632500796    -0.0244402269
   18      C      -1.5573787433     1.4528733062    -0.1652865711
   19      C      -3.3081650924    -0.0631328160    -0.1141092597
   20      S      -1.1258176005     3.1274131509    -0.2533927445
   21      C      -2.9628793725     1.2702527743    -0.1801082329
   22      C      -4.6390871035    -0.6458481888    -0.0864202496
   23      C      -2.8196584495     3.5623698927    -0.3107674273
   24      C      -3.6693954003     2.5214904573    -0.2678152921
   25      N      -4.9936538625    -1.6897654240    -0.7769525714
   26      S      -5.9133135298     0.0200530765     0.8910334872
   27      C      -6.3029110339    -2.0010540944    -0.5571509361
   28      C      -6.9713448672    -1.1905446703     0.3001206247
   29      H       8.7106632932     0.5788477818    -0.0279707968
   30      H       7.4353306476     2.1480807569     1.4072184638
   31      H       4.9468771730     1.9748151670     1.4538414897
   32      H       5.2868571152    -1.2509580971    -1.3355455689
   33      H       3.0747289684     2.3200097283    -0.1127142308
   34      H      -3.0849699991     4.6056970205    -0.3761080784
   35      H      -4.7441404888     2.6089594363    -0.2960010916
   36      H      -6.7383945528    -2.8472184923    -1.0661950684
   37      H      -8.0004670979    -1.2424665353     0.6102991347
 ----------------------------------------------------------------
 Molecular Point Group                 C1    NOp =  1
 Largest Abelian Subgroup              C1    NOp =  1
 Nuclear Repulsion Energy =  2962.4770508079 hartrees
 There are      111 alpha and      111 beta electrons
 Applying Cartesian multipole field
    Component          Value
    ---------          -----
     (2,0,0)        1.00000E-12
     (0,2,0)        2.00000E-11
     (0,0,2)       -3.00000E-10
 Nucleus-field energy     =     0.0000000175 hartrees
 Requested basis set is cc-pVTZ
 There are 342 shells and 982 basis functions
 A cutoff of  1.0D-11 yielded  29207 shell pairs
 There are    231465 function pairs (    302398 Cartesian)
 Smallest overlap matrix eigenvalue = 2.17E-05
 Guess MOs from SCF MO coefficient file
 Reading MOs from coefficient file
 Reading MOs from coefficient file
 Long-range K will be added via erf
 Coulomb attenuation parameter = 0.2 bohr**(-1)
 A restricted hybrid HF-DFT SCF calculation will be
 performed using Pulay DIIS extrapolation
 Exchange:     0.2220 Hartree-Fock + 1.0000 wB97X-D + LR-HF
 Correlation:  1.0000 wB97X-D
 Using SG-2 standard quadrature grid
 Dispersion:   Grimme D
 SCF converges when DIIS error is below 1.0E-08
 Geometry optimization detected.  Setting ReadMinima to 0
 Setting SaveMinima to 0
 using 16 threads for integral computing 
 using 16 threads for integral computing 
 K construction time:  CPU 1078.17 s  wall 70.45 s
 -------------------------------------------------------
 OpenMP BLAS3 based DFT computing Module                
 Release: version 1.0, May 2013, Q-Chem Inc. Pittsburgh 
 -------------------------------------------------------
 ---------------------------------------
  Cycle       Energy         DIIS Error
 ---------------------------------------
    1   -2595.9063921103      2.10E-04
 K construction time:  CPU 1080.90 s  wall 70.47 s
    2   -2595.9036455328      2.28E-05
 K construction time:  CPU 794.20 s  wall 51.77 s
    3   -2595.9037026653      2.30E-05
 K construction time:  CPU 745.60 s  wall 48.60 s
    4   -2595.9037563108      7.50E-06
 K construction time:  CPU 697.42 s  wall 45.54 s
    5   -2595.9037631157      3.61E-06
 K construction time:  CPU 642.33 s  wall 41.95 s
    6   -2595.9037647431      1.20E-06
 K construction time:  CPU 570.83 s  wall 37.20 s
    7   -2595.9037649348      3.69E-07
 K construction time:  CPU 510.83 s  wall 33.21 s
    8   -2595.9037649582      1.44E-07
 K construction time:  CPU 470.23 s  wall 30.45 s
    9   -2595.9037649629      5.54E-08
 K construction time:  CPU 396.02 s  wall 25.58 s
   10   -2595.9037649632      1.95E-08
 K construction time:  CPU 347.40 s  wall 22.45 s
   11   -2595.9037649635      9.84E-09 Convergence criterion met
 ---------------------------------------
 SCF time:  CPU 9873.07 s  wall 657.79 s
 SCF   energy in the final basis set = -2595.9037649635
 Total energy in the final basis set = -2595.9037649635
 
 --------------------------------------------------------------
 
                    Orbital Energies (a.u.)
 --------------------------------------------------------------
 
 Alpha MOs
 -- Occupied --
-89.155 -89.095 -89.092 -89.077 -14.494 -14.487 -14.452 -14.446
-14.435 -10.374 -10.369 -10.362 -10.359 -10.345 -10.339 -10.338
-10.334 -10.329 -10.327 -10.326 -10.326 -10.326 -10.325 -10.318
-10.316 -10.314 -10.304 -10.302  -8.165  -8.110  -8.107  -8.091
 -6.115  -6.109  -6.108  -6.059  -6.056  -6.056  -6.053  -6.052
 -6.050  -6.041  -6.037  -6.033  -1.152  -1.084  -1.072  -1.054
 -1.024  -1.015  -0.958  -0.945  -0.912  -0.910  -0.907  -0.884
 -0.861  -0.846  -0.831  -0.808  -0.775  -0.752  -0.744  -0.728
 -0.722  -0.698  -0.693  -0.676  -0.647  -0.640  -0.623  -0.621
 -0.616  -0.597  -0.584  -0.577  -0.570  -0.567  -0.541  -0.535
 -0.528  -0.527  -0.518  -0.515  -0.512  -0.502  -0.496  -0.490
 -0.487  -0.480  -0.478  -0.463  -0.459  -0.448  -0.440  -0.432
 -0.430  -0.423  -0.402  -0.393  -0.380  -0.373  -0.370  -0.369
 -0.364  -0.357  -0.342  -0.339  -0.327  -0.320  -0.272
 -- Virtual --
 -0.054  -0.003   0.027   0.038   0.043   0.048   0.064   0.075
  0.085   0.087   0.103   0.108   0.113   0.121   0.130   0.132
  0.136   0.145   0.146   0.166   0.168   0.170   0.173   0.181
  0.188   0.193   0.196   0.213   0.215   0.230   0.239   0.244
  0.249   0.254   0.263   0.264   0.269   0.274   0.281   0.289
  0.298   0.298   0.299   0.306   0.308   0.317   0.323   0.325
  0.331   0.334   0.336   0.344   0.345   0.351   0.356   0.359
  0.361   0.362   0.369   0.371   0.374   0.379   0.383   0.386
  0.388   0.391   0.395   0.401   0.402   0.404   0.407   0.413
  0.418   0.422   0.426   0.429   0.434   0.435   0.436   0.440
  0.444   0.448   0.452   0.459   0.459   0.465   0.467   0.467
  0.471   0.472   0.476   0.480   0.481   0.484   0.489   0.492
  0.495   0.502   0.505   0.508   0.515   0.516   0.519   0.522
  0.528   0.531   0.541   0.542   0.544   0.549   0.550   0.555
  0.559   0.564   0.568   0.574   0.577   0.586   0.591   0.596
  0.599   0.612   0.614   0.619   0.623   0.636   0.637   0.646
  0.651   0.653   0.660   0.665   0.669   0.670   0.679   0.688
  0.691   0.695   0.698   0.700   0.711   0.715   0.724   0.725
  0.732   0.733   0.738   0.742   0.743   0.747   0.755   0.763
  0.765   0.770   0.772   0.774   0.781   0.785   0.796   0.798
  0.800   0.808   0.810   0.813   0.818   0.823   0.825   0.834
  0.835   0.846   0.847   0.851   0.854   0.856   0.859   0.863
  0.868   0.878   0.884   0.889   0.895   0.900   0.903   0.911
  0.918   0.923   0.927   0.936   0.937   0.948   0.952   0.955
  0.958   0.960   0.969   0.974   0.976   0.982   0.983   0.994
  0.999   1.015   1.015   1.024   1.026   1.030   1.033   1.042
  1.043   1.048   1.055   1.060   1.066   1.068   1.074   1.080
  1.083   1.087   1.089   1.097   1.105   1.110   1.122   1.127
  1.133   1.139   1.143   1.152   1.156   1.169   1.174   1.184
  1.185   1.190   1.199   1.204   1.206   1.217   1.226   1.228
  1.233   1.239   1.247   1.251   1.254   1.264   1.266   1.277
  1.285   1.288   1.293   1.296   1.301   1.312   1.323   1.337
  1.343   1.349   1.354   1.358   1.369   1.373   1.380   1.383
  1.389   1.401   1.402   1.404   1.408   1.423   1.434   1.440
  1.445   1.449   1.455   1.461   1.462   1.473   1.482   1.485
  1.494   1.497   1.506   1.508   1.521   1.532   1.543   1.550
  1.558   1.566   1.569   1.576   1.583   1.594   1.597   1.603
  1.608   1.611   1.620   1.625   1.631   1.634   1.639   1.644
  1.653   1.658   1.663   1.671   1.675   1.683   1.685   1.687
  1.695   1.697   1.709   1.713   1.716   1.719   1.725   1.738
  1.745   1.749   1.756   1.758   1.764   1.775   1.780   1.789
  1.804   1.808   1.819   1.822   1.834   1.856   1.860   1.869
  1.883   1.887   1.889   1.895   1.897   1.909   1.924   1.926
  1.931   1.940   1.945   1.948   1.957   1.969   1.972   1.980
  1.982   1.994   1.998   2.004   2.011   2.027   2.038   2.049
  2.050   2.064   2.078   2.080   2.084   2.089   2.095   2.111
  2.120   2.121   2.134   2.139   2.146   2.160   2.169   2.174
  2.179   2.189   2.190   2.201   2.203   2.222   2.223   2.231
  2.238   2.243   2.254   2.263   2.266   2.273   2.280   2.287
  2.303   2.305   2.318   2.326   2.344   2.349   2.357   2.360
  2.367   2.373   2.380   2.384   2.394   2.398   2.399   2.405
  2.416   2.433   2.440   2.443   2.449   2.455   2.460   2.463
  2.478   2.483   2.488   2.494   2.506   2.506   2.520   2.527
  2.529   2.535   2.536   2.546   2.550   2.561   2.567   2.573
  2.580   2.589   2.592   2.601   2.614   2.621   2.627   2.636
  2.643   2.647   2.657   2.660   2.666   2.673   2.680   2.687
  2.713   2.730   2.737   2.748   2.752   2.757   2.769   2.774
  2.779   2.786   2.790   2.794   2.794   2.803   2.811   2.814
  2.824   2.834   2.838   2.853   2.857   2.869   2.872   2.877
  2.883   2.885   2.897   2.910   2.913   2.927   2.937   2.941
  2.946   2.949   2.952   2.955   2.965   2.972   2.974   2.979
  2.982   2.986   2.992   3.001   3.006   3.015   3.017   3.027
  3.029   3.031   3.039   3.046   3.054   3.058   3.059   3.063
  3.071   3.074   3.081   3.090   3.093   3.098   3.104   3.105
  3.113   3.121   3.124   3.129   3.133   3.137   3.141   3.147
  3.153   3.159   3.161   3.171   3.174   3.177   3.179   3.184
  3.190   3.192   3.195   3.201   3.203   3.209   3.215   3.220
  3.224   3.228   3.234   3.237   3.239   3.243   3.248   3.251
  3.254   3.258   3.265   3.270   3.271   3.274   3.276   3.284
  3.289   3.294   3.300   3.306   3.307   3.312   3.320   3.329
  3.334   3.341   3.346   3.353   3.354   3.364   3.369   3.375
  3.381   3.383   3.389   3.401   3.402   3.412   3.419   3.423
  3.426   3.430   3.439   3.445   3.451   3.458   3.459   3.467
  3.476   3.477   3.482   3.485   3.494   3.501   3.507   3.515
  3.523   3.530   3.532   3.542   3.546   3.556   3.560   3.574
  3.584   3.587   3.591   3.601   3.605   3.618   3.633   3.636
  3.639   3.649   3.657   3.666   3.668   3.681   3.687   3.692
  3.702   3.719   3.724   3.735   3.742   3.751   3.756   3.758
  3.766   3.773   3.777   3.787   3.792   3.800   3.804   3.817
  3.826   3.832   3.834   3.844   3.846   3.857   3.863   3.864
  3.870   3.873   3.894   3.902   3.915   3.918   3.928   3.932
  3.941   3.944   3.947   3.951   3.962   3.971   3.974   3.977
  3.984   3.988   4.000   4.008   4.013   4.027   4.033   4.050
  4.058   4.074   4.077   4.084   4.090   4.107   4.110   4.121
  4.133   4.139   4.144   4.152   4.159   4.170   4.175   4.184
  4.195   4.197   4.203   4.209   4.214   4.230   4.235   4.245
  4.248   4.253   4.260   4.272   4.287   4.297   4.307   4.313
  4.325   4.335   4.345   4.347   4.351   4.379   4.384   4.392
  4.396   4.404   4.412   4.420   4.432   4.441   4.455   4.460
  4.465   4.473   4.481   4.491   4.497   4.516   4.518   4.525
  4.534   4.547   4.553   4.558   4.574   4.585   4.602   4.609
  4.617   4.635   4.643   4.648   4.659   4.672   4.677   4.685
  4.696   4.711   4.720   4.730   4.737   4.785   4.787   4.792
  4.815   4.816   4.823   4.842   4.844   4.855   4.857   4.871
  4.882   4.890   4.905   4.934   4.937   4.938   4.943   4.953
  4.956   4.963   4.967   4.975   4.991   4.993   4.998   5.006
  5.018   5.029   5.042   5.055   5.070   5.079   5.087   5.091
  5.111   5.114   5.134   5.150   5.155   5.159   5.175   5.196
  5.204   5.211   5.231   5.236   5.253   5.259   5.276   5.283
  5.314   5.318   5.335   5.341   5.355   5.361   5.386   5.399
  5.427   5.437   5.446   5.460   5.466   5.481   5.490   5.515
  5.532   5.556   5.563   5.574   5.604   5.635   5.665   5.689
  5.694   5.702   5.733   5.746   5.764   5.804   5.822   5.826
  5.847   5.861   5.891   5.931   5.945   5.961   6.002   6.059
  6.115   6.141   6.166   6.170   6.188   6.203   6.253   6.290
  6.308   6.319   6.354   6.406   6.489   6.853   7.020   8.043
  8.940   9.769   9.982  10.752  11.134  11.205  11.650  12.007
 12.316  12.487  12.554  12.873  12.994  13.147  13.182  13.417
 13.489  13.585  13.626  13.903  14.077  14.748  14.987
 --------------------------------------------------------------
 
          Ground-State Mulliken Net Atomic Charges

     Atom                 Charge (a.u.)
  ----------------------------------------
      1 C                    -0.072338
      2 C                    -0.102804
      3 N                    -0.155137
      4 C                    -0.157324
      5 C                    -0.094897
      6 C                     0.109995
      7 C                     0.032318
      8 C                    -0.094305
      9 C                     0.018518
     10 N                    -0.184895
     11 N                    -0.275956
     12 C                     0.029749
     13 C                     0.111838
     14 S                     0.413957
     15 N                    -0.282569
     16 C                    -0.063624
     17 S                     0.171888
     18 C                    -0.007673
     19 C                     0.057129
     20 S                     0.092967
     21 C                    -0.006677
     22 C                    -0.051023
     23 C                    -0.163948
     24 C                    -0.165398
     25 N                    -0.166697
     26 S                     0.105260
     27 C                    -0.090172
     28 C                    -0.195839
     29 H                     0.123941
     30 H                     0.128854
     31 H                     0.130575
     32 H                     0.128952
     33 H                     0.131139
     34 H                     0.131954
     35 H                     0.134496
     36 H                     0.133336
     37 H                     0.144410
  ----------------------------------------
  Sum of atomic charges =     0.000000

 -----------------------------------------------------------------
                    Cartesian Multipole Moments
 -----------------------------------------------------------------
    Charge (ESU x 10^10)
                 0.0000
    Dipole Moment (Debye)
         X      -2.6534      Y       1.6656      Z       1.9795
       Tot       3.7058
    Quadrupole Moments (Debye-Ang)
        XX    -163.7498     XY       8.9036     YY    -173.2395
        XZ       5.6157     YZ       0.9019     ZZ    -188.3765
    Octopole Moments (Debye-Ang^2)
       XXX    -288.7288    XXY      76.6165    XYY     -15.7258
       YYY       0.4600    XXZ      94.4035    XYZ      14.7290
       YYZ       1.7469    XZZ       5.6871    YZZ      -8.3018
       ZZZ       6.9446
    Hexadecapole Moments (Debye-Ang^3)
      XXXX  -17590.5196   XXXY    1051.7702   XXYY   -3644.1499
      XYYY    -138.4969   YYYY   -3341.6563   XXXZ     381.8284
      XXYZ      75.3481   XYYZ      63.1478   YYYZ      -6.9237
      XXZZ   -3444.8048   XYZZ      15.9297   YYZZ    -698.5271
      XZZZ      -9.5379   YZZZ       7.5247   ZZZZ    -433.7937
 -----------------------------------------------------------------
 Calculating analytic gradient of the SCF energy
 K construction time:  CPU 2869.64 s  wall 181.30 s
 Gradient of SCF Energy
            1           2           3           4           5           6
    1   0.0000969  -0.0006311   0.0000013   0.0004910   0.0000456  -0.0000317
    2  -0.0000301   0.0001940  -0.0001301   0.0000972   0.0000458  -0.0000307
    3   0.0000657  -0.0000220  -0.0001338   0.0001714  -0.0001336   0.0000712
            7           8           9          10          11          12
    1  -0.0000938   0.0003419   0.0002294   0.0002759   0.0000165  -0.0001710
    2  -0.0002031   0.0000074  -0.0000015   0.0001401   0.0000937  -0.0002126
    3   0.0001892  -0.0003052   0.0001626  -0.0000377  -0.0001478   0.0002465
           13          14          15          16          17          18
    1  -0.0004957   0.0001913  -0.0007254   0.0000756   0.0007137  -0.0005349
    2  -0.0005809   0.0005485   0.0001750   0.0003734  -0.0000560  -0.0002015
    3  -0.0000160   0.0000268  -0.0001208  -0.0002365   0.0022919  -0.0001452
           19          20          21          22          23          24
    1  -0.0003058  -0.0001816   0.0006855   0.0014926   0.0002748  -0.0001022
    2  -0.0027991   0.0000986   0.0004255   0.0011950  -0.0001634   0.0017668
    3  -0.0021110   0.0000839  -0.0018676   0.0039205  -0.0001218  -0.0000096
           25          26          27          28          29          30
    1  -0.0014348  -0.0003817   0.0006244  -0.0000347  -0.0000595   0.0001784
    2   0.0007262  -0.0004634   0.0000092  -0.0003377  -0.0000048  -0.0001137
    3  -0.0025408   0.0006519   0.0000222  -0.0006005  -0.0000257   0.0001062
           31          32          33          34          35          36
    1  -0.0000482  -0.0000350  -0.0000829  -0.0000804  -0.0000425  -0.0002697
    2   0.0000402  -0.0000109   0.0000410   0.0001230  -0.0009237   0.0000653
    3  -0.0000476  -0.0000279   0.0000773   0.0001512   0.0002886   0.0000012
           37
    1   0.0000078
    2   0.0000972
    3   0.0001228
 Max gradient component =       3.920E-03
 RMS gradient           =       7.349E-04
 Gradient time:  CPU 3311.35 s  wall 210.83 s
 Geometry Optimization Parameters
   NAtoms,    NIC,     NZ,  NCons,   NDum,   NFix, NCnnct, MaxDiis
       37     280       0       3       0       0       0       0

 Cartesian Hessian Update
 Hessian Updated using BFGS Update


** CONSTRAINED OPTIMIZATION IN DELOCALIZED INTERNAL COORDINATES **
   Searching for a Minimum

   Optimization Cycle:   2

                       Coordinates (Angstroms)
     ATOM                X               Y               Z
      1  C         7.6284314628    0.5345277337    0.0094790969
      2  C         6.9158859234    1.4148076223    0.8069970794
      3  N         7.0527632016   -0.3993813953   -0.7419812121
      4  C         5.5373327899    1.3196355051    0.8268218305
      5  C         5.7298509377   -0.4823279308   -0.7147767560
      6  C         4.9113935330    0.3524752563    0.0478725052
      7  C         3.4436993091    0.2354330741    0.0093384762
      8  C         2.6302624952    1.3335067457   -0.0602214290
      9  C         2.7594415938   -1.0136086329    0.0443613892
     10  N         1.2742152997    1.3270647547   -0.0873663184
     11  N         3.2939272108   -2.2333696381    0.1202886295
     12  C         1.3319287072   -1.0351214044    0.0189425198
     13  C         0.6073766292    0.1990205059   -0.0508245497
     14  S         2.0633161996   -3.2721491313    0.1489599112
     15  N         0.8150814973   -2.2594796576    0.0727933450
     16  C        -0.8347715538    0.2850056825   -0.0841497775
     17  S        -1.9167780755   -1.0632500796   -0.0244402269
     18  C        -1.5573787433    1.4528733062   -0.1652865711
     19  C        -3.3081650924   -0.0631328160   -0.1141092597
     20  S        -1.1258176005    3.1274131509   -0.2533927445
     21  C        -2.9628793725    1.2702527743   -0.1801082329
     22  C        -4.6390871035   -0.6458481888   -0.0864202496
     23  C        -2.8196584495    3.5623698927   -0.3107674273
     24  C        -3.6693954003    2.5214904573   -0.2678152921
     25  N        -4.9936538625   -1.6897654240   -0.7769525714
     26  S        -5.9133135298    0.0200530765    0.8910334872
     27  C        -6.3029110339   -2.0010540944   -0.5571509361
     28  C        -6.9713448672   -1.1905446703    0.3001206247
     29  H         8.7106632932    0.5788477818   -0.0279707968
     30  H         7.4353306476    2.1480807569    1.4072184638
     31  H         4.9468771730    1.9748151670    1.4538414897
     32  H         5.2868571152   -1.2509580971   -1.3355455689
     33  H         3.0747289684    2.3200097283   -0.1127142308
     34  H        -3.0849699991    4.6056970205   -0.3761080784
     35  H        -4.7441404888    2.6089594363   -0.2960010916
     36  H        -6.7383945528   -2.8472184923   -1.0661950684
     37  H        -8.0004670979   -1.2424665353    0.6102991347
   Point Group: c1    Number of degrees of freedom:   105


   Energy is  -2595.903764963

              Constraints and their Current Values
                                        Value     Constraint
   Dihedral:        4   6   7   8       42.246       42.246
   Dihedral:       10  13  16  17     -179.114     -179.114
   Dihedral:       17  19  22  25      -45.000      -45.000
 Hessian Updated using BFGS Update

   Using Lagrange Multiplier Algorithm


104 Hessian modes will be used to form the next step
  Hessian Eigenvalues:
    -0.977694    0.037480    0.045000    0.045000    0.045000    0.045000
     0.045000    0.045000    0.045000    0.045000    0.045000    0.045000
     0.045000    0.045000    0.045000    0.045000    0.045000    0.045000
     0.045000    0.045000    0.045000    0.045001    0.045001    0.045001
     0.045001    0.045001    0.045003    0.045005    0.045007    0.045009
     0.045012    0.046461    0.143568    0.159965    0.159985    0.159997
     0.159999    0.159999    0.160000    0.160000    0.160340    0.208872
     0.220148    0.224646    0.226563    0.232069    0.233067    0.234451
     0.247497    0.247719    0.249915    0.249956    0.249989    0.249997
     0.249998    0.249998    0.249998    0.249999    0.249999    0.250000
     0.285158    0.298586    0.305304    0.316705    0.317169    0.328032
     0.334538    0.354500    0.355742    0.356358    0.356802    0.356870
     0.359258    0.360769    0.361123    0.364327    0.365045    0.373190
     0.383769    0.386920    0.390319    0.393312    0.405288    0.414428
     0.431285    0.455655    0.466167    0.473302    0.473651    0.474932
     0.483122    0.491946    0.497170    0.499438    0.517546    0.526414
     0.538805    0.559196    0.574901    0.585241    0.591436    0.623574
     0.637812    1.022851

 Minimum Search - Taking P-RFO Step
 Searching for Lamda that Maximizes Along the Constraint modes Only
 Value Taken    Lamda =   0.00000005
 Searching for Lamda that Minimizes Along All other modes
 Value Taken    Lamda =  -0.00020311
 Step Taken.  Stepsize is  0.058111

                             Maximum     Tolerance    Cnvgd?
         Gradient            0.001270       0.000300      NO
         Displacement        0.019502       0.001200      NO
         Energy change     -0.000545       0.000001      NO


 New Cartesian Coordinates Obtained by Inverse Iteration

 Displacement from previous Coordinates is:  0.176401
 ----------------------------------------------------------------
             Standard Nuclear Orientation (Angstroms)
    I     Atom           X                Y                Z
 ----------------------------------------------------------------
    1      C       7.6258070265     0.5414605537     0.0183413674
    2      C       6.9091393378     1.4167998500     0.8172109193
    3      N       7.0543053244    -0.3920814687    -0.7365120100
    4      C       5.5301858953     1.3169106778     0.8335731504
    5      C       5.7315870533    -0.4788920085    -0.7134433724
    6      C       4.9086426905     0.3518638357     0.0486671035
    7      C       3.4411916582     0.2322127040     0.0075148844
    8      C       2.6260492213     1.3294215555    -0.0579089115
    9      C       2.7588982533    -1.0181577351     0.0352169903
   10      N       1.2701807001     1.3219863753    -0.0869120075
   11      N       3.2951415005    -2.2377414273     0.1077375351
   12      C       1.3317844416    -1.0411407565     0.0063921126
   13      C       0.6049834307     0.1932789444    -0.0577593634
   14      S       2.0670590502    -3.2800862017     0.1287735548
   15      N       0.8187170153    -2.2676201862     0.0546155848
   16      C      -0.8380101309     0.2818333652    -0.0923978006
   17      S      -1.9264793411    -1.0607539423    -0.0423547884
   18      C      -1.5560873775     1.4528749679    -0.1688184207
   19      C      -3.3124806582    -0.0553722799    -0.1314986220
   20      S      -1.1169757397     3.1254789194    -0.2502367007
   21      C      -2.9634988559     1.2759168456    -0.1870380886
   22      C      -4.6395443717    -0.6504798007    -0.0931851787
   23      C      -2.8087758732     3.5673153992    -0.3111779739
   24      C      -3.6633986667     2.5302228826    -0.2734298386
   25      N      -4.9968742247    -1.6997613359    -0.7713111476
   26      S      -5.9063179530     0.0286124013     0.8822933135
   27      C      -6.3043598293    -2.0104286176    -0.5367031271
   28      C      -6.9674211801    -1.1902418765     0.3162726977
   29      H       8.7081337669     0.5892257913    -0.0166604163
   30      H       7.4230136253     2.1516641377     1.4200641217
   31      H       4.9371338619     1.9682656973     1.4619242249
   32      H       5.2931809061    -1.2474221657    -1.3373955940
   33      H       3.0710468145     2.3159956278    -0.1065999051
   34      H      -3.0685952607     4.6115167470    -0.3792881611
   35      H      -4.7368112077     2.6339320276    -0.3107272252
   36      H      -6.7398374511    -2.8641188149    -1.0327662891
   37      H      -7.9944762875    -1.2398274478     0.6335969760
 ----------------------------------------------------------------
 Molecular Point Group                 C1    NOp =  1
 Largest Abelian Subgroup              C1    NOp =  1
 Nuclear Repulsion Energy =  2962.4598542112 hartrees
 There are      111 alpha and      111 beta electrons
 Applying Cartesian multipole field
    Component          Value
    ---------          -----
     (2,0,0)        1.00000E-12
     (0,2,0)        2.00000E-11
     (0,0,2)       -3.00000E-10
 Nucleus-field energy     =     0.0000000180 hartrees
 Requested basis set is cc-pVTZ
 There are 342 shells and 982 basis functions
 A cutoff of  1.0D-11 yielded  29206 shell pairs
 There are    231496 function pairs (    302452 Cartesian)
 Smallest overlap matrix eigenvalue = 2.14E-05
 Guess MOs from SCF MO coefficient file
 Reading MOs from coefficient file
 Reading MOs from coefficient file
 Long-range K will be added via erf
 Coulomb attenuation parameter = 0.2 bohr**(-1)
 A restricted hybrid HF-DFT SCF calculation will be
 performed using Pulay DIIS extrapolation
 Exchange:     0.2220 Hartree-Fock + 1.0000 wB97X-D + LR-HF
 Correlation:  1.0000 wB97X-D
 Using SG-2 standard quadrature grid
 Dispersion:   Grimme D
 SCF converges when DIIS error is below 1.0E-08
 Geometry optimization detected.  Setting ReadMinima to 0
 Setting SaveMinima to 0
 using 16 threads for integral computing 
 using 16 threads for integral computing 
 K construction time:  CPU 1083.30 s  wall 70.63 s
 -------------------------------------------------------
 OpenMP BLAS3 based DFT computing Module                
 Release: version 1.0, May 2013, Q-Chem Inc. Pittsburgh 
 -------------------------------------------------------
 ---------------------------------------
  Cycle       Energy         DIIS Error
 ---------------------------------------
    1   -2595.9050646206      1.24E-04
 K construction time:  CPU 1082.49 s  wall 70.52 s
    2   -2595.9038293470      1.27E-05
 K construction time:  CPU 753.39 s  wall 49.05 s
    3   -2595.9038571598      1.12E-05
 K construction time:  CPU 710.31 s  wall 46.30 s
    4   -2595.9038707515      4.25E-06
 K construction time:  CPU 659.20 s  wall 43.04 s
    5   -2595.9038734216      1.79E-06
 K construction time:  CPU 593.81 s  wall 38.77 s
    6   -2595.9038738148      7.11E-07
 K construction time:  CPU 533.56 s  wall 34.80 s
    7   -2595.9038738769      2.38E-07
 K construction time:  CPU 481.72 s  wall 31.27 s
    8   -2595.9038738858      1.21E-07
 K construction time:  CPU 443.90 s  wall 28.73 s
    9   -2595.9038738890      4.14E-08
 K construction time:  CPU 377.13 s  wall 24.39 s
   10   -2595.9038738915      1.55E-08
 K construction time:  CPU 332.30 s  wall 21.44 s
   11   -2595.9038738933      6.52E-09 Convergence criterion met
 ---------------------------------------
 SCF time:  CPU 9528.67 s  wall 634.81 s
 SCF   energy in the final basis set = -2595.9038738933
 Total energy in the final basis set = -2595.9038738933
 
 --------------------------------------------------------------
 
                    Orbital Energies (a.u.)
 --------------------------------------------------------------
 
 Alpha MOs
 -- Occupied --
-89.155 -89.094 -89.092 -89.077 -14.493 -14.487 -14.452 -14.446
-14.435 -10.374 -10.369 -10.362 -10.359 -10.345 -10.340 -10.338
-10.334 -10.329 -10.328 -10.326 -10.326 -10.326 -10.325 -10.318
-10.316 -10.314 -10.304 -10.302  -8.165  -8.110  -8.106  -8.091
 -6.115  -6.109  -6.109  -6.059  -6.056  -6.055  -6.053  -6.052
 -6.049  -6.041  -6.037  -6.033  -1.152  -1.085  -1.072  -1.054
 -1.024  -1.015  -0.958  -0.945  -0.912  -0.910  -0.907  -0.884
 -0.861  -0.846  -0.831  -0.809  -0.775  -0.752  -0.744  -0.728
 -0.722  -0.698  -0.693  -0.676  -0.647  -0.640  -0.623  -0.621
 -0.616  -0.597  -0.584  -0.577  -0.570  -0.567  -0.541  -0.536
 -0.528  -0.527  -0.519  -0.515  -0.512  -0.502  -0.496  -0.490
 -0.486  -0.480  -0.478  -0.463  -0.459  -0.448  -0.440  -0.432
 -0.430  -0.423  -0.402  -0.393  -0.380  -0.374  -0.370  -0.369
 -0.364  -0.357  -0.342  -0.339  -0.327  -0.320  -0.272
 -- Virtual --
 -0.054  -0.003   0.027   0.038   0.043   0.049   0.064   0.074
  0.086   0.087   0.103   0.108   0.113   0.121   0.130   0.132
  0.136   0.145   0.146   0.166   0.168   0.170   0.173   0.181
  0.188   0.193   0.197   0.213   0.215   0.230   0.239   0.244
  0.249   0.255   0.262   0.264   0.269   0.275   0.281   0.289
  0.298   0.299   0.299   0.306   0.307   0.317   0.323   0.325
  0.331   0.334   0.336   0.344   0.345   0.351   0.356   0.359
  0.361   0.362   0.369   0.372   0.374   0.379   0.383   0.386
  0.388   0.390   0.395   0.401   0.402   0.404   0.406   0.413
  0.418   0.422   0.426   0.429   0.434   0.435   0.436   0.440
  0.445   0.447   0.452   0.459   0.459   0.465   0.467   0.467
  0.471   0.473   0.476   0.480   0.481   0.484   0.489   0.492
  0.495   0.502   0.505   0.508   0.515   0.515   0.519   0.522
  0.528   0.531   0.541   0.542   0.544   0.549   0.550   0.555
  0.559   0.564   0.568   0.574   0.577   0.586   0.591   0.597
  0.599   0.612   0.614   0.619   0.623   0.636   0.637   0.645
  0.651   0.653   0.660   0.665   0.669   0.670   0.679   0.688
  0.691   0.695   0.698   0.700   0.712   0.715   0.724   0.726
  0.732   0.733   0.738   0.742   0.743   0.747   0.755   0.763
  0.765   0.770   0.772   0.774   0.781   0.785   0.795   0.798
  0.800   0.808   0.810   0.813   0.818   0.823   0.825   0.834
  0.835   0.846   0.847   0.851   0.854   0.857   0.859   0.863
  0.868   0.878   0.884   0.889   0.894   0.900   0.903   0.911
  0.918   0.923   0.926   0.936   0.937   0.948   0.952   0.954
  0.958   0.960   0.969   0.974   0.976   0.982   0.984   0.994
  0.999   1.015   1.015   1.024   1.026   1.030   1.032   1.041
  1.043   1.047   1.055   1.060   1.066   1.067   1.074   1.080
  1.083   1.086   1.090   1.097   1.105   1.110   1.122   1.127
  1.134   1.139   1.143   1.153   1.156   1.168   1.175   1.184
  1.186   1.190   1.200   1.204   1.207   1.217   1.226   1.228
  1.233   1.238   1.248   1.253   1.253   1.264   1.266   1.277
  1.285   1.288   1.293   1.296   1.301   1.312   1.323   1.336
  1.344   1.350   1.353   1.358   1.369   1.373   1.379   1.383
  1.388   1.400   1.402   1.405   1.407   1.423   1.433   1.440
  1.445   1.449   1.455   1.460   1.461   1.473   1.483   1.485
  1.495   1.497   1.506   1.508   1.521   1.532   1.544   1.550
  1.558   1.566   1.570   1.576   1.583   1.594   1.597   1.603
  1.608   1.611   1.620   1.625   1.630   1.634   1.639   1.644
  1.654   1.658   1.663   1.671   1.675   1.683   1.686   1.687
  1.695   1.698   1.709   1.714   1.717   1.719   1.726   1.739
  1.745   1.750   1.757   1.760   1.764   1.774   1.780   1.788
  1.803   1.809   1.819   1.822   1.835   1.856   1.860   1.869
  1.883   1.888   1.889   1.895   1.898   1.908   1.924   1.926
  1.930   1.939   1.944   1.949   1.957   1.970   1.972   1.979
  1.982   1.994   1.998   2.003   2.011   2.028   2.037   2.049
  2.050   2.065   2.079   2.081   2.084   2.090   2.094   2.111
  2.119   2.121   2.133   2.139   2.146   2.161   2.170   2.174
  2.178   2.188   2.190   2.201   2.203   2.222   2.223   2.230
  2.238   2.243   2.254   2.264   2.264   2.273   2.280   2.287
  2.303   2.305   2.318   2.326   2.344   2.349   2.358   2.360
  2.367   2.373   2.380   2.384   2.394   2.398   2.400   2.405
  2.417   2.432   2.440   2.443   2.449   2.455   2.460   2.463
  2.478   2.483   2.489   2.494   2.506   2.507   2.519   2.527
  2.528   2.535   2.535   2.546   2.550   2.560   2.567   2.574
  2.579   2.588   2.591   2.601   2.614   2.620   2.627   2.637
  2.641   2.647   2.658   2.660   2.666   2.673   2.679   2.688
  2.714   2.731   2.736   2.748   2.751   2.757   2.769   2.774
  2.779   2.785   2.791   2.794   2.795   2.804   2.810   2.814
  2.824   2.834   2.838   2.853   2.857   2.868   2.871   2.877
  2.883   2.886   2.898   2.910   2.913   2.926   2.937   2.941
  2.946   2.950   2.952   2.955   2.965   2.972   2.974   2.979
  2.982   2.985   2.992   3.001   3.006   3.014   3.017   3.027
  3.028   3.031   3.039   3.046   3.054   3.058   3.059   3.064
  3.071   3.074   3.081   3.089   3.093   3.098   3.104   3.105
  3.113   3.121   3.123   3.129   3.132   3.136   3.141   3.148
  3.152   3.159   3.161   3.170   3.174   3.177   3.180   3.184
  3.191   3.192   3.196   3.200   3.204   3.209   3.215   3.219
  3.224   3.228   3.234   3.237   3.240   3.243   3.248   3.251
  3.253   3.257   3.265   3.270   3.271   3.273   3.276   3.284
  3.288   3.294   3.300   3.306   3.308   3.312   3.320   3.328
  3.334   3.340   3.346   3.353   3.354   3.364   3.369   3.376
  3.381   3.383   3.389   3.401   3.403   3.412   3.420   3.423
  3.425   3.430   3.439   3.445   3.452   3.458   3.460   3.467
  3.476   3.477   3.482   3.485   3.494   3.501   3.507   3.515
  3.522   3.530   3.532   3.542   3.547   3.556   3.560   3.573
  3.583   3.587   3.591   3.601   3.604   3.617   3.633   3.636
  3.640   3.649   3.657   3.667   3.668   3.682   3.687   3.692
  3.702   3.719   3.723   3.735   3.742   3.751   3.756   3.758
  3.765   3.774   3.776   3.785   3.792   3.799   3.804   3.817
  3.826   3.832   3.834   3.845   3.846   3.858   3.863   3.864
  3.870   3.873   3.893   3.901   3.915   3.918   3.927   3.932
  3.941   3.944   3.946   3.950   3.962   3.971   3.974   3.977
  3.985   3.989   4.000   4.008   4.013   4.027   4.032   4.049
  4.058   4.073   4.076   4.084   4.090   4.106   4.109   4.121
  4.133   4.139   4.144   4.153   4.158   4.169   4.175   4.184
  4.195   4.197   4.203   4.209   4.214   4.229   4.235   4.245
  4.248   4.253   4.260   4.272   4.287   4.297   4.307   4.313
  4.324   4.335   4.344   4.347   4.351   4.379   4.384   4.392
  4.395   4.403   4.412   4.420   4.432   4.440   4.455   4.460
  4.465   4.472   4.480   4.491   4.497   4.516   4.518   4.525
  4.534   4.547   4.554   4.558   4.574   4.585   4.603   4.610
  4.617   4.634   4.643   4.648   4.658   4.672   4.677   4.684
  4.697   4.711   4.719   4.731   4.737   4.785   4.786   4.792
  4.814   4.816   4.823   4.841   4.845   4.854   4.857   4.870
  4.883   4.892   4.905   4.934   4.937   4.938   4.943   4.953
  4.956   4.963   4.966   4.975   4.990   4.993   4.998   5.006
  5.019   5.029   5.042   5.055   5.070   5.078   5.087   5.093
  5.112   5.114   5.133   5.150   5.154   5.160   5.175   5.196
  5.204   5.212   5.233   5.236   5.253   5.259   5.276   5.282
  5.314   5.317   5.334   5.340   5.354   5.361   5.385   5.399
  5.428   5.437   5.445   5.462   5.466   5.481   5.490   5.515
  5.532   5.556   5.564   5.575   5.604   5.635   5.665   5.691
  5.694   5.701   5.733   5.745   5.763   5.804   5.822   5.829
  5.847   5.862   5.891   5.933   5.946   5.962   6.001   6.060
  6.116   6.140   6.164   6.170   6.188   6.204   6.252   6.296
  6.308   6.319   6.353   6.406   6.489   6.853   7.020   8.054
  8.939   9.769   9.976  10.744  11.136  11.198  11.639  11.998
 12.307  12.484  12.550  12.869  13.006  13.149  13.174  13.424
 13.483  13.584  13.629  13.904  14.089  14.749  14.985
 --------------------------------------------------------------
 
          Ground-State Mulliken Net Atomic Charges

     Atom                 Charge (a.u.)
  ----------------------------------------
      1 C                    -0.072378
      2 C                    -0.102935
      3 N                    -0.155042
      4 C                    -0.157513
      5 C                    -0.095078
      6 C                     0.110046
      7 C                     0.032517
      8 C                    -0.094551
      9 C                     0.019342
     10 N                    -0.184701
     11 N                    -0.276680
     12 C                     0.028849
     13 C                     0.111823
     14 S                     0.414822
     15 N                    -0.282381
     16 C                    -0.064256
     17 S                     0.171219
     18 C                    -0.006090
     19 C                     0.055834
     20 S                     0.093034
     21 C                    -0.006621
     22 C                    -0.049213
     23 C                    -0.163775
     24 C                    -0.167037
     25 N                    -0.166462
     26 S                     0.104848
     27 C                    -0.089743
     28 C                    -0.196163
     29 H                     0.123852
     30 H                     0.128985
     31 H                     0.130635
     32 H                     0.128993
     33 H                     0.130987
     34 H                     0.132046
     35 H                     0.135061
     36 H                     0.133244
     37 H                     0.144482
  ----------------------------------------
  Sum of atomic charges =     0.000000

 -----------------------------------------------------------------
                    Cartesian Multipole Moments
 -----------------------------------------------------------------
    Charge (ESU x 10^10)
                 0.0000
    Dipole Moment (Debye)
         X      -2.6543      Y       1.6811      Z       1.9758
       Tot       3.7115
    Quadrupole Moments (Debye-Ang)
        XX    -163.9962     XY       8.7689     YY    -173.1211
        XZ       5.5340     YZ       0.8753     ZZ    -188.3542
    Octopole Moments (Debye-Ang^2)
       XXX    -289.4800    XXY      76.6946    XYY     -15.7242
       YYY       0.6576    XXZ      96.0328    XYZ      15.4567
       YYZ       2.3316    XZZ       5.9222    YZZ      -8.0516
       ZZZ       8.9587
    Hexadecapole Moments (Debye-Ang^3)
      XXXX  -17600.4884   XXXY    1046.8731   XXYY   -3640.4458
      XYYY    -139.4043   YYYY   -3348.2376   XXXZ     373.7645
      XXYZ      72.1449   XYYZ      62.0661   YYYZ     -10.8692
      XXZZ   -3441.1748   XYZZ      15.1482   YYZZ    -700.2783
      XZZZ     -11.2267   YZZZ       3.5712   ZZZZ    -432.3893
 -----------------------------------------------------------------
 Calculating analytic gradient of the SCF energy
 K construction time:  CPU 2872.71 s  wall 181.48 s
 Gradient of SCF Energy
            1           2           3           4           5           6
    1  -0.0001385   0.0002485   0.0000055  -0.0001735   0.0000017   0.0000007
    2  -0.0001160   0.0001277   0.0000061  -0.0000914   0.0000412  -0.0000317
    3  -0.0000796   0.0000218   0.0000150   0.0002907  -0.0000511  -0.0003456
            7           8           9          10          11          12
    1  -0.0000376  -0.0002475  -0.0000703  -0.0001837  -0.0003426   0.0001826
    2  -0.0001179  -0.0000508   0.0003109   0.0000967  -0.0001740   0.0003574
    3   0.0003265  -0.0001621   0.0000688  -0.0000100  -0.0000025   0.0000447
           13          14          15          16          17          18
    1   0.0001012   0.0002028   0.0004991  -0.0003584  -0.0008127  -0.0000098
    2   0.0000733  -0.0007334  -0.0000152   0.0003509   0.0005443  -0.0000810
    3  -0.0000356   0.0000047   0.0000380  -0.0002404   0.0023244  -0.0001662
           19          20          21          22          23          24
    1   0.0005694  -0.0000996   0.0004697   0.0005807  -0.0003257   0.0003607
    2   0.0007232   0.0000579  -0.0003867  -0.0027355  -0.0000158   0.0001966
    3  -0.0026278   0.0000390  -0.0012323   0.0038966   0.0000405   0.0002043
           25          26          27          28          29          30
    1  -0.0012544   0.0003354   0.0004341  -0.0000261   0.0000405  -0.0000239
    2   0.0016350  -0.0005002  -0.0000091   0.0002288   0.0000216  -0.0000212
    3  -0.0024996  -0.0000804   0.0000519   0.0001182   0.0000113   0.0000406
           31          32          33          34          35          36
    1   0.0000464   0.0000688   0.0001223   0.0000850  -0.0002414   0.0000294
    2   0.0000119   0.0000267   0.0000110  -0.0000787   0.0002073   0.0000315
    3  -0.0000558   0.0000060  -0.0000021   0.0000225   0.0000389  -0.0000608
           37
    1  -0.0000387
    2   0.0000987
    3   0.0000476
 Max gradient component =       3.897E-03
 RMS gradient           =       6.900E-04
 Gradient time:  CPU 3314.86 s  wall 211.05 s
 Geometry Optimization Parameters
   NAtoms,    NIC,     NZ,  NCons,   NDum,   NFix, NCnnct, MaxDiis
       37     280       0       3       0       0       0       0

 Cartesian Hessian Update
 Hessian Updated using BFGS Update


** CONSTRAINED OPTIMIZATION IN DELOCALIZED INTERNAL COORDINATES **
   Searching for a Minimum

   Optimization Cycle:   3

                       Coordinates (Angstroms)
     ATOM                X               Y               Z
      1  C         7.6258070265    0.5414605537    0.0183413674
      2  C         6.9091393378    1.4167998500    0.8172109193
      3  N         7.0543053244   -0.3920814687   -0.7365120100
      4  C         5.5301858953    1.3169106778    0.8335731504
      5  C         5.7315870533   -0.4788920085   -0.7134433724
      6  C         4.9086426905    0.3518638357    0.0486671035
      7  C         3.4411916582    0.2322127040    0.0075148844
      8  C         2.6260492213    1.3294215555   -0.0579089115
      9  C         2.7588982533   -1.0181577351    0.0352169903
     10  N         1.2701807001    1.3219863753   -0.0869120075
     11  N         3.2951415005   -2.2377414273    0.1077375351
     12  C         1.3317844416   -1.0411407565    0.0063921126
     13  C         0.6049834307    0.1932789444   -0.0577593634
     14  S         2.0670590502   -3.2800862017    0.1287735548
     15  N         0.8187170153   -2.2676201862    0.0546155848
     16  C        -0.8380101309    0.2818333652   -0.0923978006
     17  S        -1.9264793411   -1.0607539423   -0.0423547884
     18  C        -1.5560873775    1.4528749679   -0.1688184207
     19  C        -3.3124806582   -0.0553722799   -0.1314986220
     20  S        -1.1169757397    3.1254789194   -0.2502367007
     21  C        -2.9634988559    1.2759168456   -0.1870380886
     22  C        -4.6395443717   -0.6504798007   -0.0931851787
     23  C        -2.8087758732    3.5673153992   -0.3111779739
     24  C        -3.6633986667    2.5302228826   -0.2734298386
     25  N        -4.9968742247   -1.6997613359   -0.7713111476
     26  S        -5.9063179530    0.0286124013    0.8822933135
     27  C        -6.3043598293   -2.0104286176   -0.5367031271
     28  C        -6.9674211801   -1.1902418765    0.3162726977
     29  H         8.7081337669    0.5892257913   -0.0166604163
     30  H         7.4230136253    2.1516641377    1.4200641217
     31  H         4.9371338619    1.9682656973    1.4619242249
     32  H         5.2931809061   -1.2474221657   -1.3373955940
     33  H         3.0710468145    2.3159956278   -0.1065999051
     34  H        -3.0685952607    4.6115167470   -0.3792881611
     35  H        -4.7368112077    2.6339320276   -0.3107272252
     36  H        -6.7398374511   -2.8641188149   -1.0327662891
     37  H        -7.9944762875   -1.2398274478    0.6335969760
   Point Group: c1    Number of degrees of freedom:   105


   Energy is  -2595.903873893

              Constraints and their Current Values
                                        Value     Constraint
   Dihedral:        4   6   7   8       42.246       42.246
   Dihedral:       10  13  16  17     -179.114     -179.114
   Dihedral:       17  19  22  25      -45.000      -45.000
 Hessian Updated using BFGS Update

 87 Hessian modes will be used to form the next step
  Hessian Eigenvalues:
     0.024835    0.045000    0.045000    0.045000    0.045000    0.045000
     0.045000    0.045001    0.045001    0.045001    0.045001    0.045001
     0.045002    0.045005    0.045007    0.045009    0.045012    0.045267
     0.046068    0.154623    0.159969    0.159989    0.159998    0.159999
     0.160000    0.160000    0.160080    0.161034    0.220072    0.221761
     0.224925    0.227103    0.232246    0.233215    0.234482    0.247512
     0.247724    0.249915    0.249956    0.249989    0.249998    0.249998
     0.249999    0.258992    0.297375    0.304723    0.312373    0.316811
     0.317510    0.332022    0.338511    0.354520    0.355783    0.356405
     0.356803    0.356905    0.359274    0.360780    0.361364    0.364728
     0.365107    0.373137    0.385931    0.388005    0.390847    0.402205
     0.404147    0.416150    0.431295    0.456199    0.464775    0.473302
[...]
     25  N        -4.9964315497   -1.7133143829   -0.7516258655
     26  S        -5.9047081360    0.0487476482    0.8678965419
     27  C        -6.3029734224   -2.0215647813   -0.5069422059
     28  C        -6.9645406814   -1.1848601407    0.3303448515
     29  H         8.7081966695    0.5858527505   -0.0025575886
     30  H         7.4212383866    2.1417864197    1.4391643479
     31  H         4.9349323906    1.9600509843    1.4750551163
     32  H         5.2941949766   -1.2392724305   -1.3422160882
     33  H         3.0708214266    2.3192098543   -0.0924523817
     34  H        -3.0695847044    4.6123169345   -0.3854746222
     35  H        -4.7366564400    2.6327942268   -0.3313403825
     36  H        -6.7380955153   -2.8868356502   -0.9828087813
     37  H        -7.9904477007   -1.2309058434    0.6517257150
   Point Group: c1    Number of degrees of freedom:   105


   Energy is  -2595.903927805

              Constraints and their Current Values
                                        Value     Constraint
   Dihedral:        4   6   7   8       42.246       42.246
   Dihedral:       10  13  16  17     -179.114     -179.114
   Dihedral:       17  19  22  25      -45.000      -45.000
 Hessian Updated using BFGS Update

 89 Hessian modes will be used to form the next step
  Hessian Eigenvalues:
     0.010496    0.030285    0.044837    0.045000    0.045000    0.045000
     0.045000    0.045001    0.045001    0.045001    0.045002    0.045005
     0.045005    0.045008    0.045009    0.045019    0.045127    0.045382
     0.046549    0.146398    0.156393    0.159962    0.159986    0.159995
     0.160001    0.160012    0.160112    0.160513    0.211239    0.220046
     0.223943    0.228489    0.232270    0.233672    0.234511    0.245228
     0.247378    0.248055    0.248400    0.249926    0.249964    0.249993
     0.249998    0.252532    0.259622    0.288122    0.298058    0.311895
     0.316730    0.321597    0.328416    0.333772    0.354014    0.355542
     0.355777    0.356792    0.356898    0.357179    0.359276    0.360797
     0.361617    0.364809    0.365707    0.382983    0.387076    0.390793
     0.397304    0.405780    0.421547    0.431095    0.444767    0.455586
     0.465248    0.473840    0.475903    0.477810    0.483276    0.490116
     0.496881    0.498818    0.514061    0.527023    0.539809    0.563561
     0.574926    0.591306    0.622485    0.625795    0.660203

 Minimum Search - Taking Simple RFO Step
 Searching for Lamda that Minimizes Along All modes
 Value Taken    Lamda =   0.00000000
 Step Taken.  Stepsize is  0.002222

                             Maximum     Tolerance    Cnvgd?
         Gradient           0.000044      0.000300     YES
         Displacement       0.000975      0.001200     YES
         Energy change     -0.000001      0.000001     YES

 Final energy is   -2595.90392780469     


 ******************************
 **  OPTIMIZATION CONVERGED  **
 ******************************

                       Coordinates (Angstroms)
     ATOM                X               Y               Z
      1  C         7.6257952467    0.5393925258    0.0293040377
      2  C         6.9078212755    1.4107601798    0.8312465669
      3  N         7.0551069337   -0.3893505809   -0.7322447709
      4  C         5.5289329778    1.3124483916    0.8435995137
      5  C         5.7322165861   -0.4746236409   -0.7131512728
      6  C         4.9082813189    0.3532642194    0.0510876584
      7  C         3.4409901416    0.2341882354    0.0068186082
      8  C         2.6264297657    1.3321067688   -0.0521086552
      9  C         2.7581012391   -1.0163024821    0.0225065833
     10  N         1.2706095264    1.3249301551   -0.0830015899
     11  N         3.2936868859   -2.2364057843    0.0874583296
     12  C         1.3309125504   -1.0386397654   -0.0101719031
     13  C         0.6050597812    0.1961879463   -0.0649876486
     14  S         2.0641218533   -3.2774439958    0.0975623849
     15  N         0.8161337812   -2.2646021120    0.0274857224
     16  C        -0.8376383529    0.2834483884   -0.1002330899
     17  S        -1.9243271062   -1.0606867338   -0.0636561063
     18  C        -1.5568387277    1.4541837399   -0.1718061524
     19  C        -3.3129530111   -0.0555165250   -0.1571702991
     20  S        -1.1175564581    3.1269414724   -0.2468132859
     21  C        -2.9643994916    1.2767073483   -0.1966988435
     22  C        -4.6373678503   -0.6513082811   -0.0947587300
     23  C        -2.8089892564    3.5682440898   -0.3161998411
     24  C        -3.6638381444    2.5307340918   -0.2847662790
     25  N        -4.9964315497   -1.7133143829   -0.7516258655
     26  S        -5.9047081360    0.0487476482    0.8678965419
     27  C        -6.3029734224   -2.0215647813   -0.5069422059
     28  C        -6.9645406814   -1.1848601407    0.3303448515
     29  H         8.7081966695    0.5858527505   -0.0025575886
     30  H         7.4212383866    2.1417864197    1.4391643479
     31  H         4.9349323906    1.9600509843    1.4750551163
     32  H         5.2941949766   -1.2392724305   -1.3422160882
     33  H         3.0708214266    2.3192098543   -0.0924523817
     34  H        -3.0695847044    4.6123169345   -0.3854746222
     35  H        -4.7366564400    2.6327942268   -0.3313403825
     36  H        -6.7380955153   -2.8868356502   -0.9828087813
     37  H        -7.9904477007   -1.2309058434    0.6517257150

Z-matrix Print:
$molecule
0 1
S 
C  1 1.716798
C  2 1.377633 1 111.291320
C  3 1.418924 2 111.804135 1 -0.969690 0
C  4 1.375861 3 114.394917 2 0.644822 0
C  3 1.438594 2 136.196231 1 -179.354519 0
H  6 1.078668 3 124.658247 2 -0.700868 0
C  6 1.344686 3 111.402555 2 178.651503 0
H  8 1.078331 6 126.506925 3 -179.653592 0
C  5 1.445764 4 125.046751 3 -179.863330 0
N  10 1.310473 5 117.030939 4 -1.065176 0
C  11 1.356191 10 120.795519 5 -179.981095 0
H  12 1.083275 11 114.462104 10 -178.755385 0
C  12 1.368359 11 126.288753 10 0.408350 0
C  14 1.424890 12 114.792752 11 -0.637977 0
N  15 1.334063 14 127.644957 12 179.389347 0
C  15 1.427738 14 119.508424 12 0.563055 0
N  17 1.330188 15 113.616929 14 179.122618 0
C  2 1.453595 1 119.646551 3 175.930273 0
N  19 1.299330 2 124.408640 1 45.000003 0
C  20 1.364529 19 111.013639 2 179.104065 0
H  21 1.079108 20 119.219068 19 179.638931 0
C  21 1.356022 20 116.006521 19 -0.805228 0
H  23 1.076053 21 128.546392 20 -179.384863 0
C  14 1.472780 12 121.970771 11 179.316739 0
C  25 1.390438 14 121.172378 12 -42.245733 0
H  26 1.082110 25 120.027941 14 -2.651674 0
C  26 1.382444 25 119.287234 14 178.466977 0
H  28 1.080537 26 121.132063 25 179.683366 0
C  28 1.384875 26 118.524527 25 0.326438 0
H  30 1.083866 28 120.516748 26 179.799603 0
N  30 1.329739 28 123.270884 26 -0.035186 0
C  32 1.325773 30 117.704740 28 0.014145 0
H  33 1.082716 32 116.150820 30 179.992835 0
S  18 1.608799 17 106.335687 15 0.015237 0
S  23 1.712891 21 109.650824 20 0.810912 0
S  4 1.731102 3 111.828466 2 -179.094752 0
$end

 
 --------------------------------------------------------------
 
                    Orbital Energies (a.u.)
 --------------------------------------------------------------
 
 Alpha MOs
 -- Occupied --
-89.155 -89.094 -89.092 -89.077 -14.494 -14.487 -14.452 -14.446
-14.435 -10.374 -10.369 -10.362 -10.359 -10.345 -10.340 -10.338
-10.334 -10.329 -10.328 -10.326 -10.326 -10.326 -10.325 -10.318
-10.316 -10.314 -10.304 -10.302  -8.165  -8.110  -8.106  -8.091
 -6.115  -6.109  -6.109  -6.059  -6.056  -6.055  -6.053  -6.052
 -6.049  -6.041  -6.037  -6.034  -1.152  -1.084  -1.072  -1.054
 -1.024  -1.015  -0.958  -0.945  -0.912  -0.910  -0.907  -0.884
 -0.861  -0.846  -0.831  -0.809  -0.775  -0.752  -0.744  -0.728
 -0.722  -0.698  -0.693  -0.676  -0.647  -0.640  -0.623  -0.621
 -0.616  -0.597  -0.584  -0.577  -0.570  -0.567  -0.541  -0.536
 -0.528  -0.527  -0.518  -0.515  -0.512  -0.502  -0.496  -0.490
 -0.486  -0.480  -0.478  -0.463  -0.459  -0.448  -0.440  -0.432
 -0.430  -0.423  -0.402  -0.393  -0.380  -0.373  -0.370  -0.369
 -0.364  -0.357  -0.342  -0.339  -0.327  -0.320  -0.272
 -- Virtual --
 -0.055  -0.003   0.027   0.038   0.043   0.049   0.064   0.075
  0.086   0.087   0.103   0.108   0.113   0.121   0.130   0.132
  0.136   0.145   0.146   0.166   0.168   0.170   0.173   0.182
  0.188   0.193   0.196   0.213   0.215   0.230   0.239   0.244
  0.249   0.255   0.263   0.264   0.269   0.274   0.282   0.289
  0.298   0.299   0.300   0.306   0.307   0.317   0.323   0.325
  0.331   0.334   0.336   0.344   0.345   0.351   0.356   0.359
  0.361   0.362   0.369   0.372   0.374   0.379   0.383   0.386
  0.388   0.391   0.395   0.401   0.402   0.404   0.406   0.414
  0.418   0.423   0.426   0.430   0.434   0.435   0.436   0.441
  0.445   0.447   0.452   0.459   0.459   0.465   0.467   0.467
  0.471   0.473   0.476   0.480   0.481   0.484   0.489   0.492
  0.495   0.502   0.505   0.509   0.515   0.515   0.519   0.522
  0.528   0.531   0.540   0.542   0.544   0.549   0.550   0.555
  0.559   0.564   0.568   0.573   0.577   0.587   0.591   0.597
  0.601   0.612   0.614   0.619   0.623   0.636   0.637   0.645
  0.651   0.654   0.659   0.665   0.669   0.670   0.679   0.687
  0.691   0.696   0.698   0.701   0.712   0.716   0.725   0.726
  0.732   0.734   0.738   0.742   0.744   0.748   0.755   0.762
  0.765   0.770   0.772   0.775   0.782   0.787   0.795   0.798
  0.801   0.807   0.810   0.813   0.818   0.823   0.825   0.834
  0.835   0.844   0.847   0.852   0.854   0.857   0.859   0.863
  0.868   0.878   0.883   0.888   0.893   0.900   0.904   0.912
  0.918   0.923   0.926   0.936   0.937   0.947   0.952   0.953
  0.958   0.960   0.970   0.974   0.976   0.981   0.984   0.994
  0.999   1.015   1.016   1.024   1.026   1.030   1.032   1.041
  1.042   1.046   1.055   1.060   1.065   1.066   1.073   1.079
  1.083   1.086   1.091   1.097   1.104   1.110   1.122   1.128
  1.134   1.139   1.144   1.153   1.156   1.168   1.175   1.184
  1.186   1.191   1.200   1.204   1.207   1.218   1.226   1.227
  1.233   1.239   1.248   1.252   1.254   1.263   1.267   1.277
  1.285   1.288   1.293   1.297   1.301   1.312   1.322   1.335
  1.345   1.349   1.352   1.358   1.368   1.373   1.378   1.383
  1.388   1.400   1.401   1.405   1.407   1.423   1.433   1.439
  1.445   1.449   1.454   1.459   1.461   1.473   1.483   1.485
  1.495   1.497   1.506   1.509   1.521   1.532   1.543   1.550
  1.557   1.566   1.569   1.576   1.583   1.593   1.598   1.604
  1.608   1.611   1.620   1.625   1.629   1.635   1.639   1.644
  1.654   1.658   1.663   1.671   1.676   1.683   1.687   1.687
  1.696   1.697   1.709   1.714   1.718   1.720   1.727   1.739
  1.745   1.749   1.757   1.761   1.764   1.775   1.780   1.788
  1.802   1.810   1.819   1.822   1.836   1.856   1.860   1.869
  1.883   1.888   1.889   1.895   1.898   1.908   1.924   1.926
  1.930   1.940   1.943   1.949   1.957   1.970   1.972   1.980
  1.982   1.994   1.998   2.002   2.011   2.028   2.037   2.048
  2.050   2.065   2.078   2.082   2.084   2.091   2.094   2.112
  2.118   2.121   2.133   2.140   2.146   2.160   2.170   2.173
  2.178   2.188   2.190   2.200   2.203   2.222   2.223   2.230
  2.238   2.243   2.253   2.264   2.265   2.273   2.280   2.286
  2.303   2.305   2.318   2.327   2.344   2.348   2.358   2.360
  2.366   2.373   2.380   2.384   2.394   2.398   2.400   2.406
  2.417   2.432   2.440   2.442   2.449   2.455   2.461   2.464
  2.478   2.483   2.489   2.494   2.506   2.507   2.518   2.526
  2.528   2.534   2.535   2.545   2.550   2.558   2.567   2.575
  2.578   2.587   2.591   2.602   2.614   2.621   2.628   2.637
  2.640   2.648   2.658   2.660   2.667   2.673   2.680   2.688
  2.715   2.730   2.737   2.748   2.752   2.757   2.768   2.774
  2.779   2.785   2.790   2.794   2.795   2.805   2.810   2.815
  2.825   2.834   2.838   2.853   2.854   2.868   2.871   2.877
  2.883   2.887   2.898   2.909   2.912   2.926   2.937   2.941
  2.946   2.950   2.952   2.955   2.964   2.972   2.975   2.979
  2.983   2.985   2.993   3.001   3.006   3.013   3.018   3.027
  3.028   3.031   3.039   3.045   3.055   3.058   3.060   3.064
  3.069   3.074   3.081   3.088   3.093   3.098   3.104   3.105
  3.113   3.121   3.122   3.128   3.131   3.136   3.141   3.148
  3.152   3.159   3.161   3.170   3.173   3.177   3.181   3.184
  3.191   3.192   3.196   3.200   3.204   3.209   3.215   3.218
  3.224   3.228   3.235   3.239   3.241   3.243   3.248   3.251
  3.253   3.257   3.265   3.270   3.271   3.274   3.277   3.284
  3.287   3.294   3.300   3.305   3.308   3.313   3.320   3.328
  3.334   3.340   3.346   3.353   3.354   3.364   3.369   3.376
  3.382   3.383   3.389   3.398   3.404   3.412   3.418   3.422
  3.426   3.430   3.440   3.444   3.453   3.459   3.460   3.467
  3.476   3.478   3.483   3.485   3.495   3.502   3.507   3.516
  3.521   3.530   3.532   3.543   3.547   3.555   3.560   3.573
  3.582   3.587   3.593   3.600   3.604   3.616   3.632   3.636
  3.639   3.649   3.657   3.667   3.669   3.682   3.686   3.692
  3.702   3.718   3.724   3.735   3.742   3.751   3.756   3.758
  3.765   3.774   3.775   3.786   3.792   3.799   3.805   3.817
  3.826   3.832   3.834   3.845   3.846   3.857   3.862   3.864
  3.871   3.873   3.894   3.899   3.914   3.918   3.927   3.933
  3.940   3.944   3.947   3.949   3.962   3.970   3.974   3.978
  3.986   3.988   3.999   4.008   4.013   4.026   4.033   4.049
  4.058   4.074   4.076   4.084   4.091   4.106   4.110   4.121
  4.133   4.139   4.145   4.154   4.157   4.169   4.175   4.185
  4.196   4.198   4.203   4.210   4.215   4.229   4.235   4.246
  4.248   4.253   4.260   4.272   4.286   4.297   4.307   4.313
  4.324   4.335   4.343   4.347   4.352   4.379   4.384   4.392
  4.394   4.404   4.413   4.420   4.432   4.440   4.454   4.460
  4.465   4.472   4.480   4.491   4.499   4.516   4.518   4.525
  4.535   4.547   4.555   4.558   4.574   4.585   4.604   4.610
  4.617   4.634   4.643   4.648   4.659   4.673   4.679   4.684
  4.698   4.712   4.719   4.731   4.737   4.785   4.786   4.791
  4.814   4.815   4.823   4.841   4.844   4.855   4.857   4.871
  4.882   4.890   4.905   4.934   4.937   4.938   4.942   4.953
  4.956   4.963   4.967   4.975   4.990   4.993   4.998   5.006
  5.020   5.029   5.042   5.055   5.070   5.079   5.087   5.092
  5.112   5.114   5.134   5.150   5.154   5.160   5.176   5.196
  5.204   5.212   5.233   5.236   5.253   5.259   5.276   5.282
  5.315   5.317   5.334   5.340   5.353   5.360   5.385   5.399
  5.427   5.437   5.445   5.461   5.466   5.481   5.490   5.515
  5.532   5.556   5.563   5.574   5.604   5.635   5.665   5.690
  5.694   5.701   5.733   5.743   5.763   5.804   5.823   5.829
  5.848   5.864   5.891   5.934   5.946   5.962   6.002   6.060
  6.116   6.140   6.166   6.171   6.188   6.206   6.253   6.294
  6.309   6.319   6.354   6.406   6.489   6.853   7.021   8.053
  8.940   9.772   9.981  10.749  11.140  11.203  11.639  12.000
 12.306  12.482  12.551  12.872  13.016  13.151  13.177  13.420
 13.481  13.587  13.624  13.904  14.097  14.750  14.987
 --------------------------------------------------------------
 
          Ground-State Mulliken Net Atomic Charges

     Atom                 Charge (a.u.)
  ----------------------------------------
      1 C                    -0.072391
      2 C                    -0.102896
      3 N                    -0.155063
      4 C                    -0.157364
      5 C                    -0.095192
      6 C                     0.110067
      7 C                     0.032877
      8 C                    -0.094667
      9 C                     0.018970
     10 N                    -0.184883
     11 N                    -0.276545
     12 C                     0.029306
     13 C                     0.112224
     14 S                     0.414506
     15 N                    -0.282196
     16 C                    -0.064683
     17 S                     0.170632
     18 C                    -0.005376
     19 C                     0.061669
     20 S                     0.093422
     21 C                    -0.010088
     22 C                    -0.050564
     23 C                    -0.163953
     24 C                    -0.167212
     25 N                    -0.166480
     26 S                     0.102863
     27 C                    -0.089437
     28 C                    -0.196048
     29 H                     0.123905
     30 H                     0.128958
     31 H                     0.130583
     32 H                     0.129023
     33 H                     0.131012
     34 H                     0.132035
     35 H                     0.135458
     36 H                     0.133039
     37 H                     0.144486
  ----------------------------------------
  Sum of atomic charges =     0.000000

 -----------------------------------------------------------------
                    Cartesian Multipole Moments
 -----------------------------------------------------------------
    Charge (ESU x 10^10)
                 0.0000
    Dipole Moment (Debye)
         X      -2.6360      Y       1.6907      Z       1.9686
       Tot       3.6989
    Quadrupole Moments (Debye-Ang)
        XX    -164.1139     XY       8.6615     YY    -173.1671
        XZ       5.5652     YZ       0.8637     ZZ    -188.3147
    Octopole Moments (Debye-Ang^2)
       XXX    -288.5586    XXY      76.3112    XYY     -16.1416
       YYY      -0.2921    XXZ      98.1748    XYZ      16.1627
       YYZ       3.1316    XZZ       6.4002    YZZ      -8.1455
       ZZZ      11.6707
    Hexadecapole Moments (Debye-Ang^3)
      XXXX  -17602.5446   XXXY    1043.3606   XXYY   -3639.4358
      XYYY    -135.3267   YYYY   -3349.2313   XXXZ     371.2291
      XXYZ      68.1746   XYYZ      60.5991   YYYZ     -16.3387
      XXZZ   -3439.2957   XYZZ      15.4584   YYZZ    -700.3973
      XZZZ     -12.5128   YZZZ      -1.9570   ZZZZ    -429.9386
 -----------------------------------------------------------------
Archival summary:
1\1\mn256\OPT\ProcedureUnspecified\BasisUnspecified\45199\afmv_a\FriJun220:26:132017FriJun220:26:132017\0\\#,OPT,ProcedureUnspecified,BasisUnspecified,\\0,1\S\C,1,1.7168\C,2,1.37763,1,111.291\C,3,1.41892,2,111.804,1,-0.96969,0\C,4,1.37586,3,114.395,2,0.644822,0\C,3,1.43859,2,136.196,1,-179.355,0\H,6,1.07867,3,124.658,2,-0.700868,0\C,6,1.34469,3,111.403,2,178.652,0\H,8,1.07833,6,126.507,3,-179.654,0\C,5,1.44576,4,125.047,3,-179.863,0\N,10,1.31047,5,117.031,4,-1.06518,0\C,11,1.35619,10,120.796,5,-179.981,0\H,12,1.08327,11,114.462,10,-178.755,0\C,12,1.36836,11,126.289,10,0.40835,0\C,14,1.42489,12,114.793,11,-0.637977,0\N,15,1.33406,14,127.645,12,179.389,0\C,15,1.42774,14,119.508,12,0.563055,0\N,17,1.33019,15,113.617,14,179.123,0\C,2,1.45359,1,119.647,3,175.93,0\N,19,1.29933,2,124.409,1,45,0\C,20,1.36453,19,111.014,2,179.104,0\H,21,1.07911,20,119.219,19,179.639,0\C,21,1.35602,20,116.007,19,-0.805228,0\H,23,1.07605,21,128.546,20,-179.385,0\C,14,1.47278,12,121.971,11,179.317,0\C,25,1.39044,14,121.172,12,-42.2457,0\H,26,1.08211,25,120.028,14,-2.65167,0\C,26,1.38244,25,119.287,14,178.467,0\H,28,1.08054,26,121.132,25,179.683,0\C,28,1.38488,26,118.525,25,0.326438,0\H,30,1.08387,28,120.517,26,179.8,0\N,30,1.32974,28,123.271,26,-0.0351858,0\C,32,1.32577,30,117.705,28,0.0141446,0\H,33,1.08272,32,116.151,30,179.993,0\S,18,1.6088,17,106.336,15,0.0152372,0\S,23,1.71289,21,109.651,20,0.810912,0\S,4,1.7311,3,111.828,2,-179.095,0\\\@

 Total job time:  5998.77s(wall), 90874.43s(cpu) 
 Fri Jun  2 20:26:13 2017

        *************************************************************
        *                                                           *
        *  Thank you very much for using Q-Chem.  Have a nice day.  *
        *                                                           *
        *************************************************************


0 sent ACK to 0 
now end server 0 ... 
cleanup process ... done
