
Running Job 1 of 1 C271_3/C271_60.qcin
qchem C271_3/C271_60.qcin_18633.0 /tmpu/cab_g/afmv_a/scratch_qchem/qchem18633/ 1
/tmpu/appuserlic/qchem4.4/parallel-MPICH/bin/mpi/mpirun_qchem -machinefile /tmpu/appuserlic/qchem4.4/parallel-MPICH/bin/mpi/machines -np 1 /tmpu/appuserlic/qchem4.4/parallel-MPICH/exe/qcprog.exe C271_3/C271_60.qcin_18633.0 /tmpu/cab_g/afmv_a/scratch_qchem/qchem18633/

Process 0 of 1 is on mn256 - thread support 0
initial socket setup ...start
initial socket setup ...done 
now start server 0 ... 
Check license passed

                  Welcome to Q-Chem
     A Quantum Leap Into The Future Of Chemistry


 Q-Chem 4.4, Q-Chem, Inc., Pleasanton, CA (2016)

 Y. Shao,  Z. Gan,  E. Epifanovsky,  A. T. B. Gilbert,  M. Wormit,  
 J. Kussmann,  A. W. Lange,  A. Behn,  J. Deng,  X. Feng,  D. Ghosh,  
 M. Goldey,  P. R. Horn,  L. D. Jacobson,  I. Kaliman,  F. Rob,  
 R. Z. Khaliullin,  T. Kus,  A. Landau,  J. Liu,  E. I. Proynov,  Y. M. Rhee,  
 R. M. Richard,  M. A. Rohrdanz,  R. P. Steele,  E. J. Sundstrom,  
 H. L. Woodcock III,  P. M. Zimmerman,  D. Zuev,  B. Albrecht,  E. Alguire,  
 B. Austin,  S. A. Baeppler,  G. J. O. Beran,  Y. A. Bernard,  E. Berquist,  
 K. Brandhorst,  K. B. Bravaya,  S. T. Brown,  D. Casanova,  C.-M. Chang,  
 Y. Chen,  S. H. Chien,  K. D. Closser,  M. P. Coons,  D. L. Crittenden,  
 S. Dasgupta,  M. Diedenhofen,  R. A. DiStasio Jr.,  H. Do,  A. D. Dutoi,  
 R. G. Edgar,  P.-T. Fang,  S. Fatehi,  Q. Feng,  L. Fusti-Molnar,  
 A. Ghysels,  A. Golubeva-Zadorozhnaya,  J. Gomes,  A. Gunina,  
 M. W. D. Hanson-Heine,  P. H. P. Harbach,  A. W. Hauser,  J. E. Herr,  
 E. G. Hohenstein,  Z. C. Holden,  K. Hui,  T.-C. Jagau,  H. Ji,  B. Kaduk,  
 K. Khistyaev,  Jaehoon Kim,  Jihan Kim,  R. A. King,  P. Klunzinger,  
 K. Koh,  D. Kosenkov,  T. Kowalczyk,  C. M. Krauter,  A. Kunitsa,  
 K. U. Lao,  A. Laurent,  K. V. Lawler,  J. Lee,  D. Lefrancois,  S. Lehtola,  
 S. V. Levchenko,  C. Y. Lin,  Y.-S. Lin,  F. Liu,  E. Livshits,  
 R. C. Lochan,  A. Luenser,  P. Manohar,  S. F. Manzer,  S.-P. Mao,  Y. Mao,  
 N. Mardirossian,  A. V. Marenich,  L. A. Martinez-Martinez,  S. A. Maurer,  
 N. J. Mayhall,  J.-M. Mewes,  A. F. Morrison,  K. Nanda,  T. S. Nguyen-Beck,  
 C. M. Oana,  R. Olivares-Amaya,  D. P. O'Neill,  J. A. Parkhill,  
 T. M. Perrine,  R. Peverati,  P. A. Pieniazek,  F. Plasser,  A. Prociuk,  
 D. R. Rehn,  E. Rosta,  N. J. Russ,  N. Sergueev,  S. M. Sharada,  
 S. Sharma,  D. W. Small,  A. Sodt,  T. Stauch,  T. Stein,  D. Stuck,  
 Y.-C. Su,  A. J. W. Thom,  T. Tsuchimochi,  L. Vogt,  O. Vydrov,  T. Wang,  
 M. A. Watson,  J. Wenzel,  A. White,  C. F. Williams,  V. Vanovschi,  
 K. Yao,  S. Yeganeh,  S. R. Yost,  Z.-Q. You,  I. Y. Zhang,  X. Zhang,  
 Y. Zhao,  B. R. Brooks,  G. K. L. Chan,  D. M. Chipman,  C. J. Cramer,  
 W. A. Goddard III,  M. S. Gordon,  W. J. Hehre,  A. Klamt,  
 H. F. Schaefer III,  M. W. Schmidt,  C. D. Sherrill,  D. G. Truhlar,  
 A. Warshel,  X. Xu,  A. Aspuru-Guzik,  R. Baer,  A. T. Bell,  N. A. Besley,  
 J.-D. Chai,  A. Dreuw,  B. D. Dunietz,  T. R. Furlani,  S. R. Gwaltney,  
 C.-P. Hsu,  Y. Jung,  J. Kong,  D. S. Lambrecht,  W. Liang,  C. Ochsenfeld,  
 V. A. Rassolov,  L. V. Slipchenko,  J. E. Subotnik,  T. Van Voorhis,  
 J. M. Herbert,  A. I. Krylov,  P. M. W. Gill,  M. Head-Gordon

 Contributors to earlier versions of Q-Chem not listed above: 
 R. D. Adamson,  J. Baker,  E. F. C. Byrd,  A. K. Chakraborty,  C.-L. Cheng,  
 H. Dachsel,  R. J. Doerksen,  G. Hawkins,  A. Heyden,  S. Hirata,  
 G. Kedziora,  F. J. Keil,  C. Kelley,  P. P. Korambath,  W. Kurlancheek,  
 A. M. Lee,  M. S. Lee,  D. Liotard,  I. Lotan,  P. E. Maslen,  N. Nair,  
 D. Neuhauser,  R. Olson,  B. Peters,  J. Ritchie,  N. E. Schultz,  
 N. Shenvi,  A. C. Simmonett,  K. S. Thanthiriwatte,  Q. Wu,  W. Zhang

 Please cite Q-Chem as follows:
 Y. Shao et al., Mol. Phys. 113, 184-215 (2015)
 DOI: 10.1080/00268976.2014.952696

 Q-Chem 4.4.2 for Intel X86 Linux

 Parts of Q-Chem use Armadillo 5.200.1 (Boston Tea Smuggler).
 http://arma.sourceforge.net/

 Q-Chem begins on Fri Jun  2 17:03:29 2017  

Host: 
0

     Scratch files written to /tmpu/cab_g/afmv_a/scratch_qchem/qchem18633//
 Dec716 11556_ 22328  22283 4050   
 Parallel job on  1  processors
Processing $rem in /tmpu/appuserlic/qchem4.4/parallel-MPICH/config/preferences.
 MEM_TOTAL  2000 
FILE_GEOM_ORG=        593

Checking the input file for inconsistencies... 	...done.

--------------------------------------------------------------
User input:
--------------------------------------------------------------
$comment
OPTIMIZATION
$end

$rem
JOBTYPE OPT
EXCHANGE omegaB97X-D
BASIS cc-pVTZ
$end

$molecule
0 1
C          0.00000        0.00000        0.00000
C          1.38508        0.00000        0.00000
N         -0.72771       -1.11322        0.00000
C          2.04720       -1.21160       -0.00386
C         -0.08136       -2.27149       -0.00595
C          1.30925       -2.38901       -0.00649
C          1.96927       -3.70493        0.02329
C          3.04486       -3.95576        0.82999
C          1.55200       -4.80802       -0.77739
N          3.72631       -5.12438        0.91627
N          0.54624       -4.84522       -1.65350
C          2.26335       -6.04410       -0.69858
C          3.37925       -6.16090        0.19241
S          0.53898       -6.32692       -2.28381
N          1.78433       -6.98642       -1.50573
C          4.16725       -7.35995        0.35676
S          3.93086       -8.84971       -0.49207
C          5.23222       -7.49170        1.21798
C          5.24541       -9.62206        0.30618
S          5.99863       -6.41836        2.33861
C          5.85372       -8.76608        1.20048
C          5.61707      -10.99188        0.02046
C          7.13339       -7.68106        2.76702
C          6.95917       -8.84504        2.11640
N          5.98353      -11.40075       -1.16019
S          5.61241      -12.24595        1.22997
C          6.27083      -12.73326       -1.15155
C          6.13143      -13.36519        0.03932
H         -0.55134        0.93273        0.00000
H          1.92494        0.93597       -0.01293
H          3.12873       -1.25416       -0.02668
H         -0.69553       -3.16348       -0.00579
H          3.41622       -3.17720        1.48423
H          7.89362       -7.46677        3.50210
H          7.55900       -9.73031        2.24234
H          6.58713      -13.21653       -2.06332
H          6.30045      -14.40137        0.27429
$end

$opt
CONSTRAINT
tors 4 6 7 8 42.24575
tors 10 13 16 17 -179.11427
tors 17 19 22 25 60.00000
ENDCONSTRAINT
$end
--------------------------------------------------------------
 ----------------------------------------------------------------
             Standard Nuclear Orientation (Angstroms)
    I     Atom           X                Y                Z
 ----------------------------------------------------------------
    1      C       7.6267055996     0.5299049658    -0.1462489655
    2      C       6.9385341016     1.3801954513     0.7033819461
    3      N       7.0262995636    -0.3790858824    -0.9091833285
    4      C       5.5628929208     1.2809682231     0.7678618101
    5      C       5.7047451766    -0.4672524969    -0.8376727133
    6      C       4.9123169452     0.3372711204    -0.0176686514
    7      C       3.4448767733     0.2160209403    -0.0089261790
    8      C       2.6290635989     1.3137405574    -0.0148366552
    9      C       2.7631619888    -1.0357229147     0.0113848453
   10      N       1.2737334839     1.3047424075     0.0073073739
   11      N       3.3009488425    -2.2567747576     0.0293694643
   12      C       1.3352807825    -1.0593928380     0.0381915676
   13      C       0.6085027107     0.1753156575     0.0330151216
   14      S       2.0746982704    -3.2996531648     0.0680017843
   15      N       0.8236908877    -2.2866298435     0.0711062638
   16      C      -0.8323194997     0.2715042469     0.0543444053
   17      S      -1.9341771517    -1.0620855659     0.1111368742
   18      C      -1.5443257198     1.4487532498     0.0356099578
   19      C      -3.3186999813    -0.0398997366     0.1097396549
   20      S      -1.0874331922     3.1172764919    -0.0147293827
   21      C      -2.9529417292     1.2893636378     0.0673711625
   22      C      -4.6641572917    -0.5723643411     0.1587292179
   23      C      -2.7767092815     3.5771849888     0.0066515541
   24      C      -3.6438273768     2.5501064353     0.0481760858
   25      N      -5.1049129765    -1.3098059454     1.1371546558
   26      S      -5.8424687134    -0.2839626970    -1.0918843938
   27      C      -6.3998101225    -1.6809473948     0.9281229703
   28      C      -6.9720731075    -1.2294373424    -0.2145025110
   29      H       8.7066358777     0.5787494552    -0.2192274480
   30      H       7.4801421753     2.0915844737     1.3102115752
   31      H       4.9905908351     1.9119187108     1.4360018041
   32      H       5.2390857110    -1.2145707046    -1.4681707173
   33      H       3.0648906474     2.3042298720    -0.0476939563
   34      H      -3.0281726377     4.6263624114    -0.0076795232
   35      H      -4.7169328696     2.6352867344     0.0716026393
   36      H      -6.9014872957    -2.2995633171     1.6565146714
   37      H      -7.9702773930    -1.3981949742    -0.5785859076
 ----------------------------------------------------------------
 Molecular Point Group                 C1    NOp =  1
 Largest Abelian Subgroup              C1    NOp =  1
 Nuclear Repulsion Energy =  2959.8794709827 hartrees
 There are      111 alpha and      111 beta electrons
 Requested basis set is cc-pVTZ
 There are 342 shells and 982 basis functions

 Total QAlloc Memory Limit   2000 MB
 Mega-Array Size        61 MB
 MEM_STATIC part        62 MB
 A cutoff of  1.0D-11 yielded  29212 shell pairs
 There are    231606 function pairs (    302598 Cartesian)
 
 -------------------------------------------------------
 OpenMP Integral Computing Module                       
 Release: version 1.0, May 2013, Q-Chem Inc. Pittsburgh 
 -------------------------------------------------------
 Integral Job Info:
 Integral job number is                      11
 Integral operator is                         1
 short-range coefficients              22203600
 long-range coefficients              100000000
 Omega coefficients                         200
 if combine SR and LR in K                    1
 Integral screening is                        0
 Integral computing path is                   2
 max size of driver memory is            800000
 size of driver memory is                776718
 size of scratch memory is             26248924
 max col of scratch BK array              10000
 max len of scratch array in speh3          662
 max len of scratch index in speh4           32
 max int batch size is                      520
 min int batch size is                       52
 fixed nKL is                                52
 max L of basis functions is                  3
 order of int derivative is                   0
 number of shells is                        342
 number of basis is                        1131
 number of cartesian basis is              1131
 number of contracted shell pairs         29212
 number of primitive shell pairs          92356
 maxK2 (contraction) of shell pair          121
 max number of K2 of shell pair               1
 max number of CS2 of shell pair           3957
 max number of PS2 of shell pair          11655
 mem total for path MDJ                  808052
 -------------------------------------------------------
 Smallest overlap matrix eigenvalue = 2.32E-05

 Scale SEOQF with 1.000000e-02/1.000000e-01/1.000000e-01

 Standard Electronic Orientation quadrupole field applied
 Nucleus-field energy     =     0.0000000585 hartrees
 Guess from superposition of atomic densities
 Warning:  Energy on first SCF cycle will be non-variational
 Long-range K will be added via erf
 Coulomb attenuation parameter = 0.2 bohr**(-1)
 A restricted hybrid HF-DFT SCF calculation will be
 performed using Pulay DIIS extrapolation
 Exchange:     0.2220 Hartree-Fock + 1.0000 wB97X-D + LR-HF
 Correlation:  1.0000 wB97X-D
 Using SG-2 standard quadrature grid
 Dispersion:   Grimme D
 SCF converges when DIIS error is below 1.0E-08
 using 16 threads for integral computing 
 using 16 threads for integral computing 
 K construction time:  CPU 70.97 s  wall 4.68 s
 -------------------------------------------------------
 OpenMP BLAS3 based DFT computing Module                
 Release: version 1.0, May 2013, Q-Chem Inc. Pittsburgh 
 -------------------------------------------------------
 ---------------------------------------
  Cycle       Energy         DIIS Error
 ---------------------------------------
    1   -2605.8494128151      1.87E-02
 K construction time:  CPU 1080.19 s  wall 70.54 s
    2   -2595.6585995436      1.37E-03
 K construction time:  CPU 1030.02 s  wall 67.18 s
    3   -2595.6777658056      1.44E-03
 K construction time:  CPU 982.13 s  wall 64.02 s
    4   -2595.8938278141      2.36E-04
 K construction time:  CPU 914.24 s  wall 59.61 s
    5   -2595.8987425672      1.37E-04
 K construction time:  CPU 868.95 s  wall 56.61 s
    6   -2595.9008292844      4.11E-05
 K construction time:  CPU 812.46 s  wall 52.93 s
    7   -2595.9010387640      1.67E-05
 K construction time:  CPU 756.22 s  wall 49.29 s
    8   -2595.9010812931      5.57E-06
 K construction time:  CPU 720.88 s  wall 47.03 s
    9   -2595.9010902487      3.51E-06
 K construction time:  CPU 687.90 s  wall 44.78 s
   10   -2595.9010930706      1.29E-06
 K construction time:  CPU 623.88 s  wall 40.59 s
   11   -2595.9010934832      6.80E-07
 K construction time:  CPU 588.40 s  wall 38.26 s
   12   -2595.9010936029      2.21E-07
 K construction time:  CPU 519.33 s  wall 33.71 s
   13   -2595.9010936172      9.74E-08
 K construction time:  CPU 465.24 s  wall 30.17 s
   14   -2595.9010936208      3.15E-08
 K construction time:  CPU 387.47 s  wall 25.14 s
   15   -2595.9010936224      1.44E-08
 K construction time:  CPU 1075.22 s  wall 70.19 s
   16   -2595.9010936157      4.48E-09 Convergence criterion met
 ---------------------------------------
 SCF time:  CPU 15437.76 s  wall 1029.04 s
 SCF   energy in the final basis set = -2595.9010936157
 Total energy in the final basis set = -2595.9010936157
 
 --------------------------------------------------------------
 
                    Orbital Energies (a.u.)
 --------------------------------------------------------------
 
 Alpha MOs
 -- Occupied --
-89.155 -89.095 -89.093 -89.077 -14.494 -14.487 -14.451 -14.447
-14.435 -10.373 -10.369 -10.362 -10.359 -10.344 -10.339 -10.338
-10.333 -10.330 -10.327 -10.326 -10.326 -10.326 -10.325 -10.318
-10.315 -10.314 -10.303 -10.302  -8.165  -8.111  -8.107  -8.091
 -6.115  -6.109  -6.109  -6.059  -6.056  -6.056  -6.054  -6.052
 -6.050  -6.040  -6.037  -6.033  -1.152  -1.084  -1.072  -1.054
 -1.023  -1.015  -0.957  -0.946  -0.912  -0.910  -0.907  -0.884
 -0.861  -0.846  -0.829  -0.808  -0.775  -0.752  -0.744  -0.728
 -0.723  -0.697  -0.692  -0.675  -0.648  -0.640  -0.623  -0.621
 -0.616  -0.597  -0.584  -0.577  -0.570  -0.568  -0.541  -0.535
 -0.527  -0.525  -0.520  -0.514  -0.512  -0.502  -0.496  -0.490
 -0.488  -0.480  -0.478  -0.463  -0.458  -0.448  -0.440  -0.432
 -0.428  -0.423  -0.402  -0.390  -0.379  -0.373  -0.370  -0.369
 -0.364  -0.357  -0.342  -0.338  -0.326  -0.320  -0.274
 -- Virtual --
 -0.054   0.001   0.027   0.034   0.040   0.048   0.064   0.074
  0.084   0.086   0.102   0.108   0.112   0.121   0.129   0.134
  0.135   0.143   0.146   0.164   0.168   0.170   0.173   0.177
  0.188   0.191   0.197   0.213   0.216   0.229   0.239   0.246
  0.250   0.254   0.261   0.263   0.268   0.274   0.279   0.289
  0.295   0.298   0.301   0.306   0.308   0.316   0.319   0.327
  0.332   0.334   0.335   0.339   0.345   0.347   0.355   0.357
  0.360   0.363   0.367   0.372   0.375   0.378   0.380   0.386
  0.390   0.392   0.396   0.400   0.402   0.405   0.408   0.413
  0.416   0.424   0.426   0.429   0.432   0.435   0.439   0.441
  0.446   0.448   0.452   0.458   0.460   0.461   0.466   0.468
  0.471   0.472   0.474   0.479   0.482   0.483   0.488   0.493
  0.495   0.503   0.505   0.508   0.515   0.518   0.520   0.526
  0.529   0.532   0.539   0.542   0.545   0.548   0.550   0.556
  0.557   0.563   0.567   0.573   0.578   0.581   0.586   0.590
  0.598   0.610   0.613   0.616   0.623   0.633   0.637   0.648
  0.650   0.651   0.661   0.663   0.670   0.674   0.674   0.683
  0.690   0.693   0.695   0.697   0.709   0.718   0.723   0.723
  0.729   0.733   0.734   0.739   0.743   0.748   0.753   0.759
  0.762   0.767   0.772   0.778   0.778   0.786   0.792   0.793
  0.799   0.803   0.810   0.814   0.816   0.822   0.824   0.833
  0.835   0.844   0.847   0.850   0.855   0.857   0.860   0.862
  0.868   0.877   0.880   0.891   0.897   0.901   0.907   0.910
  0.921   0.924   0.928   0.937   0.938   0.947   0.951   0.954
  0.962   0.965   0.971   0.971   0.975   0.978   0.985   0.989
  0.995   1.011   1.017   1.025   1.025   1.031   1.034   1.040
  1.049   1.055   1.058   1.060   1.065   1.069   1.071   1.078
  1.079   1.083   1.089   1.098   1.108   1.117   1.119   1.130
  1.131   1.133   1.142   1.153   1.161   1.168   1.176   1.178
  1.181   1.191   1.199   1.202   1.211   1.221   1.225   1.226
  1.235   1.243   1.245   1.249   1.256   1.260   1.268   1.278
  1.282   1.289   1.293   1.294   1.302   1.319   1.322   1.338
  1.342   1.348   1.356   1.363   1.369   1.370   1.379   1.383
  1.394   1.399   1.403   1.409   1.421   1.422   1.429   1.441
  1.445   1.449   1.453   1.461   1.468   1.474   1.484   1.486
  1.492   1.497   1.508   1.510   1.520   1.531   1.539   1.557
  1.561   1.564   1.566   1.570   1.580   1.589   1.597   1.604
  1.610   1.612   1.619   1.623   1.632   1.635   1.640   1.646
  1.652   1.656   1.660   1.664   1.674   1.683   1.683   1.687
  1.697   1.700   1.701   1.712   1.715   1.723   1.729   1.737
  1.739   1.746   1.752   1.754   1.764   1.768   1.780   1.782
  1.800   1.815   1.818   1.824   1.844   1.851   1.864   1.870
  1.882   1.885   1.885   1.893   1.906   1.912   1.925   1.927
  1.929   1.935   1.943   1.945   1.955   1.970   1.974   1.981
  1.985   1.995   1.999   2.005   2.018   2.022   2.037   2.041
  2.053   2.060   2.066   2.078   2.084   2.086   2.106   2.111
  2.118   2.123   2.128   2.141   2.150   2.154   2.164   2.174
  2.182   2.186   2.190   2.199   2.209   2.221   2.224   2.232
  2.240   2.241   2.256   2.258   2.271   2.280   2.283   2.286
  2.298   2.303   2.318   2.326   2.340   2.349   2.356   2.363
  2.364   2.372   2.378   2.382   2.393   2.396   2.400   2.405
  2.419   2.430   2.435   2.440   2.453   2.454   2.460   2.464
  2.477   2.486   2.488   2.493   2.501   2.506   2.516   2.524
  2.532   2.536   2.539   2.546   2.549   2.558   2.565   2.568
  2.579   2.589   2.595   2.607   2.615   2.621   2.627   2.631
  2.641   2.649   2.655   2.660   2.670   2.676   2.680   2.682
  2.715   2.728   2.740   2.748   2.754   2.758   2.769   2.776
  2.781   2.785   2.791   2.793   2.795   2.800   2.811   2.814
  2.824   2.834   2.838   2.852   2.866   2.869   2.872   2.875
  2.881   2.887   2.900   2.907   2.918   2.935   2.937   2.942
  2.947   2.948   2.953   2.955   2.965   2.972   2.974   2.976
  2.982   2.988   2.994   3.001   3.008   3.012   3.024   3.026
  3.030   3.037   3.041   3.046   3.051   3.058   3.059   3.063
  3.072   3.074   3.075   3.092   3.098   3.100   3.105   3.110
  3.111   3.116   3.122   3.131   3.134   3.138   3.139   3.147
  3.151   3.157   3.160   3.170   3.172   3.176   3.178   3.185
  3.193   3.195   3.198   3.201   3.203   3.210   3.214   3.218
  3.225   3.227   3.231   3.235   3.241   3.244   3.245   3.251
  3.256   3.262   3.266   3.269   3.271   3.274   3.278   3.289
  3.293   3.296   3.297   3.303   3.310   3.317   3.325   3.330
  3.336   3.343   3.346   3.348   3.350   3.368   3.370   3.373
  3.380   3.390   3.393   3.396   3.407   3.412   3.415   3.421
  3.426   3.434   3.438   3.444   3.452   3.459   3.465   3.470
  3.471   3.481   3.484   3.485   3.493   3.501   3.511   3.514
  3.518   3.527   3.533   3.543   3.548   3.556   3.560   3.571
  3.587   3.590   3.593   3.603   3.614   3.622   3.627   3.640
  3.644   3.654   3.662   3.665   3.672   3.686   3.687   3.693
  3.699   3.721   3.729   3.732   3.745   3.751   3.755   3.761
  3.763   3.768   3.776   3.787   3.792   3.797   3.804   3.815
  3.826   3.831   3.834   3.843   3.847   3.860   3.864   3.866
  3.869   3.872   3.890   3.914   3.917   3.919   3.928   3.930
  3.938   3.948   3.949   3.952   3.964   3.971   3.972   3.978
  3.985   3.990   4.000   4.007   4.011   4.024   4.033   4.049
  4.059   4.072   4.081   4.082   4.087   4.107   4.111   4.119
  4.133   4.138   4.143   4.153   4.164   4.168   4.177   4.183
  4.197   4.202   4.204   4.209   4.218   4.229   4.232   4.249
  4.250   4.251   4.265   4.281   4.289   4.293   4.301   4.313
  4.322   4.335   4.346   4.348   4.358   4.378   4.386   4.389
  4.397   4.403   4.411   4.422   4.434   4.439   4.448   4.460
  4.464   4.477   4.482   4.495   4.497   4.512   4.518   4.530
  4.543   4.547   4.549   4.558   4.574   4.589   4.600   4.609
  4.617   4.634   4.642   4.648   4.658   4.669   4.677   4.686
  4.695   4.712   4.720   4.732   4.735   4.783   4.791   4.798
  4.809   4.817   4.826   4.843   4.846   4.854   4.857   4.871
  4.885   4.901   4.913   4.934   4.936   4.943   4.947   4.954
  4.956   4.962   4.967   4.976   4.985   4.998   5.000   5.006
  5.015   5.030   5.042   5.055   5.071   5.081   5.087   5.088
  5.111   5.114   5.134   5.145   5.154   5.157   5.175   5.195
  5.202   5.208   5.225   5.238   5.251   5.259   5.276   5.289
  5.314   5.318   5.330   5.340   5.357   5.361   5.385   5.400
  5.427   5.438   5.448   5.460   5.467   5.481   5.490   5.515
  5.532   5.557   5.565   5.577   5.604   5.638   5.665   5.681
  5.694   5.701   5.735   5.752   5.765   5.800   5.808   5.822
  5.843   5.859   5.892   5.926   5.944   5.951   6.003   6.051
  6.113   6.138   6.158   6.168   6.186   6.194   6.248   6.279
  6.309   6.319   6.353   6.407   6.491   6.855   7.020   8.005
  8.925   9.745   9.977  10.753  11.140  11.201  11.677  12.012
 12.319  12.493  12.556  12.867  12.964  13.155  13.184  13.403
 13.499  13.580  13.622  13.909  14.068  14.755  14.998
 --------------------------------------------------------------
 
          Ground-State Mulliken Net Atomic Charges

     Atom                 Charge (a.u.)
  ----------------------------------------
      1 C                    -0.072438
      2 C                    -0.102034
      3 N                    -0.155515
      4 C                    -0.156988
      5 C                    -0.094947
      6 C                     0.111224
      7 C                     0.031691
      8 C                    -0.095374
      9 C                     0.019249
     10 N                    -0.185187
     11 N                    -0.276260
     12 C                     0.027281
     13 C                     0.114615
     14 S                     0.414778
     15 N                    -0.282729
     16 C                    -0.065886
     17 S                     0.171066
     18 C                    -0.006688
     19 C                     0.067116
     20 S                     0.093499
     21 C                    -0.009166
     22 C                    -0.073583
     23 C                    -0.161871
     24 C                    -0.162492
     25 N                    -0.160250
     26 S                     0.113020
     27 C                    -0.093341
     28 C                    -0.192927
     29 H                     0.123989
     30 H                     0.128395
     31 H                     0.130817
     32 H                     0.128472
     33 H                     0.131146
     34 H                     0.131061
     35 H                     0.132338
     36 H                     0.133630
     37 H                     0.144287
  ----------------------------------------
  Sum of atomic charges =     0.000000

 -----------------------------------------------------------------
                    Cartesian Multipole Moments
 -----------------------------------------------------------------
    Charge (ESU x 10^10)
                 0.0000
    Dipole Moment (Debye)
         X      -2.5836      Y       1.3465      Z       0.2687
       Tot       2.9258
    Quadrupole Moments (Debye-Ang)
        XX    -163.3625     XY      10.0641     YY    -173.0679
        XZ      14.5888     YZ       2.4756     ZZ    -188.8314
    Octopole Moments (Debye-Ang^2)
       XXX    -281.9972    XXY      68.2232    XYY     -15.2705
       YYY       4.8713    XXZ      52.8038    XYZ      11.0848
       YYZ       6.2314    XZZ       0.2679    YZZ      -8.9620
       ZZZ      -1.8978
    Hexadecapole Moments (Debye-Ang^3)
      XXXX  -17532.9819   XXXY    1098.7859   XXYY   -3662.0249
      XYYY    -159.4402   YYYY   -3288.5993   XXXZ     706.0042
      XXYZ      30.6279   XYYZ      15.4174   YYYZ      -1.1515
      XXZZ   -3448.7797   XYZZ      30.6125   YYZZ    -699.1650
      XZZZ      31.8422   YZZZ       3.1127   ZZZZ    -504.6038
 -----------------------------------------------------------------
 Calculating analytic gradient of the SCF energy
 K construction time:  CPU 2852.96 s  wall 180.26 s
 Gradient of SCF Energy
            1           2           3           4           5           6
    1   0.0012296  -0.0023104   0.0003493   0.0014349  -0.0005046   0.0000705
    2   0.0003535  -0.0002138   0.0000798  -0.0001672   0.0002571   0.0004921
    3   0.0004685  -0.0003406  -0.0000497  -0.0009197  -0.0001780   0.0011145
            7           8           9          10          11          12
    1  -0.0001781   0.0008781  -0.0000440   0.0004784  -0.0004702  -0.0005638
    2   0.0002596  -0.0001195   0.0000091   0.0007067  -0.0006410   0.0003605
    3  -0.0000030  -0.0006378  -0.0000719   0.0001031   0.0001660   0.0003581
           13          14          15          16          17          18
    1  -0.0007656   0.0005997   0.0004122   0.0031618   0.0025428  -0.0017625
    2  -0.0010108  -0.0004375   0.0003713   0.0003043  -0.0006725  -0.0002228
    3  -0.0003120  -0.0002599   0.0002264   0.0002168  -0.0015608  -0.0002612
           19          20          21          22          23          24
    1  -0.0085846   0.0009948  -0.0016768   0.0083432   0.0021555  -0.0022489
    2  -0.0090979  -0.0002706   0.0044177   0.0063218  -0.0014498   0.0027649
    3   0.0026466  -0.0004168   0.0031535  -0.0060572  -0.0000035  -0.0005273
           25          26          27          28          29          30
    1  -0.0012403  -0.0021403   0.0014830  -0.0009706  -0.0001985   0.0004836
    2   0.0012358   0.0007074   0.0011810  -0.0023551  -0.0000324  -0.0003795
    3   0.0033092  -0.0020263   0.0004242   0.0015598  -0.0000445  -0.0000344
           31          32          33          34          35          36
    1  -0.0005072  -0.0003534  -0.0009455  -0.0002591   0.0012767  -0.0005822
    2  -0.0000745   0.0000386  -0.0000363   0.0002444  -0.0025415  -0.0001398
    3   0.0001446  -0.0000220   0.0003416   0.0002085  -0.0000101  -0.0004327
           37
    1   0.0004125
    2  -0.0002429
    3  -0.0002721
 Max gradient component =       9.098E-03
 RMS gradient           =       2.015E-03
 Gradient time:  CPU 3294.25 s  wall 209.76 s
 Geometry Optimization Parameters
   NAtoms,    NIC,     NZ,  NCons,   NDum,   NFix, NCnnct, MaxDiis
       37     280       0       3       0       0       0       0


** CONSTRAINED OPTIMIZATION IN DELOCALIZED INTERNAL COORDINATES **
   Searching for a Minimum

   Optimization Cycle:   1

                       Coordinates (Angstroms)
     ATOM                X               Y               Z
      1  C         7.6267055996    0.5299049658   -0.1462489655
      2  C         6.9385341016    1.3801954513    0.7033819461
      3  N         7.0262995636   -0.3790858824   -0.9091833285
      4  C         5.5628929208    1.2809682231    0.7678618101
      5  C         5.7047451766   -0.4672524969   -0.8376727133
      6  C         4.9123169452    0.3372711204   -0.0176686514
      7  C         3.4448767733    0.2160209403   -0.0089261790
      8  C         2.6290635989    1.3137405574   -0.0148366552
      9  C         2.7631619888   -1.0357229147    0.0113848453
     10  N         1.2737334839    1.3047424075    0.0073073739
     11  N         3.3009488425   -2.2567747576    0.0293694643
     12  C         1.3352807825   -1.0593928380    0.0381915676
     13  C         0.6085027107    0.1753156575    0.0330151216
     14  S         2.0746982704   -3.2996531648    0.0680017843
     15  N         0.8236908877   -2.2866298435    0.0711062638
     16  C        -0.8323194997    0.2715042469    0.0543444053
     17  S        -1.9341771517   -1.0620855659    0.1111368742
     18  C        -1.5443257198    1.4487532498    0.0356099578
     19  C        -3.3186999813   -0.0398997366    0.1097396549
     20  S        -1.0874331922    3.1172764919   -0.0147293827
     21  C        -2.9529417292    1.2893636378    0.0673711625
     22  C        -4.6641572917   -0.5723643411    0.1587292179
     23  C        -2.7767092815    3.5771849888    0.0066515541
     24  C        -3.6438273768    2.5501064353    0.0481760858
     25  N        -5.1049129765   -1.3098059454    1.1371546558
     26  S        -5.8424687134   -0.2839626970   -1.0918843938
     27  C        -6.3998101225   -1.6809473948    0.9281229703
     28  C        -6.9720731075   -1.2294373424   -0.2145025110
     29  H         8.7066358777    0.5787494552   -0.2192274480
     30  H         7.4801421753    2.0915844737    1.3102115752
     31  H         4.9905908351    1.9119187108    1.4360018041
     32  H         5.2390857110   -1.2145707046   -1.4681707173
     33  H         3.0648906474    2.3042298720   -0.0476939563
     34  H        -3.0281726377    4.6263624114   -0.0076795232
     35  H        -4.7169328696    2.6352867344    0.0716026393
     36  H        -6.9014872957   -2.2995633171    1.6565146714
     37  H        -7.9702773930   -1.3981949742   -0.5785859076
   Point Group: c1    Number of degrees of freedom:   105


   Energy is  -2595.901093616

              Constraints and their Current Values
                                        Value     Constraint
   Dihedral:        4   6   7   8       42.189       42.246
   Dihedral:       10  13  16  17     -179.124     -179.114
   Dihedral:       17  19  22  25       60.000       60.000

 Attempting to Generate Delocalized Internal Coordinates

   Using Lagrange Multiplier Algorithm


108 Hessian modes will be used to form the next step
  Hessian Eigenvalues:
    -0.977753   -0.977753   -0.977753    0.045000    0.045000    0.045000
     0.045000    0.045000    0.045000    0.045000    0.045000    0.045000
     0.045000    0.045000    0.045000    0.045000    0.045000    0.045000
     0.045000    0.045000    0.045000    0.045000    0.045000    0.045000
     0.045001    0.045001    0.045001    0.045001    0.045001    0.045003
     0.045005    0.045007    0.045009    0.045012    0.159961    0.159984
     0.159995    0.159997    0.159998    0.159999    0.160000    0.160000
     0.160000    0.220002    0.224572    0.225458    0.231978    0.233022
     0.234404    0.247446    0.247715    0.249914    0.249956    0.249989
     0.249992    0.249998    0.249998    0.249998    0.249999    0.249999
     0.249999    0.250000    0.250000    0.297515    0.305108    0.316329
     0.317280    0.326677    0.334471    0.354466    0.355754    0.356364
     0.356781    0.356811    0.359242    0.360773    0.361170    0.363916
     0.365008    0.372838    0.385324    0.386480    0.390167    0.393199
     0.397174    0.410394    0.431175    0.455299    0.463153    0.473302
     0.473331    0.475009    0.483101    0.491312    0.496878    0.499404
     0.517639    0.525704    0.538145    0.558610    0.574891    0.584500
     0.591081    0.623467    0.638991    1.022753    1.022753    1.022753

 Minimum Search - Taking P-RFO Step
 Searching for Lamda that Maximizes Along the Constraint modes Only
 Value Taken    Lamda =   0.00001160
 Searching for Lamda that Minimizes Along All other modes
 Value Taken    Lamda =  -0.00104932
 Step Taken.  Stepsize is  0.090002

                             Maximum     Tolerance    Cnvgd?
         Gradient            0.004681       0.000300      NO
         Displacement        0.041360       0.001200      NO
         Energy change     *********       0.000001      NO


 New Cartesian Coordinates Obtained by Inverse Iteration

 Displacement from previous Coordinates is:  0.348529
 ----------------------------------------------------------------
             Standard Nuclear Orientation (Angstroms)
    I     Atom           X                Y                Z
 ----------------------------------------------------------------
    1      C       7.6319518992     0.5035228990    -0.1556238183
    2      C       6.9543566255     1.3655912313     0.6906976792
    3      N       7.0236302428    -0.4073582915    -0.9095943277
    4      C       5.5769653886     1.2762564435     0.7591863006
    5      C       5.7021822699    -0.4848619371    -0.8353434192
    6      C       4.9171088884     0.3331487735    -0.0211570421
    7      C       3.4483466223     0.2240057377    -0.0071253595
    8      C       2.6393546759     1.3273949148    -0.0164853007
    9      C       2.7583784502    -1.0220865437     0.0199012644
   10      N       1.2831788239     1.3283791299     0.0093042013
   11      N       3.2880981019    -2.2460739833     0.0417102750
   12      C       1.3307724002    -1.0357535167     0.0480971076
   13      C       0.6112895245     0.2033249047     0.0409575383
   14      S       2.0533853322    -3.2792385981     0.0884146675
   15      N       0.8090924087    -2.2586831170     0.0860535452
   16      C      -0.8308100961     0.2975621691     0.0660105494
   17      S      -1.9198525840    -1.0452794600     0.1309306239
   18      C      -1.5499457053     1.4700798491     0.0459129792
   19      C      -3.3072819119    -0.0361915506     0.1336136673
   20      S      -1.1177701068     3.1458892513    -0.0100916862
   21      C      -2.9560269891     1.2931100505     0.0792451858
   22      C      -4.6511355667    -0.6004251963     0.1758131042
   23      C      -2.8125077552     3.5857581456     0.0058036858
   24      C      -3.6630172140     2.5461315311     0.0544251525
   25      N      -5.1024961614    -1.3554700733     1.1335372361
   26      S      -5.8086492939    -0.2873354934    -1.0819498806
   27      C      -6.3986501857    -1.7142663236     0.9040436215
   28      C      -6.9579986091    -1.2288980081    -0.2320085886
   29      H       8.7122734407     0.5439106420    -0.2322155126
   30      H       7.4999414643     2.0799647412     1.2904847619
   31      H       5.0132081728     1.9178369169     1.4237031838
   32      H       5.2318996455    -1.2345057575    -1.4592667315
   33      H       3.0874282750     2.3127208662    -0.0590866858
   34      H      -3.0769534009     4.6311647179    -0.0160148606
   35      H      -4.7381066966     2.6331401625     0.0784568113
   36      H      -6.9090415215    -2.3411108704     1.6190986453
   37      H      -7.9565283009    -1.3762182429    -0.6054615008
 ----------------------------------------------------------------
 Molecular Point Group                 C1    NOp =  1
 Largest Abelian Subgroup              C1    NOp =  1
 Nuclear Repulsion Energy =  2960.7239795151 hartrees
 There are      111 alpha and      111 beta electrons
 Applying Cartesian multipole field
    Component          Value
    ---------          -----
     (2,0,0)        1.00000E-12
     (0,2,0)        2.00000E-11
     (0,0,2)       -3.00000E-11
 Nucleus-field energy     =     0.0000000587 hartrees
 Requested basis set is cc-pVTZ
 There are 342 shells and 982 basis functions
 A cutoff of  1.0D-11 yielded  29210 shell pairs
 There are    231442 function pairs (    302307 Cartesian)
 Smallest overlap matrix eigenvalue = 2.26E-05
 Guess MOs from SCF MO coefficient file
 Reading MOs from coefficient file
 Reading MOs from coefficient file
 Long-range K will be added via erf
 Coulomb attenuation parameter = 0.2 bohr**(-1)
 A restricted hybrid HF-DFT SCF calculation will be
 performed using Pulay DIIS extrapolation
 Exchange:     0.2220 Hartree-Fock + 1.0000 wB97X-D + LR-HF
 Correlation:  1.0000 wB97X-D
 Using SG-2 standard quadrature grid
 Dispersion:   Grimme D
 SCF converges when DIIS error is below 1.0E-08
 Geometry optimization detected.  Setting ReadMinima to 0
 Setting SaveMinima to 0
 using 16 threads for integral computing 
 using 16 threads for integral computing 
 K construction time:  CPU 1077.14 s  wall 70.26 s
 -------------------------------------------------------
 OpenMP BLAS3 based DFT computing Module                
 Release: version 1.0, May 2013, Q-Chem Inc. Pittsburgh 
 -------------------------------------------------------
 ---------------------------------------
  Cycle       Energy         DIIS Error
 ---------------------------------------
    1   -2595.9049501517      2.31E-04
 K construction time:  CPU 1077.27 s  wall 70.29 s
    2   -2595.9016110299      2.39E-05
 K construction time:  CPU 788.93 s  wall 51.44 s
    3   -2595.9016941145      1.88E-05
 K construction time:  CPU 745.71 s  wall 48.57 s
    4   -2595.9017270715      8.77E-06
 K construction time:  CPU 691.14 s  wall 45.21 s
    5   -2595.9017355299      3.55E-06
 K construction time:  CPU 650.38 s  wall 42.39 s
    6   -2595.9017370927      1.32E-06
 K construction time:  CPU 581.12 s  wall 37.82 s
    7   -2595.9017373296      4.09E-07
 K construction time:  CPU 521.35 s  wall 33.85 s
    8   -2595.9017373590      1.69E-07
 K construction time:  CPU 474.01 s  wall 30.79 s
    9   -2595.9017373655      7.06E-08
 K construction time:  CPU 403.56 s  wall 26.17 s
   10   -2595.9017373659      2.49E-08
 K construction time:  CPU 353.96 s  wall 22.85 s
   11   -2595.9017373662      1.23E-08
 K construction time:  CPU 315.49 s  wall 20.39 s
   12   -2595.9017373647      5.05E-09 Convergence criterion met
 ---------------------------------------
 SCF time:  CPU 10381.32 s  wall 693.28 s
 SCF   energy in the final basis set = -2595.9017373647
 Total energy in the final basis set = -2595.9017373647
 
 --------------------------------------------------------------
 
                    Orbital Energies (a.u.)
 --------------------------------------------------------------
 
 Alpha MOs
 -- Occupied --
-89.155 -89.095 -89.093 -89.077 -14.494 -14.487 -14.452 -14.447
-14.435 -10.374 -10.369 -10.362 -10.359 -10.344 -10.339 -10.338
-10.334 -10.330 -10.327 -10.326 -10.326 -10.326 -10.325 -10.318
-10.315 -10.314 -10.303 -10.302  -8.165  -8.110  -8.107  -8.091
 -6.115  -6.109  -6.109  -6.059  -6.056  -6.056  -6.053  -6.052
 -6.050  -6.041  -6.037  -6.033  -1.152  -1.084  -1.072  -1.054
 -1.024  -1.015  -0.957  -0.945  -0.912  -0.910  -0.907  -0.884
 -0.861  -0.846  -0.830  -0.808  -0.775  -0.752  -0.744  -0.728
 -0.722  -0.697  -0.693  -0.676  -0.648  -0.640  -0.623  -0.621
 -0.616  -0.597  -0.584  -0.577  -0.570  -0.568  -0.541  -0.535
 -0.527  -0.526  -0.519  -0.514  -0.512  -0.503  -0.496  -0.490
 -0.488  -0.480  -0.478  -0.463  -0.458  -0.448  -0.440  -0.432
 -0.429  -0.423  -0.402  -0.390  -0.379  -0.373  -0.370  -0.369
 -0.364  -0.357  -0.342  -0.338  -0.327  -0.320  -0.275
 -- Virtual --
 -0.054   0.002   0.027   0.035   0.040   0.048   0.064   0.074
  0.084   0.087   0.101   0.108   0.112   0.121   0.129   0.133
  0.135   0.143   0.146   0.164   0.168   0.170   0.173   0.177
  0.188   0.193   0.197   0.212   0.215   0.229   0.238   0.246
  0.250   0.254   0.260   0.263   0.268   0.274   0.279   0.289
  0.295   0.298   0.301   0.306   0.308   0.316   0.319   0.327
  0.331   0.334   0.335   0.340   0.345   0.347   0.355   0.357
  0.360   0.364   0.366   0.372   0.375   0.377   0.379   0.386
  0.390   0.392   0.395   0.400   0.402   0.405   0.408   0.413
  0.417   0.424   0.427   0.429   0.432   0.435   0.439   0.441
  0.446   0.447   0.453   0.459   0.460   0.462   0.466   0.468
  0.471   0.472   0.474   0.479   0.482   0.483   0.488   0.494
  0.495   0.502   0.505   0.508   0.514   0.517   0.520   0.525
  0.529   0.532   0.540   0.543   0.545   0.548   0.550   0.556
  0.557   0.563   0.566   0.572   0.579   0.581   0.585   0.590
  0.597   0.610   0.614   0.616   0.623   0.634   0.637   0.647
  0.651   0.652   0.660   0.663   0.670   0.674   0.675   0.683
  0.691   0.693   0.695   0.696   0.709   0.718   0.722   0.723
  0.729   0.733   0.735   0.738   0.743   0.749   0.751   0.759
  0.762   0.767   0.772   0.778   0.778   0.786   0.792   0.794
  0.800   0.802   0.811   0.814   0.816   0.823   0.825   0.833
  0.835   0.843   0.847   0.850   0.855   0.856   0.861   0.862
  0.866   0.878   0.880   0.891   0.897   0.901   0.906   0.909
  0.922   0.924   0.928   0.936   0.937   0.948   0.951   0.954
  0.962   0.966   0.970   0.972   0.975   0.979   0.985   0.991
  0.996   1.011   1.018   1.024   1.026   1.030   1.035   1.040
  1.049   1.054   1.058   1.060   1.064   1.069   1.072   1.077
  1.079   1.083   1.088   1.098   1.108   1.116   1.118   1.129
  1.132   1.134   1.142   1.153   1.161   1.168   1.178   1.179
  1.180   1.191   1.200   1.202   1.210   1.220   1.225   1.227
  1.234   1.242   1.245   1.249   1.257   1.259   1.268   1.277
  1.282   1.289   1.293   1.295   1.301   1.319   1.322   1.338
  1.341   1.349   1.355   1.362   1.369   1.371   1.378   1.383
  1.393   1.398   1.403   1.406   1.419   1.421   1.430   1.441
  1.446   1.449   1.454   1.461   1.468   1.473   1.483   1.485
  1.492   1.498   1.508   1.509   1.520   1.531   1.540   1.557
  1.561   1.565   1.566   1.570   1.580   1.589   1.597   1.604
  1.610   1.612   1.619   1.625   1.631   1.635   1.639   1.646
  1.652   1.658   1.660   1.664   1.674   1.682   1.685   1.686
  1.697   1.700   1.702   1.712   1.716   1.723   1.730   1.738
  1.740   1.746   1.750   1.755   1.764   1.766   1.781   1.782
  1.800   1.815   1.818   1.821   1.846   1.849   1.863   1.869
  1.882   1.885   1.886   1.893   1.906   1.911   1.925   1.927
  1.931   1.936   1.944   1.945   1.953   1.969   1.974   1.981
  1.985   1.994   2.000   2.003   2.017   2.025   2.038   2.042
  2.053   2.062   2.067   2.078   2.084   2.087   2.106   2.110
  2.116   2.122   2.128   2.142   2.150   2.153   2.163   2.174
  2.182   2.186   2.191   2.200   2.209   2.222   2.224   2.232
  2.239   2.242   2.256   2.258   2.271   2.279   2.280   2.285
  2.298   2.304   2.317   2.326   2.340   2.350   2.357   2.363
  2.364   2.374   2.377   2.382   2.393   2.397   2.401   2.405
  2.418   2.430   2.436   2.440   2.453   2.454   2.459   2.463
  2.478   2.486   2.489   2.495   2.502   2.507   2.516   2.524
  2.532   2.534   2.541   2.546   2.548   2.559   2.563   2.568
  2.579   2.589   2.593   2.605   2.615   2.621   2.627   2.631
  2.643   2.648   2.655   2.660   2.668   2.676   2.679   2.682
  2.715   2.726   2.740   2.748   2.754   2.757   2.770   2.777
  2.780   2.785   2.792   2.794   2.796   2.800   2.811   2.816
  2.825   2.834   2.838   2.852   2.867   2.869   2.872   2.876
  2.880   2.889   2.900   2.907   2.915   2.933   2.938   2.943
  2.947   2.948   2.953   2.955   2.965   2.972   2.973   2.976
  2.981   2.987   2.993   3.000   3.006   3.012   3.023   3.027
  3.029   3.037   3.043   3.046   3.052   3.058   3.059   3.063
  3.072   3.073   3.076   3.092   3.097   3.101   3.104   3.111
  3.112   3.117   3.122   3.130   3.135   3.137   3.138   3.147
  3.152   3.157   3.160   3.170   3.172   3.176   3.178   3.185
  3.192   3.194   3.198   3.201   3.204   3.209   3.214   3.220
  3.225   3.227   3.231   3.236   3.240   3.244   3.246   3.250
  3.256   3.262   3.267   3.269   3.270   3.272   3.277   3.288
  3.293   3.296   3.298   3.305   3.309   3.316   3.324   3.330
  3.335   3.343   3.346   3.348   3.351   3.367   3.369   3.373
  3.381   3.390   3.393   3.398   3.407   3.408   3.415   3.421
  3.427   3.433   3.438   3.445   3.454   3.458   3.464   3.468
  3.470   3.480   3.484   3.485   3.493   3.501   3.510   3.515
  3.518   3.527   3.533   3.542   3.548   3.557   3.559   3.572
  3.585   3.590   3.593   3.603   3.612   3.622   3.625   3.639
  3.641   3.654   3.661   3.664   3.671   3.685   3.687   3.693
  3.701   3.721   3.730   3.733   3.744   3.750   3.753   3.760
  3.763   3.767   3.777   3.786   3.791   3.796   3.804   3.814
  3.826   3.832   3.834   3.842   3.847   3.859   3.863   3.866
  3.868   3.872   3.891   3.914   3.917   3.921   3.926   3.931
  3.936   3.947   3.948   3.952   3.963   3.970   3.971   3.978
  3.982   3.987   3.999   4.005   4.012   4.025   4.032   4.048
  4.058   4.071   4.079   4.081   4.087   4.106   4.110   4.120
  4.131   4.138   4.143   4.151   4.163   4.167   4.176   4.183
  4.197   4.198   4.205   4.207   4.217   4.229   4.232   4.246
  4.249   4.253   4.262   4.280   4.289   4.293   4.300   4.312
  4.323   4.334   4.346   4.348   4.357   4.376   4.385   4.389
  4.396   4.402   4.409   4.421   4.433   4.439   4.447   4.459
  4.464   4.476   4.480   4.494   4.499   4.512   4.517   4.529
  4.543   4.547   4.547   4.557   4.574   4.588   4.601   4.609
  4.617   4.634   4.641   4.647   4.657   4.669   4.676   4.684
  4.694   4.711   4.720   4.730   4.735   4.781   4.791   4.796
  4.808   4.815   4.826   4.844   4.845   4.855   4.857   4.872
  4.885   4.901   4.916   4.934   4.937   4.943   4.948   4.953
  4.957   4.963   4.966   4.974   4.986   4.996   4.998   5.006
  5.015   5.030   5.041   5.055   5.070   5.079   5.087   5.090
  5.111   5.114   5.133   5.145   5.154   5.158   5.175   5.194
  5.200   5.209   5.228   5.237   5.251   5.259   5.274   5.287
  5.314   5.317   5.330   5.338   5.357   5.359   5.384   5.399
  5.427   5.437   5.448   5.463   5.467   5.481   5.490   5.515
  5.532   5.556   5.566   5.576   5.604   5.636   5.665   5.686
  5.694   5.700   5.734   5.750   5.764   5.800   5.811   5.823
  5.845   5.858   5.892   5.927   5.945   5.953   6.002   6.053
  6.114   6.139   6.158   6.169   6.186   6.195   6.250   6.283
  6.308   6.318   6.354   6.406   6.489   6.853   7.020   8.017
  8.924   9.735   9.953  10.715  11.135  11.205  11.651  12.010
 12.316  12.493  12.555  12.875  12.958  13.146  13.183  13.426
 13.496  13.580  13.619  13.904  14.062  14.747  14.987
 --------------------------------------------------------------
 
          Ground-State Mulliken Net Atomic Charges

     Atom                 Charge (a.u.)
  ----------------------------------------
      1 C                    -0.072128
      2 C                    -0.102611
      3 N                    -0.155265
      4 C                    -0.156843
      5 C                    -0.095053
      6 C                     0.109618
      7 C                     0.031750
      8 C                    -0.093926
      9 C                     0.019460
     10 N                    -0.184185
     11 N                    -0.276031
     12 C                     0.029048
     13 C                     0.112372
     14 S                     0.413772
     15 N                    -0.283198
     16 C                    -0.065894
     17 S                     0.172430
     18 C                    -0.008150
     19 C                     0.059948
     20 S                     0.091895
     21 C                    -0.006083
     22 C                    -0.069483
     23 C                    -0.162172
     24 C                    -0.163178
     25 N                    -0.159599
     26 S                     0.112837
     27 C                    -0.092261
     28 C                    -0.193301
     29 H                     0.123838
     30 H                     0.128655
     31 H                     0.131159
     32 H                     0.128589
     33 H                     0.131042
     34 H                     0.131717
     35 H                     0.133231
     36 H                     0.133691
     37 H                     0.144308
  ----------------------------------------
  Sum of atomic charges =     0.000000

 -----------------------------------------------------------------
                    Cartesian Multipole Moments
 -----------------------------------------------------------------
    Charge (ESU x 10^10)
                 0.0000
    Dipole Moment (Debye)
         X      -2.5851      Y       1.3855      Z       0.2399
       Tot       2.9428
    Quadrupole Moments (Debye-Ang)
        XX    -163.1597     XY       9.8683     YY    -173.2486
        XZ      14.6649     YZ       2.4446     ZZ    -188.8939
    Octopole Moments (Debye-Ang^2)
       XXX    -278.9701    XXY      70.8723    XYY     -16.4382
       YYY       3.2811    XXZ      50.1230    XYZ      10.3827
       YYZ       5.1288    XZZ       0.3969    YZZ      -9.5687
       ZZZ      -4.9757
    Hexadecapole Moments (Debye-Ang^3)
      XXXX  -17498.6920   XXXY    1092.8158   XXYY   -3660.3539
      XYYY    -158.3970   YYYY   -3297.3958   XXXZ     711.4985
      XXYZ      31.1659   XYYZ      17.9862   YYYZ       0.6435
      XXZZ   -3447.4109   XYZZ      30.5937   YYZZ    -700.9232
      XZZZ      37.0901   YZZZ       7.1400   ZZZZ    -501.5380
 -----------------------------------------------------------------
 Calculating analytic gradient of the SCF energy
 K construction time:  CPU 2858.31 s  wall 180.64 s
 Gradient of SCF Energy
            1           2           3           4           5           6
    1   0.0001266  -0.0006360   0.0000177   0.0004344  -0.0000109   0.0000242
    2  -0.0000207   0.0001513  -0.0001254   0.0000778   0.0000680   0.0000265
    3   0.0000608   0.0000192  -0.0001502   0.0001210  -0.0001515   0.0000877
            7           8           9          10          11          12
    1  -0.0000850   0.0003095   0.0002036   0.0003781   0.0000853  -0.0001605
    2  -0.0001956   0.0000244   0.0000125   0.0001588   0.0000978  -0.0002056
    3   0.0002372  -0.0003166   0.0000677   0.0000223  -0.0001988   0.0002834
           13          14          15          16          17          18
    1  -0.0006125   0.0001335  -0.0005945   0.0003836   0.0008165  -0.0008236
    2  -0.0005970   0.0005342   0.0001670   0.0000744  -0.0000916  -0.0002191
    3  -0.0002025   0.0001109  -0.0000566   0.0000861  -0.0018952   0.0000255
           19          20          21          22          23          24
    1  -0.0012042  -0.0001985   0.0008265   0.0023893   0.0005251  -0.0001165
    2  -0.0017224  -0.0000319   0.0005501   0.0008736  -0.0002177   0.0013967
    3   0.0016217  -0.0000159   0.0021426  -0.0036520  -0.0002542  -0.0004377
           25          26          27          28          29          30
    1  -0.0017986  -0.0005096   0.0007983  -0.0002460  -0.0000604   0.0001886
    2   0.0011210  -0.0009712   0.0001034  -0.0002646  -0.0000093  -0.0000961
    3   0.0023167  -0.0007213  -0.0000240   0.0008693  -0.0000266   0.0000558
           31          32          33          34          35          36
    1  -0.0000449  -0.0000324  -0.0000634  -0.0001594  -0.0000829  -0.0002326
    2  -0.0000046  -0.0000208   0.0000292   0.0000782  -0.0007683  -0.0000375
    3  -0.0000109  -0.0000369   0.0001031   0.0001115   0.0000800  -0.0000967
           37
    1   0.0000315
    2   0.0000545
    3  -0.0001748
 Max gradient component =       3.652E-03
 RMS gradient           =       7.168E-04
 Gradient time:  CPU 3298.51 s  wall 211.28 s
 Geometry Optimization Parameters
   NAtoms,    NIC,     NZ,  NCons,   NDum,   NFix, NCnnct, MaxDiis
       37     280       0       3       0       0       0       0

 Cartesian Hessian Update
 Hessian Updated using BFGS Update


** CONSTRAINED OPTIMIZATION IN DELOCALIZED INTERNAL COORDINATES **
   Searching for a Minimum

   Optimization Cycle:   2

                       Coordinates (Angstroms)
     ATOM                X               Y               Z
      1  C         7.6319518992    0.5035228990   -0.1556238183
      2  C         6.9543566255    1.3655912313    0.6906976792
      3  N         7.0236302428   -0.4073582915   -0.9095943277
      4  C         5.5769653886    1.2762564435    0.7591863006
      5  C         5.7021822699   -0.4848619371   -0.8353434192
      6  C         4.9171088884    0.3331487735   -0.0211570421
      7  C         3.4483466223    0.2240057377   -0.0071253595
      8  C         2.6393546759    1.3273949148   -0.0164853007
      9  C         2.7583784502   -1.0220865437    0.0199012644
     10  N         1.2831788239    1.3283791299    0.0093042013
     11  N         3.2880981019   -2.2460739833    0.0417102750
     12  C         1.3307724002   -1.0357535167    0.0480971076
     13  C         0.6112895245    0.2033249047    0.0409575383
     14  S         2.0533853322   -3.2792385981    0.0884146675
     15  N         0.8090924087   -2.2586831170    0.0860535452
     16  C        -0.8308100961    0.2975621691    0.0660105494
     17  S        -1.9198525840   -1.0452794600    0.1309306239
     18  C        -1.5499457053    1.4700798491    0.0459129792
     19  C        -3.3072819119   -0.0361915506    0.1336136673
     20  S        -1.1177701068    3.1458892513   -0.0100916862
     21  C        -2.9560269891    1.2931100505    0.0792451858
     22  C        -4.6511355667   -0.6004251963    0.1758131042
     23  C        -2.8125077552    3.5857581456    0.0058036858
     24  C        -3.6630172140    2.5461315311    0.0544251525
     25  N        -5.1024961614   -1.3554700733    1.1335372361
     26  S        -5.8086492939   -0.2873354934   -1.0819498806
     27  C        -6.3986501857   -1.7142663236    0.9040436215
     28  C        -6.9579986091   -1.2288980081   -0.2320085886
     29  H         8.7122734407    0.5439106420   -0.2322155126
     30  H         7.4999414643    2.0799647412    1.2904847619
     31  H         5.0132081728    1.9178369169    1.4237031838
     32  H         5.2318996455   -1.2345057575   -1.4592667315
     33  H         3.0874282750    2.3127208662   -0.0590866858
     34  H        -3.0769534009    4.6311647179   -0.0160148606
     35  H        -4.7381066966    2.6331401625    0.0784568113
     36  H        -6.9090415215   -2.3411108704    1.6190986453
     37  H        -7.9565283009   -1.3762182429   -0.6054615008
   Point Group: c1    Number of degrees of freedom:   105


   Energy is  -2595.901737365

              Constraints and their Current Values
                                        Value     Constraint
   Dihedral:        4   6   7   8       42.246       42.246
   Dihedral:       10  13  16  17     -179.114     -179.114
   Dihedral:       17  19  22  25       60.000       60.000
 Hessian Updated using BFGS Update

   Using Lagrange Multiplier Algorithm


104 Hessian modes will be used to form the next step
  Hessian Eigenvalues:
    -0.977657    0.034817    0.045000    0.045000    0.045000    0.045000
     0.045000    0.045000    0.045000    0.045000    0.045000    0.045000
     0.045000    0.045000    0.045000    0.045000    0.045000    0.045000
     0.045000    0.045000    0.045000    0.045001    0.045001    0.045001
     0.045001    0.045001    0.045003    0.045005    0.045007    0.045009
     0.045012    0.047584    0.151128    0.159963    0.159985    0.159998
     0.159999    0.159999    0.160000    0.160000    0.160385    0.214899
     0.220273    0.224609    0.226108    0.232081    0.233098    0.234462
     0.247575    0.247760    0.249915    0.249956    0.249989    0.249994
     0.249998    0.249998    0.249998    0.249999    0.249999    0.250000
     0.275137    0.297676    0.304065    0.316439    0.317340    0.326850
     0.334580    0.354493    0.355743    0.356357    0.356799    0.356858
     0.359245    0.360765    0.361135    0.364519    0.365070    0.372954
     0.385701    0.386860    0.390544    0.393536    0.404078    0.414576
     0.431258    0.455833    0.462096    0.473302    0.473538    0.474975
     0.483007    0.490004    0.496912    0.498945    0.517613    0.526450
     0.538810    0.559020    0.574895    0.585131    0.591308    0.623509
     0.637021    1.022912

 Minimum Search - Taking P-RFO Step
 Searching for Lamda that Maximizes Along the Constraint modes Only
 Value Taken    Lamda =   0.00000010
 Searching for Lamda that Minimizes Along All other modes
 Value Taken    Lamda =  -0.00025538
 Step Taken.  Stepsize is  0.072762

                             Maximum     Tolerance    Cnvgd?
         Gradient            0.001268       0.000300      NO
         Displacement        0.038390       0.001200      NO
         Energy change     -0.000644       0.000001      NO


 New Cartesian Coordinates Obtained by Inverse Iteration

 Displacement from previous Coordinates is:  0.255146
 ----------------------------------------------------------------
             Standard Nuclear Orientation (Angstroms)
    I     Atom           X                Y                Z
 ----------------------------------------------------------------
    1      C       7.6311688688     0.5147859285    -0.1668814468
    2      C       6.9520091017     1.3800402881     0.6745283271
    3      N       7.0249544804    -0.4048606873    -0.9116035532
    4      C       5.5745465327     1.2845161172     0.7467157706
    5      C       5.7040288995    -0.4875430128    -0.8346545262
    6      C       4.9167286795     0.3340603134    -0.0263916541
    7      C       3.4483534637     0.2201034619    -0.0065316597
    8      C       2.6362113939     1.3213278287    -0.0195204045
    9      C       2.7619272148    -1.0278910446     0.0289221393
   10      N       1.2802714051     1.3198982290     0.0117687235
   11      N       3.2946588548    -2.2508098318     0.0562515912
   12      C       1.3347812925    -1.0444814341     0.0600049333
   13      C       0.6118373874     0.1937073954     0.0508374363
   14      S       2.0635929501    -3.2884055934     0.1084306937
   15      N       0.8179673523    -2.2695806520     0.1047816721
   16      C      -0.8310813949     0.2882048437     0.0805017981
   17      S      -1.9231753842    -1.0517470281     0.1553073687
   18      C      -1.5472833799     1.4623218272     0.0577746824
   19      C      -3.3062683107    -0.0399234748     0.1595662872
   20      S      -1.1135115446     3.1374581545    -0.0067062273
   21      C      -2.9544985835     1.2869817990     0.0940548968
   22      C      -4.6504784727    -0.6120877658     0.1888577125
   23      C      -2.8081460034     3.5790173866     0.0094932994
   24      C      -3.6595298420     2.5404995990     0.0643446289
   25      N      -5.1161667033    -1.3782266919     1.1279243743
   26      S      -5.7917326696    -0.2554167901    -1.0691921433
   27      C      -6.4148701520    -1.7180996474     0.8790222231
   28      C      -6.9583195585    -1.2029419248    -0.2523758357
   29      H       8.7112698587     0.5595141529    -0.2464249147
   30      H       7.4936082206     2.1032099158     1.2671272184
   31      H       5.0101007317     1.9290879875     1.4075682763
   32      H       5.2365330297    -1.2445666455    -1.4515013116
   33      H       3.0832827909     2.3067971359    -0.0711533736
   34      H      -3.0701865487     4.6245715214    -0.0189961563
   35      H      -4.7339505190     2.6386284208     0.0891186647
   36      H      -6.9366384073    -2.3527784180     1.5785747134
   37      H      -7.9559244815    -1.3302355498    -0.6355671516
 ----------------------------------------------------------------
 Molecular Point Group                 C1    NOp =  1
 Largest Abelian Subgroup              C1    NOp =  1
 Nuclear Repulsion Energy =  2961.0243585235 hartrees
 There are      111 alpha and      111 beta electrons
 Applying Cartesian multipole field
    Component          Value
    ---------          -----
     (2,0,0)        1.00000E-12
     (0,2,0)        2.00000E-11
     (0,0,2)       -3.00000E-11
 Nucleus-field energy     =     0.0000000588 hartrees
 Requested basis set is cc-pVTZ
 There are 342 shells and 982 basis functions
 A cutoff of  1.0D-11 yielded  29203 shell pairs
 There are    231413 function pairs (    302306 Cartesian)
 Smallest overlap matrix eigenvalue = 2.24E-05
 Guess MOs from SCF MO coefficient file
 Reading MOs from coefficient file
 Reading MOs from coefficient file
 Long-range K will be added via erf
 Coulomb attenuation parameter = 0.2 bohr**(-1)
 A restricted hybrid HF-DFT SCF calculation will be
 performed using Pulay DIIS extrapolation
 Exchange:     0.2220 Hartree-Fock + 1.0000 wB97X-D + LR-HF
 Correlation:  1.0000 wB97X-D
 Using SG-2 standard quadrature grid
 Dispersion:   Grimme D
 SCF converges when DIIS error is below 1.0E-08
 Geometry optimization detected.  Setting ReadMinima to 0
 Setting SaveMinima to 0
 using 16 threads for integral computing 
 using 16 threads for integral computing 
 K construction time:  CPU 1076.73 s  wall 70.27 s
 -------------------------------------------------------
 OpenMP BLAS3 based DFT computing Module                
 Release: version 1.0, May 2013, Q-Chem Inc. Pittsburgh 
 -------------------------------------------------------
 ---------------------------------------
  Cycle       Energy         DIIS Error
 ---------------------------------------
    1   -2595.9019838267      1.80E-04
 K construction time:  CPU 1078.46 s  wall 70.28 s
    2   -2595.9017999077      1.76E-05
 K construction time:  CPU 755.78 s  wall 49.31 s
    3   -2595.9018732201      9.96E-06
 K construction time:  CPU 715.33 s  wall 46.76 s
    4   -2595.9018824607      7.14E-06
 K construction time:  CPU 678.61 s  wall 44.27 s
    5   -2595.9018886364      2.36E-06
 K construction time:  CPU 619.98 s  wall 40.38 s
    6   -2595.9018893425      1.10E-06
 K construction time:  CPU 560.57 s  wall 36.49 s
    7   -2595.9018895029      3.02E-07
 K construction time:  CPU 507.49 s  wall 33.02 s
    8   -2595.9018895229      1.42E-07
 K construction time:  CPU 448.69 s  wall 29.19 s
    9   -2595.9018895278      3.99E-08
 K construction time:  CPU 370.80 s  wall 24.08 s
   10   -2595.9018895291      1.58E-08
 K construction time:  CPU 323.46 s  wall 20.87 s
   11   -2595.9018895273      6.34E-09 Convergence criterion met
 ---------------------------------------
 SCF time:  CPU 9633.01 s  wall 642.51 s
 SCF   energy in the final basis set = -2595.9018895273
 Total energy in the final basis set = -2595.9018895273
 
 --------------------------------------------------------------
 
                    Orbital Energies (a.u.)
 --------------------------------------------------------------
 
 Alpha MOs
 -- Occupied --
-89.155 -89.094 -89.093 -89.077 -14.494 -14.487 -14.452 -14.447
-14.435 -10.374 -10.369 -10.362 -10.359 -10.344 -10.340 -10.338
-10.334 -10.330 -10.328 -10.326 -10.326 -10.326 -10.325 -10.318
-10.315 -10.314 -10.303 -10.302  -8.165  -8.110  -8.107  -8.091
 -6.115  -6.109  -6.109  -6.059  -6.056  -6.055  -6.053  -6.052
 -6.050  -6.041  -6.037  -6.033  -1.152  -1.085  -1.072  -1.054
 -1.024  -1.015  -0.958  -0.945  -0.912  -0.910  -0.907  -0.884
 -0.861  -0.846  -0.831  -0.808  -0.775  -0.752  -0.744  -0.728
 -0.722  -0.697  -0.693  -0.676  -0.648  -0.640  -0.623  -0.621
 -0.616  -0.597  -0.584  -0.577  -0.570  -0.568  -0.541  -0.535
 -0.527  -0.526  -0.519  -0.514  -0.512  -0.503  -0.496  -0.490
 -0.488  -0.480  -0.478  -0.463  -0.458  -0.448  -0.440  -0.432
 -0.429  -0.423  -0.402  -0.391  -0.380  -0.374  -0.370  -0.369
 -0.364  -0.357  -0.342  -0.338  -0.327  -0.320  -0.275
 -- Virtual --
 -0.054   0.002   0.027   0.036   0.040   0.048   0.064   0.074
  0.085   0.087   0.101   0.108   0.112   0.121   0.129   0.133
  0.136   0.143   0.146   0.164   0.168   0.170   0.173   0.178
  0.188   0.193   0.197   0.212   0.215   0.229   0.237   0.246
  0.250   0.254   0.260   0.263   0.268   0.274   0.279   0.288
  0.296   0.298   0.301   0.306   0.308   0.316   0.319   0.327
  0.331   0.334   0.335   0.340   0.345   0.347   0.355   0.357
  0.360   0.364   0.366   0.372   0.375   0.377   0.379   0.386
  0.389   0.392   0.395   0.400   0.401   0.405   0.407   0.413
  0.417   0.425   0.427   0.429   0.431   0.435   0.439   0.441
  0.446   0.448   0.452   0.459   0.460   0.462   0.466   0.468
  0.471   0.472   0.474   0.479   0.482   0.483   0.489   0.494
  0.495   0.502   0.505   0.508   0.514   0.516   0.520   0.524
  0.529   0.532   0.540   0.543   0.545   0.548   0.550   0.556
  0.557   0.563   0.566   0.572   0.579   0.583   0.586   0.590
  0.597   0.610   0.614   0.616   0.623   0.634   0.636   0.647
  0.650   0.652   0.659   0.663   0.670   0.674   0.676   0.683
  0.692   0.693   0.695   0.696   0.709   0.718   0.722   0.723
  0.729   0.733   0.735   0.737   0.743   0.749   0.751   0.760
  0.763   0.767   0.772   0.778   0.779   0.785   0.792   0.795
  0.800   0.803   0.811   0.814   0.816   0.822   0.825   0.833
  0.835   0.844   0.847   0.850   0.854   0.856   0.861   0.862
  0.865   0.877   0.880   0.891   0.897   0.901   0.906   0.909
  0.922   0.924   0.928   0.936   0.937   0.948   0.951   0.954
  0.962   0.966   0.969   0.972   0.975   0.979   0.984   0.992
  0.996   1.012   1.017   1.024   1.026   1.030   1.034   1.040
  1.049   1.053   1.058   1.060   1.065   1.069   1.072   1.077
  1.079   1.084   1.088   1.098   1.108   1.115   1.118   1.128
  1.133   1.134   1.142   1.153   1.161   1.169   1.178   1.180
  1.181   1.191   1.200   1.203   1.210   1.220   1.225   1.227
  1.234   1.241   1.246   1.249   1.257   1.259   1.267   1.278
  1.283   1.290   1.294   1.295   1.301   1.319   1.322   1.338
  1.341   1.350   1.355   1.361   1.369   1.371   1.379   1.383
  1.393   1.398   1.402   1.406   1.419   1.422   1.430   1.441
  1.447   1.449   1.454   1.461   1.467   1.473   1.483   1.485
  1.491   1.498   1.507   1.509   1.520   1.531   1.540   1.557
  1.561   1.565   1.566   1.571   1.580   1.589   1.597   1.604
  1.610   1.613   1.619   1.625   1.631   1.635   1.638   1.646
  1.652   1.658   1.660   1.664   1.676   1.682   1.685   1.686
  1.698   1.700   1.703   1.712   1.716   1.722   1.730   1.738
  1.741   1.747   1.751   1.755   1.764   1.766   1.780   1.781
  1.801   1.814   1.818   1.822   1.846   1.849   1.863   1.869
  1.882   1.886   1.886   1.894   1.904   1.910   1.925   1.928
  1.930   1.935   1.945   1.946   1.952   1.969   1.974   1.981
  1.984   1.994   2.000   2.003   2.017   2.026   2.037   2.043
  2.054   2.063   2.067   2.079   2.084   2.087   2.106   2.110
  2.115   2.122   2.128   2.142   2.151   2.153   2.163   2.174
  2.183   2.186   2.191   2.199   2.209   2.222   2.225   2.231
  2.238   2.242   2.256   2.259   2.271   2.277   2.279   2.285
  2.298   2.303   2.316   2.326   2.340   2.351   2.357   2.363
  2.365   2.374   2.378   2.382   2.393   2.398   2.401   2.405
  2.419   2.429   2.437   2.440   2.453   2.454   2.459   2.463
  2.479   2.485   2.489   2.495   2.502   2.507   2.517   2.524
  2.531   2.534   2.541   2.546   2.548   2.559   2.562   2.569
  2.579   2.589   2.593   2.605   2.615   2.621   2.627   2.631
  2.644   2.647   2.655   2.659   2.668   2.675   2.679   2.682
  2.715   2.725   2.739   2.746   2.754   2.757   2.770   2.777
  2.780   2.785   2.793   2.794   2.796   2.800   2.811   2.816
  2.824   2.833   2.838   2.852   2.865   2.869   2.871   2.876
  2.879   2.892   2.900   2.907   2.913   2.933   2.938   2.944
  2.947   2.948   2.953   2.955   2.964   2.972   2.973   2.976
  2.982   2.987   2.993   3.000   3.005   3.012   3.023   3.026
  3.029   3.037   3.044   3.047   3.052   3.058   3.059   3.062
  3.072   3.073   3.076   3.092   3.096   3.101   3.104   3.111
  3.111   3.118   3.123   3.130   3.136   3.138   3.138   3.147
  3.152   3.157   3.160   3.170   3.172   3.176   3.179   3.185
  3.192   3.193   3.198   3.201   3.204   3.209   3.215   3.221
  3.225   3.227   3.230   3.237   3.240   3.244   3.247   3.250
  3.256   3.262   3.266   3.269   3.271   3.272   3.277   3.287
  3.292   3.296   3.298   3.306   3.309   3.315   3.324   3.330
  3.335   3.342   3.346   3.349   3.351   3.366   3.369   3.374
  3.382   3.391   3.394   3.400   3.406   3.408   3.415   3.422
  3.428   3.433   3.438   3.445   3.455   3.458   3.464   3.468
  3.469   3.480   3.483   3.485   3.493   3.501   3.509   3.516
  3.518   3.527   3.532   3.543   3.548   3.558   3.559   3.572
  3.584   3.590   3.592   3.603   3.611   3.622   3.623   3.638
  3.640   3.653   3.660   3.664   3.671   3.685   3.688   3.693
  3.702   3.722   3.729   3.732   3.744   3.749   3.752   3.760
  3.764   3.766   3.778   3.785   3.791   3.796   3.804   3.814
  3.826   3.832   3.834   3.843   3.846   3.859   3.863   3.866
  3.867   3.873   3.891   3.913   3.917   3.922   3.925   3.931
  3.936   3.946   3.948   3.952   3.963   3.971   3.972   3.978
  3.982   3.988   3.999   4.005   4.011   4.025   4.032   4.047
  4.059   4.069   4.079   4.082   4.087   4.106   4.110   4.120
  4.130   4.138   4.144   4.151   4.162   4.168   4.176   4.183
  4.196   4.198   4.205   4.207   4.215   4.229   4.232   4.245
  4.249   4.253   4.261   4.280   4.289   4.293   4.300   4.312
  4.323   4.333   4.346   4.349   4.357   4.375   4.385   4.388
  4.396   4.401   4.409   4.420   4.433   4.439   4.446   4.458
  4.463   4.475   4.480   4.494   4.498   4.512   4.517   4.529
  4.542   4.546   4.547   4.557   4.574   4.589   4.601   4.609
  4.617   4.634   4.641   4.647   4.657   4.668   4.677   4.683
  4.695   4.711   4.719   4.730   4.735   4.780   4.791   4.796
  4.808   4.814   4.826   4.845   4.846   4.854   4.858   4.871
  4.885   4.901   4.917   4.934   4.938   4.943   4.948   4.953
  4.958   4.963   4.966   4.973   4.986   4.996   4.998   5.005
  5.017   5.030   5.041   5.055   5.070   5.078   5.087   5.091
  5.112   5.115   5.133   5.146   5.154   5.159   5.175   5.193
  5.200   5.210   5.230   5.236   5.252   5.259   5.275   5.285
  5.315   5.317   5.329   5.337   5.356   5.358   5.383   5.399
  5.427   5.436   5.447   5.465   5.469   5.481   5.491   5.515
  5.532   5.556   5.567   5.576   5.603   5.636   5.665   5.688
  5.695   5.701   5.733   5.748   5.764   5.802   5.814   5.823
  5.845   5.859   5.892   5.928   5.946   5.953   6.001   6.053
  6.115   6.138   6.157   6.168   6.187   6.198   6.250   6.287
  6.307   6.318   6.353   6.406   6.489   6.853   7.021   8.026
  8.925   9.734   9.947  10.703  11.140  11.198  11.637  12.000
 12.307  12.492  12.553  12.872  12.974  13.149  13.176  13.438
 13.489  13.580  13.621  13.905  14.071  14.750  14.985
 --------------------------------------------------------------
 
          Ground-State Mulliken Net Atomic Charges

     Atom                 Charge (a.u.)
  ----------------------------------------
      1 C                    -0.072097
      2 C                    -0.102810
      3 N                    -0.155185
      4 C                    -0.156945
      5 C                    -0.095222
      6 C                     0.109550
      7 C                     0.031827
      8 C                    -0.094277
      9 C                     0.020273
     10 N                    -0.183888
     11 N                    -0.276646
     12 C                     0.028528
     13 C                     0.112067
     14 S                     0.414595
     15 N                    -0.283169
     16 C                    -0.066347
     17 S                     0.171975
     18 C                    -0.007399
     19 C                     0.059357
     20 S                     0.091773
     21 C                    -0.006205
     22 C                    -0.067849
     23 C                    -0.162248
     24 C                    -0.164419
     25 N                    -0.158926
     26 S                     0.111849
     27 C                    -0.091862
     28 C                    -0.193520
     29 H                     0.123730
     30 H                     0.128813
     31 H                     0.131158
     32 H                     0.128532
     33 H                     0.130995
     34 H                     0.131801
     35 H                     0.134166
     36 H                     0.133625
     37 H                     0.144401
  ----------------------------------------
  Sum of atomic charges =     0.000000

 -----------------------------------------------------------------
                    Cartesian Multipole Moments
 -----------------------------------------------------------------
    Charge (ESU x 10^10)
                 0.0000
    Dipole Moment (Debye)
         X      -2.5816      Y       1.4434      Z       0.2085
       Tot       2.9651
    Quadrupole Moments (Debye-Ang)
        XX    -163.3140     XY       9.6018     YY    -173.2050
        XZ      14.7038     YZ       2.4366     ZZ    -188.9763
    Octopole Moments (Debye-Ang^2)
       XXX    -281.1204    XXY      73.7074    XYY     -15.4355
       YYY       4.0840    XXZ      46.8970    XYZ       9.9986
       YYZ       3.8823    XZZ       0.0285    YZZ      -9.1274
       ZZZ      -8.2151
    Hexadecapole Moments (Debye-Ang^3)
      XXXX  -17504.4885   XXXY    1088.0671   XXYY   -3660.4160
      XYYY    -155.9041   YYYY   -3297.0681   XXXZ     719.1001
      XXYZ      32.7196   XYYZ      21.3866   YYYZ       4.7103
      XXZZ   -3450.1390   XYZZ      29.4085   YYZZ    -701.1059
      XZZZ      44.6241   YZZZ      12.1992   ZZZZ    -498.3006
 -----------------------------------------------------------------
 Calculating analytic gradient of the SCF energy
 K construction time:  CPU 2853.64 s  wall 180.19 s
 Gradient of SCF Energy
            1           2           3           4           5           6
    1  -0.0001524   0.0002597   0.0000098  -0.0001827  -0.0000087   0.0000010
    2  -0.0000819   0.0001100   0.0000029  -0.0001631   0.0000266   0.0000469
    3  -0.0000749   0.0000209   0.0000010   0.0003448  -0.0000306  -0.0004491
            7           8           9          10          11          12
    1  -0.0000020  -0.0002812  -0.0000903  -0.0001794  -0.0003011   0.0001663
    2  -0.0001204  -0.0000381   0.0003112   0.0000214  -0.0001258   0.0003707
    3   0.0004247  -0.0001981  -0.0000113   0.0000387   0.0000521   0.0000607
           13          14          15          16          17          18
    1   0.0001422   0.0001294   0.0004737  -0.0003947  -0.0006645  -0.0000012
    2   0.0001473  -0.0007433  -0.0000383   0.0002596   0.0002269  -0.0000876
    3  -0.0001951  -0.0000441   0.0000648  -0.0000211  -0.0020511   0.0001870
           19          20          21          22          23          24
    1   0.0009768  -0.0001447   0.0006112  -0.0000410  -0.0002689   0.0002589
    2   0.0019062   0.0001127  -0.0006638  -0.0035711   0.0000527  -0.0000568
    3   0.0016347   0.0000319   0.0014390  -0.0025373  -0.0001358  -0.0003607
           25          26          27          28          29          30
    1  -0.0011819   0.0002353   0.0002992   0.0002646   0.0000401  -0.0000084
    2   0.0021777  -0.0007178  -0.0000200   0.0003375   0.0000159  -0.0000236
    3   0.0017138   0.0003557   0.0000260  -0.0003672   0.0000065   0.0000200
           31          32          33          34          35          36
    1   0.0000430   0.0000563   0.0001248   0.0000376  -0.0002458   0.0000647
    2   0.0000227   0.0000313  -0.0000004  -0.0000699   0.0001807   0.0000612
    3  -0.0000688  -0.0000117   0.0000041   0.0000246   0.0000579   0.0001022
           37
    1  -0.0000454
    2   0.0001001
    3  -0.0000540
 Max gradient component =       3.571E-03
 RMS gradient           =       6.514E-04
 Gradient time:  CPU 3293.30 s  wall 209.72 s
 Geometry Optimization Parameters
   NAtoms,    NIC,     NZ,  NCons,   NDum,   NFix, NCnnct, MaxDiis
       37     280       0       3       0       0       0       0

 Cartesian Hessian Update
 Hessian Updated using BFGS Update


** CONSTRAINED OPTIMIZATION IN DELOCALIZED INTERNAL COORDINATES **
   Searching for a Minimum

   Optimization Cycle:   3

                       Coordinates (Angstroms)
     ATOM                X               Y               Z
      1  C         7.6311688688    0.5147859285   -0.1668814468
      2  C         6.9520091017    1.3800402881    0.6745283271
      3  N         7.0249544804   -0.4048606873   -0.9116035532
      4  C         5.5745465327    1.2845161172    0.7467157706
      5  C         5.7040288995   -0.4875430128   -0.8346545262
      6  C         4.9167286795    0.3340603134   -0.0263916541
      7  C         3.4483534637    0.2201034619   -0.0065316597
      8  C         2.6362113939    1.3213278287   -0.0195204045
      9  C         2.7619272148   -1.0278910446    0.0289221393
     10  N         1.2802714051    1.3198982290    0.0117687235
     11  N         3.2946588548   -2.2508098318    0.0562515912
     12  C         1.3347812925   -1.0444814341    0.0600049333
     13  C         0.6118373874    0.1937073954    0.0508374363
     14  S         2.0635929501   -3.2884055934    0.1084306937
     15  N         0.8179673523   -2.2695806520    0.1047816721
     16  C        -0.8310813949    0.2882048437    0.0805017981
     17  S        -1.9231753842   -1.0517470281    0.1553073687
     18  C        -1.5472833799    1.4623218272    0.0577746824
     19  C        -3.3062683107   -0.0399234748    0.1595662872
     20  S        -1.1135115446    3.1374581545   -0.0067062273
     21  C        -2.9544985835    1.2869817990    0.0940548968
     22  C        -4.6504784727   -0.6120877658    0.1888577125
     23  C        -2.8081460034    3.5790173866    0.0094932994
     24  C        -3.6595298420    2.5404995990    0.0643446289
     25  N        -5.1161667033   -1.3782266919    1.1279243743
     26  S        -5.7917326696   -0.2554167901   -1.0691921433
     27  C        -6.4148701520   -1.7180996474    0.8790222231
     28  C        -6.9583195585   -1.2029419248   -0.2523758357
     29  H         8.7112698587    0.5595141529   -0.2464249147
     30  H         7.4936082206    2.1032099158    1.2671272184
     31  H         5.0101007317    1.9290879875    1.4075682763
     32  H         5.2365330297   -1.2445666455   -1.4515013116
     33  H         3.0832827909    2.3067971359   -0.0711533736
     34  H        -3.0701865487    4.6245715214   -0.0189961563
     35  H        -4.7339505190    2.6386284208    0.0891186647
     36  H        -6.9366384073   -2.3527784180    1.5785747134
     37  H        -7.9559244815   -1.3302355498   -0.6355671516
   Point Group: c1    Number of degrees of freedom:   105


   Energy is  -2595.901889527

              Constraints and their Current Values
                                        Value     Constraint
   Dihedral:        4   6   7   8       42.246       42.246
   Dihedral:       10  13  16  17     -179.114     -179.114
   Dihedral:       17  19  22  25       60.000       60.000
 Hessian Updated using BFGS Update

 82 Hessian modes will be used to form the next step
  Hessian Eigenvalues:
     0.020587    0.045000    0.045000    0.045000    0.045000    0.045000
     0.045000    0.045001    0.045001    0.045003    0.045005    0.045007
     0.045009    0.045012    0.045816    0.046938    0.157990    0.159964
     0.159987    0.159998    0.159999    0.159999    0.160135    0.161236
     0.220092    0.224574    0.225966    0.229940    0.232464    0.233334
     0.234593    0.247588    0.247876    0.249915    0.249956    0.249994
     0.249998    0.249999    0.259898    0.290084    0.297908    0.309052
     0.316584    0.318290    0.329776    0.340051    0.354498    0.355779
     0.356394    0.356800    0.356867    0.359267    0.360779    0.361276
     0.364540    0.365061    0.372896    0.386584    0.390493    0.391930
     0.398110    0.411933    0.413853    0.431250    0.456252    0.465784
[...]
     27  C        -6.4243232336   -1.7393620302    0.8256240505
     28  C        -6.9535743844   -1.1855538424   -0.2935754810
     29  H         8.7077272923    0.5592163028   -0.2906279288
     30  H         7.5033663629    2.1244269100    1.2118911554
     31  H         5.0219436057    1.9490208197    1.3810167027
     32  H         5.2220012790   -1.2665107441   -1.4320026898
     33  H         3.0800376571    2.3066200909   -0.0803581470
     34  H        -3.0642569458    4.6230161845   -0.0165472105
     35  H        -4.7309919685    2.6404567904    0.1115255090
     36  H        -6.9555138881   -2.3979501340    1.4953687444
     37  H        -7.9460405560   -1.3004974093   -0.6934488954
   Point Group: c1    Number of degrees of freedom:   105


   Energy is  -2595.901988137

              Constraints and their Current Values
                                        Value     Constraint
   Dihedral:        4   6   7   8       42.246       42.246
   Dihedral:       10  13  16  17     -179.114     -179.114
   Dihedral:       17  19  22  25       60.000       60.000
 Hessian Updated using BFGS Update

 99 Hessian modes will be used to form the next step
  Hessian Eigenvalues:
     0.010144    0.028418    0.044881    0.045000    0.045000    0.045000
     0.045000    0.045000    0.045000    0.045000    0.045000    0.045000
     0.045000    0.045000    0.045000    0.045001    0.045001    0.045001
     0.045001    0.045002    0.045005    0.045006    0.045008    0.045010
     0.045031    0.045446    0.045924    0.047108    0.150867    0.159047
     0.159928    0.159973    0.159995    0.160003    0.160024    0.160136
     0.160350    0.216784    0.220025    0.224872    0.226893    0.232128
     0.233385    0.234503    0.246129    0.247848    0.248886    0.249597
     0.249925    0.249964    0.249994    0.249998    0.249999    0.250205
     0.255771    0.292905    0.297782    0.298253    0.316271    0.318341
     0.325626    0.332534    0.351193    0.354642    0.355754    0.356431
     0.356819    0.356877    0.359260    0.360797    0.361251    0.364634
     0.365155    0.384440    0.386801    0.390641    0.395846    0.402957
     0.405820    0.431138    0.440480    0.455647    0.462675    0.473476
     0.475484    0.476975    0.483237    0.489872    0.496008    0.498071
     0.516973    0.527068    0.538393    0.561087    0.574930    0.591293
     0.619971    0.624381    0.655936

 Minimum Search - Taking Simple RFO Step
 Searching for Lamda that Minimizes Along All modes
 Value Taken    Lamda =   0.00000000
 Step Taken.  Stepsize is  0.003359

                             Maximum     Tolerance    Cnvgd?
         Gradient           0.000073      0.000300     YES
         Displacement       0.001122      0.001200     YES
         Energy change     -0.000001      0.000001      NO

 Final energy is   -2595.90198813656     


 ******************************
 **  OPTIMIZATION CONVERGED  **
 ******************************

                       Coordinates (Angstroms)
     ATOM                X               Y               Z
      1  C         7.6285760357    0.5150041885   -0.1997569910
      2  C         6.9568034068    1.3919328165    0.6354685602
      3  N         7.0157947996   -0.4165137509   -0.9242563037
      4  C         5.5804381824    1.2965688806    0.7227158665
      5  C         5.6957200491   -0.4984898357   -0.8335347872
      6  C         4.9156512642    0.3355257806   -0.0308969213
      7  C         3.4478239069    0.2204851992    0.0047247221
      8  C         2.6351130610    1.3210680339   -0.0151429724
      9  C         2.7621986908   -1.0275683019    0.0564078194
     10  N         1.2794918232    1.3187636985    0.0258218602
     11  N         3.2956936511   -2.2497071997    0.0923064577
     12  C         1.3349686765   -1.0448672172    0.0935215901
     13  C         0.6117784682    0.1925172090    0.0774392585
     14  S         2.0646091353   -3.2865118088    0.1589830009
     15  N         0.8179544944   -2.2691887763    0.1507612703
     16  C        -0.8307733379    0.2856882596    0.1098154497
     17  S        -1.9220441955   -1.0533973497    0.2002503170
     18  C        -1.5474591422    1.4593799125    0.0788198916
     19  C        -3.3072640836   -0.0409373522    0.2066099438
     20  S        -1.1100330602    3.1325678930    0.0002376854
     21  C        -2.9551343326    1.2859580574    0.1202751856
     22  C        -4.6480482372   -0.6156010778    0.1936506723
     23  C        -2.8035090017    3.5772413115    0.0191781998
     24  C        -3.6571906142    2.5408532168    0.0840038083
     25  N        -5.1286614808   -1.4089469311    1.1017192034
     26  S        -5.7768028265   -0.2095716801   -1.0640115235
     27  C        -6.4243232336   -1.7393620302    0.8256240505
     28  C        -6.9535743844   -1.1855538424   -0.2935754810
     29  H         8.7077272923    0.5592163028   -0.2906279288
     30  H         7.5033663629    2.1244269100    1.2118911554
     31  H         5.0219436057    1.9490208197    1.3810167027
     32  H         5.2220012790   -1.2665107441   -1.4320026898
     33  H         3.0800376571    2.3066200909   -0.0803581470
     34  H        -3.0642569458    4.6230161845   -0.0165472105
     35  H        -4.7309919685    2.6404567904    0.1115255090
     36  H        -6.9555138881   -2.3979501340    1.4953687444
     37  H        -7.9460405560   -1.3004974093   -0.6934488954

Z-matrix Print:
$molecule
0 1
S 
C  1 1.715794
C  2 1.375536 1 111.242153
C  3 1.418923 2 111.943848 1 1.272600 0
C  4 1.375555 3 114.326916 2 -1.030578 0
C  3 1.438388 2 135.907432 1 179.990245 0
H  6 1.078762 3 124.454415 2 0.914612 0
C  6 1.344275 3 111.338125 2 -178.722812 0
H  8 1.078383 6 126.562354 3 179.842055 0
C  5 1.445920 4 125.049124 3 -179.947901 0
N  10 1.310319 5 116.993573 4 -0.598079 0
C  11 1.356242 10 120.796983 5 179.620386 0
H  12 1.083293 11 114.449499 10 -178.592048 0
C  12 1.368275 11 126.291273 10 0.707701 0
C  14 1.424918 12 114.787085 11 -0.853964 0
N  15 1.333990 14 127.660621 12 179.612664 0
C  15 1.427817 14 119.506677 12 0.492194 0
N  17 1.330242 15 113.626408 14 179.505141 0
C  2 1.458804 1 120.632986 3 -175.338710 0
N  19 1.298066 2 125.088696 1 -60.000005 0
C  20 1.365336 19 110.965315 2 -178.037090 0
H  21 1.079101 20 119.296117 19 -179.836508 0
C  21 1.356251 20 116.000022 19 0.769414 0
H  23 1.076150 21 128.528404 20 179.508197 0
C  14 1.472759 12 121.924206 11 179.392450 0
C  25 1.390495 14 121.156078 12 -42.245735 0
H  26 1.082114 25 119.978962 14 -2.566943 0
C  26 1.382421 25 119.305890 14 178.434771 0
H  28 1.080528 26 121.111796 25 179.676185 0
C  28 1.384877 26 118.511445 25 0.371285 0
H  30 1.083873 28 120.510669 26 179.825436 0
N  30 1.329709 28 123.275031 26 -0.009308 0
C  32 1.325725 30 117.704206 28 -0.031415 0
H  33 1.082788 32 116.210548 30 179.879037 0
S  18 1.609087 17 106.319604 15 -0.130423 0
S  23 1.711988 21 109.628563 20 -0.640381 0
S  4 1.731206 3 111.722970 2 178.928388 0
$end

 
 --------------------------------------------------------------
 
                    Orbital Energies (a.u.)
 --------------------------------------------------------------
 
 Alpha MOs
 -- Occupied --
-89.155 -89.094 -89.093 -89.077 -14.494 -14.487 -14.452 -14.447
-14.435 -10.374 -10.369 -10.362 -10.359 -10.344 -10.340 -10.338
-10.334 -10.330 -10.327 -10.326 -10.326 -10.326 -10.325 -10.318
-10.316 -10.314 -10.304 -10.302  -8.165  -8.110  -8.107  -8.091
 -6.115  -6.110  -6.109  -6.059  -6.056  -6.055  -6.053  -6.052
 -6.050  -6.041  -6.037  -6.033  -1.152  -1.084  -1.072  -1.054
 -1.024  -1.015  -0.958  -0.946  -0.912  -0.910  -0.907  -0.884
 -0.861  -0.846  -0.830  -0.808  -0.775  -0.752  -0.744  -0.728
 -0.722  -0.697  -0.693  -0.676  -0.648  -0.640  -0.623  -0.621
 -0.616  -0.597  -0.584  -0.577  -0.570  -0.568  -0.541  -0.535
 -0.527  -0.526  -0.519  -0.514  -0.512  -0.503  -0.496  -0.490
 -0.488  -0.480  -0.478  -0.463  -0.458  -0.448  -0.440  -0.433
 -0.429  -0.423  -0.402  -0.391  -0.380  -0.373  -0.370  -0.369
 -0.364  -0.357  -0.342  -0.339  -0.327  -0.320  -0.274
 -- Virtual --
 -0.054   0.001   0.027   0.036   0.040   0.047   0.064   0.074
  0.085   0.087   0.102   0.108   0.112   0.121   0.129   0.133
  0.136   0.143   0.146   0.164   0.168   0.170   0.173   0.178
  0.188   0.193   0.197   0.212   0.215   0.229   0.237   0.246
  0.250   0.254   0.261   0.263   0.268   0.274   0.280   0.289
  0.296   0.298   0.301   0.306   0.308   0.316   0.318   0.327
  0.331   0.334   0.335   0.341   0.345   0.347   0.355   0.357
  0.360   0.364   0.367   0.372   0.375   0.377   0.379   0.385
  0.389   0.393   0.395   0.400   0.401   0.405   0.407   0.414
  0.417   0.424   0.427   0.429   0.431   0.435   0.439   0.442
  0.446   0.447   0.452   0.459   0.460   0.463   0.466   0.468
  0.471   0.472   0.474   0.479   0.482   0.483   0.489   0.493
  0.494   0.502   0.505   0.508   0.514   0.516   0.520   0.524
  0.529   0.532   0.540   0.542   0.545   0.548   0.550   0.556
  0.558   0.564   0.566   0.571   0.579   0.584   0.588   0.590
  0.597   0.610   0.613   0.617   0.623   0.633   0.636   0.646
  0.650   0.653   0.658   0.663   0.670   0.673   0.676   0.683
  0.693   0.695   0.695   0.697   0.709   0.718   0.722   0.725
  0.730   0.733   0.735   0.738   0.744   0.749   0.751   0.760
  0.763   0.767   0.772   0.779   0.779   0.786   0.792   0.795
  0.800   0.803   0.811   0.814   0.816   0.822   0.825   0.832
  0.835   0.843   0.846   0.850   0.854   0.857   0.860   0.862
  0.864   0.877   0.879   0.892   0.898   0.900   0.906   0.909
  0.922   0.924   0.928   0.935   0.936   0.947   0.952   0.954
  0.962   0.965   0.969   0.972   0.975   0.979   0.984   0.992
  0.996   1.012   1.018   1.024   1.027   1.030   1.034   1.040
  1.048   1.052   1.057   1.060   1.065   1.068   1.073   1.077
  1.079   1.085   1.087   1.098   1.108   1.113   1.118   1.128
  1.134   1.135   1.142   1.152   1.162   1.168   1.175   1.180
  1.183   1.190   1.201   1.203   1.210   1.219   1.225   1.228
  1.235   1.240   1.247   1.251   1.256   1.259   1.266   1.277
  1.284   1.290   1.293   1.296   1.302   1.319   1.322   1.338
  1.341   1.350   1.355   1.361   1.368   1.371   1.379   1.382
  1.391   1.398   1.402   1.407   1.417   1.422   1.430   1.439
  1.446   1.449   1.454   1.460   1.466   1.473   1.482   1.485
  1.492   1.499   1.506   1.510   1.520   1.531   1.540   1.555
  1.559   1.564   1.567   1.572   1.581   1.588   1.597   1.603
  1.610   1.613   1.619   1.625   1.631   1.635   1.638   1.646
  1.652   1.658   1.661   1.664   1.676   1.683   1.685   1.687
  1.698   1.700   1.704   1.713   1.716   1.721   1.730   1.738
  1.741   1.747   1.752   1.756   1.765   1.766   1.780   1.781
  1.804   1.813   1.817   1.822   1.847   1.849   1.863   1.869
  1.882   1.885   1.886   1.894   1.903   1.909   1.925   1.929
  1.930   1.935   1.946   1.947   1.952   1.968   1.974   1.981
  1.984   1.994   2.001   2.002   2.016   2.027   2.036   2.043
  2.053   2.063   2.067   2.080   2.085   2.087   2.105   2.110
  2.112   2.122   2.128   2.141   2.150   2.153   2.163   2.174
  2.182   2.187   2.191   2.200   2.209   2.222   2.226   2.231
  2.237   2.243   2.256   2.259   2.271   2.275   2.279   2.285
  2.296   2.303   2.316   2.326   2.341   2.349   2.357   2.363
  2.364   2.374   2.378   2.382   2.393   2.398   2.401   2.405
  2.420   2.429   2.438   2.440   2.453   2.454   2.459   2.464
  2.479   2.485   2.488   2.495   2.501   2.507   2.517   2.524
  2.530   2.533   2.540   2.544   2.549   2.558   2.563   2.570
  2.580   2.587   2.592   2.604   2.615   2.622   2.628   2.632
  2.645   2.647   2.655   2.660   2.668   2.676   2.680   2.684
  2.717   2.722   2.739   2.746   2.753   2.757   2.771   2.777
  2.779   2.785   2.792   2.794   2.796   2.801   2.811   2.816
  2.824   2.833   2.838   2.851   2.861   2.869   2.872   2.875
  2.880   2.893   2.900   2.906   2.912   2.933   2.938   2.945
  2.947   2.950   2.953   2.956   2.962   2.972   2.973   2.975
  2.983   2.986   2.993   3.000   3.005   3.013   3.023   3.025
  3.029   3.035   3.044   3.048   3.052   3.058   3.059   3.061
  3.071   3.073   3.076   3.092   3.095   3.101   3.104   3.108
  3.111   3.118   3.123   3.129   3.136   3.137   3.138   3.146
  3.153   3.156   3.160   3.169   3.173   3.177   3.180   3.185
  3.191   3.192   3.200   3.202   3.204   3.208   3.216   3.222
  3.225   3.227   3.230   3.238   3.240   3.243   3.248   3.250
  3.256   3.261   3.266   3.270   3.273   3.273   3.277   3.288
  3.292   3.296   3.297   3.307   3.309   3.313   3.322   3.329
  3.336   3.340   3.346   3.349   3.350   3.366   3.369   3.374
  3.382   3.391   3.395   3.399   3.405   3.410   3.414   3.422
  3.427   3.432   3.439   3.445   3.456   3.458   3.464   3.468
  3.469   3.480   3.482   3.485   3.494   3.502   3.509   3.516
  3.518   3.527   3.532   3.542   3.549   3.559   3.560   3.573
  3.583   3.589   3.592   3.604   3.611   3.620   3.622   3.637
  3.639   3.652   3.660   3.665   3.670   3.685   3.687   3.693
  3.701   3.720   3.728   3.733   3.744   3.749   3.751   3.760
  3.765   3.766   3.778   3.784   3.791   3.797   3.804   3.814
  3.826   3.833   3.833   3.843   3.847   3.858   3.862   3.866
  3.867   3.873   3.892   3.911   3.917   3.921   3.924   3.931
  3.937   3.946   3.947   3.952   3.963   3.971   3.974   3.978
  3.982   3.988   3.999   4.006   4.011   4.024   4.033   4.047
  4.060   4.069   4.079   4.083   4.088   4.106   4.109   4.122
  4.131   4.138   4.144   4.154   4.159   4.168   4.176   4.183
  4.195   4.198   4.204   4.209   4.214   4.229   4.232   4.246
  4.249   4.253   4.260   4.280   4.289   4.293   4.300   4.312
  4.323   4.333   4.346   4.348   4.358   4.375   4.384   4.389
  4.397   4.402   4.409   4.420   4.433   4.440   4.447   4.457
  4.463   4.475   4.481   4.495   4.497   4.513   4.517   4.529
  4.541   4.547   4.548   4.557   4.574   4.588   4.602   4.609
  4.617   4.633   4.641   4.647   4.657   4.669   4.679   4.684
  4.695   4.711   4.719   4.730   4.735   4.780   4.791   4.795
  4.807   4.814   4.825   4.844   4.845   4.855   4.858   4.871
  4.885   4.900   4.913   4.934   4.937   4.942   4.948   4.953
  4.956   4.962   4.966   4.973   4.986   4.995   4.998   5.003
  5.019   5.029   5.042   5.055   5.070   5.078   5.087   5.089
  5.112   5.114   5.134   5.147   5.154   5.158   5.175   5.194
  5.199   5.209   5.230   5.236   5.251   5.259   5.276   5.284
  5.315   5.317   5.329   5.337   5.354   5.357   5.382   5.399
  5.426   5.435   5.447   5.465   5.469   5.481   5.490   5.515
  5.532   5.556   5.567   5.575   5.603   5.636   5.665   5.686
  5.694   5.700   5.733   5.745   5.763   5.803   5.818   5.823
  5.843   5.859   5.892   5.930   5.945   5.953   6.002   6.054
  6.115   6.138   6.159   6.169   6.187   6.200   6.250   6.288
  6.307   6.318   6.353   6.406   6.489   6.853   7.021   8.027
  8.926   9.739   9.955  10.708  11.140  11.202  11.635  12.002
 12.305  12.489  12.553  12.876  12.989  13.150  13.179  13.423
 13.485  13.585  13.612  13.908  14.074  14.750  14.986
 --------------------------------------------------------------
 
          Ground-State Mulliken Net Atomic Charges

     Atom                 Charge (a.u.)
  ----------------------------------------
      1 C                    -0.072086
      2 C                    -0.102722
      3 N                    -0.155236
      4 C                    -0.156975
      5 C                    -0.095406
      6 C                     0.109728
      7 C                     0.032449
      8 C                    -0.094507
      9 C                     0.020197
     10 N                    -0.184370
     11 N                    -0.276908
     12 C                     0.028953
     13 C                     0.112637
     14 S                     0.414384
     15 N                    -0.282926
     16 C                    -0.066751
     17 S                     0.171305
     18 C                    -0.006132
     19 C                     0.068448
     20 S                     0.092496
     21 C                    -0.011898
     22 C                    -0.069924
     23 C                    -0.162481
     24 C                    -0.165143
     25 N                    -0.158797
     26 S                     0.108392
     27 C                    -0.091829
     28 C                    -0.192776
     29 H                     0.123767
     30 H                     0.128771
     31 H                     0.131098
     32 H                     0.128576
     33 H                     0.131039
     34 H                     0.131767
     35 H                     0.135170
     36 H                     0.133363
     37 H                     0.144326
  ----------------------------------------
  Sum of atomic charges =     0.000000

 -----------------------------------------------------------------
                    Cartesian Multipole Moments
 -----------------------------------------------------------------
    Charge (ESU x 10^10)
                 0.0000
    Dipole Moment (Debye)
         X      -2.5273      Y       1.5008      Z       0.1723
       Tot       2.9444
    Quadrupole Moments (Debye-Ang)
        XX    -163.4007     XY       9.5869     YY    -173.1751
        XZ      14.8021     YZ       2.3457     ZZ    -189.1293
    Octopole Moments (Debye-Ang^2)
       XXX    -277.6367    XXY      75.6118    XYY     -15.1090
       YYY       3.4424    XXZ      41.0280    XYZ       8.8094
       YYZ       1.9500    XZZ      -0.4536    YZZ      -9.1953
       ZZZ     -13.9756
    Hexadecapole Moments (Debye-Ang^3)
      XXXX  -17483.2416   XXXY    1096.6089   XXYY   -3655.0146
      XYYY    -147.4352   YYYY   -3298.6101   XXXZ     723.8671
      XXYZ      35.2137   XYYZ      23.6072   YYYZ      11.6736
      XXZZ   -3454.7358   XYZZ      27.8277   YYZZ    -701.8508
      XZZZ      48.7884   YZZZ      21.0244   ZZZZ    -495.3245
 -----------------------------------------------------------------
Archival summary:
1\1\mn256\OPT\ProcedureUnspecified\BasisUnspecified\45199\afmv_a\FriJun218:46:122017FriJun218:46:122017\0\\#,OPT,ProcedureUnspecified,BasisUnspecified,\\0,1\S\C,1,1.71579\C,2,1.37554,1,111.242\C,3,1.41892,2,111.944,1,1.2726,0\C,4,1.37555,3,114.327,2,-1.03058,0\C,3,1.43839,2,135.907,1,179.99,0\H,6,1.07876,3,124.454,2,0.914612,0\C,6,1.34427,3,111.338,2,-178.723,0\H,8,1.07838,6,126.562,3,179.842,0\C,5,1.44592,4,125.049,3,-179.948,0\N,10,1.31032,5,116.994,4,-0.598079,0\C,11,1.35624,10,120.797,5,179.62,0\H,12,1.08329,11,114.449,10,-178.592,0\C,12,1.36827,11,126.291,10,0.707701,0\C,14,1.42492,12,114.787,11,-0.853964,0\N,15,1.33399,14,127.661,12,179.613,0\C,15,1.42782,14,119.507,12,0.492194,0\N,17,1.33024,15,113.626,14,179.505,0\C,2,1.4588,1,120.633,3,-175.339,0\N,19,1.29807,2,125.089,1,-60,0\C,20,1.36534,19,110.965,2,-178.037,0\H,21,1.0791,20,119.296,19,-179.837,0\C,21,1.35625,20,116,19,0.769414,0\H,23,1.07615,21,128.528,20,179.508,0\C,14,1.47276,12,121.924,11,179.392,0\C,25,1.3905,14,121.156,12,-42.2457,0\H,26,1.08211,25,119.979,14,-2.56694,0\C,26,1.38242,25,119.306,14,178.435,0\H,28,1.08053,26,121.112,25,179.676,0\C,28,1.38488,26,118.511,25,0.371285,0\H,30,1.08387,28,120.511,26,179.825,0\N,30,1.32971,28,123.275,26,-0.00930823,0\C,32,1.32573,30,117.704,28,-0.0314154,0\H,33,1.08279,32,116.211,30,179.879,0\S,18,1.60909,17,106.32,15,-0.130423,0\S,23,1.71199,21,109.629,20,-0.640381,0\S,4,1.73121,3,111.723,2,178.928,0\\\@

 Total job time:  6163.11s(wall), 93200.31s(cpu) 
 Fri Jun  2 18:46:12 2017

        *************************************************************
        *                                                           *
        *  Thank you very much for using Q-Chem.  Have a nice day.  *
        *                                                           *
        *************************************************************


0 sent ACK to 0 
now end server 0 ... 
cleanup process ... done
