
Running Job 1 of 1 C271_2/C271_135.qcin
qchem C271_2/C271_135.qcin_32708.0 /tmpu/cab_g/afmv_a/scratch_qchem/qchem32708/ 1
/tmpu/appuserlic/qchem4.4/parallel-MPICH/bin/mpi/mpirun_qchem -machinefile /tmpu/appuserlic/qchem4.4/parallel-MPICH/bin/mpi/machines -np 1 /tmpu/appuserlic/qchem4.4/parallel-MPICH/exe/qcprog.exe C271_2/C271_135.qcin_32708.0 /tmpu/cab_g/afmv_a/scratch_qchem/qchem32708/

Process 0 of 1 is on mn250 - thread support 0
initial socket setup ...start
initial socket setup ...done 
now start server 0 ... 
Check license passed

                  Welcome to Q-Chem
     A Quantum Leap Into The Future Of Chemistry


 Q-Chem 4.4, Q-Chem, Inc., Pleasanton, CA (2016)

 Y. Shao,  Z. Gan,  E. Epifanovsky,  A. T. B. Gilbert,  M. Wormit,  
 J. Kussmann,  A. W. Lange,  A. Behn,  J. Deng,  X. Feng,  D. Ghosh,  
 M. Goldey,  P. R. Horn,  L. D. Jacobson,  I. Kaliman,  F. Rob,  
 R. Z. Khaliullin,  T. Kus,  A. Landau,  J. Liu,  E. I. Proynov,  Y. M. Rhee,  
 R. M. Richard,  M. A. Rohrdanz,  R. P. Steele,  E. J. Sundstrom,  
 H. L. Woodcock III,  P. M. Zimmerman,  D. Zuev,  B. Albrecht,  E. Alguire,  
 B. Austin,  S. A. Baeppler,  G. J. O. Beran,  Y. A. Bernard,  E. Berquist,  
 K. Brandhorst,  K. B. Bravaya,  S. T. Brown,  D. Casanova,  C.-M. Chang,  
 Y. Chen,  S. H. Chien,  K. D. Closser,  M. P. Coons,  D. L. Crittenden,  
 S. Dasgupta,  M. Diedenhofen,  R. A. DiStasio Jr.,  H. Do,  A. D. Dutoi,  
 R. G. Edgar,  P.-T. Fang,  S. Fatehi,  Q. Feng,  L. Fusti-Molnar,  
 A. Ghysels,  A. Golubeva-Zadorozhnaya,  J. Gomes,  A. Gunina,  
 M. W. D. Hanson-Heine,  P. H. P. Harbach,  A. W. Hauser,  J. E. Herr,  
 E. G. Hohenstein,  Z. C. Holden,  K. Hui,  T.-C. Jagau,  H. Ji,  B. Kaduk,  
 K. Khistyaev,  Jaehoon Kim,  Jihan Kim,  R. A. King,  P. Klunzinger,  
 K. Koh,  D. Kosenkov,  T. Kowalczyk,  C. M. Krauter,  A. Kunitsa,  
 K. U. Lao,  A. Laurent,  K. V. Lawler,  J. Lee,  D. Lefrancois,  S. Lehtola,  
 S. V. Levchenko,  C. Y. Lin,  Y.-S. Lin,  F. Liu,  E. Livshits,  
 R. C. Lochan,  A. Luenser,  P. Manohar,  S. F. Manzer,  S.-P. Mao,  Y. Mao,  
 N. Mardirossian,  A. V. Marenich,  L. A. Martinez-Martinez,  S. A. Maurer,  
 N. J. Mayhall,  J.-M. Mewes,  A. F. Morrison,  K. Nanda,  T. S. Nguyen-Beck,  
 C. M. Oana,  R. Olivares-Amaya,  D. P. O'Neill,  J. A. Parkhill,  
 T. M. Perrine,  R. Peverati,  P. A. Pieniazek,  F. Plasser,  A. Prociuk,  
 D. R. Rehn,  E. Rosta,  N. J. Russ,  N. Sergueev,  S. M. Sharada,  
 S. Sharma,  D. W. Small,  A. Sodt,  T. Stauch,  T. Stein,  D. Stuck,  
 Y.-C. Su,  A. J. W. Thom,  T. Tsuchimochi,  L. Vogt,  O. Vydrov,  T. Wang,  
 M. A. Watson,  J. Wenzel,  A. White,  C. F. Williams,  V. Vanovschi,  
 K. Yao,  S. Yeganeh,  S. R. Yost,  Z.-Q. You,  I. Y. Zhang,  X. Zhang,  
 Y. Zhao,  B. R. Brooks,  G. K. L. Chan,  D. M. Chipman,  C. J. Cramer,  
 W. A. Goddard III,  M. S. Gordon,  W. J. Hehre,  A. Klamt,  
 H. F. Schaefer III,  M. W. Schmidt,  C. D. Sherrill,  D. G. Truhlar,  
 A. Warshel,  X. Xu,  A. Aspuru-Guzik,  R. Baer,  A. T. Bell,  N. A. Besley,  
 J.-D. Chai,  A. Dreuw,  B. D. Dunietz,  T. R. Furlani,  S. R. Gwaltney,  
 C.-P. Hsu,  Y. Jung,  J. Kong,  D. S. Lambrecht,  W. Liang,  C. Ochsenfeld,  
 V. A. Rassolov,  L. V. Slipchenko,  J. E. Subotnik,  T. Van Voorhis,  
 J. M. Herbert,  A. I. Krylov,  P. M. W. Gill,  M. Head-Gordon

 Contributors to earlier versions of Q-Chem not listed above: 
 R. D. Adamson,  J. Baker,  E. F. C. Byrd,  A. K. Chakraborty,  C.-L. Cheng,  
 H. Dachsel,  R. J. Doerksen,  G. Hawkins,  A. Heyden,  S. Hirata,  
 G. Kedziora,  F. J. Keil,  C. Kelley,  P. P. Korambath,  W. Kurlancheek,  
 A. M. Lee,  M. S. Lee,  D. Liotard,  I. Lotan,  P. E. Maslen,  N. Nair,  
 D. Neuhauser,  R. Olson,  B. Peters,  J. Ritchie,  N. E. Schultz,  
 N. Shenvi,  A. C. Simmonett,  K. S. Thanthiriwatte,  Q. Wu,  W. Zhang

 Please cite Q-Chem as follows:
 Y. Shao et al., Mol. Phys. 113, 184-215 (2015)
 DOI: 10.1080/00268976.2014.952696

 Q-Chem 4.4.2 for Intel X86 Linux

 Parts of Q-Chem use Armadillo 5.200.1 (Boston Tea Smuggler).
 http://arma.sourceforge.net/

 Q-Chem begins on Sat Jun  3 08:33:34 2017  

Host: 
0

     Scratch files written to /tmpu/cab_g/afmv_a/scratch_qchem/qchem32708//
 Dec716 11556_ 22328  22283 4050   
 Parallel job on  1  processors
Processing $rem in /tmpu/appuserlic/qchem4.4/parallel-MPICH/config/preferences.
 MEM_TOTAL  2000 
FILE_GEOM_ORG=        593

Checking the input file for inconsistencies... 	...done.

--------------------------------------------------------------
User input:
--------------------------------------------------------------
$comment
OPTIMIZATION
$end

$rem
JOBTYPE OPT
EXCHANGE omegaB97X-D
BASIS cc-pVTZ
$end

$molecule
0 1
C          0.00000        0.00000        0.00000
C          1.38508        0.00000        0.00000
N         -0.72771       -1.11322        0.00000
C          2.04720       -1.21160       -0.00386
C         -0.08136       -2.27149       -0.00595
C          1.30925       -2.38901       -0.00649
C          1.96927       -3.70493        0.02329
C          3.04486       -3.95576        0.82999
C          1.55200       -4.80802       -0.77739
N          3.72631       -5.12438        0.91627
N          0.54624       -4.84522       -1.65350
C          2.26335       -6.04410       -0.69858
C          3.37925       -6.16090        0.19241
S          0.53898       -6.32692       -2.28381
N          1.78433       -6.98642       -1.50573
C          4.16725       -7.35995        0.35676
S          3.54271       -8.96537        0.52514
C          5.54191       -7.40022        0.40052
C          5.11082       -9.66338        0.65006
S          6.77380       -6.18950        0.29161
C          6.09133       -8.69698        0.56531
C          5.30413      -11.08914        0.81136
C          8.00050       -7.42639        0.46748
C          7.52852       -8.67847        0.60180
N          6.47844      -11.64548        0.89439
S          3.98119      -12.21857        0.91049
C          6.37300      -12.99726        1.03497
C          5.11344      -13.49679        1.06502
H         -0.55134        0.93273        0.00000
H          1.92494        0.93597       -0.01293
H          3.12873       -1.25416       -0.02668
H         -0.69553       -3.16348       -0.00579
H          3.41622       -3.17720        1.48423
H          9.03852       -7.13224        0.45332
H          8.12733       -9.56602        0.71596
H          7.26716      -13.59658        1.11380
H          4.79856      -14.52056        1.16595
$end

$opt
CONSTRAINT
tors 4 6 7 8 42.24575
tors 10 13 16 17 135.00000
tors 17 19 22 25 179.21698
ENDCONSTRAINT
$end
--------------------------------------------------------------
 ----------------------------------------------------------------
             Standard Nuclear Orientation (Angstroms)
    I     Atom           X                Y                Z
 ----------------------------------------------------------------
    1      C       7.5792407217     0.2857640756    -0.7086959010
    2      C       6.9298844810     1.4527902039    -0.3414996390
    3      N       6.9448876774    -0.8632292731    -0.9237101151
    4      C       5.5581654883     1.4265374417    -0.1862896149
    5      C       5.6275270840    -0.8776040091    -0.7696077078
    6      C       4.8726548373     0.2373829424    -0.4027570525
    7      C       3.4067740014     0.1672745587    -0.2826034650
    8      C       2.5932563335     1.1477116330    -0.7801037912
    9      C       2.7245429728    -0.9087354024     0.3567506236
   10      N       1.2401430829     1.1802136968    -0.7058125269
   11      N       3.2606175875    -1.9857495595     0.9339596521
   12      C       1.2991247775    -0.8853171997     0.4448310486
   13      C       0.5748131802     0.2139651425    -0.1205796626
   14      S       2.0354950685    -2.8573763579     1.5102580397
   15      N       0.7874444346    -1.9375326571     1.0772424045
   16      C      -0.8635760854     0.3404587783    -0.0939056007
   17      S      -1.9962859736    -0.9178426590    -0.4536572023
   18      C      -1.5481884604     1.4898946879     0.2275437914
   19      C      -3.3569722026     0.0975957959    -0.1722150787
   20      S      -1.0526896367     3.0843114375     0.6831460557
   21      C      -2.9603986265     1.3684418193     0.1886050511
   22      C      -4.7148863715    -0.3868417365    -0.3047571885
   23      C      -2.7311879938     3.5650095204     0.8142667540
   24      C      -3.6220111179     2.5971007068     0.5348065612
   25      N      -5.7621592504     0.3548641012    -0.0845206789
   26      S      -5.0953796562    -2.0212086316    -0.7734562795
   27      C      -6.9128861764    -0.3506872343    -0.2748213700
   28      C      -6.7634490594    -1.6451415429    -0.6476232048
   29      H       8.6550765994     0.2701902917    -0.8363503958
   30      H       7.4984145984     2.3550636604    -0.1673389064
   31      H       5.0163551822     2.3118016426     0.1215872008
   32      H       5.1337910596    -1.8244045645    -0.9502853798
   33      H       3.0288624188     1.9934443347    -1.2968991439
   34      H      -2.9584996691     4.5777809047     1.1089424635
   35      H      -4.6931695823     2.7020018909     0.5658904792
   36      H      -7.8660163519     0.1332695912    -0.1256590544
   37      H      -7.5241525132    -2.3788536233    -0.8487155487
 ----------------------------------------------------------------
 Molecular Point Group                 C1    NOp =  1
 Largest Abelian Subgroup              C1    NOp =  1
 Nuclear Repulsion Energy =  2960.8931487315 hartrees
 There are      111 alpha and      111 beta electrons
 Requested basis set is cc-pVTZ
 There are 342 shells and 982 basis functions

 Total QAlloc Memory Limit   2000 MB
 Mega-Array Size        61 MB
 MEM_STATIC part        62 MB
 A cutoff of  1.0D-11 yielded  29205 shell pairs
 There are    231595 function pairs (    302468 Cartesian)
 
 -------------------------------------------------------
 OpenMP Integral Computing Module                       
 Release: version 1.0, May 2013, Q-Chem Inc. Pittsburgh 
 -------------------------------------------------------
 Integral Job Info:
 Integral job number is                      11
 Integral operator is                         1
 short-range coefficients              22203600
 long-range coefficients              100000000
 Omega coefficients                         200
 if combine SR and LR in K                    1
 Integral screening is                        0
 Integral computing path is                   2
 max size of driver memory is            800000
 size of driver memory is                776718
 size of scratch memory is             26248924
 max col of scratch BK array              10000
 max len of scratch array in speh3          662
 max len of scratch index in speh4           32
 max int batch size is                      520
 min int batch size is                       52
 fixed nKL is                                52
 max L of basis functions is                  3
 order of int derivative is                   0
 number of shells is                        342
 number of basis is                        1131
 number of cartesian basis is              1131
 number of contracted shell pairs         29205
 number of primitive shell pairs          92170
 maxK2 (contraction) of shell pair          121
 max number of K2 of shell pair               1
 max number of CS2 of shell pair           3970
 max number of PS2 of shell pair          11704
 mem total for path MDJ                  807016
 -------------------------------------------------------
 Smallest overlap matrix eigenvalue = 2.87E-05

 Scale SEOQF with 1.000000e-02/1.000000e-01/1.000000e-01

 Standard Electronic Orientation quadrupole field applied
 Nucleus-field energy     =     0.0000000513 hartrees
 Guess from superposition of atomic densities
 Warning:  Energy on first SCF cycle will be non-variational
 Long-range K will be added via erf
 Coulomb attenuation parameter = 0.2 bohr**(-1)
 A restricted hybrid HF-DFT SCF calculation will be
 performed using Pulay DIIS extrapolation
 Exchange:     0.2220 Hartree-Fock + 1.0000 wB97X-D + LR-HF
 Correlation:  1.0000 wB97X-D
 Using SG-2 standard quadrature grid
 Dispersion:   Grimme D
 SCF converges when DIIS error is below 1.0E-08
 using 16 threads for integral computing 
 using 16 threads for integral computing 
 K construction time:  CPU 70.76 s  wall 4.65 s
 -------------------------------------------------------
 OpenMP BLAS3 based DFT computing Module                
 Release: version 1.0, May 2013, Q-Chem Inc. Pittsburgh 
 -------------------------------------------------------
 ---------------------------------------
  Cycle       Energy         DIIS Error
 ---------------------------------------
    1   -2605.8566314903      1.87E-02
 K construction time:  CPU 1069.71 s  wall 69.84 s
    2   -2595.6494517994      1.39E-03
 K construction time:  CPU 1020.30 s  wall 66.67 s
    3   -2595.6434873186      1.52E-03
 K construction time:  CPU 976.61 s  wall 63.71 s
    4   -2595.8897839157      2.47E-04
 K construction time:  CPU 904.41 s  wall 59.02 s
    5   -2595.8954848383      1.37E-04
 K construction time:  CPU 853.56 s  wall 55.72 s
    6   -2595.8975256866      4.27E-05
 K construction time:  CPU 803.61 s  wall 52.46 s
    7   -2595.8977281535      2.06E-05
 K construction time:  CPU 754.53 s  wall 49.22 s
    8   -2595.8977867385      6.37E-06
 K construction time:  CPU 721.35 s  wall 47.10 s
    9   -2595.8977989743      3.31E-06
 K construction time:  CPU 689.04 s  wall 44.93 s
   10   -2595.8978025410      9.73E-07
 K construction time:  CPU 621.19 s  wall 40.51 s
   11   -2595.8978029333      6.19E-07
 K construction time:  CPU 574.65 s  wall 37.39 s
   12   -2595.8978030270      2.15E-07
 K construction time:  CPU 510.62 s  wall 33.18 s
   13   -2595.8978030394      1.07E-07
 K construction time:  CPU 454.79 s  wall 29.55 s
   14   -2595.8978030423      3.03E-08
 K construction time:  CPU 374.98 s  wall 24.30 s
   15   -2595.8978030428      1.29E-08
 K construction time:  CPU 1073.78 s  wall 70.18 s
   16   -2595.8978030375      4.39E-09 Convergence criterion met
 ---------------------------------------
 SCF time:  CPU 15306.12 s  wall 1021.23 s
 SCF   energy in the final basis set = -2595.8978030375
 Total energy in the final basis set = -2595.8978030375
 
 --------------------------------------------------------------
 
                    Orbital Energies (a.u.)
 --------------------------------------------------------------
 
 Alpha MOs
 -- Occupied --
-89.157 -89.095 -89.091 -89.075 -14.495 -14.489 -14.455 -14.443
-14.438 -10.373 -10.370 -10.365 -10.361 -10.343 -10.341 -10.341
-10.334 -10.331 -10.329 -10.328 -10.327 -10.326 -10.326 -10.320
-10.317 -10.314 -10.304 -10.297  -8.167  -8.110  -8.106  -8.090
 -6.117  -6.112  -6.111  -6.059  -6.056  -6.055  -6.053  -6.052
 -6.049  -6.040  -6.036  -6.032  -1.154  -1.082  -1.074  -1.056
 -1.024  -1.016  -0.958  -0.948  -0.912  -0.910  -0.907  -0.885
 -0.862  -0.845  -0.830  -0.808  -0.776  -0.754  -0.746  -0.730
 -0.724  -0.694  -0.688  -0.679  -0.648  -0.641  -0.625  -0.624
 -0.609  -0.600  -0.584  -0.579  -0.572  -0.568  -0.541  -0.534
 -0.528  -0.523  -0.518  -0.513  -0.511  -0.504  -0.499  -0.496
 -0.487  -0.482  -0.474  -0.466  -0.456  -0.444  -0.436  -0.434
 -0.429  -0.426  -0.407  -0.393  -0.384  -0.372  -0.371  -0.368
 -0.366  -0.359  -0.344  -0.336  -0.325  -0.321  -0.270
 -- Virtual --
 -0.054  -0.014   0.024   0.036   0.044   0.056   0.064   0.065
  0.074   0.094   0.099   0.109   0.115   0.120   0.131   0.133
  0.142   0.145   0.149   0.165   0.168   0.169   0.170   0.175
  0.189   0.194   0.199   0.212   0.215   0.226   0.231   0.247
  0.251   0.254   0.261   0.267   0.272   0.275   0.288   0.289
  0.294   0.298   0.299   0.305   0.308   0.314   0.318   0.328
  0.329   0.332   0.335   0.338   0.342   0.342   0.349   0.358
  0.361   0.366   0.369   0.373   0.377   0.382   0.384   0.385
  0.392   0.393   0.400   0.401   0.402   0.405   0.409   0.412
  0.415   0.418   0.425   0.430   0.432   0.437   0.439   0.443
  0.445   0.451   0.454   0.457   0.458   0.462   0.464   0.466
  0.469   0.472   0.473   0.476   0.481   0.484   0.487   0.489
  0.492   0.499   0.501   0.502   0.506   0.514   0.517   0.522
  0.522   0.524   0.534   0.539   0.545   0.546   0.548   0.552
  0.552   0.571   0.575   0.581   0.584   0.590   0.591   0.595
  0.602   0.611   0.617   0.624   0.625   0.634   0.638   0.642
  0.652   0.654   0.659   0.662   0.666   0.673   0.678   0.681
  0.683   0.690   0.691   0.697   0.709   0.711   0.718   0.724
  0.729   0.733   0.736   0.737   0.748   0.749   0.753   0.762
  0.765   0.772   0.774   0.777   0.780   0.783   0.791   0.792
  0.797   0.802   0.807   0.810   0.820   0.823   0.825   0.832
  0.835   0.841   0.844   0.850   0.855   0.860   0.863   0.867
  0.870   0.876   0.881   0.886   0.894   0.901   0.911   0.913
  0.916   0.920   0.929   0.932   0.937   0.939   0.943   0.948
  0.952   0.961   0.964   0.970   0.975   0.980   0.984   0.986
  0.995   0.999   1.001   1.010   1.018   1.022   1.029   1.038
  1.044   1.047   1.053   1.058   1.063   1.066   1.070   1.070
  1.084   1.090   1.094   1.096   1.110   1.113   1.120   1.121
  1.133   1.139   1.141   1.146   1.158   1.166   1.170   1.174
  1.179   1.187   1.188   1.197   1.204   1.212   1.217   1.224
  1.227   1.237   1.246   1.254   1.258   1.267   1.272   1.273
  1.278   1.290   1.296   1.301   1.311   1.314   1.322   1.328
  1.344   1.349   1.354   1.363   1.369   1.375   1.379   1.383
  1.387   1.392   1.402   1.416   1.419   1.430   1.432   1.435
  1.441   1.442   1.447   1.458   1.461   1.473   1.477   1.486
  1.492   1.498   1.511   1.513   1.522   1.531   1.534   1.542
  1.554   1.556   1.559   1.570   1.571   1.581   1.587   1.590
  1.598   1.605   1.613   1.619   1.623   1.629   1.638   1.646
  1.654   1.656   1.659   1.666   1.672   1.675   1.679   1.683
  1.691   1.696   1.701   1.705   1.715   1.722   1.725   1.730
  1.736   1.746   1.754   1.764   1.774   1.777   1.782   1.789
  1.792   1.807   1.818   1.823   1.827   1.833   1.861   1.869
  1.878   1.883   1.883   1.888   1.904   1.908   1.912   1.924
  1.928   1.940   1.944   1.951   1.960   1.967   1.975   1.977
  1.987   1.996   2.004   2.010   2.013   2.024   2.029   2.037
  2.041   2.061   2.067   2.070   2.076   2.084   2.086   2.101
  2.115   2.118   2.133   2.139   2.147   2.161   2.166   2.175
  2.176   2.182   2.189   2.195   2.208   2.225   2.229   2.235
  2.242   2.250   2.258   2.262   2.264   2.271   2.280   2.285
  2.286   2.304   2.311   2.341   2.343   2.351   2.361   2.364
  2.371   2.378   2.384   2.385   2.393   2.399   2.402   2.407
  2.424   2.428   2.434   2.436   2.441   2.451   2.453   2.464
  2.468   2.475   2.486   2.492   2.501   2.505   2.512   2.517
  2.522   2.525   2.537   2.546   2.551   2.561   2.571   2.586
  2.587   2.593   2.607   2.610   2.614   2.617   2.621   2.631
  2.637   2.648   2.654   2.659   2.667   2.675   2.688   2.689
  2.704   2.715   2.739   2.744   2.754   2.761   2.771   2.772
  2.775   2.781   2.789   2.792   2.794   2.795   2.802   2.813
  2.817   2.826   2.838   2.840   2.849   2.862   2.874   2.875
  2.884   2.891   2.897   2.912   2.914   2.928   2.935   2.940
  2.946   2.948   2.951   2.956   2.958   2.967   2.973   2.978
  2.979   2.988   2.997   2.999   3.009   3.013   3.023   3.025
  3.030   3.035   3.049   3.052   3.057   3.060   3.066   3.070
  3.073   3.078   3.084   3.090   3.092   3.096   3.102   3.106
  3.114   3.119   3.122   3.126   3.131   3.134   3.137   3.141
  3.147   3.156   3.164   3.166   3.171   3.178   3.180   3.183
  3.186   3.187   3.191   3.195   3.201   3.203   3.208   3.213
  3.217   3.218   3.223   3.228   3.235   3.236   3.243   3.247
  3.255   3.258   3.264   3.266   3.268   3.273   3.279   3.288
  3.291   3.292   3.300   3.302   3.313   3.319   3.324   3.334
  3.338   3.342   3.347   3.350   3.353   3.363   3.371   3.372
  3.379   3.379   3.389   3.394   3.406   3.412   3.416   3.421
  3.424   3.431   3.444   3.450   3.454   3.462   3.465   3.477
  3.480   3.487   3.488   3.493   3.498   3.500   3.502   3.517
  3.520   3.524   3.532   3.535   3.545   3.547   3.561   3.571
  3.583   3.586   3.591   3.595   3.600   3.612   3.627   3.630
  3.635   3.648   3.652   3.660   3.675   3.676   3.681   3.687
  3.696   3.709   3.711   3.728   3.740   3.748   3.757   3.762
  3.772   3.778   3.783   3.790   3.800   3.804   3.806   3.817
  3.828   3.830   3.844   3.845   3.851   3.855   3.860   3.865
  3.876   3.879   3.889   3.898   3.911   3.920   3.928   3.932
  3.940   3.945   3.945   3.954   3.964   3.968   3.969   3.984
  3.987   3.993   4.000   4.001   4.014   4.024   4.037   4.041
  4.051   4.064   4.073   4.081   4.087   4.097   4.103   4.115
  4.122   4.139   4.140   4.149   4.170   4.170   4.178   4.184
  4.190   4.191   4.200   4.203   4.213   4.225   4.233   4.239
  4.253   4.268   4.276   4.281   4.285   4.299   4.313   4.316
  4.330   4.335   4.345   4.350   4.361   4.375   4.383   4.386
  4.397   4.403   4.411   4.422   4.430   4.441   4.452   4.459
  4.469   4.471   4.481   4.489   4.498   4.515   4.529   4.534
  4.549   4.553   4.563   4.571   4.576   4.586   4.596   4.610
  4.621   4.627   4.635   4.645   4.654   4.670   4.677   4.686
  4.694   4.713   4.723   4.744   4.762   4.774   4.787   4.797
  4.814   4.816   4.830   4.836   4.845   4.847   4.853   4.861
  4.878   4.882   4.913   4.931   4.935   4.939   4.942   4.951
  4.952   4.963   4.966   4.970   4.978   4.989   5.001   5.007
  5.012   5.031   5.036   5.049   5.061   5.067   5.089   5.091
  5.109   5.122   5.129   5.137   5.160   5.168   5.171   5.195
  5.199   5.229   5.236   5.240   5.249   5.262   5.280   5.284
  5.307   5.314   5.327   5.336   5.340   5.363   5.403   5.414
  5.416   5.440   5.454   5.461   5.467   5.487   5.507   5.529
  5.532   5.537   5.566   5.587   5.608   5.650   5.657   5.663
  5.691   5.700   5.707   5.717   5.751   5.764   5.772   5.814
  5.850   5.879   5.890   5.926   5.939   5.971   6.006   6.088
  6.114   6.135   6.155   6.181   6.189   6.216   6.234   6.306
  6.335   6.346   6.391   6.397   6.480   6.838   7.016   7.896
  8.761   9.720  10.141  10.918  11.117  11.203  11.669  11.968
 12.193  12.507  12.588  12.801  12.874  13.007  13.167  13.266
 13.526  13.552  13.817  13.870  14.253  14.646  14.996
 --------------------------------------------------------------
 
          Ground-State Mulliken Net Atomic Charges

     Atom                 Charge (a.u.)
  ----------------------------------------
      1 C                    -0.071196
      2 C                    -0.102379
      3 N                    -0.155622
      4 C                    -0.156700
      5 C                    -0.093650
      6 C                     0.110464
      7 C                     0.040128
      8 C                    -0.105156
      9 C                     0.032431
     10 N                    -0.161871
     11 N                    -0.279431
     12 C                    -0.000785
     13 C                     0.040709
     14 S                     0.419294
     15 N                    -0.258453
     16 C                     0.008288
     17 S                     0.135347
     18 C                    -0.024910
     19 C                    -0.029195
     20 S                     0.072716
     21 C                     0.030926
     22 C                     0.035070
     23 C                    -0.150744
     24 C                    -0.167479
     25 N                    -0.185780
     26 S                     0.097060
     27 C                    -0.077239
     28 C                    -0.202344
     29 H                     0.124891
     30 H                     0.129830
     31 H                     0.132529
     32 H                     0.129299
     33 H                     0.135222
     34 H                     0.131385
     35 H                     0.144278
     36 H                     0.129320
     37 H                     0.143751
  ----------------------------------------
  Sum of atomic charges =     0.000000

 -----------------------------------------------------------------
                    Cartesian Multipole Moments
 -----------------------------------------------------------------
    Charge (ESU x 10^10)
                 0.0000
    Dipole Moment (Debye)
         X      -1.2557      Y       0.5859      Z       0.7670
       Tot       1.5838
    Quadrupole Moments (Debye-Ang)
        XX    -168.5155     XY      19.0564     YY    -171.6106
        XZ       4.8379     YZ       2.1207     ZZ    -188.8637
    Octopole Moments (Debye-Ang^2)
       XXX    -201.4619    XXY      73.1207    XYY     -24.3538
       YYY       7.2155    XXZ       3.4888    XYZ     -28.6408
       YYZ      20.3934    XZZ      -0.9483    YZZ     -12.4062
       ZZZ      11.6078
    Hexadecapole Moments (Debye-Ang^3)
      XXXX  -17298.8158   XXXY    1308.9762   XXYY   -3532.6845
      XYYY     -37.1216   YYYY   -3217.1243   XXXZ     276.8529
      XXYZ      28.9956   XYYZ      21.3452   YYYZ      39.9903
      XXZZ   -3502.5946   XYZZ      -8.3758   YYZZ    -698.9713
      XZZZ      40.0086   YZZZ     -34.2461   ZZZZ    -747.7944
 -----------------------------------------------------------------
 Calculating analytic gradient of the SCF energy
 K construction time:  CPU 2735.81 s  wall 172.86 s
 Gradient of SCF Energy
            1           2           3           4           5           6
    1   0.0014188  -0.0024100   0.0003803   0.0018597  -0.0004288  -0.0004545
    2   0.0005482  -0.0002998   0.0000237  -0.0006860   0.0001614   0.0013151
    3   0.0003091  -0.0003349  -0.0000736  -0.0007261  -0.0001034   0.0011222
            7           8           9          10          11          12
    1   0.0002651  -0.0008297  -0.0005594   0.0029339  -0.0015648   0.0017845
    2   0.0007897  -0.0011993   0.0000839   0.0011445  -0.0000701   0.0001110
    3  -0.0000334  -0.0026787  -0.0003186  -0.0037298   0.0002910   0.0030565
           13          14          15          16          17          18
    1  -0.0135953   0.0013586   0.0015208   0.0141841  -0.0046805  -0.0026464
    2   0.0008130  -0.0024462   0.0027148  -0.0048008  -0.0029785   0.0062009
    3   0.0089387   0.0008899  -0.0014304  -0.0072795  -0.0043662   0.0057259
           19          20          21          22          23          24
    1   0.0015614   0.0010828   0.0012261   0.0002073   0.0008377  -0.0015872
    2   0.0002138  -0.0034287   0.0017777  -0.0000569  -0.0006547   0.0020726
    3   0.0004715   0.0008475   0.0004403   0.0008508  -0.0022071   0.0001037
           25          26          27          28          29          30
    1  -0.0000823  -0.0000210   0.0005537   0.0001816  -0.0001659   0.0006039
    2  -0.0000501  -0.0006817   0.0013394  -0.0000977   0.0000187  -0.0004709
    3  -0.0003856  -0.0006349   0.0002864   0.0001998  -0.0001045   0.0002532
           31          32          33          34          35          36
    1  -0.0007094  -0.0003285  -0.0007527  -0.0007143   0.0001195  -0.0003536
    2  -0.0001130   0.0001053   0.0000653   0.0002622  -0.0009739  -0.0007029
    3  -0.0000188  -0.0001602   0.0002374   0.0004551   0.0000143  -0.0000061
           37
    1  -0.0001954
    2  -0.0000501
    3   0.0000984
 Max gradient component =       1.418E-02
 RMS gradient           =       2.683E-03
 Gradient time:  CPU 3173.38 s  wall 202.14 s
 Geometry Optimization Parameters
   NAtoms,    NIC,     NZ,  NCons,   NDum,   NFix, NCnnct, MaxDiis
       37     280       0       3       0       0       0       0


** CONSTRAINED OPTIMIZATION IN DELOCALIZED INTERNAL COORDINATES **
   Searching for a Minimum

   Optimization Cycle:   1

                       Coordinates (Angstroms)
     ATOM                X               Y               Z
      1  C         7.5792407217    0.2857640756   -0.7086959010
      2  C         6.9298844810    1.4527902039   -0.3414996390
      3  N         6.9448876774   -0.8632292731   -0.9237101151
      4  C         5.5581654883    1.4265374417   -0.1862896149
      5  C         5.6275270840   -0.8776040091   -0.7696077078
      6  C         4.8726548373    0.2373829424   -0.4027570525
      7  C         3.4067740014    0.1672745587   -0.2826034650
      8  C         2.5932563335    1.1477116330   -0.7801037912
      9  C         2.7245429728   -0.9087354024    0.3567506236
     10  N         1.2401430829    1.1802136968   -0.7058125269
     11  N         3.2606175875   -1.9857495595    0.9339596521
     12  C         1.2991247775   -0.8853171997    0.4448310486
     13  C         0.5748131802    0.2139651425   -0.1205796626
     14  S         2.0354950685   -2.8573763579    1.5102580397
     15  N         0.7874444346   -1.9375326571    1.0772424045
     16  C        -0.8635760854    0.3404587783   -0.0939056007
     17  S        -1.9962859736   -0.9178426590   -0.4536572023
     18  C        -1.5481884604    1.4898946879    0.2275437914
     19  C        -3.3569722026    0.0975957959   -0.1722150787
     20  S        -1.0526896367    3.0843114375    0.6831460557
     21  C        -2.9603986265    1.3684418193    0.1886050511
     22  C        -4.7148863715   -0.3868417365   -0.3047571885
     23  C        -2.7311879938    3.5650095204    0.8142667540
     24  C        -3.6220111179    2.5971007068    0.5348065612
     25  N        -5.7621592504    0.3548641012   -0.0845206789
     26  S        -5.0953796562   -2.0212086316   -0.7734562795
     27  C        -6.9128861764   -0.3506872343   -0.2748213700
     28  C        -6.7634490594   -1.6451415429   -0.6476232048
     29  H         8.6550765994    0.2701902917   -0.8363503958
     30  H         7.4984145984    2.3550636604   -0.1673389064
     31  H         5.0163551822    2.3118016426    0.1215872008
     32  H         5.1337910596   -1.8244045645   -0.9502853798
     33  H         3.0288624188    1.9934443347   -1.2968991439
     34  H        -2.9584996691    4.5777809047    1.1089424635
     35  H        -4.6931695823    2.7020018909    0.5658904792
     36  H        -7.8660163519    0.1332695912   -0.1256590544
     37  H        -7.5241525132   -2.3788536233   -0.8487155487
   Point Group: c1    Number of degrees of freedom:   105


   Energy is  -2595.897803037

              Constraints and their Current Values
                                        Value     Constraint
   Dihedral:        4   6   7   8       42.189       42.246
   Dihedral:       10  13  16  17      135.000      135.000
   Dihedral:       17  19  22  25      179.259      179.217

 Attempting to Generate Delocalized Internal Coordinates

   Using Lagrange Multiplier Algorithm


108 Hessian modes will be used to form the next step
  Hessian Eigenvalues:
    -0.977753   -0.977753   -0.977753    0.045000    0.045000    0.045000
     0.045000    0.045000    0.045000    0.045000    0.045000    0.045000
     0.045000    0.045000    0.045000    0.045000    0.045000    0.045000
     0.045000    0.045000    0.045000    0.045000    0.045000    0.045000
     0.045001    0.045001    0.045001    0.045001    0.045001    0.045003
     0.045005    0.045007    0.045009    0.045012    0.159961    0.159984
     0.159995    0.159997    0.159998    0.159999    0.160000    0.160000
     0.160000    0.220002    0.224572    0.225458    0.231978    0.233022
     0.234404    0.247446    0.247715    0.249914    0.249956    0.249989
     0.249992    0.249998    0.249998    0.249998    0.249999    0.249999
     0.249999    0.250000    0.250000    0.297517    0.305113    0.316328
     0.317281    0.326671    0.334474    0.354466    0.355754    0.356364
     0.356781    0.356811    0.359242    0.360772    0.361171    0.363921
     0.365011    0.372838    0.385322    0.386473    0.390167    0.393199
     0.397174    0.410394    0.431175    0.455299    0.463153    0.473302
     0.473331    0.475009    0.483101    0.491310    0.496878    0.499412
     0.517647    0.525704    0.538143    0.558610    0.574891    0.584500
     0.591081    0.623467    0.638982    1.022753    1.022753    1.022753

 Minimum Search - Taking P-RFO Step
 Searching for Lamda that Maximizes Along the Constraint modes Only
 Value Taken    Lamda =   0.00005425
 Searching for Lamda that Minimizes Along All other modes
 Value Taken    Lamda =  -0.00205228
 Step Taken.  Stepsize is  0.135453

                             Maximum     Tolerance    Cnvgd?
         Gradient            0.010311       0.000300      NO
         Displacement        0.046913       0.001200      NO
         Energy change     *********       0.000001      NO


 New Cartesian Coordinates Obtained by Inverse Iteration

 Displacement from previous Coordinates is:  0.821379
 ----------------------------------------------------------------
             Standard Nuclear Orientation (Angstroms)
    I     Atom           X                Y                Z
 ----------------------------------------------------------------
    1      C       7.5851192916     0.2146133553    -0.7303202897
    2      C       6.9672714910     1.3916127849    -0.3406505873
    3      N       6.9247960966    -0.9172456163    -0.9563024166
    4      C       5.5952827509     1.3933692558    -0.1758027207
    5      C       5.6091145455    -0.9045924264    -0.7944658319
    6      C       4.8820538813     0.2225466344    -0.4085643925
    7      C       3.4153850317     0.1854259535    -0.2796690065
    8      C       2.6205119467     1.1926327109    -0.7556614790
    9      C       2.7144651175    -0.8858157564     0.3440022340
   10      N       1.2658207320     1.2502750162    -0.6835575068
   11      N       3.2307222557    -1.9828604842     0.8999696659
   12      C       1.2899964436    -0.8316111753     0.4380018871
   13      C       0.5897965700     0.2928722906    -0.1020576371
   14      S       1.9844989940    -2.8294767616     1.4692351332
   15      N       0.7528976972    -1.8810543354     1.0571903813
   16      C      -0.8612356761     0.4185211867    -0.0437684475
   17      S      -1.9581605897    -0.8618277119    -0.4017759836
   18      C      -1.5717066596     1.5543458628     0.2483478186
   19      C      -3.3500679934     0.1152314314    -0.1435833161
   20      S      -1.1234875308     3.1777380180     0.6664341929
   21      C      -2.9829557437     1.3955222280     0.2103048163
   22      C      -4.6950069447    -0.4014265322    -0.2891578941
   23      C      -2.8126253496     3.6070575636     0.8144116470
   24      C      -3.6744093558     2.6103356388     0.5455237351
   25      N      -5.7624166551     0.3154785958    -0.0845086514
   26      S      -5.0315232139    -2.0460715146    -0.7516105342
   27      C      -6.8940538513    -0.4164873005    -0.2913130517
   28      C      -6.7097952840    -1.7079509894    -0.6579583119
   29      H       8.6596710082     0.1760837370    -0.8656154052
   30      H       7.5537809739     2.2809719455    -0.1595330932
   31      H       5.0791388043     2.2874522570     0.1488817396
   32      H       5.0951655755    -1.8388050770    -0.9833935151
   33      H       3.0766182586     2.0326895723    -1.2651030643
   34      H      -3.0645257351     4.6179095484     1.0924438685
   35      H      -4.7478493505     2.6929988528     0.5756134832
   36      H      -7.8577387791     0.0514130802    -0.1597050695
   37      H      -7.4493858941    -2.4595274316    -0.8703167798
 ----------------------------------------------------------------
 Molecular Point Group                 C1    NOp =  1
 Largest Abelian Subgroup              C1    NOp =  1
 Nuclear Repulsion Energy =  2961.0474960902 hartrees
 There are      111 alpha and      111 beta electrons
 Applying Cartesian multipole field
    Component          Value
    ---------          -----
     (2,0,0)        1.00000E-12
     (0,2,0)        2.00000E-11
     (0,0,2)       -3.00000E-11
 Nucleus-field energy     =     0.0000000525 hartrees
 Requested basis set is cc-pVTZ
 There are 342 shells and 982 basis functions
 A cutoff of  1.0D-11 yielded  29183 shell pairs
 There are    231481 function pairs (    302349 Cartesian)
 Smallest overlap matrix eigenvalue = 2.71E-05
 Guess MOs from SCF MO coefficient file
 Reading MOs from coefficient file
 Reading MOs from coefficient file
 Long-range K will be added via erf
 Coulomb attenuation parameter = 0.2 bohr**(-1)
 A restricted hybrid HF-DFT SCF calculation will be
 performed using Pulay DIIS extrapolation
 Exchange:     0.2220 Hartree-Fock + 1.0000 wB97X-D + LR-HF
 Correlation:  1.0000 wB97X-D
 Using SG-2 standard quadrature grid
 Dispersion:   Grimme D
 SCF converges when DIIS error is below 1.0E-08
 Geometry optimization detected.  Setting ReadMinima to 0
 Setting SaveMinima to 0
 using 16 threads for integral computing 
 using 16 threads for integral computing 
 K construction time:  CPU 1068.81 s  wall 69.75 s
 -------------------------------------------------------
 OpenMP BLAS3 based DFT computing Module                
 Release: version 1.0, May 2013, Q-Chem Inc. Pittsburgh 
 -------------------------------------------------------
 ---------------------------------------
  Cycle       Energy         DIIS Error
 ---------------------------------------
    1   -2595.8928511196      4.51E-04
 K construction time:  CPU 1075.38 s  wall 70.22 s
    2   -2595.8984989853      5.05E-05
 K construction time:  CPU 833.56 s  wall 54.39 s
    3   -2595.8987356850      5.16E-05
 K construction time:  CPU 786.95 s  wall 51.32 s
    4   -2595.8990050057      1.56E-05
 K construction time:  CPU 733.83 s  wall 47.91 s
    5   -2595.8990323290      7.95E-06
 K construction time:  CPU 686.22 s  wall 44.81 s
    6   -2595.8990399681      2.49E-06
 K construction time:  CPU 634.06 s  wall 41.37 s
    7   -2595.8990408811      9.20E-07
 K construction time:  CPU 573.91 s  wall 37.37 s
    8   -2595.8990410264      4.38E-07
 K construction time:  CPU 531.44 s  wall 34.61 s
    9   -2595.8990410677      1.54E-07
 K construction time:  CPU 464.86 s  wall 30.20 s
   10   -2595.8990410739      6.08E-08
 K construction time:  CPU 409.15 s  wall 26.49 s
   11   -2595.8990410761      2.85E-08
 K construction time:  CPU 362.96 s  wall 23.48 s
   12   -2595.8990410767      1.19E-08
 K construction time:  CPU 299.24 s  wall 19.38 s
   13   -2595.8990410808      3.86E-09 Convergence criterion met
 ---------------------------------------
 SCF time:  CPU 11414.01 s  wall 761.63 s
 SCF   energy in the final basis set = -2595.8990410808
 Total energy in the final basis set = -2595.8990410808
 
 --------------------------------------------------------------
 
                    Orbital Energies (a.u.)
 --------------------------------------------------------------
 
 Alpha MOs
 -- Occupied --
-89.157 -89.094 -89.091 -89.075 -14.496 -14.490 -14.456 -14.443
-14.438 -10.373 -10.371 -10.365 -10.361 -10.343 -10.341 -10.341
-10.334 -10.331 -10.329 -10.328 -10.327 -10.326 -10.325 -10.321
-10.317 -10.314 -10.305 -10.296  -8.167  -8.109  -8.106  -8.090
 -6.118  -6.112  -6.111  -6.058  -6.055  -6.055  -6.052  -6.052
 -6.049  -6.039  -6.036  -6.032  -1.154  -1.082  -1.074  -1.057
 -1.025  -1.017  -0.957  -0.948  -0.913  -0.910  -0.907  -0.885
 -0.862  -0.845  -0.829  -0.807  -0.776  -0.754  -0.746  -0.730
 -0.724  -0.695  -0.688  -0.679  -0.648  -0.641  -0.625  -0.624
 -0.609  -0.600  -0.584  -0.579  -0.572  -0.568  -0.541  -0.534
 -0.528  -0.523  -0.518  -0.513  -0.511  -0.505  -0.499  -0.496
 -0.487  -0.481  -0.474  -0.466  -0.456  -0.445  -0.437  -0.434
 -0.429  -0.425  -0.408  -0.394  -0.384  -0.373  -0.371  -0.368
 -0.366  -0.360  -0.345  -0.336  -0.324  -0.321  -0.270
 -- Virtual --
 -0.053  -0.013   0.024   0.036   0.043   0.057   0.065   0.065
  0.075   0.094   0.100   0.109   0.115   0.120   0.131   0.133
  0.142   0.145   0.150   0.164   0.168   0.169   0.170   0.175
  0.189   0.194   0.199   0.211   0.215   0.226   0.232   0.247
  0.251   0.253   0.261   0.267   0.271   0.275   0.286   0.289
  0.294   0.298   0.299   0.305   0.309   0.313   0.318   0.327
  0.329   0.332   0.335   0.338   0.341   0.343   0.350   0.358
  0.361   0.365   0.369   0.373   0.378   0.382   0.383   0.385
  0.392   0.393   0.399   0.400   0.402   0.405   0.409   0.412
  0.415   0.418   0.424   0.428   0.433   0.437   0.439   0.443
  0.447   0.451   0.454   0.457   0.458   0.462   0.464   0.466
  0.468   0.471   0.473   0.476   0.481   0.484   0.486   0.489
  0.492   0.498   0.501   0.502   0.504   0.514   0.517   0.521
  0.522   0.524   0.534   0.538   0.545   0.545   0.548   0.551
  0.553   0.568   0.576   0.579   0.585   0.590   0.591   0.594
  0.602   0.610   0.617   0.624   0.624   0.634   0.639   0.643
  0.652   0.654   0.658   0.662   0.668   0.673   0.678   0.682
  0.684   0.689   0.692   0.699   0.709   0.712   0.718   0.725
  0.728   0.734   0.736   0.737   0.749   0.750   0.753   0.762
  0.765   0.771   0.774   0.776   0.781   0.783   0.791   0.792
  0.798   0.803   0.807   0.812   0.820   0.823   0.825   0.831
  0.834   0.841   0.842   0.849   0.855   0.861   0.864   0.868
  0.870   0.876   0.882   0.888   0.893   0.899   0.910   0.912
  0.915   0.919   0.929   0.931   0.936   0.939   0.942   0.947
  0.952   0.960   0.964   0.971   0.974   0.981   0.985   0.986
  0.993   1.000   1.000   1.010   1.017   1.023   1.030   1.037
  1.044   1.046   1.053   1.059   1.062   1.065   1.069   1.071
  1.085   1.089   1.094   1.096   1.109   1.113   1.120   1.121
  1.133   1.139   1.141   1.148   1.159   1.167   1.169   1.175
  1.180   1.185   1.187   1.198   1.204   1.211   1.216   1.223
  1.228   1.237   1.246   1.251   1.259   1.266   1.270   1.272
  1.278   1.290   1.297   1.300   1.310   1.313   1.323   1.329
  1.343   1.348   1.354   1.362   1.369   1.374   1.378   1.382
  1.388   1.392   1.402   1.416   1.419   1.430   1.432   1.437
  1.442   1.443   1.446   1.457   1.460   1.471   1.478   1.486
  1.492   1.497   1.511   1.512   1.523   1.531   1.534   1.541
  1.552   1.556   1.559   1.568   1.571   1.583   1.588   1.589
  1.599   1.605   1.614   1.620   1.623   1.631   1.639   1.649
  1.655   1.655   1.658   1.667   1.669   1.674   1.679   1.684
  1.692   1.696   1.701   1.704   1.714   1.719   1.724   1.731
  1.738   1.746   1.755   1.764   1.776   1.777   1.781   1.790
  1.796   1.807   1.817   1.821   1.828   1.833   1.860   1.870
  1.878   1.883   1.884   1.887   1.902   1.908   1.912   1.923
  1.928   1.939   1.944   1.952   1.960   1.969   1.973   1.977
  1.987   1.998   2.004   2.011   2.013   2.023   2.029   2.036
  2.043   2.061   2.066   2.072   2.076   2.083   2.086   2.103
  2.114   2.118   2.133   2.139   2.147   2.161   2.164   2.175
  2.176   2.181   2.188   2.194   2.209   2.225   2.231   2.234
  2.241   2.250   2.258   2.262   2.263   2.271   2.279   2.285
  2.287   2.304   2.311   2.341   2.344   2.351   2.361   2.363
  2.370   2.377   2.384   2.385   2.391   2.399   2.402   2.406
  2.423   2.425   2.434   2.438   2.441   2.451   2.454   2.462
  2.468   2.475   2.485   2.492   2.501   2.506   2.511   2.518
  2.524   2.528   2.537   2.545   2.550   2.561   2.571   2.584
  2.587   2.590   2.606   2.610   2.616   2.618   2.620   2.630
  2.636   2.649   2.653   2.660   2.668   2.674   2.687   2.689
  2.703   2.714   2.738   2.742   2.752   2.760   2.770   2.773
  2.776   2.780   2.790   2.792   2.794   2.795   2.802   2.812
  2.816   2.825   2.837   2.842   2.848   2.862   2.873   2.875
  2.884   2.890   2.897   2.911   2.915   2.926   2.935   2.939
  2.946   2.949   2.951   2.957   2.959   2.965   2.972   2.978
  2.980   2.988   2.997   2.998   3.009   3.013   3.021   3.027
  3.028   3.033   3.048   3.054   3.058   3.060   3.065   3.069
  3.072   3.077   3.084   3.089   3.091   3.096   3.101   3.106
  3.115   3.116   3.122   3.126   3.130   3.134   3.136   3.140
  3.148   3.156   3.164   3.167   3.171   3.178   3.180   3.184
  3.185   3.187   3.190   3.196   3.201   3.203   3.207   3.212
  3.217   3.219   3.223   3.228   3.234   3.236   3.243   3.248
  3.256   3.259   3.263   3.267   3.268   3.273   3.279   3.285
  3.288   3.291   3.300   3.302   3.311   3.317   3.322   3.332
  3.338   3.343   3.346   3.349   3.355   3.363   3.369   3.372
  3.378   3.381   3.388   3.392   3.406   3.410   3.415   3.421
  3.423   3.432   3.443   3.448   3.454   3.460   3.464   3.477
  3.479   3.486   3.487   3.494   3.498   3.501   3.502   3.515
  3.520   3.523   3.531   3.540   3.546   3.549   3.560   3.570
  3.583   3.585   3.591   3.594   3.598   3.612   3.623   3.628
  3.633   3.647   3.652   3.659   3.672   3.677   3.681   3.687
  3.695   3.709   3.710   3.728   3.739   3.748   3.757   3.762
  3.771   3.776   3.783   3.788   3.800   3.804   3.807   3.818
  3.825   3.828   3.843   3.845   3.852   3.854   3.859   3.863
  3.875   3.879   3.889   3.899   3.912   3.920   3.927   3.932
  3.939   3.944   3.946   3.953   3.963   3.968   3.969   3.984
  3.986   3.991   3.998   4.000   4.018   4.021   4.036   4.042
  4.050   4.063   4.070   4.079   4.085   4.094   4.104   4.115
  4.124   4.138   4.141   4.150   4.168   4.169   4.177   4.185
  4.189   4.193   4.201   4.203   4.212   4.225   4.232   4.238
  4.253   4.266   4.277   4.279   4.285   4.294   4.311   4.314
  4.328   4.331   4.344   4.350   4.359   4.372   4.382   4.385
  4.396   4.403   4.411   4.424   4.430   4.441   4.453   4.457
  4.467   4.470   4.480   4.490   4.499   4.514   4.530   4.533
  4.546   4.552   4.564   4.568   4.574   4.586   4.597   4.608
  4.620   4.633   4.635   4.645   4.654   4.670   4.681   4.688
  4.693   4.713   4.723   4.745   4.764   4.774   4.784   4.795
  4.814   4.815   4.830   4.835   4.843   4.848   4.851   4.860
  4.880   4.882   4.912   4.929   4.935   4.939   4.942   4.951
  4.952   4.962   4.968   4.970   4.978   4.990   5.001   5.006
  5.011   5.029   5.037   5.048   5.057   5.067   5.090   5.091
  5.109   5.120   5.128   5.138   5.160   5.168   5.172   5.193
  5.199   5.231   5.236   5.240   5.249   5.260   5.281   5.285
  5.302   5.313   5.326   5.335   5.338   5.363   5.398   5.413
  5.415   5.440   5.454   5.462   5.468   5.488   5.507   5.528
  5.533   5.537   5.562   5.583   5.609   5.649   5.657   5.663
  5.690   5.700   5.706   5.718   5.746   5.765   5.773   5.815
  5.848   5.872   5.887   5.927   5.939   5.974   6.009   6.091
  6.116   6.138   6.154   6.180   6.187   6.216   6.241   6.302
  6.335   6.348   6.393   6.395   6.477   6.837   7.016   7.909
  8.755   9.721  10.129  10.900  11.121  11.207  11.637  11.965
 12.159  12.503  12.580  12.804  12.869  13.000  13.166  13.278
 13.526  13.542  13.826  13.862  14.263  14.645  14.988
 --------------------------------------------------------------
 
          Ground-State Mulliken Net Atomic Charges

     Atom                 Charge (a.u.)
  ----------------------------------------
      1 C                    -0.071112
      2 C                    -0.102906
      3 N                    -0.155109
      4 C                    -0.156803
      5 C                    -0.093864
      6 C                     0.109046
      7 C                     0.039761
      8 C                    -0.100989
      9 C                     0.033419
     10 N                    -0.161984
     11 N                    -0.278734
     12 C                     0.001318
     13 C                     0.047976
     14 S                     0.417977
     15 N                    -0.259684
     16 C                     0.001607
     17 S                     0.135697
     18 C                    -0.031701
     19 C                    -0.032087
     20 S                     0.071585
     21 C                     0.035367
     22 C                     0.035455
     23 C                    -0.151246
     24 C                    -0.167504
     25 N                    -0.185744
     26 S                     0.097589
     27 C                    -0.076785
     28 C                    -0.202253
     29 H                     0.124759
     30 H                     0.130190
     31 H                     0.132693
     32 H                     0.129535
     33 H                     0.135546
     34 H                     0.131746
     35 H                     0.144253
     36 H                     0.129310
     37 H                     0.143676
  ----------------------------------------
  Sum of atomic charges =     0.000000

 -----------------------------------------------------------------
                    Cartesian Multipole Moments
 -----------------------------------------------------------------
    Charge (ESU x 10^10)
                 0.0000
    Dipole Moment (Debye)
         X      -1.1761      Y       0.5240      Z       0.7595
       Tot       1.4949
    Quadrupole Moments (Debye-Ang)
        XX    -167.9571     XY      19.3213     YY    -171.9734
        XZ       5.1268     YZ       2.0953     ZZ    -188.9645
    Octopole Moments (Debye-Ang^2)
       XXX    -187.0349    XXY      71.0475    XYY     -28.8987
       YYY      -0.4869    XXZ       3.2126    XYZ     -28.8109
       YYZ      19.5207    XZZ      -1.1106    YZZ     -14.8230
       ZZZ      10.1138
    Hexadecapole Moments (Debye-Ang^3)
      XXXX  -17221.4166   XXXY    1331.1178   XXYY   -3534.4190
      XYYY     -12.0870   YYYY   -3272.0398   XXXZ     320.6171
      XXYZ      26.6587   XYYZ      33.4336   YYYZ      28.5591
      XXZZ   -3492.9831   XYZZ       2.7866   YYZZ    -709.0655
      XZZZ      74.3325   YZZZ     -47.9760   ZZZZ    -731.1220
 -----------------------------------------------------------------
 Calculating analytic gradient of the SCF energy
 K construction time:  CPU 2735.91 s  wall 172.89 s
 Gradient of SCF Energy
            1           2           3           4           5           6
    1   0.0001412  -0.0007410  -0.0000310   0.0006692   0.0000523  -0.0001261
    2  -0.0000357   0.0002091  -0.0002527   0.0001401  -0.0000522   0.0000280
    3   0.0000888  -0.0000933  -0.0000362   0.0000443  -0.0002169   0.0003247
            7           8           9          10          11          12
    1   0.0006631  -0.0008080   0.0005153   0.0021578   0.0004426   0.0005670
    2  -0.0001657  -0.0003079  -0.0004637  -0.0009404   0.0002801  -0.0001526
    3   0.0004744  -0.0006159   0.0002953  -0.0050686  -0.0004518   0.0019523
           13          14          15          16          17          18
    1  -0.0030717   0.0004770  -0.0015028   0.0028625  -0.0011663  -0.0009190
    2   0.0015015   0.0012126   0.0010901  -0.0037449   0.0017010   0.0007940
    3   0.0065568  -0.0005315  -0.0008167  -0.0019659  -0.0030458   0.0032459
           19          20          21          22          23          24
    1   0.0000588   0.0000116   0.0003059   0.0001678   0.0002826  -0.0004055
    2   0.0003503  -0.0008084  -0.0009974   0.0004780   0.0002067   0.0009197
    3   0.0003104  -0.0001410   0.0001849  -0.0001044  -0.0001478  -0.0003297
           25          26          27          28          29          30
    1  -0.0001439  -0.0001970   0.0002233  -0.0001514  -0.0000728   0.0001787
    2  -0.0003875  -0.0002360   0.0003903  -0.0001104   0.0000337  -0.0000672
    3   0.0001312   0.0000607   0.0001224  -0.0001226  -0.0000473   0.0001438
           31          32          33          34          35          36
    1  -0.0001910   0.0000172  -0.0000009  -0.0002447   0.0001107  -0.0001316
    2  -0.0000014   0.0000014   0.0000011  -0.0000500  -0.0002492  -0.0002731
    3  -0.0001237  -0.0000930  -0.0000945   0.0001601  -0.0000895   0.0000300
           37
    1   0.0000000
    2  -0.0000413
    3   0.0000100
 Max gradient component =       6.557E-03
 RMS gradient           =       1.187E-03
 Gradient time:  CPU 3174.05 s  wall 202.27 s
 Geometry Optimization Parameters
   NAtoms,    NIC,     NZ,  NCons,   NDum,   NFix, NCnnct, MaxDiis
       37     280       0       3       0       0       0       0

 Cartesian Hessian Update
 Hessian Updated using BFGS Update


** CONSTRAINED OPTIMIZATION IN DELOCALIZED INTERNAL COORDINATES **
   Searching for a Minimum

   Optimization Cycle:   2

                       Coordinates (Angstroms)
     ATOM                X               Y               Z
      1  C         7.5851192916    0.2146133553   -0.7303202897
      2  C         6.9672714910    1.3916127849   -0.3406505873
      3  N         6.9247960966   -0.9172456163   -0.9563024166
      4  C         5.5952827509    1.3933692558   -0.1758027207
      5  C         5.6091145455   -0.9045924264   -0.7944658319
      6  C         4.8820538813    0.2225466344   -0.4085643925
      7  C         3.4153850317    0.1854259535   -0.2796690065
      8  C         2.6205119467    1.1926327109   -0.7556614790
      9  C         2.7144651175   -0.8858157564    0.3440022340
     10  N         1.2658207320    1.2502750162   -0.6835575068
     11  N         3.2307222557   -1.9828604842    0.8999696659
     12  C         1.2899964436   -0.8316111753    0.4380018871
     13  C         0.5897965700    0.2928722906   -0.1020576371
     14  S         1.9844989940   -2.8294767616    1.4692351332
     15  N         0.7528976972   -1.8810543354    1.0571903813
     16  C        -0.8612356761    0.4185211867   -0.0437684475
     17  S        -1.9581605897   -0.8618277119   -0.4017759836
     18  C        -1.5717066596    1.5543458628    0.2483478186
     19  C        -3.3500679934    0.1152314314   -0.1435833161
     20  S        -1.1234875308    3.1777380180    0.6664341929
     21  C        -2.9829557437    1.3955222280    0.2103048163
     22  C        -4.6950069447   -0.4014265322   -0.2891578941
     23  C        -2.8126253496    3.6070575636    0.8144116470
     24  C        -3.6744093558    2.6103356388    0.5455237351
     25  N        -5.7624166551    0.3154785958   -0.0845086514
     26  S        -5.0315232139   -2.0460715146   -0.7516105342
     27  C        -6.8940538513   -0.4164873005   -0.2913130517
     28  C        -6.7097952840   -1.7079509894   -0.6579583119
     29  H         8.6596710082    0.1760837370   -0.8656154052
     30  H         7.5537809739    2.2809719455   -0.1595330932
     31  H         5.0791388043    2.2874522570    0.1488817396
     32  H         5.0951655755   -1.8388050770   -0.9833935151
     33  H         3.0766182586    2.0326895723   -1.2651030643
     34  H        -3.0645257351    4.6179095484    1.0924438685
     35  H        -4.7478493505    2.6929988528    0.5756134832
     36  H        -7.8577387791    0.0514130802   -0.1597050695
     37  H        -7.4493858941   -2.4595274316   -0.8703167798
   Point Group: c1    Number of degrees of freedom:   105


   Energy is  -2595.899041081

              Constraints and their Current Values
                                        Value     Constraint
   Dihedral:        4   6   7   8       42.246       42.246
   Dihedral:       10  13  16  17      134.999      135.000
   Dihedral:       17  19  22  25      179.217      179.217
 Hessian Updated using BFGS Update

   Using Lagrange Multiplier Algorithm


104 Hessian modes will be used to form the next step
  Hessian Eigenvalues:
    -0.977752    0.030693    0.045000    0.045000    0.045000    0.045000
     0.045000    0.045000    0.045000    0.045000    0.045000    0.045000
     0.045000    0.045000    0.045000    0.045000    0.045000    0.045000
     0.045000    0.045000    0.045000    0.045001    0.045001    0.045001
     0.045001    0.045001    0.045002    0.045005    0.045007    0.045009
     0.045012    0.046523    0.158692    0.159962    0.159987    0.159997
     0.159998    0.159999    0.160000    0.160000    0.160153    0.220011
     0.224476    0.225470    0.227357    0.232032    0.233107    0.234460
     0.247473    0.247722    0.249915    0.249956    0.249989    0.249992
     0.249998    0.249998    0.249999    0.249999    0.250000    0.250000
     0.288086    0.299308    0.304974    0.316158    0.321215    0.327741
     0.334506    0.354451    0.355747    0.356364    0.356802    0.356835
     0.359247    0.360772    0.361188    0.363898    0.365010    0.372494
     0.385021    0.385936    0.391548    0.396900    0.399469    0.418919
     0.431255    0.455134    0.462793    0.473152    0.473499    0.474828
     0.483061    0.490589    0.497128    0.499453    0.517682    0.525758
     0.538169    0.559076    0.574875    0.586140    0.591478    0.620491
     0.638978    1.022755

 Minimum Search - Taking P-RFO Step
 Searching for Lamda that Maximizes Along the Constraint modes Only
 Value Taken    Lamda =   0.00000000
 Searching for Lamda that Minimizes Along All other modes
 Value Taken    Lamda =  -0.00058166
 Step Taken.  Stepsize is  0.125301

                             Maximum     Tolerance    Cnvgd?
         Gradient            0.001921       0.000300      NO
         Displacement        0.052477       0.001200      NO
         Energy change     -0.001238       0.000001      NO


 New Cartesian Coordinates Obtained by Inverse Iteration

 Displacement from previous Coordinates is:  0.468827
 ----------------------------------------------------------------
             Standard Nuclear Orientation (Angstroms)
    I     Atom           X                Y                Z
 ----------------------------------------------------------------
    1      C       7.5761107019     0.1988698480    -0.7699047506
    2      C       6.9717313399     1.3737505521    -0.3544565971
    3      N       6.9053882406    -0.9253360523    -1.0020299733
    4      C       5.6012023673     1.3814123616    -0.1710390930
    5      C       5.5921008588    -0.9070488651    -0.8230232731
    6      C       4.8770821224     0.2191763487    -0.4135740724
    7      C       3.4117712932     0.1893467297    -0.2656842249
    8      C       2.6180169978     1.2098745824    -0.7145807085
    9      C       2.7137870517    -0.8889872449     0.3493141279
   10      N       1.2631778024     1.2722718005    -0.6295362084
   11      N       3.2299919174    -1.9983820347     0.8831398595
   12      C       1.2923908386    -0.8280706471     0.4608783644
   13      C       0.5950887346     0.3118361655    -0.0513609674
   14      S       1.9887488830    -2.8510808139     1.4554026642
   15      N       0.7607378543    -1.8865290631     1.0737520584
   16      C      -0.8593690483     0.4371182694     0.0290337759
   17      S      -1.9370948831    -0.8553195660    -0.3336432782
   18      C      -1.5774758511     1.5742450498     0.2803907789
   19      C      -3.3401713773     0.1158034233    -0.1151129065
   20      S      -1.1480511879     3.2141194385     0.6614428339
   21      C      -2.9872673785     1.4036798120     0.2268970294
   22      C      -4.6797165347    -0.4078200948    -0.2800398643
   23      C      -2.8419673330     3.6275650675     0.7910776341
   24      C      -3.6915996463     2.6172106174     0.5348423960
   25      N      -5.7518300174     0.3095081997    -0.1040432765
   26      S      -5.0026125253    -2.0576002917    -0.7301160488
   27      C      -6.8776629295    -0.4266852691    -0.3269080900
   28      C      -6.6832017749    -1.7217311656    -0.6747747212
   29      H       8.6486906435     0.1549338231    -0.9198384671
   30      H       7.5642008524     2.2582717513    -0.1697868336
   31      H       5.0975300599     2.2744598229     0.1747784333
   32      H       5.0703178921    -1.8359468097    -1.0164184451
   33      H       3.0743398269     2.0544429092    -1.2163669448
   34      H      -3.1033408201     4.6427748603     1.0421869042
   35      H      -4.7660301253     2.6947093375     0.5516843822
   36      H      -7.8430766921     0.0443052894    -0.2216583627
   37      H      -7.4167752943    -2.4768037346    -0.8949585181
 ----------------------------------------------------------------
 Molecular Point Group                 C1    NOp =  1
 Largest Abelian Subgroup              C1    NOp =  1
 Nuclear Repulsion Energy =  2961.2383570355 hartrees
 There are      111 alpha and      111 beta electrons
 Applying Cartesian multipole field
    Component          Value
    ---------          -----
     (2,0,0)        1.00000E-12
     (0,2,0)        2.00000E-11
     (0,0,2)       -3.00000E-11
 Nucleus-field energy     =     0.0000000532 hartrees
 Requested basis set is cc-pVTZ
 There are 342 shells and 982 basis functions
 A cutoff of  1.0D-11 yielded  29190 shell pairs
 There are    231454 function pairs (    302311 Cartesian)
 Smallest overlap matrix eigenvalue = 2.58E-05
 Guess MOs from SCF MO coefficient file
 Reading MOs from coefficient file
 Reading MOs from coefficient file
 Long-range K will be added via erf
 Coulomb attenuation parameter = 0.2 bohr**(-1)
 A restricted hybrid HF-DFT SCF calculation will be
 performed using Pulay DIIS extrapolation
 Exchange:     0.2220 Hartree-Fock + 1.0000 wB97X-D + LR-HF
 Correlation:  1.0000 wB97X-D
 Using SG-2 standard quadrature grid
 Dispersion:   Grimme D
 SCF converges when DIIS error is below 1.0E-08
 Geometry optimization detected.  Setting ReadMinima to 0
 Setting SaveMinima to 0
 using 16 threads for integral computing 
 using 16 threads for integral computing 
 K construction time:  CPU 1068.95 s  wall 69.79 s
 -------------------------------------------------------
 OpenMP BLAS3 based DFT computing Module                
 Release: version 1.0, May 2013, Q-Chem Inc. Pittsburgh 
 -------------------------------------------------------
 ---------------------------------------
  Cycle       Energy         DIIS Error
 ---------------------------------------
    1   -2595.8939983166      3.38E-04
 K construction time:  CPU 1071.83 s  wall 70.00 s
    2   -2595.8990541603      3.28E-05
 K construction time:  CPU 806.12 s  wall 52.68 s
    3   -2595.8993156770      2.40E-05
 K construction time:  CPU 760.68 s  wall 49.69 s
    4   -2595.8993786926      1.15E-05
 K construction time:  CPU 725.43 s  wall 47.40 s
    5   -2595.8993993661      4.73E-06
 K construction time:  CPU 666.10 s  wall 43.52 s
    6   -2595.8994024362      2.17E-06
 K construction time:  CPU 610.10 s  wall 39.83 s
    7   -2595.8994030979      6.39E-07
 K construction time:  CPU 561.00 s  wall 36.62 s
    8   -2595.8994031828      3.94E-07
 K construction time:  CPU 521.75 s  wall 34.00 s
    9   -2595.8994032111      1.04E-07
 K construction time:  CPU 459.91 s  wall 29.95 s
   10   -2595.8994032146      5.85E-08
 K construction time:  CPU 405.43 s  wall 26.28 s
   11   -2595.8994032157      2.37E-08
 K construction time:  CPU 365.60 s  wall 23.65 s
   12   -2595.8994032175      8.52E-09 Convergence criterion met
 ---------------------------------------
 SCF time:  CPU 10794.34 s  wall 720.25 s
 SCF   energy in the final basis set = -2595.8994032175
 Total energy in the final basis set = -2595.8994032175
 
 --------------------------------------------------------------
 
                    Orbital Energies (a.u.)
 --------------------------------------------------------------
 
 Alpha MOs
 -- Occupied --
-89.158 -89.094 -89.091 -89.075 -14.495 -14.490 -14.456 -14.443
-14.438 -10.373 -10.371 -10.365 -10.361 -10.342 -10.342 -10.341
-10.334 -10.331 -10.329 -10.328 -10.327 -10.326 -10.325 -10.321
-10.317 -10.313 -10.305 -10.296  -8.168  -8.109  -8.106  -8.090
 -6.118  -6.112  -6.112  -6.058  -6.055  -6.054  -6.052  -6.052
 -6.049  -6.039  -6.035  -6.031  -1.154  -1.082  -1.075  -1.057
 -1.024  -1.016  -0.957  -0.948  -0.913  -0.910  -0.907  -0.885
 -0.862  -0.845  -0.829  -0.807  -0.776  -0.755  -0.746  -0.730
 -0.723  -0.695  -0.688  -0.679  -0.648  -0.641  -0.625  -0.624
 -0.608  -0.599  -0.584  -0.579  -0.571  -0.567  -0.541  -0.534
 -0.528  -0.523  -0.518  -0.513  -0.511  -0.505  -0.499  -0.496
 -0.487  -0.482  -0.474  -0.465  -0.456  -0.445  -0.436  -0.434
 -0.429  -0.425  -0.406  -0.394  -0.384  -0.373  -0.371  -0.369
 -0.367  -0.360  -0.345  -0.336  -0.324  -0.321  -0.270
 -- Virtual --
 -0.053  -0.013   0.024   0.036   0.043   0.057   0.065   0.065
  0.074   0.095   0.100   0.109   0.115   0.120   0.131   0.133
  0.142   0.145   0.150   0.164   0.168   0.169   0.171   0.175
  0.189   0.195   0.199   0.212   0.215   0.226   0.232   0.247
  0.251   0.253   0.261   0.267   0.271   0.275   0.286   0.289
  0.295   0.298   0.299   0.306   0.310   0.313   0.318   0.327
  0.329   0.332   0.335   0.339   0.341   0.344   0.350   0.358
  0.361   0.365   0.369   0.373   0.378   0.381   0.383   0.386
  0.391   0.394   0.399   0.400   0.402   0.406   0.409   0.413
  0.416   0.418   0.424   0.428   0.433   0.436   0.439   0.443
  0.448   0.451   0.454   0.457   0.458   0.461   0.464   0.466
  0.468   0.471   0.473   0.476   0.481   0.485   0.486   0.489
  0.492   0.498   0.501   0.502   0.504   0.514   0.517   0.522
  0.522   0.524   0.534   0.538   0.545   0.546   0.549   0.551
  0.554   0.566   0.577   0.578   0.585   0.590   0.592   0.594
  0.603   0.610   0.617   0.624   0.625   0.635   0.640   0.645
  0.652   0.655   0.658   0.663   0.668   0.674   0.679   0.683
  0.685   0.689   0.693   0.700   0.709   0.713   0.719   0.726
  0.729   0.735   0.736   0.738   0.750   0.751   0.753   0.763
  0.765   0.770   0.774   0.776   0.781   0.783   0.791   0.792
  0.797   0.804   0.808   0.813   0.821   0.823   0.825   0.831
  0.834   0.841   0.843   0.850   0.855   0.861   0.864   0.870
  0.872   0.877   0.883   0.889   0.894   0.899   0.910   0.912
  0.915   0.919   0.929   0.931   0.935   0.938   0.942   0.947
  0.952   0.960   0.965   0.971   0.974   0.982   0.985   0.987
  0.993   0.998   1.001   1.012   1.017   1.024   1.030   1.037
  1.045   1.048   1.054   1.059   1.062   1.065   1.069   1.071
  1.085   1.089   1.094   1.096   1.109   1.113   1.121   1.122
  1.134   1.139   1.142   1.150   1.159   1.167   1.169   1.176
  1.179   1.183   1.188   1.196   1.202   1.211   1.216   1.222
  1.228   1.237   1.245   1.251   1.261   1.266   1.269   1.273
  1.278   1.289   1.298   1.300   1.310   1.313   1.325   1.332
  1.342   1.348   1.354   1.362   1.368   1.373   1.377   1.382
  1.388   1.393   1.402   1.416   1.419   1.430   1.432   1.437
  1.441   1.444   1.447   1.457   1.459   1.471   1.479   1.486
  1.493   1.496   1.511   1.513   1.524   1.531   1.534   1.541
  1.551   1.557   1.560   1.568   1.570   1.584   1.589   1.590
  1.599   1.605   1.614   1.621   1.624   1.631   1.640   1.650
  1.655   1.655   1.658   1.666   1.669   1.675   1.679   1.684
  1.692   1.695   1.701   1.704   1.713   1.719   1.722   1.730
  1.739   1.746   1.755   1.765   1.775   1.777   1.782   1.790
  1.797   1.807   1.817   1.820   1.826   1.834   1.860   1.870
  1.878   1.883   1.883   1.886   1.901   1.907   1.912   1.923
  1.927   1.938   1.944   1.953   1.960   1.970   1.974   1.977
  1.988   1.999   2.005   2.011   2.014   2.023   2.030   2.035
  2.044   2.061   2.065   2.073   2.076   2.082   2.086   2.104
  2.113   2.118   2.132   2.139   2.148   2.160   2.163   2.174
  2.176   2.181   2.188   2.193   2.210   2.224   2.230   2.236
  2.240   2.252   2.258   2.261   2.263   2.271   2.279   2.285
  2.287   2.304   2.311   2.341   2.343   2.352   2.360   2.362
  2.370   2.378   2.384   2.387   2.390   2.399   2.403   2.406
  2.423   2.427   2.436   2.438   2.442   2.451   2.455   2.461
  2.468   2.476   2.484   2.493   2.501   2.507   2.510   2.518
  2.525   2.530   2.538   2.544   2.551   2.560   2.570   2.583
  2.586   2.589   2.605   2.610   2.616   2.619   2.621   2.631
  2.635   2.649   2.653   2.661   2.668   2.673   2.687   2.690
  2.703   2.713   2.736   2.742   2.750   2.760   2.769   2.773
  2.776   2.779   2.791   2.792   2.794   2.795   2.802   2.811
  2.816   2.826   2.838   2.845   2.848   2.863   2.872   2.874
  2.884   2.890   2.897   2.910   2.917   2.924   2.935   2.939
  2.946   2.948   2.952   2.956   2.959   2.964   2.972   2.977
  2.980   2.987   2.997   2.999   3.008   3.013   3.019   3.026
  3.028   3.032   3.047   3.055   3.059   3.060   3.065   3.068
  3.072   3.076   3.084   3.089   3.091   3.095   3.101   3.107
  3.114   3.116   3.122   3.126   3.129   3.134   3.135   3.140
  3.149   3.156   3.164   3.167   3.172   3.178   3.180   3.183
  3.185   3.188   3.190   3.197   3.201   3.204   3.206   3.213
  3.218   3.219   3.223   3.228   3.234   3.237   3.243   3.248
  3.256   3.259   3.262   3.267   3.268   3.273   3.280   3.282
  3.288   3.292   3.300   3.301   3.310   3.316   3.322   3.332
  3.339   3.342   3.345   3.350   3.356   3.363   3.368   3.373
  3.378   3.381   3.388   3.392   3.405   3.410   3.416   3.420
  3.424   3.433   3.443   3.448   3.453   3.460   3.464   3.478
  3.479   3.486   3.487   3.494   3.499   3.502   3.505   3.514
  3.521   3.522   3.531   3.542   3.547   3.552   3.561   3.568
  3.583   3.585   3.591   3.594   3.599   3.613   3.621   3.629
  3.632   3.647   3.652   3.660   3.671   3.678   3.682   3.688
  3.695   3.709   3.711   3.729   3.739   3.749   3.757   3.763
  3.771   3.775   3.782   3.789   3.800   3.804   3.807   3.818
  3.824   3.828   3.841   3.845   3.852   3.854   3.859   3.863
  3.874   3.881   3.888   3.899   3.913   3.920   3.927   3.933
  3.939   3.943   3.946   3.954   3.963   3.968   3.970   3.983
  3.986   3.991   3.998   4.000   4.018   4.023   4.037   4.044
  4.051   4.064   4.070   4.078   4.085   4.094   4.105   4.115
  4.126   4.138   4.141   4.150   4.167   4.170   4.176   4.186
  4.189   4.194   4.200   4.204   4.214   4.225   4.233   4.238
  4.254   4.265   4.277   4.279   4.285   4.293   4.311   4.314
  4.324   4.331   4.343   4.350   4.359   4.372   4.381   4.386
  4.396   4.403   4.413   4.425   4.429   4.442   4.453   4.457
  4.466   4.470   4.479   4.492   4.499   4.514   4.530   4.534
  4.545   4.552   4.565   4.568   4.574   4.586   4.598   4.607
  4.619   4.634   4.638   4.645   4.655   4.669   4.684   4.688
  4.694   4.713   4.723   4.746   4.764   4.774   4.783   4.795
  4.813   4.815   4.828   4.834   4.842   4.848   4.851   4.861
  4.880   4.884   4.911   4.928   4.935   4.938   4.941   4.950
  4.952   4.962   4.967   4.971   4.978   4.989   5.002   5.005
  5.011   5.029   5.038   5.048   5.057   5.067   5.090   5.091
  5.109   5.119   5.128   5.139   5.161   5.169   5.172   5.193
  5.200   5.233   5.236   5.241   5.249   5.257   5.282   5.285
  5.302   5.313   5.327   5.335   5.338   5.363   5.398   5.413
  5.416   5.439   5.456   5.462   5.468   5.490   5.508   5.529
  5.534   5.539   5.560   5.583   5.611   5.649   5.657   5.665
  5.690   5.701   5.706   5.721   5.745   5.766   5.775   5.814
  5.847   5.871   5.885   5.928   5.940   5.976   6.009   6.092
  6.117   6.140   6.156   6.180   6.187   6.217   6.246   6.302
  6.336   6.347   6.394   6.396   6.477   6.839   7.017   7.922
  8.761   9.728  10.131  10.899  11.102  11.208  11.625  11.948
 12.142  12.501  12.585  12.797  12.852  12.988  13.170  13.327
 13.529  13.542  13.829  13.868  14.262  14.675  14.984
 --------------------------------------------------------------
 
          Ground-State Mulliken Net Atomic Charges

     Atom                 Charge (a.u.)
  ----------------------------------------
      1 C                    -0.071306
      2 C                    -0.103068
      3 N                    -0.154956
      4 C                    -0.156924
      5 C                    -0.094096
      6 C                     0.108710
      7 C                     0.038878
      8 C                    -0.098444
      9 C                     0.035036
     10 N                    -0.161088
     11 N                    -0.280230
     12 C                     0.001577
     13 C                     0.052658
     14 S                     0.419907
     15 N                    -0.262152
     16 C                    -0.001494
     17 S                     0.135045
     18 C                    -0.036038
     19 C                    -0.033830
     20 S                     0.071533
     21 C                     0.039756
     22 C                     0.035495
     23 C                    -0.151617
     24 C                    -0.167710
     25 N                    -0.185546
     26 S                     0.098033
     27 C                    -0.076769
     28 C                    -0.202307
     29 H                     0.124609
     30 H                     0.130256
     31 H                     0.132436
     32 H                     0.129463
     33 H                     0.135555
     34 H                     0.131744
     35 H                     0.144242
     36 H                     0.129089
     37 H                     0.143554
  ----------------------------------------
  Sum of atomic charges =     0.000000

 -----------------------------------------------------------------
                    Cartesian Multipole Moments
 -----------------------------------------------------------------
    Charge (ESU x 10^10)
                 0.0000
    Dipole Moment (Debye)
         X      -1.1648      Y       0.4986      Z       0.7293
       Tot       1.4619
    Quadrupole Moments (Debye-Ang)
        XX    -167.9443     XY      19.1837     YY    -171.7976
        XZ       5.6474     YZ       1.8149     ZZ    -189.0521
    Octopole Moments (Debye-Ang^2)
       XXX    -183.9692    XXY      71.2649    XYY     -30.3247
       YYY      -1.6075    XXZ       1.2054    XYZ     -29.0647
       YYZ      17.5750    XZZ      -1.6896    YZZ     -15.2608
       ZZZ       5.8303
    Hexadecapole Moments (Debye-Ang^3)
      XXXX  -17166.0783   XXXY    1332.4677   XXYY   -3529.7583
      XYYY      -1.0768   YYYY   -3307.2009   XXXZ     354.6491
      XXYZ      23.0684   XYYZ      43.3830   YYYZ      23.4648
      XXZZ   -3483.1629   XYZZ      10.8359   YYZZ    -717.7574
      XZZZ      92.6918   YZZZ     -49.2418   ZZZZ    -725.0801
 -----------------------------------------------------------------
 Calculating analytic gradient of the SCF energy
 K construction time:  CPU 2741.26 s  wall 173.23 s
 Gradient of SCF Energy
            1           2           3           4           5           6
    1  -0.0002321   0.0003230  -0.0000077  -0.0001921  -0.0000157  -0.0000175
    2  -0.0001545   0.0001281   0.0000133   0.0001943   0.0000525  -0.0004222
    3  -0.0000327  -0.0000335   0.0000277   0.0003695  -0.0000980  -0.0002742
            7           8           9          10          11          12
    1   0.0000661  -0.0008599   0.0002387  -0.0006095  -0.0007418  -0.0002813
    2  -0.0003516   0.0002103   0.0009983  -0.0026749  -0.0000834   0.0018197
    3   0.0005028   0.0002788  -0.0003579  -0.0052397   0.0001200  -0.0000916
           13          14          15          16          17          18
    1   0.0032175   0.0001268   0.0004154  -0.0027833   0.0007587   0.0001701
    2   0.0035382  -0.0017102  -0.0004668  -0.0018275   0.0021417  -0.0015687
    3   0.0040838   0.0008286   0.0001808   0.0017009  -0.0034083   0.0017185
           19          20          21          22          23          24
    1  -0.0002192  -0.0001666   0.0001130  -0.0001693   0.0000089   0.0003974
    2   0.0000962   0.0006621  -0.0006225   0.0001974   0.0001527  -0.0001535
    3   0.0002212  -0.0003946   0.0001472  -0.0006365   0.0003856  -0.0001586
           25          26          27          28          29          30
    1   0.0000614  -0.0000125   0.0000934   0.0001145   0.0000425  -0.0000550
    2  -0.0001523  -0.0001039  -0.0000212   0.0000260   0.0000145   0.0000284
    3   0.0004263   0.0001520  -0.0000175  -0.0000216  -0.0000040   0.0000214
           31          32          33          34          35          36
    1   0.0000431   0.0000341   0.0001331   0.0000569  -0.0001334   0.0000254
    2  -0.0000004  -0.0000255   0.0000005  -0.0001220   0.0000877   0.0000870
    3  -0.0001074   0.0000005  -0.0001430  -0.0000594  -0.0000989   0.0000274
           37
    1   0.0000565
    2   0.0000121
    3  -0.0000154
 Max gradient component =       5.240E-03
 RMS gradient           =       1.058E-03
 Gradient time:  CPU 3179.31 s  wall 202.55 s
 Geometry Optimization Parameters
   NAtoms,    NIC,     NZ,  NCons,   NDum,   NFix, NCnnct, MaxDiis
       37     280       0       3       0       0       0       0

 Cartesian Hessian Update
 Hessian Updated using BFGS Update


** CONSTRAINED OPTIMIZATION IN DELOCALIZED INTERNAL COORDINATES **
   Searching for a Minimum

   Optimization Cycle:   3

                       Coordinates (Angstroms)
     ATOM                X               Y               Z
      1  C         7.5761107019    0.1988698480   -0.7699047506
      2  C         6.9717313399    1.3737505521   -0.3544565971
      3  N         6.9053882406   -0.9253360523   -1.0020299733
      4  C         5.6012023673    1.3814123616   -0.1710390930
      5  C         5.5921008588   -0.9070488651   -0.8230232731
      6  C         4.8770821224    0.2191763487   -0.4135740724
      7  C         3.4117712932    0.1893467297   -0.2656842249
      8  C         2.6180169978    1.2098745824   -0.7145807085
      9  C         2.7137870517   -0.8889872449    0.3493141279
     10  N         1.2631778024    1.2722718005   -0.6295362084
     11  N         3.2299919174   -1.9983820347    0.8831398595
     12  C         1.2923908386   -0.8280706471    0.4608783644
     13  C         0.5950887346    0.3118361655   -0.0513609674
     14  S         1.9887488830   -2.8510808139    1.4554026642
     15  N         0.7607378543   -1.8865290631    1.0737520584
     16  C        -0.8593690483    0.4371182694    0.0290337759
     17  S        -1.9370948831   -0.8553195660   -0.3336432782
     18  C        -1.5774758511    1.5742450498    0.2803907789
     19  C        -3.3401713773    0.1158034233   -0.1151129065
     20  S        -1.1480511879    3.2141194385    0.6614428339
     21  C        -2.9872673785    1.4036798120    0.2268970294
     22  C        -4.6797165347   -0.4078200948   -0.2800398643
     23  C        -2.8419673330    3.6275650675    0.7910776341
     24  C        -3.6915996463    2.6172106174    0.5348423960
     25  N        -5.7518300174    0.3095081997   -0.1040432765
     26  S        -5.0026125253   -2.0576002917   -0.7301160488
     27  C        -6.8776629295   -0.4266852691   -0.3269080900
     28  C        -6.6832017749   -1.7217311656   -0.6747747212
     29  H         8.6486906435    0.1549338231   -0.9198384671
     30  H         7.5642008524    2.2582717513   -0.1697868336
     31  H         5.0975300599    2.2744598229    0.1747784333
     32  H         5.0703178921   -1.8359468097   -1.0164184451
     33  H         3.0743398269    2.0544429092   -1.2163669448
     34  H        -3.1033408201    4.6427748603    1.0421869042
     35  H        -4.7660301253    2.6947093375    0.5516843822
     36  H        -7.8430766921    0.0443052894   -0.2216583627
     37  H        -7.4167752943   -2.4768037346   -0.8949585181
   Point Group: c1    Number of degrees of freedom:   105


   Energy is  -2595.899403218

              Constraints and their Current Values
                                        Value     Constraint
   Dihedral:        4   6   7   8       42.246       42.246
   Dihedral:       10  13  16  17      135.000      135.000
   Dihedral:       17  19  22  25      179.217      179.217
 Hessian Updated using BFGS Update

 83 Hessian modes will be used to form the next step
  Hessian Eigenvalues:
     0.015532    0.045000    0.045000    0.045001    0.045001    0.045001
     0.045001    0.045001    0.045002    0.045005    0.045007    0.045009
     0.045012    0.045320    0.047239    0.159744    0.159965    0.159987
     0.159998    0.159999    0.160000    0.160000    0.160032    0.160302
     0.220060    0.224610    0.225717    0.231979    0.232883    0.234393
     0.244302    0.247476    0.247722    0.249915    0.249962    0.249989
     0.249992    0.249998    0.249999    0.274086    0.298428    0.304538
     0.311502    0.316836    0.326919    0.328131    0.334490    0.354438
[...]
     25  N        -5.7418088479    0.3190952141   -0.1649465546
     26  S        -4.9828932451   -2.0739476728   -0.6681268511
     27  C        -6.8626620737   -0.4206439724   -0.4006184039
     28  C        -6.6625178257   -1.7294739998   -0.6888317137
     29  H         8.6206471173    0.1647093596   -1.0398568760
     30  H         7.5677541177    2.2418204040   -0.1817923586
     31  H         5.1126153858    2.2532222845    0.2375951913
     32  H         5.0327392682   -1.8104218105   -1.1016480415
     33  H         3.0434099584    2.0896502135   -1.0945000544
     34  H        -3.1120377120    4.6800574924    0.9248987420
     35  H        -4.7679160840    2.7230020494    0.4386071041
     36  H        -7.8287420735    0.0576476091   -0.3493245400
     37  H        -7.3919964482   -2.4897402055   -0.9050408316
   Point Group: c1    Number of degrees of freedom:   105


   Energy is  -2595.899719457

              Constraints and their Current Values
                                        Value     Constraint
   Dihedral:        4   6   7   8       42.246       42.246
   Dihedral:       10  13  16  17      135.000      135.000
   Dihedral:       17  19  22  25      179.217      179.217
 Hessian Updated using BFGS Update

 90 Hessian modes will be used to form the next step
  Hessian Eigenvalues:
     0.010044    0.014721    0.042878    0.045000    0.045000    0.045000
     0.045000    0.045000    0.045001    0.045001    0.045001    0.045002
     0.045005    0.045006    0.045011    0.045024    0.045037    0.045187
     0.045986    0.047476    0.158197    0.159947    0.159962    0.159992
     0.159996    0.160000    0.160091    0.160282    0.161261    0.220053
     0.225023    0.225904    0.229798    0.232092    0.234442    0.237771
     0.247674    0.249458    0.249837    0.249875    0.249921    0.249988
     0.249996    0.249999    0.251484    0.254338    0.272810    0.283860
     0.298069    0.304932    0.312237    0.317667    0.328466    0.334907
     0.350569    0.354711    0.355755    0.356391    0.356804    0.357039
     0.359249    0.360797    0.361251    0.364027    0.365042    0.381424
     0.390819    0.392799    0.405536    0.407283    0.431253    0.432447
     0.455427    0.463411    0.473404    0.473789    0.476789    0.483089
     0.488064    0.497764    0.501556    0.522188    0.536189    0.538304
     0.560011    0.574942    0.591104    0.622996    0.640331    0.647725

 Minimum Search - Taking Simple RFO Step
 Searching for Lamda that Minimizes Along All modes
 Value Taken    Lamda =   0.00000000
 Step Taken.  Stepsize is  0.005747

                             Maximum     Tolerance    Cnvgd?
         Gradient           0.000057      0.000300     YES
         Displacement       0.003457      0.001200      NO
         Energy change     -0.000001      0.000001     YES

 Final energy is   -2595.89971945726     


 ******************************
 **  OPTIMIZATION CONVERGED  **
 ******************************

                       Coordinates (Angstroms)
     ATOM                X               Y               Z
      1  C         7.5532801288    0.2063189326   -0.8564388178
      2  C         6.9658689348    1.3667860383   -0.3808889430
      3  N         6.8711969099   -0.9067324780   -1.1089233412
      4  C         5.6016779492    1.3719075053   -0.1561859261
      5  C         5.5639805453   -0.8910598019   -0.8895813699
      6  C         4.8657325371    0.2216725574   -0.4184212606
      7  C         3.4056820117    0.1893275970   -0.2259335392
      8  C         2.6015736127    1.2268870818   -0.6114380465
      9  C         2.7227204378   -0.9104358520    0.3691263088
     10  N         1.2501495996    1.2877859271   -0.4826719889
     11  N         3.2515113522   -2.0401496992    0.8432795923
     12  C         1.3055666175   -0.8505018565    0.5272783577
     13  C         0.5942092835    0.3098133622    0.0823111100
     14  S         2.0238164931   -2.9098576276    1.4191733269
     15  N         0.7876147524   -1.9287115924    1.1140426783
     16  C        -0.8558941552    0.4230505220    0.1796150049
     17  S        -1.9300147801   -0.8728265462   -0.2006812528
     18  C        -1.5783645703    1.5762969472    0.3442931084
     19  C        -3.3318839615    0.1148800576   -0.0762939276
     20  S        -1.1537146635    3.2249887012    0.6804020343
     21  C        -2.9855096006    1.4127417232    0.2357343739
     22  C        -4.6677568121   -0.4094258774   -0.2694918843
     23  C        -2.8484448658    3.6544602942    0.7220202240
     24  C        -3.6944264341    2.6401515260    0.4692249834
     25  N        -5.7418088479    0.3190952141   -0.1649465546
     26  S        -4.9828932451   -2.0739476728   -0.6681268511
     27  C        -6.8626620737   -0.4206439724   -0.4006184039
     28  C        -6.6625178257   -1.7294739998   -0.6888317137
     29  H         8.6206471173    0.1647093596   -1.0398568760
     30  H         7.5677541177    2.2418204040   -0.1817923586
     31  H         5.1126153858    2.2532222845    0.2375951913
     32  H         5.0327392682   -1.8104218105   -1.1016480415
     33  H         3.0434099584    2.0896502135   -1.0945000544
     34  H        -3.1120377120    4.6800574924    0.9248987420
     35  H        -4.7679160840    2.7230020494    0.4386071041
     36  H        -7.8287420735    0.0576476091   -0.3493245400
     37  H        -7.3919964482   -2.4897402055   -0.9050408316

Z-matrix Print:
$molecule
0 1
S 
C  1 1.719382
C  2 1.379051 1 110.622984
C  3 1.420772 2 111.986484 1 -0.988545 0
C  4 1.370788 3 114.580105 2 2.699084 0
C  3 1.436529 2 135.803305 1 179.511210 0
H  6 1.077117 3 123.568396 2 -0.906468 0
C  6 1.344772 3 111.380781 2 178.874489 0
H  8 1.078189 6 126.801438 3 -179.613440 0
C  2 1.448026 1 122.312125 3 179.359226 0
N  10 1.302022 2 123.210054 1 -179.216984 0
C  11 1.363476 10 111.141766 2 -179.744610 0
H  12 1.079215 11 119.157939 10 179.878124 0
C  12 1.355050 11 116.064166 10 -0.041057 0
H  14 1.075588 12 128.704861 11 -179.927870 0
C  5 1.457769 4 126.701475 3 -172.316338 0
N  16 1.306099 5 118.052642 4 32.860686 0
C  17 1.358910 16 120.456244 5 179.326996 0
H  18 1.083018 17 114.348419 16 -179.961289 0
C  18 1.368113 17 126.284734 16 -1.723366 0
C  20 1.424785 18 114.918855 17 0.329542 0
N  21 1.334427 20 127.728380 18 179.398244 0
C  21 1.427210 20 119.329563 18 0.579364 0
N  23 1.332330 21 113.630400 20 179.015914 0
C  20 1.473039 18 121.944231 17 -179.665588 0
C  25 1.390476 20 121.206813 18 -42.245708 0
H  26 1.082110 25 120.208428 20 -2.702029 0
C  26 1.382583 25 119.243347 20 178.489212 0
H  28 1.080551 26 121.108591 25 179.624195 0
C  28 1.384877 26 118.517805 25 0.283148 0
H  30 1.083811 28 120.531348 26 179.729603 0
N  30 1.329612 28 123.304557 26 0.000000 0
C  32 1.325583 30 117.682218 28 0.022470 0
H  33 1.082782 32 116.192096 30 179.903118 0
S  24 1.607466 23 106.175478 21 0.117305 0
S  14 1.714710 12 109.642663 11 -0.020975 0
S  4 1.735362 3 111.501383 2 -177.943485 0
$end

 
 --------------------------------------------------------------
 
                    Orbital Energies (a.u.)
 --------------------------------------------------------------
 
 Alpha MOs
 -- Occupied --
-89.157 -89.094 -89.091 -89.075 -14.495 -14.490 -14.455 -14.443
-14.437 -10.374 -10.371 -10.364 -10.361 -10.343 -10.341 -10.341
-10.334 -10.330 -10.328 -10.328 -10.327 -10.326 -10.325 -10.320
-10.317 -10.314 -10.304 -10.296  -8.167  -8.109  -8.107  -8.089
 -6.117  -6.112  -6.111  -6.058  -6.056  -6.055  -6.052  -6.052
 -6.050  -6.039  -6.035  -6.031  -1.154  -1.082  -1.074  -1.056
 -1.024  -1.016  -0.957  -0.948  -0.912  -0.910  -0.907  -0.885
 -0.862  -0.845  -0.829  -0.807  -0.776  -0.754  -0.746  -0.730
 -0.724  -0.695  -0.688  -0.679  -0.648  -0.641  -0.625  -0.623
 -0.608  -0.599  -0.584  -0.579  -0.571  -0.567  -0.541  -0.534
 -0.527  -0.523  -0.518  -0.513  -0.511  -0.504  -0.498  -0.495
 -0.487  -0.481  -0.475  -0.465  -0.457  -0.446  -0.436  -0.434
 -0.429  -0.425  -0.407  -0.394  -0.384  -0.373  -0.371  -0.369
 -0.366  -0.359  -0.344  -0.336  -0.324  -0.321  -0.270
 -- Virtual --
 -0.054  -0.013   0.024   0.037   0.043   0.057   0.064   0.065
  0.075   0.096   0.101   0.109   0.115   0.120   0.131   0.133
  0.142   0.146   0.151   0.164   0.168   0.169   0.171   0.175
  0.189   0.195   0.199   0.212   0.215   0.227   0.232   0.247
  0.251   0.254   0.261   0.267   0.271   0.275   0.286   0.290
  0.295   0.298   0.300   0.307   0.311   0.313   0.317   0.327
  0.329   0.332   0.334   0.339   0.343   0.345   0.350   0.357
  0.361   0.365   0.369   0.374   0.378   0.381   0.384   0.386
  0.391   0.394   0.399   0.401   0.402   0.405   0.409   0.413
  0.416   0.420   0.425   0.428   0.433   0.435   0.439   0.444
  0.449   0.451   0.454   0.457   0.458   0.461   0.465   0.466
  0.468   0.472   0.473   0.477   0.481   0.485   0.487   0.489
  0.493   0.498   0.501   0.502   0.504   0.514   0.517   0.522
  0.523   0.524   0.534   0.538   0.546   0.546   0.547   0.552
  0.554   0.564   0.577   0.578   0.585   0.590   0.592   0.594
  0.604   0.609   0.618   0.624   0.626   0.634   0.642   0.647
  0.651   0.655   0.659   0.663   0.667   0.676   0.681   0.683
  0.687   0.687   0.694   0.700   0.709   0.716   0.719   0.726
  0.729   0.736   0.737   0.738   0.750   0.752   0.754   0.763
  0.766   0.770   0.774   0.777   0.780   0.783   0.790   0.791
  0.797   0.804   0.807   0.814   0.821   0.824   0.825   0.831
  0.833   0.840   0.846   0.851   0.856   0.862   0.865   0.870
  0.874   0.879   0.885   0.890   0.896   0.899   0.908   0.913
  0.914   0.918   0.928   0.932   0.935   0.939   0.943   0.948
  0.951   0.959   0.964   0.971   0.975   0.983   0.986   0.987
  0.992   0.996   1.003   1.013   1.019   1.024   1.030   1.036
  1.046   1.049   1.053   1.059   1.062   1.065   1.069   1.072
  1.085   1.088   1.094   1.098   1.109   1.113   1.120   1.125
  1.133   1.139   1.142   1.153   1.160   1.164   1.167   1.174
  1.177   1.183   1.187   1.193   1.200   1.211   1.217   1.224
  1.227   1.238   1.243   1.248   1.263   1.266   1.268   1.273
  1.278   1.288   1.297   1.300   1.310   1.314   1.325   1.334
  1.343   1.348   1.353   1.360   1.362   1.372   1.377   1.383
  1.389   1.394   1.402   1.415   1.418   1.428   1.432   1.437
  1.441   1.444   1.447   1.454   1.457   1.472   1.478   1.486
  1.491   1.495   1.510   1.514   1.527   1.532   1.534   1.540
  1.550   1.558   1.560   1.567   1.571   1.585   1.591   1.591
  1.598   1.607   1.614   1.618   1.624   1.630   1.640   1.651
  1.655   1.656   1.658   1.665   1.670   1.673   1.678   1.687
  1.693   1.697   1.700   1.705   1.715   1.720   1.722   1.730
  1.741   1.745   1.757   1.768   1.772   1.777   1.785   1.790
  1.798   1.808   1.816   1.818   1.822   1.839   1.861   1.870
  1.877   1.882   1.883   1.886   1.901   1.905   1.913   1.923
  1.926   1.937   1.944   1.956   1.959   1.969   1.976   1.977
  1.990   2.001   2.005   2.010   2.014   2.023   2.030   2.034
  2.046   2.061   2.065   2.073   2.075   2.083   2.087   2.105
  2.112   2.117   2.129   2.136   2.148   2.155   2.163   2.173
  2.175   2.183   2.188   2.193   2.211   2.222   2.229   2.237
  2.239   2.252   2.258   2.259   2.262   2.270   2.280   2.284
  2.287   2.304   2.313   2.342   2.344   2.351   2.358   2.363
  2.370   2.380   2.383   2.387   2.390   2.399   2.404   2.405
  2.422   2.429   2.434   2.439   2.442   2.452   2.455   2.458
  2.468   2.477   2.482   2.494   2.500   2.507   2.511   2.517
  2.526   2.533   2.541   2.543   2.553   2.557   2.570   2.580
  2.587   2.591   2.603   2.609   2.616   2.619   2.622   2.631
  2.635   2.645   2.655   2.661   2.668   2.673   2.688   2.690
  2.701   2.712   2.731   2.740   2.751   2.761   2.770   2.774
  2.776   2.780   2.790   2.792   2.795   2.797   2.801   2.811
  2.817   2.828   2.840   2.847   2.853   2.864   2.872   2.875
  2.883   2.889   2.897   2.908   2.918   2.922   2.934   2.939
  2.946   2.947   2.952   2.954   2.959   2.965   2.971   2.977
  2.980   2.988   2.996   3.001   3.008   3.014   3.017   3.023
  3.029   3.031   3.043   3.055   3.060   3.061   3.063   3.067
  3.072   3.077   3.083   3.090   3.091   3.094   3.101   3.106
  3.113   3.116   3.123   3.124   3.129   3.133   3.134   3.141
  3.149   3.159   3.163   3.167   3.172   3.177   3.181   3.182
  3.186   3.188   3.191   3.195   3.202   3.204   3.205   3.213
  3.216   3.221   3.223   3.227   3.235   3.240   3.244   3.250
  3.257   3.260   3.260   3.267   3.270   3.273   3.279   3.282
  3.289   3.296   3.299   3.302   3.309   3.317   3.323   3.332
  3.339   3.342   3.345   3.350   3.357   3.363   3.368   3.375
  3.377   3.382   3.388   3.392   3.403   3.409   3.417   3.419
  3.423   3.436   3.444   3.447   3.452   3.460   3.463   3.478
  3.480   3.484   3.486   3.494   3.498   3.504   3.507   3.512
  3.519   3.521   3.532   3.543   3.543   3.555   3.562   3.567
  3.581   3.585   3.589   3.593   3.600   3.612   3.620   3.630
  3.632   3.646   3.652   3.661   3.670   3.681   3.683   3.689
  3.694   3.707   3.711   3.728   3.737   3.749   3.756   3.762
  3.770   3.774   3.782   3.789   3.800   3.804   3.807   3.816
  3.824   3.829   3.838   3.844   3.850   3.854   3.860   3.863
  3.873   3.882   3.887   3.898   3.916   3.920   3.927   3.935
  3.939   3.944   3.947   3.954   3.962   3.968   3.970   3.980
  3.986   3.988   3.998   4.001   4.016   4.029   4.037   4.045
  4.052   4.065   4.071   4.078   4.085   4.092   4.107   4.116
  4.129   4.134   4.139   4.148   4.166   4.173   4.178   4.188
  4.190   4.195   4.200   4.204   4.219   4.226   4.235   4.240
  4.255   4.265   4.276   4.278   4.284   4.291   4.309   4.314
  4.323   4.333   4.343   4.348   4.361   4.373   4.382   4.386
  4.397   4.406   4.414   4.424   4.429   4.444   4.449   4.457
  4.466   4.470   4.477   4.493   4.497   4.515   4.531   4.533
  4.546   4.551   4.564   4.569   4.573   4.585   4.596   4.604
  4.617   4.632   4.641   4.644   4.658   4.670   4.686   4.688
  4.694   4.714   4.722   4.745   4.757   4.773   4.781   4.793
  4.813   4.814   4.831   4.835   4.843   4.847   4.851   4.861
  4.880   4.884   4.910   4.928   4.934   4.936   4.940   4.950
  4.953   4.963   4.966   4.973   4.979   4.989   5.002   5.007
  5.010   5.030   5.039   5.049   5.057   5.068   5.090   5.093
  5.109   5.119   5.128   5.139   5.162   5.169   5.171   5.194
  5.202   5.232   5.235   5.240   5.246   5.259   5.282   5.284
  5.303   5.314   5.329   5.334   5.337   5.363   5.398   5.412
  5.417   5.440   5.455   5.461   5.469   5.489   5.508   5.529
  5.532   5.537   5.556   5.583   5.609   5.650   5.657   5.665
  5.691   5.701   5.708   5.724   5.751   5.762   5.780   5.815
  5.848   5.874   5.884   5.925   5.942   5.979   6.011   6.088
  6.123   6.139   6.157   6.180   6.188   6.220   6.250   6.303
  6.339   6.347   6.394   6.397   6.478   6.840   7.018   7.938
  8.778   9.736  10.140  10.895  11.114  11.202  11.603  11.952
 12.153  12.503  12.570  12.785  12.845  13.007  13.159  13.334
 13.532  13.537  13.823  13.875  14.254  14.694  14.986
 --------------------------------------------------------------
 
          Ground-State Mulliken Net Atomic Charges

     Atom                 Charge (a.u.)
  ----------------------------------------
      1 C                    -0.071617
      2 C                    -0.102957
      3 N                    -0.154959
      4 C                    -0.156484
      5 C                    -0.094310
      6 C                     0.107904
      7 C                     0.039049
      8 C                    -0.098087
      9 C                     0.033596
     10 N                    -0.162738
     11 N                    -0.279294
     12 C                     0.002760
     13 C                     0.066690
     14 S                     0.417955
     15 N                    -0.263769
     16 C                    -0.013373
     17 S                     0.132977
     18 C                    -0.037890
     19 C                    -0.034227
     20 S                     0.074088
     21 C                     0.042361
     22 C                     0.037125
     23 C                    -0.153122
     24 C                    -0.166224
     25 N                    -0.185253
     26 S                     0.098717
     27 C                    -0.076263
     28 C                    -0.201774
     29 H                     0.124536
     30 H                     0.130076
     31 H                     0.131686
     32 H                     0.129433
     33 H                     0.135138
     34 H                     0.131568
     35 H                     0.143951
     36 H                     0.129019
     37 H                     0.143714
  ----------------------------------------
  Sum of atomic charges =     0.000000

 -----------------------------------------------------------------
                    Cartesian Multipole Moments
 -----------------------------------------------------------------
    Charge (ESU x 10^10)
                 0.0000
    Dipole Moment (Debye)
         X      -1.2443      Y       0.5102      Z       0.6824
       Tot       1.5081
    Quadrupole Moments (Debye-Ang)
        XX    -167.6072     XY      19.0179     YY    -171.5573
        XZ       6.6978     YZ       1.3602     ZZ    -189.3484
    Octopole Moments (Debye-Ang^2)
       XXX    -184.5529    XXY      71.0043    XYY     -31.9504
       YYY       1.9808    XXZ      -1.5390    XYZ     -28.3719
       YYZ      12.6277    XZZ      -2.9212    YZZ     -13.9143
       ZZZ      -3.9584
    Hexadecapole Moments (Debye-Ang^3)
      XXXX  -17078.6143   XXXY    1329.7903   XXYY   -3522.0463
      XYYY       5.4426   YYYY   -3355.9734   XXXZ     415.5852
      XXYZ      12.9834   XYYZ      59.6117   YYYZ      19.6008
      XXZZ   -3475.8132   XYZZ      20.2316   YYZZ    -732.4278
      XZZZ     119.7254   YZZZ     -44.9586   ZZZZ    -717.4696
 -----------------------------------------------------------------
Archival summary:
1\1\mn250\OPT\ProcedureUnspecified\BasisUnspecified\45199\afmv_a\SatJun310:33:522017SatJun310:33:522017\0\\#,OPT,ProcedureUnspecified,BasisUnspecified,\\0,1\S\C,1,1.71938\C,2,1.37905,1,110.623\C,3,1.42077,2,111.986,1,-0.988545,0\C,4,1.37079,3,114.58,2,2.69908,0\C,3,1.43653,2,135.803,1,179.511,0\H,6,1.07712,3,123.568,2,-0.906468,0\C,6,1.34477,3,111.381,2,178.874,0\H,8,1.07819,6,126.801,3,-179.613,0\C,2,1.44803,1,122.312,3,179.359,0\N,10,1.30202,2,123.21,1,-179.217,0\C,11,1.36348,10,111.142,2,-179.745,0\H,12,1.07921,11,119.158,10,179.878,0\C,12,1.35505,11,116.064,10,-0.0410569,0\H,14,1.07559,12,128.705,11,-179.928,0\C,5,1.45777,4,126.701,3,-172.316,0\N,16,1.3061,5,118.053,4,32.8607,0\C,17,1.35891,16,120.456,5,179.327,0\H,18,1.08302,17,114.348,16,-179.961,0\C,18,1.36811,17,126.285,16,-1.72337,0\C,20,1.42479,18,114.919,17,0.329542,0\N,21,1.33443,20,127.728,18,179.398,0\C,21,1.42721,20,119.33,18,0.579364,0\N,23,1.33233,21,113.63,20,179.016,0\C,20,1.47304,18,121.944,17,-179.666,0\C,25,1.39048,20,121.207,18,-42.2457,0\H,26,1.08211,25,120.208,20,-2.70203,0\C,26,1.38258,25,119.243,20,178.489,0\H,28,1.08055,26,121.109,25,179.624,0\C,28,1.38488,26,118.518,25,0.283148,0\H,30,1.08381,28,120.531,26,179.73,0\N,30,1.32961,28,123.305,26,0,0\C,32,1.32558,30,117.682,28,0.02247,0\H,33,1.08278,32,116.192,30,179.903,0\S,24,1.60747,23,106.175,21,0.117305,0\S,14,1.71471,12,109.643,11,-0.0209748,0\S,4,1.73536,3,111.501,2,-177.943,0\\\@

 Total job time:  7217.91s(wall), 109119.30s(cpu) 
 Sat Jun  3 10:33:52 2017

        *************************************************************
        *                                                           *
        *  Thank you very much for using Q-Chem.  Have a nice day.  *
        *                                                           *
        *************************************************************


0 sent ACK to 0 
now end server 0 ... 
cleanup process ... done
