
Running Job 1 of 1 C271_2/C271_315.qcin
qchem C271_2/C271_315.qcin_27595.0 /tmpu/cab_g/afmv_a/scratch_qchem/qchem27595/ 1
/tmpu/appuserlic/qchem4.4/parallel-MPICH/bin/mpi/mpirun_qchem -machinefile /tmpu/appuserlic/qchem4.4/parallel-MPICH/bin/mpi/machines -np 1 /tmpu/appuserlic/qchem4.4/parallel-MPICH/exe/qcprog.exe C271_2/C271_315.qcin_27595.0 /tmpu/cab_g/afmv_a/scratch_qchem/qchem27595/

Process 0 of 1 is on mn250 - thread support 0
initial socket setup ...start
initial socket setup ...done 
now start server 0 ... 
Check license passed

                  Welcome to Q-Chem
     A Quantum Leap Into The Future Of Chemistry


 Q-Chem 4.4, Q-Chem, Inc., Pleasanton, CA (2016)

 Y. Shao,  Z. Gan,  E. Epifanovsky,  A. T. B. Gilbert,  M. Wormit,  
 J. Kussmann,  A. W. Lange,  A. Behn,  J. Deng,  X. Feng,  D. Ghosh,  
 M. Goldey,  P. R. Horn,  L. D. Jacobson,  I. Kaliman,  F. Rob,  
 R. Z. Khaliullin,  T. Kus,  A. Landau,  J. Liu,  E. I. Proynov,  Y. M. Rhee,  
 R. M. Richard,  M. A. Rohrdanz,  R. P. Steele,  E. J. Sundstrom,  
 H. L. Woodcock III,  P. M. Zimmerman,  D. Zuev,  B. Albrecht,  E. Alguire,  
 B. Austin,  S. A. Baeppler,  G. J. O. Beran,  Y. A. Bernard,  E. Berquist,  
 K. Brandhorst,  K. B. Bravaya,  S. T. Brown,  D. Casanova,  C.-M. Chang,  
 Y. Chen,  S. H. Chien,  K. D. Closser,  M. P. Coons,  D. L. Crittenden,  
 S. Dasgupta,  M. Diedenhofen,  R. A. DiStasio Jr.,  H. Do,  A. D. Dutoi,  
 R. G. Edgar,  P.-T. Fang,  S. Fatehi,  Q. Feng,  L. Fusti-Molnar,  
 A. Ghysels,  A. Golubeva-Zadorozhnaya,  J. Gomes,  A. Gunina,  
 M. W. D. Hanson-Heine,  P. H. P. Harbach,  A. W. Hauser,  J. E. Herr,  
 E. G. Hohenstein,  Z. C. Holden,  K. Hui,  T.-C. Jagau,  H. Ji,  B. Kaduk,  
 K. Khistyaev,  Jaehoon Kim,  Jihan Kim,  R. A. King,  P. Klunzinger,  
 K. Koh,  D. Kosenkov,  T. Kowalczyk,  C. M. Krauter,  A. Kunitsa,  
 K. U. Lao,  A. Laurent,  K. V. Lawler,  J. Lee,  D. Lefrancois,  S. Lehtola,  
 S. V. Levchenko,  C. Y. Lin,  Y.-S. Lin,  F. Liu,  E. Livshits,  
 R. C. Lochan,  A. Luenser,  P. Manohar,  S. F. Manzer,  S.-P. Mao,  Y. Mao,  
 N. Mardirossian,  A. V. Marenich,  L. A. Martinez-Martinez,  S. A. Maurer,  
 N. J. Mayhall,  J.-M. Mewes,  A. F. Morrison,  K. Nanda,  T. S. Nguyen-Beck,  
 C. M. Oana,  R. Olivares-Amaya,  D. P. O'Neill,  J. A. Parkhill,  
 T. M. Perrine,  R. Peverati,  P. A. Pieniazek,  F. Plasser,  A. Prociuk,  
 D. R. Rehn,  E. Rosta,  N. J. Russ,  N. Sergueev,  S. M. Sharada,  
 S. Sharma,  D. W. Small,  A. Sodt,  T. Stauch,  T. Stein,  D. Stuck,  
 Y.-C. Su,  A. J. W. Thom,  T. Tsuchimochi,  L. Vogt,  O. Vydrov,  T. Wang,  
 M. A. Watson,  J. Wenzel,  A. White,  C. F. Williams,  V. Vanovschi,  
 K. Yao,  S. Yeganeh,  S. R. Yost,  Z.-Q. You,  I. Y. Zhang,  X. Zhang,  
 Y. Zhao,  B. R. Brooks,  G. K. L. Chan,  D. M. Chipman,  C. J. Cramer,  
 W. A. Goddard III,  M. S. Gordon,  W. J. Hehre,  A. Klamt,  
 H. F. Schaefer III,  M. W. Schmidt,  C. D. Sherrill,  D. G. Truhlar,  
 A. Warshel,  X. Xu,  A. Aspuru-Guzik,  R. Baer,  A. T. Bell,  N. A. Besley,  
 J.-D. Chai,  A. Dreuw,  B. D. Dunietz,  T. R. Furlani,  S. R. Gwaltney,  
 C.-P. Hsu,  Y. Jung,  J. Kong,  D. S. Lambrecht,  W. Liang,  C. Ochsenfeld,  
 V. A. Rassolov,  L. V. Slipchenko,  J. E. Subotnik,  T. Van Voorhis,  
 J. M. Herbert,  A. I. Krylov,  P. M. W. Gill,  M. Head-Gordon

 Contributors to earlier versions of Q-Chem not listed above: 
 R. D. Adamson,  J. Baker,  E. F. C. Byrd,  A. K. Chakraborty,  C.-L. Cheng,  
 H. Dachsel,  R. J. Doerksen,  G. Hawkins,  A. Heyden,  S. Hirata,  
 G. Kedziora,  F. J. Keil,  C. Kelley,  P. P. Korambath,  W. Kurlancheek,  
 A. M. Lee,  M. S. Lee,  D. Liotard,  I. Lotan,  P. E. Maslen,  N. Nair,  
 D. Neuhauser,  R. Olson,  B. Peters,  J. Ritchie,  N. E. Schultz,  
 N. Shenvi,  A. C. Simmonett,  K. S. Thanthiriwatte,  Q. Wu,  W. Zhang

 Please cite Q-Chem as follows:
 Y. Shao et al., Mol. Phys. 113, 184-215 (2015)
 DOI: 10.1080/00268976.2014.952696

 Q-Chem 4.4.2 for Intel X86 Linux

 Parts of Q-Chem use Armadillo 5.200.1 (Boston Tea Smuggler).
 http://arma.sourceforge.net/

 Q-Chem begins on Sat Jun  3 02:38:04 2017  

Host: 
0

     Scratch files written to /tmpu/cab_g/afmv_a/scratch_qchem/qchem27595//
 Dec716 11556_ 22328  22283 4050   
 Parallel job on  1  processors
Processing $rem in /tmpu/appuserlic/qchem4.4/parallel-MPICH/config/preferences.
 MEM_TOTAL  2000 
FILE_GEOM_ORG=        593

Checking the input file for inconsistencies... 	...done.

--------------------------------------------------------------
User input:
--------------------------------------------------------------
$comment
OPTIMIZATION
$end

$rem
JOBTYPE OPT
EXCHANGE omegaB97X-D
BASIS cc-pVTZ
$end

$molecule
0 1
C          0.00000        0.00000        0.00000
C          1.38508        0.00000        0.00000
N         -0.72771       -1.11322        0.00000
C          2.04720       -1.21160       -0.00386
C         -0.08136       -2.27149       -0.00595
C          1.30925       -2.38901       -0.00649
C          1.96927       -3.70493        0.02329
C          3.04486       -3.95576        0.82999
C          1.55200       -4.80802       -0.77739
N          3.72631       -5.12438        0.91627
N          0.54624       -4.84522       -1.65350
C          2.26335       -6.04410       -0.69858
C          3.37925       -6.16090        0.19241
S          0.53898       -6.32692       -2.28381
N          1.78433       -6.98642       -1.50573
C          4.16725       -7.35995        0.35676
S          5.89541       -7.43380        0.41856
C          3.65305       -8.62896        0.49245
C          5.90895       -9.14249        0.62351
S          2.04420       -9.26608        0.52274
C          4.62616       -9.64893        0.64521
C          7.14258       -9.88799        0.75981
C          2.69044      -10.87911        0.73750
C          4.03250      -10.95096        0.78465
N          7.18188      -11.17832        0.92990
S          8.71340       -9.13575        0.71239
C          8.46677      -11.62121        1.03531
C          9.43266      -10.67482        0.94402
H         -0.55134        0.93273        0.00000
H          1.92494        0.93597       -0.01293
H          3.12873       -1.25416       -0.02668
H         -0.69553       -3.16348       -0.00579
H          3.41622       -3.17720        1.48423
H          2.00223      -11.70554        0.82462
H          4.60858      -11.85116        0.91554
H          8.65783      -12.67319        1.18282
H         10.50016      -10.79625        1.00006
$end

$opt
CONSTRAINT
tors 4 6 7 8 42.24575
tors 10 13 16 17 -45.00000
tors 17 19 22 25 179.21698
ENDCONSTRAINT
$end
--------------------------------------------------------------
 ----------------------------------------------------------------
             Standard Nuclear Orientation (Angstroms)
    I     Atom           X                Y                Z
 ----------------------------------------------------------------
    1      C       7.4399072451     1.5195120929    -0.4355701932
    2      C       6.5806377414     2.5502248567    -0.0924467096
    3      N       7.0278277530     0.2779863763    -0.6756222701
    4      C       5.2304749196     2.2802145320     0.0102525267
    5      C       5.7290587683     0.0293036250    -0.5719442511
    6      C       4.7752600097     0.9901127296    -0.2332390601
    7      C       3.3415822452     0.6605278902    -0.1692031597
    8      C       2.3863157270     1.4851022347    -0.6965715855
    9      C       2.8375004773    -0.5241482630     0.4427235080
   10      N       1.0470615659     1.2768269596    -0.6739718729
   11      N       3.5340577985    -1.4935232156     1.0390672421
   12      C       1.4282330035    -0.7542767853     0.4763338583
   13      C       0.5421653237     0.2035785397    -0.1153886047
   14      S       2.4621943429    -2.5727457595     1.5674286026
   15      N       1.0879191816    -1.8852704299     1.0878550303
   16      C      -0.8958361235     0.0730613898    -0.1435477312
   17      S      -2.0323872296     1.3265758149     0.2208191405
   18      C      -1.5769340573    -1.0769463746    -0.4703313638
   19      C      -3.3899662348     0.3084317946    -0.0658363126
   20      S      -1.0765697494    -2.6679725022    -0.9324018363
   21      C      -2.9895172574    -0.9597202097    -0.4318057899
   22      C      -4.7493549680     0.7884014836     0.0678883543
   23      C      -2.7535922129    -3.1529269664    -1.0666724615
   24      C      -3.6473683178    -2.1887760222    -0.7836745469
   25      N      -5.7943527091     0.0446332571    -0.1561990243
   26      S      -5.1348431039     2.4196529480     0.5432899777
   27      C      -6.9472276438     0.7460657227     0.0363548992
   28      C      -6.8017478316     2.0393467729     0.4147609478
   29      H       8.5054704367     1.6957348151    -0.5220669297
   30      H       6.9732580935     3.5375902784     0.1040593426
   31      H       4.5291491073     3.0531320560     0.2979674080
   32      H       5.4181330467    -0.9885844160    -0.7721444165
   33      H       2.6840983006     2.3985295096    -1.1956407724
   34      H      -2.9778010710    -4.1650802322    -1.3658138960
   35      H      -4.7182045992    -2.2966206154    -0.8159173851
   36      H      -7.8988686650     0.2600145044    -0.1154957646
   37      H      -7.5646828214     2.7700111885     0.6184805825
 ----------------------------------------------------------------
 Molecular Point Group                 C1    NOp =  1
 Largest Abelian Subgroup              C1    NOp =  1
 Nuclear Repulsion Energy =  2972.3259329300 hartrees
 There are      111 alpha and      111 beta electrons
 Requested basis set is cc-pVTZ
 There are 342 shells and 982 basis functions

 Total QAlloc Memory Limit   2000 MB
 Mega-Array Size        61 MB
 MEM_STATIC part        62 MB
 A cutoff of  1.0D-11 yielded  29329 shell pairs
 There are    233129 function pairs (    304715 Cartesian)
 
 -------------------------------------------------------
 OpenMP Integral Computing Module                       
 Release: version 1.0, May 2013, Q-Chem Inc. Pittsburgh 
 -------------------------------------------------------
 Integral Job Info:
 Integral job number is                      11
 Integral operator is                         1
 short-range coefficients              22203600
 long-range coefficients              100000000
 Omega coefficients                         200
 if combine SR and LR in K                    1
 Integral screening is                        0
 Integral computing path is                   2
 max size of driver memory is            800000
 size of driver memory is                776718
 size of scratch memory is             26248924
 max col of scratch BK array              10000
 max len of scratch array in speh3          662
 max len of scratch index in speh4           32
 max int batch size is                      520
 min int batch size is                       52
 fixed nKL is                                52
 max L of basis functions is                  3
 order of int derivative is                   0
 number of shells is                        342
 number of basis is                        1131
 number of cartesian basis is              1131
 number of contracted shell pairs         29329
 number of primitive shell pairs          92817
 maxK2 (contraction) of shell pair          121
 max number of K2 of shell pair               1
 max number of CS2 of shell pair           3959
 max number of PS2 of shell pair          11788
 mem total for path MDJ                  819448
 -------------------------------------------------------
 Smallest overlap matrix eigenvalue = 2.88E-05

 Scale SEOQF with 1.000000e-02/1.000000e-01/1.000000e-01

 Standard Electronic Orientation quadrupole field applied
 Nucleus-field energy     =     0.0000000520 hartrees
 Guess from superposition of atomic densities
 Warning:  Energy on first SCF cycle will be non-variational
 Long-range K will be added via erf
 Coulomb attenuation parameter = 0.2 bohr**(-1)
 A restricted hybrid HF-DFT SCF calculation will be
 performed using Pulay DIIS extrapolation
 Exchange:     0.2220 Hartree-Fock + 1.0000 wB97X-D + LR-HF
 Correlation:  1.0000 wB97X-D
 Using SG-2 standard quadrature grid
 Dispersion:   Grimme D
 SCF converges when DIIS error is below 1.0E-08
 using 16 threads for integral computing 
 using 16 threads for integral computing 
 K construction time:  CPU 72.69 s  wall 4.73 s
 -------------------------------------------------------
 OpenMP BLAS3 based DFT computing Module                
 Release: version 1.0, May 2013, Q-Chem Inc. Pittsburgh 
 -------------------------------------------------------
 ---------------------------------------
  Cycle       Energy         DIIS Error
 ---------------------------------------
    1   -2605.8636038254      1.87E-02
 K construction time:  CPU 1086.45 s  wall 71.02 s
    2   -2595.6467494466      1.39E-03
 K construction time:  CPU 1036.46 s  wall 67.66 s
    3   -2595.6480662679      1.51E-03
 K construction time:  CPU 990.68 s  wall 64.70 s
    4   -2595.8884228610      2.31E-04
 K construction time:  CPU 907.91 s  wall 59.40 s
    5   -2595.8935341193      1.26E-04
 K construction time:  CPU 859.75 s  wall 56.15 s
    6   -2595.8953097766      3.65E-05
 K construction time:  CPU 812.16 s  wall 53.05 s
    7   -2595.8954731870      1.71E-05
 K construction time:  CPU 760.40 s  wall 49.61 s
    8   -2595.8955157067      6.89E-06
 K construction time:  CPU 729.28 s  wall 47.70 s
    9   -2595.8955275635      3.54E-06
 K construction time:  CPU 700.33 s  wall 45.66 s
   10   -2595.8955312187      1.01E-06
 K construction time:  CPU 631.93 s  wall 41.22 s
   11   -2595.8955316383      5.60E-07
 K construction time:  CPU 580.97 s  wall 37.92 s
   12   -2595.8955317305      1.71E-07
 K construction time:  CPU 516.00 s  wall 33.57 s
   13   -2595.8955317407      8.50E-08
 K construction time:  CPU 440.68 s  wall 28.65 s
   14   -2595.8955317448      2.89E-08
 K construction time:  CPU 376.45 s  wall 24.40 s
   15   -2595.8955317447      1.10E-08
 K construction time:  CPU 1087.99 s  wall 71.13 s
   16   -2595.8955317364      4.58E-09 Convergence criterion met
 ---------------------------------------
 SCF time:  CPU 15459.80 s  wall 1032.03 s
 SCF   energy in the final basis set = -2595.8955317364
 Total energy in the final basis set = -2595.8955317364
 
 --------------------------------------------------------------
 
                    Orbital Energies (a.u.)
 --------------------------------------------------------------
 
 Alpha MOs
 -- Occupied --
-89.157 -89.095 -89.091 -89.075 -14.493 -14.489 -14.454 -14.443
-14.438 -10.373 -10.369 -10.365 -10.362 -10.343 -10.340 -10.340
-10.333 -10.331 -10.329 -10.328 -10.326 -10.326 -10.325 -10.320
-10.317 -10.313 -10.304 -10.297  -8.167  -8.110  -8.106  -8.090
 -6.117  -6.112  -6.111  -6.059  -6.055  -6.055  -6.053  -6.052
 -6.049  -6.040  -6.036  -6.032  -1.153  -1.082  -1.073  -1.056
 -1.024  -1.015  -0.958  -0.947  -0.913  -0.910  -0.907  -0.885
 -0.862  -0.846  -0.829  -0.808  -0.775  -0.754  -0.747  -0.732
 -0.721  -0.695  -0.688  -0.679  -0.649  -0.642  -0.626  -0.621
 -0.610  -0.602  -0.585  -0.577  -0.569  -0.569  -0.541  -0.533
 -0.528  -0.523  -0.518  -0.514  -0.510  -0.505  -0.499  -0.497
 -0.484  -0.482  -0.475  -0.466  -0.456  -0.446  -0.438  -0.436
 -0.426  -0.425  -0.406  -0.392  -0.384  -0.372  -0.370  -0.368
 -0.367  -0.359  -0.344  -0.336  -0.325  -0.319  -0.270
 -- Virtual --
 -0.054  -0.014   0.025   0.036   0.041   0.059   0.064   0.068
  0.074   0.091   0.098   0.109   0.116   0.120   0.130   0.134
  0.141   0.146   0.148   0.164   0.168   0.170   0.171   0.174
  0.187   0.192   0.197   0.212   0.216   0.226   0.229   0.244
  0.252   0.257   0.260   0.265   0.270   0.276   0.285   0.289
  0.292   0.299   0.300   0.307   0.311   0.313   0.326   0.327
  0.329   0.334   0.335   0.339   0.342   0.351   0.355   0.359
  0.361   0.366   0.368   0.372   0.375   0.382   0.385   0.387
  0.391   0.395   0.397   0.401   0.403   0.406   0.409   0.413
  0.416   0.417   0.419   0.429   0.432   0.436   0.440   0.443
  0.444   0.447   0.456   0.457   0.459   0.461   0.462   0.466
  0.469   0.472   0.473   0.479   0.481   0.485   0.487   0.490
  0.496   0.500   0.502   0.505   0.508   0.515   0.517   0.521
  0.524   0.525   0.532   0.536   0.542   0.548   0.549   0.554
  0.560   0.572   0.576   0.582   0.583   0.589   0.596   0.602
  0.607   0.610   0.616   0.619   0.621   0.629   0.639   0.643
  0.651   0.656   0.661   0.661   0.673   0.675   0.678   0.683
  0.688   0.690   0.695   0.701   0.711   0.718   0.723   0.726
  0.731   0.734   0.739   0.744   0.749   0.750   0.754   0.763
  0.764   0.766   0.770   0.776   0.781   0.786   0.788   0.793
  0.796   0.801   0.805   0.816   0.817   0.826   0.831   0.833
  0.838   0.844   0.848   0.852   0.856   0.857   0.862   0.865
  0.871   0.878   0.883   0.890   0.896   0.897   0.905   0.913
  0.917   0.920   0.927   0.930   0.940   0.943   0.948   0.951
  0.954   0.960   0.964   0.967   0.975   0.980   0.983   0.987
  0.993   0.998   1.006   1.014   1.016   1.025   1.031   1.036
  1.043   1.052   1.055   1.059   1.063   1.069   1.076   1.078
  1.082   1.089   1.096   1.101   1.107   1.112   1.119   1.126
  1.130   1.138   1.140   1.146   1.161   1.165   1.169   1.177
  1.181   1.183   1.196   1.198   1.207   1.212   1.219   1.222
  1.229   1.240   1.247   1.253   1.263   1.268   1.272   1.282
  1.286   1.290   1.299   1.303   1.310   1.320   1.324   1.332
  1.339   1.350   1.354   1.364   1.369   1.377   1.383   1.384
  1.388   1.391   1.402   1.413   1.419   1.420   1.429   1.433
  1.436   1.446   1.454   1.457   1.462   1.470   1.479   1.488
  1.493   1.500   1.507   1.517   1.524   1.529   1.534   1.538
  1.550   1.554   1.559   1.569   1.570   1.579   1.583   1.594
  1.603   1.609   1.619   1.623   1.625   1.631   1.634   1.643
  1.647   1.651   1.658   1.666   1.670   1.677   1.683   1.686
  1.694   1.698   1.700   1.702   1.712   1.722   1.737   1.742
  1.750   1.751   1.764   1.765   1.776   1.783   1.784   1.791
  1.805   1.812   1.815   1.834   1.844   1.849   1.860   1.874
  1.879   1.882   1.887   1.896   1.901   1.905   1.919   1.926
  1.932   1.936   1.948   1.950   1.964   1.968   1.978   1.981
  1.986   2.001   2.004   2.007   2.013   2.020   2.028   2.034
  2.052   2.063   2.064   2.075   2.077   2.081   2.088   2.103
  2.115   2.122   2.134   2.141   2.145   2.154   2.170   2.171
  2.184   2.190   2.192   2.203   2.211   2.221   2.226   2.239
  2.241   2.255   2.257   2.262   2.270   2.272   2.278   2.283
  2.285   2.300   2.306   2.343   2.344   2.356   2.362   2.369
  2.376   2.382   2.385   2.392   2.399   2.400   2.407   2.412
  2.423   2.425   2.437   2.441   2.442   2.450   2.461   2.466
  2.470   2.483   2.486   2.493   2.497   2.505   2.511   2.518
  2.522   2.531   2.535   2.544   2.553   2.566   2.567   2.583
  2.588   2.592   2.603   2.606   2.616   2.620   2.623   2.629
  2.639   2.646   2.653   2.665   2.668   2.680   2.684   2.704
  2.709   2.717   2.731   2.746   2.759   2.760   2.767   2.770
  2.776   2.785   2.789   2.792   2.798   2.799   2.800   2.813
  2.821   2.825   2.843   2.846   2.853   2.855   2.874   2.879
  2.890   2.891   2.906   2.912   2.918   2.925   2.939   2.940
  2.943   2.945   2.952   2.957   2.958   2.969   2.976   2.982
  2.986   2.989   2.997   3.004   3.011   3.012   3.019   3.029
  3.031   3.032   3.051   3.056   3.057   3.061   3.064   3.066
  3.075   3.076   3.080   3.091   3.094   3.097   3.103   3.105
  3.114   3.115   3.122   3.128   3.128   3.137   3.143   3.150
  3.151   3.159   3.164   3.169   3.172   3.178   3.182   3.186
  3.188   3.190   3.194   3.201   3.202   3.204   3.212   3.214
  3.215   3.222   3.225   3.230   3.236   3.241   3.246   3.251
  3.258   3.261   3.267   3.271   3.272   3.278   3.286   3.286
  3.293   3.298   3.299   3.305   3.311   3.319   3.322   3.328
  3.335   3.344   3.349   3.352   3.354   3.357   3.359   3.369
  3.373   3.384   3.385   3.389   3.398   3.411   3.424   3.427
  3.433   3.435   3.441   3.454   3.460   3.463   3.470   3.471
  3.478   3.479   3.489   3.494   3.498   3.499   3.506   3.516
  3.523   3.527   3.535   3.540   3.546   3.547   3.561   3.572
  3.578   3.584   3.594   3.596   3.603   3.613   3.618   3.628
  3.635   3.644   3.654   3.664   3.677   3.681   3.686   3.692
  3.703   3.707   3.713   3.732   3.740   3.741   3.748   3.769
  3.772   3.782   3.784   3.793   3.797   3.804   3.805   3.813
  3.817   3.826   3.833   3.845   3.853   3.856   3.860   3.869
  3.877   3.881   3.891   3.907   3.915   3.923   3.926   3.930
  3.938   3.944   3.947   3.954   3.961   3.967   3.977   3.983
  3.987   3.992   3.998   4.001   4.018   4.027   4.030   4.044
  4.051   4.059   4.068   4.079   4.086   4.095   4.111   4.118
  4.127   4.138   4.150   4.155   4.161   4.169   4.176   4.183
  4.192   4.198   4.199   4.207   4.210   4.224   4.232   4.242
  4.246   4.256   4.269   4.277   4.290   4.299   4.306   4.314
  4.330   4.336   4.341   4.358   4.369   4.373   4.374   4.390
  4.398   4.400   4.415   4.434   4.435   4.446   4.451   4.467
  4.471   4.475   4.479   4.487   4.513   4.519   4.530   4.538
  4.543   4.556   4.564   4.579   4.582   4.587   4.604   4.608
  4.618   4.627   4.634   4.648   4.661   4.671   4.677   4.682
  4.698   4.718   4.732   4.742   4.763   4.769   4.793   4.796
  4.816   4.819   4.832   4.835   4.841   4.848   4.856   4.856
  4.874   4.884   4.902   4.932   4.935   4.936   4.939   4.950
  4.954   4.961   4.966   4.974   4.980   4.989   5.003   5.008
  5.019   5.029   5.035   5.049   5.060   5.071   5.090   5.093
  5.104   5.115   5.133   5.148   5.155   5.169   5.176   5.193
  5.211   5.234   5.236   5.240   5.247   5.264   5.280   5.284
  5.295   5.317   5.330   5.341   5.354   5.370   5.398   5.411
  5.424   5.441   5.461   5.466   5.467   5.488   5.512   5.526
  5.532   5.548   5.569   5.587   5.602   5.652   5.660   5.662
  5.692   5.700   5.709   5.715   5.759   5.764   5.780   5.815
  5.848   5.876   5.912   5.924   5.950   5.975   6.014   6.076
  6.126   6.140   6.155   6.184   6.185   6.205   6.228   6.310
  6.327   6.346   6.390   6.399   6.477   6.841   7.016   7.865
  8.784   9.732  10.147  10.918  11.111  11.202  11.768  12.021
 12.221  12.517  12.578  12.683  12.815  12.907  13.183  13.381
 13.529  13.604  13.834  13.862  14.254  14.631  14.996
 --------------------------------------------------------------
 
          Ground-State Mulliken Net Atomic Charges

     Atom                 Charge (a.u.)
  ----------------------------------------
      1 C                    -0.069783
      2 C                    -0.102849
      3 N                    -0.155464
      4 C                    -0.156023
      5 C                    -0.094285
      6 C                     0.108972
      7 C                     0.043678
      8 C                    -0.110014
      9 C                     0.029605
     10 N                    -0.161538
     11 N                    -0.278943
     12 C                    -0.001940
     13 C                     0.029125
     14 S                     0.421091
     15 N                    -0.257049
     16 C                     0.033076
     17 S                     0.133349
     18 C                    -0.026140
     19 C                    -0.029842
     20 S                     0.072462
     21 C                     0.023953
     22 C                     0.034793
     23 C                    -0.150649
     24 C                    -0.168609
     25 N                    -0.185819
     26 S                     0.097591
     27 C                    -0.077492
     28 C                    -0.202422
     29 H                     0.124334
     30 H                     0.130139
     31 H                     0.130973
     32 H                     0.130177
     33 H                     0.136207
     34 H                     0.131895
     35 H                     0.144422
     36 H                     0.129294
     37 H                     0.143724
  ----------------------------------------
  Sum of atomic charges =     0.000000

 -----------------------------------------------------------------
                    Cartesian Multipole Moments
 -----------------------------------------------------------------
    Charge (ESU x 10^10)
                 0.0000
    Dipole Moment (Debye)
         X      -1.4468      Y       1.3665      Z       1.1280
       Tot       2.2876
    Quadrupole Moments (Debye-Ang)
        XX    -173.5262     XY       7.4221     YY    -166.4936
        XZ       2.4148     YZ       3.0036     ZZ    -188.6975
    Octopole Moments (Debye-Ang^2)
       XXX    -265.5287    XXY     155.2061    XYY      11.0186
       YYY     -19.2913    XXZ      33.7449    XYZ     -22.2293
       YYZ       2.9962    XZZ       2.5176    YZZ     -11.6148
       ZZZ      15.9716
    Hexadecapole Moments (Debye-Ang^3)
      XXXX  -17909.7580   XXXY     279.9768   XXYY   -3231.0406
      XYYY      64.7597   YYYY   -3268.2953   XXXZ      65.3558
      XXYZ      73.0127   XYYZ      38.0531   YYYZ      48.0376
      XXZZ   -3491.6613   XYZZ     -35.6569   YYZZ    -705.4584
      XZZZ      27.8258   YZZZ     -31.6955   ZZZZ    -741.1319
 -----------------------------------------------------------------
 Calculating analytic gradient of the SCF energy
 K construction time:  CPU 2780.88 s  wall 175.76 s
 Gradient of SCF Energy
            1           2           3           4           5           6
    1   0.0013791  -0.0024097   0.0002732   0.0018846  -0.0001885  -0.0007029
    2   0.0008684  -0.0007217   0.0000303  -0.0003394   0.0000267   0.0011367
    3   0.0003033  -0.0003283  -0.0000268  -0.0008622  -0.0005215   0.0008207
            7           8           9          10          11          12
    1   0.0000194  -0.0003615  -0.0006782   0.0000306  -0.0013161   0.0026262
    2   0.0011472  -0.0010503  -0.0002623  -0.0001995  -0.0001517   0.0008714
    3  -0.0005092  -0.0012365   0.0011770  -0.0042351   0.0000627   0.0028016
           13          14          15          16          17          18
    1  -0.0098253   0.0021298  -0.0019819   0.0128289  -0.0081288  -0.0014858
    2  -0.0191505  -0.0026951   0.0013812   0.0196854   0.0023439  -0.0064005
    3   0.0047128   0.0013086  -0.0048511  -0.0013165   0.0038908  -0.0067309
           19          20          21          22          23          24
    1   0.0010203   0.0052644   0.0022349   0.0001967   0.0011162  -0.0016238
    2   0.0005399   0.0053339  -0.0016902   0.0000183   0.0007255  -0.0020585
    3  -0.0000217   0.0025194   0.0003879  -0.0005722   0.0025657  -0.0001475
           25          26          27          28          29          30
    1  -0.0000507  -0.0000335   0.0005279   0.0001882  -0.0001632   0.0007191
    2   0.0000420   0.0006943  -0.0012756   0.0000954  -0.0000198  -0.0004170
    3   0.0004049   0.0006214  -0.0003548  -0.0002190   0.0000049   0.0002057
           31          32          33          34          35          36
    1  -0.0006061  -0.0005490  -0.0011168  -0.0007670   0.0001114  -0.0003562
    2  -0.0001812   0.0000630   0.0000902  -0.0002604   0.0010490   0.0006974
    3   0.0002025   0.0000971   0.0004080  -0.0004593  -0.0000461   0.0000108
           37
    1  -0.0002064
    2   0.0000337
    3  -0.0000673
 Max gradient component =       1.969E-02
 RMS gradient           =       3.566E-03
 Gradient time:  CPU 3220.68 s  wall 205.40 s
 Geometry Optimization Parameters
   NAtoms,    NIC,     NZ,  NCons,   NDum,   NFix, NCnnct, MaxDiis
       37     280       0       3       0       0       0       0


** CONSTRAINED OPTIMIZATION IN DELOCALIZED INTERNAL COORDINATES **
   Searching for a Minimum

   Optimization Cycle:   1

                       Coordinates (Angstroms)
     ATOM                X               Y               Z
      1  C         7.4399072451    1.5195120929   -0.4355701932
      2  C         6.5806377414    2.5502248567   -0.0924467096
      3  N         7.0278277530    0.2779863763   -0.6756222701
      4  C         5.2304749196    2.2802145320    0.0102525267
      5  C         5.7290587683    0.0293036250   -0.5719442511
      6  C         4.7752600097    0.9901127296   -0.2332390601
      7  C         3.3415822452    0.6605278902   -0.1692031597
      8  C         2.3863157270    1.4851022347   -0.6965715855
      9  C         2.8375004773   -0.5241482630    0.4427235080
     10  N         1.0470615659    1.2768269596   -0.6739718729
     11  N         3.5340577985   -1.4935232156    1.0390672421
     12  C         1.4282330035   -0.7542767853    0.4763338583
     13  C         0.5421653237    0.2035785397   -0.1153886047
     14  S         2.4621943429   -2.5727457595    1.5674286026
     15  N         1.0879191816   -1.8852704299    1.0878550303
     16  C        -0.8958361235    0.0730613898   -0.1435477312
     17  S        -2.0323872296    1.3265758149    0.2208191405
     18  C        -1.5769340573   -1.0769463746   -0.4703313638
     19  C        -3.3899662348    0.3084317946   -0.0658363126
     20  S        -1.0765697494   -2.6679725022   -0.9324018363
     21  C        -2.9895172574   -0.9597202097   -0.4318057899
     22  C        -4.7493549680    0.7884014836    0.0678883543
     23  C        -2.7535922129   -3.1529269664   -1.0666724615
     24  C        -3.6473683178   -2.1887760222   -0.7836745469
     25  N        -5.7943527091    0.0446332571   -0.1561990243
     26  S        -5.1348431039    2.4196529480    0.5432899777
     27  C        -6.9472276438    0.7460657227    0.0363548992
     28  C        -6.8017478316    2.0393467729    0.4147609478
     29  H         8.5054704367    1.6957348151   -0.5220669297
     30  H         6.9732580935    3.5375902784    0.1040593426
     31  H         4.5291491073    3.0531320560    0.2979674080
     32  H         5.4181330467   -0.9885844160   -0.7721444165
     33  H         2.6840983006    2.3985295096   -1.1956407724
     34  H        -2.9778010710   -4.1650802322   -1.3658138960
     35  H        -4.7182045992   -2.2966206154   -0.8159173851
     36  H        -7.8988686650    0.2600145044   -0.1154957646
     37  H        -7.5646828214    2.7700111885    0.6184805825
   Point Group: c1    Number of degrees of freedom:   105


   Energy is  -2595.895531736

              Constraints and their Current Values
                                        Value     Constraint
   Dihedral:        4   6   7   8       42.189       42.246
   Dihedral:       10  13  16  17      -45.000      -45.000
   Dihedral:       17  19  22  25      179.258      179.217

 Attempting to Generate Delocalized Internal Coordinates

   Using Lagrange Multiplier Algorithm


106 Hessian modes will be used to form the next step
  Hessian Eigenvalues:
    -0.977753   -0.977753    0.045000    0.045000    0.045000    0.045000
     0.045000    0.045000    0.045000    0.045000    0.045000    0.045000
     0.045000    0.045000    0.045000    0.045000    0.045000    0.045000
     0.045000    0.045000    0.045000    0.045000    0.045000    0.045001
     0.045001    0.045001    0.045001    0.045001    0.045003    0.045005
     0.045007    0.045009    0.045012    0.159961    0.159984    0.159995
     0.159997    0.159998    0.159999    0.160000    0.160000    0.160000
     0.220002    0.224572    0.225458    0.231978    0.233022    0.234404
     0.247446    0.247715    0.249914    0.249956    0.249989    0.249992
     0.249998    0.249998    0.249998    0.249999    0.249999    0.249999
     0.250000    0.250000    0.297518    0.305118    0.316333    0.317271
     0.326666    0.334472    0.354466    0.355754    0.356364    0.356781
     0.356811    0.359242    0.360770    0.361172    0.363916    0.365011
     0.372838    0.385316    0.386482    0.390167    0.393199    0.397173
     0.410394    0.431175    0.455299    0.463162    0.473302    0.473331
     0.475009    0.483101    0.491323    0.496878    0.499403    0.517640
     0.525704    0.538143    0.558610    0.574891    0.584500    0.591081
     0.623467    0.638968    1.022753    1.022753

 Minimum Search - Taking P-RFO Step
 Searching for Lamda that Maximizes Along the Constraint modes Only
 Value Taken    Lamda =   0.00000254
 Searching for Lamda that Minimizes Along All other modes
 Value Taken    Lamda =  -0.00638601
 Step Taken.  Stepsize is  0.192030

                             Maximum     Tolerance    Cnvgd?
         Gradient            0.016928       0.000300      NO
         Displacement        0.095517       0.001200      NO
         Energy change     *********       0.000001      NO


 New Cartesian Coordinates Obtained by Inverse Iteration

 Displacement from previous Coordinates is:  1.581966
 ----------------------------------------------------------------
             Standard Nuclear Orientation (Angstroms)
    I     Atom           X                Y                Z
 ----------------------------------------------------------------
    1      C       7.4218761304     1.6384673091    -0.3971329786
    2      C       6.5228351353     2.6465013747    -0.0900166538
    3      N       7.0599452386     0.3772414065    -0.6125112772
    4      C       5.1810669144     2.3285792113    -0.0007013188
    5      C       5.7703388392     0.0830507508    -0.5229902214
    6      C       4.7770384056     1.0169772777    -0.2245246072
    7      C       3.3539053779     0.6410869417    -0.1732183344
    8      C       2.3791455039     1.4210774452    -0.7310433999
    9      C       2.8804568601    -0.5404664453     0.4627736220
   10      N       1.0460163274     1.1661974153    -0.7225368150
   11      N       3.6052539540    -1.4582211062     1.1043328390
   12      C       1.4775877332    -0.8205491963     0.4830104480
   13      C       0.5679066862     0.0861034936    -0.1538137587
   14      S       2.5613182876    -2.5446515445     1.6701582341
   15      N       1.1698888561    -1.9295664504     1.1524230761
   16      C      -0.8793975823    -0.1102544352    -0.1877971908
   17      S      -1.9498222785     1.1882526972     0.1725722677
   18      C      -1.6172748293    -1.2305621704    -0.5074950178
   19      C      -3.3621536805     0.2456208050    -0.0887747376
   20      S      -1.2369871854    -2.8525227036    -1.0078249662
   21      C      -3.0273677808    -1.0347076660    -0.4671605122
   22      C      -4.6942339764     0.7919635726     0.0658394154
   23      C      -2.9376080335    -3.2294794197    -1.1442397373
   24      C      -3.7616250894    -2.2159621393    -0.8310310799
   25      N      -5.7787667957     0.1018222281    -0.1408653571
   26      S      -4.9906307153     2.4381861481     0.5495807154
   27      C      -6.8922562874     0.8573592889     0.0791457248
   28      C      -6.6766262371     2.1401958003     0.4588394155
   29      H       8.4818325479     1.8510026095    -0.4732999797
   30      H       6.8720278918     3.6538650249     0.0866131777
   31      H       4.4500475263     3.0838089698     0.2567475066
   32      H       5.5034497915    -0.9506544777    -0.7041500271
   33      H       2.6597873395     2.3298943928    -1.2494136716
   34      H      -3.2237079008    -4.2206485608    -1.4577547523
   35      H      -4.8374126247    -2.2609177467    -0.8571192398
   36      H      -7.8671304899     0.4135079374    -0.0533182782
   37      H      -7.3976733680     2.9063815422     0.6824729527
 ----------------------------------------------------------------
 Molecular Point Group                 C1    NOp =  1
 Largest Abelian Subgroup              C1    NOp =  1
 Nuclear Repulsion Energy =  2961.2507661156 hartrees
 There are      111 alpha and      111 beta electrons
 Applying Cartesian multipole field
    Component          Value
    ---------          -----
     (2,0,0)        1.00000E-12
     (0,2,0)        2.00000E-11
     (0,0,2)       -3.00000E-11
 Nucleus-field energy     =     0.0000000526 hartrees
 Requested basis set is cc-pVTZ
 There are 342 shells and 982 basis functions
 A cutoff of  1.0D-11 yielded  29191 shell pairs
 There are    231723 function pairs (    302758 Cartesian)
 Smallest overlap matrix eigenvalue = 2.78E-05
 Guess MOs from SCF MO coefficient file
 Reading MOs from coefficient file
 Reading MOs from coefficient file
 Long-range K will be added via erf
 Coulomb attenuation parameter = 0.2 bohr**(-1)
 A restricted hybrid HF-DFT SCF calculation will be
 performed using Pulay DIIS extrapolation
 Exchange:     0.2220 Hartree-Fock + 1.0000 wB97X-D + LR-HF
 Correlation:  1.0000 wB97X-D
 Using SG-2 standard quadrature grid
 Dispersion:   Grimme D
 SCF converges when DIIS error is below 1.0E-08
 Geometry optimization detected.  Setting ReadMinima to 0
 Setting SaveMinima to 0
 using 16 threads for integral computing 
 using 16 threads for integral computing 
 K construction time:  CPU 1071.97 s  wall 70.13 s
 -------------------------------------------------------
 OpenMP BLAS3 based DFT computing Module                
 Release: version 1.0, May 2013, Q-Chem Inc. Pittsburgh 
 -------------------------------------------------------
 ---------------------------------------
  Cycle       Energy         DIIS Error
 ---------------------------------------
    1   -2595.8742177920      8.34E-04
 K construction time:  CPU 1071.84 s  wall 70.05 s
    2   -2595.8963416251      1.04E-04
 K construction time:  CPU 877.76 s  wall 57.30 s
    3   -2595.8968226409      1.18E-04
 K construction time:  CPU 837.18 s  wall 54.64 s
    4   -2595.8983276805      2.68E-05
 K construction time:  CPU 777.46 s  wall 50.77 s
    5   -2595.8984070636      1.68E-05
 K construction time:  CPU 728.70 s  wall 47.54 s
    6   -2595.8984408176      5.10E-06
 K construction time:  CPU 661.61 s  wall 43.19 s
    7   -2595.8984444237      1.57E-06
 K construction time:  CPU 614.13 s  wall 40.08 s
    8   -2595.8984449069      7.28E-07
 K construction time:  CPU 567.03 s  wall 36.93 s
    9   -2595.8984450159      2.84E-07
 K construction time:  CPU 512.29 s  wall 33.32 s
   10   -2595.8984450331      1.28E-07
 K construction time:  CPU 453.09 s  wall 29.36 s
   11   -2595.8984450366      5.13E-08
 K construction time:  CPU 411.01 s  wall 26.75 s
   12   -2595.8984450357      2.16E-08
 K construction time:  CPU 344.70 s  wall 22.33 s
   13   -2595.8984450335      8.39E-09 Convergence criterion met
 ---------------------------------------
 SCF time:  CPU 11988.12 s  wall 800.31 s
 SCF   energy in the final basis set = -2595.8984450335
 Total energy in the final basis set = -2595.8984450335
 
 --------------------------------------------------------------
 
                    Orbital Energies (a.u.)
 --------------------------------------------------------------
 
 Alpha MOs
 -- Occupied --
-89.157 -89.093 -89.091 -89.076 -14.494 -14.489 -14.456 -14.443
-14.438 -10.373 -10.372 -10.364 -10.362 -10.343 -10.342 -10.341
-10.337 -10.331 -10.329 -10.328 -10.326 -10.326 -10.326 -10.321
-10.317 -10.314 -10.305 -10.297  -8.167  -8.108  -8.106  -8.091
 -6.117  -6.111  -6.111  -6.057  -6.055  -6.054  -6.052  -6.051
 -6.049  -6.041  -6.037  -6.033  -1.154  -1.082  -1.073  -1.057
 -1.024  -1.016  -0.959  -0.947  -0.913  -0.910  -0.907  -0.885
 -0.862  -0.845  -0.829  -0.807  -0.776  -0.754  -0.746  -0.731
 -0.721  -0.695  -0.688  -0.679  -0.649  -0.641  -0.626  -0.621
 -0.610  -0.602  -0.585  -0.576  -0.569  -0.568  -0.542  -0.534
 -0.528  -0.524  -0.519  -0.514  -0.511  -0.505  -0.499  -0.497
 -0.484  -0.481  -0.475  -0.466  -0.456  -0.445  -0.436  -0.435
 -0.427  -0.425  -0.408  -0.393  -0.385  -0.372  -0.370  -0.368
 -0.367  -0.360  -0.345  -0.337  -0.325  -0.320  -0.271
 -- Virtual --
 -0.053  -0.013   0.024   0.036   0.041   0.061   0.065   0.066
  0.076   0.090   0.098   0.109   0.116   0.120   0.130   0.134
  0.141   0.146   0.150   0.165   0.167   0.170   0.171   0.172
  0.188   0.193   0.198   0.213   0.216   0.225   0.229   0.245
  0.252   0.257   0.261   0.266   0.270   0.275   0.286   0.289
  0.290   0.298   0.299   0.306   0.309   0.313   0.325   0.327
  0.329   0.331   0.333   0.339   0.341   0.351   0.352   0.358
  0.360   0.365   0.368   0.373   0.373   0.379   0.383   0.386
  0.392   0.394   0.394   0.401   0.402   0.404   0.409   0.412
  0.415   0.417   0.418   0.427   0.432   0.434   0.439   0.444
  0.445   0.448   0.456   0.457   0.458   0.460   0.462   0.465
  0.467   0.471   0.475   0.478   0.481   0.483   0.485   0.490
  0.494   0.499   0.500   0.503   0.509   0.514   0.516   0.521
  0.523   0.524   0.529   0.535   0.541   0.547   0.549   0.552
  0.559   0.570   0.576   0.579   0.582   0.588   0.593   0.599
  0.604   0.608   0.615   0.618   0.622   0.628   0.637   0.641
  0.649   0.656   0.661   0.662   0.668   0.674   0.678   0.683
  0.689   0.690   0.696   0.700   0.712   0.716   0.722   0.727
  0.729   0.733   0.738   0.740   0.744   0.750   0.753   0.760
  0.764   0.765   0.768   0.773   0.781   0.784   0.788   0.793
  0.797   0.803   0.805   0.816   0.817   0.826   0.828   0.834
  0.834   0.845   0.847   0.851   0.854   0.858   0.863   0.864
  0.874   0.877   0.881   0.885   0.894   0.895   0.901   0.911
  0.915   0.918   0.927   0.928   0.938   0.940   0.944   0.949
  0.953   0.958   0.965   0.970   0.977   0.980   0.982   0.985
  0.991   0.996   1.000   1.012   1.017   1.024   1.031   1.036
  1.044   1.044   1.056   1.057   1.062   1.064   1.076   1.077
  1.080   1.086   1.094   1.100   1.103   1.110   1.116   1.125
  1.131   1.136   1.141   1.146   1.161   1.165   1.168   1.174
  1.179   1.181   1.195   1.199   1.205   1.206   1.217   1.221
  1.229   1.236   1.243   1.250   1.260   1.268   1.270   1.279
  1.285   1.290   1.297   1.303   1.308   1.317   1.322   1.331
  1.336   1.350   1.353   1.361   1.368   1.378   1.381   1.383
  1.388   1.391   1.400   1.411   1.416   1.422   1.431   1.433
  1.437   1.444   1.453   1.455   1.460   1.467   1.479   1.489
  1.491   1.500   1.507   1.516   1.524   1.531   1.533   1.540
  1.550   1.553   1.558   1.564   1.572   1.578   1.587   1.596
  1.601   1.608   1.619   1.625   1.628   1.634   1.635   1.642
  1.649   1.655   1.658   1.667   1.670   1.673   1.680   1.685
  1.686   1.698   1.700   1.703   1.709   1.723   1.726   1.738
  1.745   1.748   1.755   1.764   1.773   1.779   1.784   1.788
  1.795   1.808   1.814   1.830   1.835   1.846   1.853   1.873
  1.880   1.881   1.884   1.896   1.899   1.909   1.919   1.925
  1.931   1.935   1.945   1.947   1.959   1.963   1.974   1.980
  1.986   1.998   2.002   2.007   2.011   2.021   2.029   2.034
  2.051   2.062   2.065   2.073   2.077   2.080   2.086   2.103
  2.113   2.119   2.131   2.136   2.142   2.155   2.167   2.171
  2.178   2.184   2.191   2.201   2.215   2.222   2.224   2.232
  2.241   2.252   2.256   2.263   2.267   2.271   2.280   2.280
  2.282   2.302   2.308   2.341   2.345   2.354   2.359   2.370
  2.376   2.379   2.383   2.391   2.395   2.399   2.404   2.408
  2.424   2.427   2.430   2.439   2.441   2.451   2.456   2.462
  2.470   2.480   2.487   2.491   2.498   2.506   2.509   2.520
  2.526   2.531   2.536   2.543   2.549   2.566   2.567   2.582
  2.585   2.591   2.601   2.607   2.615   2.617   2.622   2.627
  2.636   2.646   2.650   2.665   2.666   2.676   2.678   2.702
  2.708   2.716   2.728   2.743   2.753   2.759   2.763   2.767
  2.776   2.785   2.789   2.791   2.797   2.798   2.799   2.810
  2.819   2.825   2.840   2.844   2.851   2.854   2.873   2.880
  2.887   2.890   2.903   2.911   2.916   2.923   2.936   2.938
  2.944   2.947   2.952   2.956   2.957   2.969   2.977   2.981
  2.984   2.988   2.993   2.999   3.008   3.010   3.016   3.025
  3.031   3.032   3.050   3.054   3.056   3.061   3.067   3.068
  3.072   3.078   3.079   3.091   3.093   3.096   3.100   3.104
  3.110   3.117   3.122   3.125   3.129   3.134   3.144   3.147
  3.154   3.158   3.163   3.170   3.173   3.176   3.180   3.182
  3.187   3.190   3.192   3.201   3.204   3.205   3.208   3.212
  3.218   3.221   3.225   3.230   3.235   3.238   3.243   3.248
  3.256   3.260   3.269   3.270   3.272   3.276   3.278   3.287
  3.294   3.296   3.298   3.302   3.309   3.316   3.318   3.325
  3.333   3.340   3.346   3.349   3.352   3.356   3.360   3.367
  3.369   3.381   3.389   3.391   3.396   3.406   3.415   3.426
  3.430   3.437   3.442   3.450   3.460   3.463   3.467   3.471
  3.475   3.478   3.482   3.492   3.497   3.498   3.508   3.516
  3.522   3.524   3.530   3.536   3.542   3.548   3.562   3.570
  3.578   3.581   3.593   3.596   3.601   3.606   3.617   3.623
  3.635   3.647   3.653   3.662   3.674   3.679   3.682   3.686
  3.696   3.703   3.710   3.727   3.735   3.739   3.747   3.769
  3.770   3.779   3.781   3.789   3.797   3.804   3.805   3.811
  3.822   3.826   3.836   3.840   3.853   3.854   3.859   3.868
  3.873   3.877   3.887   3.908   3.912   3.920   3.925   3.928
  3.938   3.940   3.945   3.955   3.959   3.967   3.974   3.977
  3.984   3.989   3.994   4.005   4.013   4.027   4.028   4.041
  4.048   4.052   4.068   4.070   4.085   4.094   4.103   4.118
  4.125   4.134   4.143   4.153   4.156   4.169   4.176   4.178
  4.193   4.194   4.197   4.203   4.206   4.222   4.230   4.234
  4.245   4.252   4.265   4.273   4.288   4.295   4.304   4.311
  4.325   4.332   4.340   4.348   4.359   4.367   4.371   4.390
  4.395   4.401   4.416   4.428   4.434   4.446   4.451   4.466
  4.470   4.473   4.478   4.484   4.509   4.517   4.528   4.541
  4.543   4.554   4.562   4.576   4.580   4.587   4.602   4.613
  4.617   4.631   4.637   4.647   4.652   4.668   4.679   4.682
  4.694   4.719   4.730   4.740   4.760   4.768   4.788   4.793
  4.815   4.817   4.828   4.833   4.841   4.850   4.851   4.856
  4.870   4.884   4.895   4.932   4.934   4.935   4.939   4.950
  4.954   4.961   4.967   4.973   4.980   4.989   5.004   5.005
  5.015   5.027   5.033   5.047   5.057   5.069   5.088   5.094
  5.104   5.112   5.131   5.149   5.157   5.169   5.177   5.189
  5.205   5.232   5.236   5.241   5.246   5.260   5.281   5.285
  5.290   5.315   5.326   5.337   5.348   5.369   5.396   5.409
  5.420   5.435   5.455   5.462   5.467   5.484   5.511   5.523
  5.533   5.546   5.563   5.585   5.605   5.651   5.659   5.662
  5.691   5.696   5.708   5.714   5.754   5.764   5.776   5.814
  5.847   5.873   5.909   5.920   5.946   5.964   6.012   6.070
  6.128   6.145   6.155   6.182   6.185   6.200   6.228   6.308
  6.324   6.348   6.391   6.397   6.472   6.834   7.015   7.889
  8.735   9.719  10.121  10.886  11.114  11.223  11.661  11.989
 12.172  12.498  12.565  12.634  12.822  12.904  13.177  13.283
 13.532  13.550  13.833  13.859  14.282  14.596  14.987
 --------------------------------------------------------------
 
          Ground-State Mulliken Net Atomic Charges

     Atom                 Charge (a.u.)
  ----------------------------------------
      1 C                    -0.069546
      2 C                    -0.103737
      3 N                    -0.154922
      4 C                    -0.155508
      5 C                    -0.093926
      6 C                     0.106953
      7 C                     0.048704
      8 C                    -0.109407
      9 C                     0.031673
     10 N                    -0.162926
     11 N                    -0.278848
     12 C                    -0.004036
     13 C                     0.031273
     14 S                     0.420674
     15 N                    -0.251108
     16 C                     0.017288
     17 S                     0.134111
     18 C                    -0.033017
     19 C                    -0.030786
     20 S                     0.066954
     21 C                     0.035604
     22 C                     0.034874
     23 C                    -0.148327
     24 C                    -0.168394
     25 N                    -0.186687
     26 S                     0.098676
     27 C                    -0.077558
     28 C                    -0.201984
     29 H                     0.124347
     30 H                     0.130673
     31 H                     0.131119
     32 H                     0.130479
     33 H                     0.136123
     34 H                     0.132645
     35 H                     0.145752
     36 H                     0.129191
     37 H                     0.143606
  ----------------------------------------
  Sum of atomic charges =     0.000000

 -----------------------------------------------------------------
                    Cartesian Multipole Moments
 -----------------------------------------------------------------
    Charge (ESU x 10^10)
                 0.0000
    Dipole Moment (Debye)
         X      -1.4632      Y       1.5374      Z       1.0458
       Tot       2.3660
    Quadrupole Moments (Debye-Ang)
        XX    -174.5541     XY       7.0520     YY    -165.9704
        XZ       2.1255     YZ       3.2145     ZZ    -188.4723
    Octopole Moments (Debye-Ang^2)
       XXX    -276.6713    XXY     154.0488    XYY       7.4843
       YYY       0.6341    XXZ      31.3901    XYZ     -25.0184
       YYZ       1.8134    XZZ      -0.0115    YZZ      -7.9390
       ZZZ      16.8323
    Hexadecapole Moments (Debye-Ang^3)
      XXXX  -18055.3118   XXXY     179.1728   XXYY   -3188.4625
      XYYY      -4.0243   YYYY   -3391.4837   XXXZ     -17.9500
      XXYZ      80.1394   XYYZ      21.8411   YYYZ      43.1541
      XXZZ   -3473.5284   XYZZ     -65.4567   YYZZ    -734.1273
      XZZZ     -31.7662   YZZZ     -46.5109   ZZZZ    -796.4747
 -----------------------------------------------------------------
 Calculating analytic gradient of the SCF energy
 K construction time:  CPU 2729.16 s  wall 172.40 s
 Gradient of SCF Energy
            1           2           3           4           5           6
    1   0.0000562  -0.0007552  -0.0000197   0.0006749   0.0003686  -0.0004834
    2  -0.0000725   0.0001010  -0.0001879   0.0002452  -0.0000234   0.0001075
    3   0.0000773  -0.0001059  -0.0000539   0.0000524  -0.0003326   0.0000863
            7           8           9          10          11          12
    1   0.0001949   0.0003016   0.0003277   0.0025845   0.0002037   0.0011797
    2   0.0003489  -0.0007360   0.0001459   0.0012932   0.0000137  -0.0001580
    3   0.0005372  -0.0012340   0.0013240  -0.0026671  -0.0006259   0.0013281
           13          14          15          16          17          18
    1  -0.0046074   0.0013125   0.0006045   0.0045600  -0.0019890  -0.0016805
    2  -0.0078663   0.0002041   0.0017025   0.0120535  -0.0020648  -0.0031524
    3   0.0040549  -0.0003186   0.0002281  -0.0001378   0.0013425  -0.0030067
           19          20          21          22          23          24
    1   0.0003701  -0.0019583  -0.0005568   0.0004930  -0.0000605  -0.0006993
    2  -0.0021327   0.0008329   0.0012475  -0.0002324  -0.0003516  -0.0018415
    3   0.0005010  -0.0002216  -0.0010652  -0.0002343   0.0001281   0.0005039
           25          26          27          28          29          30
    1  -0.0000004  -0.0002194   0.0002735  -0.0001672  -0.0000733   0.0002820
    2   0.0001217   0.0002337  -0.0004973   0.0000957  -0.0000001  -0.0000391
    3  -0.0000611   0.0000651  -0.0001591   0.0000474  -0.0000112   0.0001317
           31          32          33          34          35          36
    1  -0.0001812   0.0000481   0.0001880  -0.0005191   0.0000106  -0.0001300
    2  -0.0000761   0.0000594   0.0000711   0.0000049   0.0001066   0.0003234
    3   0.0000100  -0.0000136   0.0001093  -0.0001503  -0.0001612   0.0000085
           37
    1   0.0000662
    2   0.0001198
    3   0.0000244
 Max gradient component =       1.205E-02
 RMS gradient           =       1.766E-03
 Gradient time:  CPU 3165.71 s  wall 201.71 s
 Geometry Optimization Parameters
   NAtoms,    NIC,     NZ,  NCons,   NDum,   NFix, NCnnct, MaxDiis
       37     280       0       3       0       0       0       0

 Cartesian Hessian Update
 Hessian Updated using BFGS Update


** CONSTRAINED OPTIMIZATION IN DELOCALIZED INTERNAL COORDINATES **
   Searching for a Minimum

   Optimization Cycle:   2

                       Coordinates (Angstroms)
     ATOM                X               Y               Z
      1  C         7.4218761304    1.6384673091   -0.3971329786
      2  C         6.5228351353    2.6465013747   -0.0900166538
      3  N         7.0599452386    0.3772414065   -0.6125112772
      4  C         5.1810669144    2.3285792113   -0.0007013188
      5  C         5.7703388392    0.0830507508   -0.5229902214
      6  C         4.7770384056    1.0169772777   -0.2245246072
      7  C         3.3539053779    0.6410869417   -0.1732183344
      8  C         2.3791455039    1.4210774452   -0.7310433999
      9  C         2.8804568601   -0.5404664453    0.4627736220
     10  N         1.0460163274    1.1661974153   -0.7225368150
     11  N         3.6052539540   -1.4582211062    1.1043328390
     12  C         1.4775877332   -0.8205491963    0.4830104480
     13  C         0.5679066862    0.0861034936   -0.1538137587
     14  S         2.5613182876   -2.5446515445    1.6701582341
     15  N         1.1698888561   -1.9295664504    1.1524230761
     16  C        -0.8793975823   -0.1102544352   -0.1877971908
     17  S        -1.9498222785    1.1882526972    0.1725722677
     18  C        -1.6172748293   -1.2305621704   -0.5074950178
     19  C        -3.3621536805    0.2456208050   -0.0887747376
     20  S        -1.2369871854   -2.8525227036   -1.0078249662
     21  C        -3.0273677808   -1.0347076660   -0.4671605122
     22  C        -4.6942339764    0.7919635726    0.0658394154
     23  C        -2.9376080335   -3.2294794197   -1.1442397373
     24  C        -3.7616250894   -2.2159621393   -0.8310310799
     25  N        -5.7787667957    0.1018222281   -0.1408653571
     26  S        -4.9906307153    2.4381861481    0.5495807154
     27  C        -6.8922562874    0.8573592889    0.0791457248
     28  C        -6.6766262371    2.1401958003    0.4588394155
     29  H         8.4818325479    1.8510026095   -0.4732999797
     30  H         6.8720278918    3.6538650249    0.0866131777
     31  H         4.4500475263    3.0838089698    0.2567475066
     32  H         5.5034497915   -0.9506544777   -0.7041500271
     33  H         2.6597873395    2.3298943928   -1.2494136716
     34  H        -3.2237079008   -4.2206485608   -1.4577547523
     35  H        -4.8374126247   -2.2609177467   -0.8571192398
     36  H        -7.8671304899    0.4135079374   -0.0533182782
     37  H        -7.3976733680    2.9063815422    0.6824729527
   Point Group: c1    Number of degrees of freedom:   105


   Energy is  -2595.898445033

              Constraints and their Current Values
                                        Value     Constraint
   Dihedral:        4   6   7   8       42.246       42.246
   Dihedral:       10  13  16  17      -45.000      -45.000
   Dihedral:       17  19  22  25      179.217      179.217
 Hessian Updated using BFGS Update

   Using Lagrange Multiplier Algorithm


104 Hessian modes will be used to form the next step
  Hessian Eigenvalues:
    -0.977702    0.043604    0.045000    0.045000    0.045000    0.045000
     0.045000    0.045000    0.045000    0.045000    0.045000    0.045000
     0.045000    0.045000    0.045000    0.045000    0.045000    0.045000
     0.045000    0.045000    0.045000    0.045001    0.045001    0.045001
     0.045001    0.045001    0.045002    0.045005    0.045006    0.045009
     0.045012    0.050088    0.157639    0.159961    0.159987    0.159997
     0.159999    0.159999    0.160000    0.160000    0.160166    0.181655
     0.220027    0.224576    0.225771    0.231984    0.233153    0.234409
     0.247447    0.248209    0.249915    0.249960    0.249989    0.249992
     0.249998    0.249998    0.249998    0.249999    0.249999    0.250000
     0.287719    0.300587    0.305101    0.316906    0.318563    0.328511
     0.334488    0.354463    0.355752    0.356366    0.356785    0.356807
     0.359244    0.360770    0.361155    0.363915    0.365009    0.374971
     0.385295    0.386395    0.390605    0.396482    0.408050    0.410309
     0.431209    0.455225    0.473091    0.473304    0.474421    0.480689
     0.483160    0.496733    0.499387    0.511364    0.517644    0.527601
     0.539391    0.558511    0.574916    0.584915    0.591139    0.628435
     0.638966    1.022848

 Minimum Search - Taking P-RFO Step
 Searching for Lamda that Maximizes Along the Constraint modes Only
 Value Taken    Lamda =   0.00000037
 Searching for Lamda that Minimizes Along All other modes
 Value Taken    Lamda =  -0.00108186
 Step Taken.  Stepsize is  0.089104

                             Maximum     Tolerance    Cnvgd?
         Gradient            0.006090       0.000300      NO
         Displacement        0.026376       0.001200      NO
         Energy change     -0.002913       0.000001      NO


 New Cartesian Coordinates Obtained by Inverse Iteration

 Displacement from previous Coordinates is:  0.397919
 ----------------------------------------------------------------
             Standard Nuclear Orientation (Angstroms)
    I     Atom           X                Y                Z
 ----------------------------------------------------------------
    1      C       7.4224400568     1.6232171483    -0.3659766519
    2      C       6.5274115222     2.6360413132    -0.0635605443
    3      N       7.0540090184     0.3653383109    -0.5894109295
    4      C       5.1821733444     2.3264557827     0.0106318146
    5      C       5.7615862235     0.0792212271    -0.5150971442
    6      C       4.7717769651     1.0189387747    -0.2250767270
    7      C       3.3455199135     0.6526934237    -0.1894216177
    8      C       2.3798900799     1.4432330468    -0.7519855878
    9      C       2.8609696355    -0.5306294582     0.4351170303
   10      N       1.0445149818     1.1961141670    -0.7608482528
   11      N       3.5684254677    -1.4573868592     1.0841745005
   12      C       1.4581868392    -0.7987760674     0.4406380371
   13      C       0.5656201711     0.1186367401    -0.1953345275
   14      S       2.5070129113    -2.5373848669     1.6324441601
   15      N       1.1290922087    -1.9104148087     1.0977039051
   16      C      -0.8776860332    -0.1102998906    -0.2277226491
   17      S      -1.9371366245     1.1945280396     0.1334872286
   18      C      -1.6077345099    -1.2348142012    -0.5154655334
   19      C      -3.3520965862     0.2488144903    -0.1004483699
   20      S      -1.2222578131    -2.8646663792    -0.9907519675
   21      C      -3.0167399809    -1.0373152841    -0.4650432893
   22      C      -4.6847036221     0.7920728848     0.0638930058
   23      C      -2.9235433091    -3.2406016617    -1.1141665492
   24      C      -3.7480668578    -2.2235975030    -0.8102020205
   25      N      -5.7684750428     0.0952899650    -0.1232913337
   26      S      -4.9821633941     2.4417792634     0.5324523301
   27      C      -6.8827000565     0.8475914103     0.1038686283
   28      C      -6.6680164728     2.1351018627     0.4672916757
   29      H       8.4847044707     1.8286429203    -0.4307196935
   30      H       6.8788768520     3.6413735529     0.1194617904
   31      H       4.4549112460     3.0866392989     0.2633183027
   32      H       5.4901476689    -0.9522127146    -0.7027914318
   33      H       2.6718803856     2.3511084955    -1.2657637439
   34      H      -3.2070941612    -4.2376592246    -1.4094560695
   35      H      -4.8238720393    -2.2736481996    -0.8277294738
   36      H      -7.8557417653     0.3948623357    -0.0110659759
   37      H      -7.3900712018     2.8996922453     0.6926231568
 ----------------------------------------------------------------
 Molecular Point Group                 C1    NOp =  1
 Largest Abelian Subgroup              C1    NOp =  1
 Nuclear Repulsion Energy =  2966.0902782477 hartrees
 There are      111 alpha and      111 beta electrons
 Applying Cartesian multipole field
    Component          Value
    ---------          -----
     (2,0,0)        1.00000E-12
     (0,2,0)        2.00000E-11
     (0,0,2)       -3.00000E-11
 Nucleus-field energy     =     0.0000000531 hartrees
 Requested basis set is cc-pVTZ
 There are 342 shells and 982 basis functions
 A cutoff of  1.0D-11 yielded  29253 shell pairs
 There are    232307 function pairs (    303577 Cartesian)
 Smallest overlap matrix eigenvalue = 2.67E-05
 Guess MOs from SCF MO coefficient file
 Reading MOs from coefficient file
 Reading MOs from coefficient file
 Long-range K will be added via erf
 Coulomb attenuation parameter = 0.2 bohr**(-1)
 A restricted hybrid HF-DFT SCF calculation will be
 performed using Pulay DIIS extrapolation
 Exchange:     0.2220 Hartree-Fock + 1.0000 wB97X-D + LR-HF
 Correlation:  1.0000 wB97X-D
 Using SG-2 standard quadrature grid
 Dispersion:   Grimme D
 SCF converges when DIIS error is below 1.0E-08
 Geometry optimization detected.  Setting ReadMinima to 0
 Setting SaveMinima to 0
 using 16 threads for integral computing 
 using 16 threads for integral computing 
 K construction time:  CPU 1075.90 s  wall 70.30 s
 -------------------------------------------------------
 OpenMP BLAS3 based DFT computing Module                
 Release: version 1.0, May 2013, Q-Chem Inc. Pittsburgh 
 -------------------------------------------------------
 ---------------------------------------
  Cycle       Energy         DIIS Error
 ---------------------------------------
    1   -2595.8975932063      2.60E-04
 K construction time:  CPU 1078.06 s  wall 70.46 s
    2   -2595.8988064959      3.07E-05
 K construction time:  CPU 814.81 s  wall 53.27 s
    3   -2595.8988867360      3.38E-05
 K construction time:  CPU 765.02 s  wall 49.95 s
    4   -2595.8990096238      7.75E-06
 K construction time:  CPU 704.87 s  wall 46.10 s
    5   -2595.8990179030      4.70E-06
 K construction time:  CPU 660.48 s  wall 43.08 s
    6   -2595.8990206478      1.77E-06
 K construction time:  CPU 602.20 s  wall 39.36 s
    7   -2595.8990210889      5.80E-07
 K construction time:  CPU 545.38 s  wall 35.45 s
    8   -2595.8990211451      2.67E-07
 K construction time:  CPU 504.50 s  wall 32.82 s
    9   -2595.8990211608      1.04E-07
 K construction time:  CPU 439.47 s  wall 28.61 s
   10   -2595.8990211635      3.92E-08
 K construction time:  CPU 390.89 s  wall 25.29 s
   11   -2595.8990211642      1.81E-08
 K construction time:  CPU 338.61 s  wall 21.93 s
   12   -2595.8990211637      7.21E-09 Convergence criterion met
 ---------------------------------------
 SCF time:  CPU 10667.77 s  wall 712.30 s
 SCF   energy in the final basis set = -2595.8990211637
 Total energy in the final basis set = -2595.8990211637
 
 --------------------------------------------------------------
 
                    Orbital Energies (a.u.)
 --------------------------------------------------------------
 
 Alpha MOs
 -- Occupied --
-89.157 -89.093 -89.090 -89.076 -14.494 -14.489 -14.456 -14.442
-14.438 -10.373 -10.371 -10.364 -10.361 -10.342 -10.342 -10.341
-10.336 -10.331 -10.329 -10.328 -10.326 -10.326 -10.325 -10.321
-10.317 -10.314 -10.305 -10.296  -8.167  -8.107  -8.106  -8.091
 -6.117  -6.112  -6.111  -6.057  -6.055  -6.053  -6.051  -6.050
 -6.049  -6.041  -6.037  -6.033  -1.154  -1.082  -1.075  -1.057
 -1.025  -1.016  -0.959  -0.947  -0.913  -0.910  -0.906  -0.885
 -0.862  -0.845  -0.829  -0.807  -0.776  -0.755  -0.746  -0.732
 -0.720  -0.696  -0.688  -0.679  -0.649  -0.641  -0.626  -0.622
 -0.610  -0.602  -0.585  -0.577  -0.570  -0.567  -0.541  -0.534
 -0.528  -0.524  -0.518  -0.514  -0.510  -0.505  -0.499  -0.497
 -0.484  -0.481  -0.476  -0.466  -0.456  -0.446  -0.437  -0.435
 -0.427  -0.425  -0.408  -0.392  -0.385  -0.372  -0.370  -0.368
 -0.367  -0.360  -0.345  -0.336  -0.325  -0.321  -0.271
 -- Virtual --
 -0.053  -0.013   0.024   0.036   0.040   0.061   0.065   0.066
  0.075   0.090   0.099   0.109   0.116   0.120   0.130   0.134
  0.141   0.146   0.150   0.165   0.167   0.170   0.171   0.172
  0.189   0.193   0.198   0.213   0.216   0.226   0.230   0.245
  0.252   0.257   0.260   0.266   0.270   0.275   0.286   0.289
  0.290   0.298   0.299   0.306   0.310   0.313   0.325   0.327
  0.330   0.331   0.333   0.339   0.342   0.351   0.353   0.358
  0.360   0.365   0.369   0.373   0.373   0.380   0.383   0.386
  0.392   0.395   0.395   0.401   0.402   0.404   0.409   0.412
  0.415   0.417   0.418   0.428   0.432   0.434   0.440   0.444
  0.445   0.449   0.456   0.457   0.458   0.461   0.462   0.466
  0.468   0.471   0.475   0.479   0.482   0.484   0.485   0.490
  0.494   0.499   0.500   0.503   0.509   0.514   0.516   0.521
  0.524   0.524   0.529   0.536   0.541   0.547   0.549   0.553
  0.560   0.571   0.576   0.580   0.582   0.588   0.593   0.599
  0.604   0.609   0.615   0.618   0.622   0.629   0.638   0.641
  0.650   0.655   0.661   0.664   0.670   0.674   0.680   0.683
  0.689   0.690   0.697   0.701   0.711   0.717   0.723   0.727
  0.729   0.734   0.739   0.741   0.745   0.752   0.755   0.761
  0.763   0.767   0.769   0.774   0.781   0.786   0.787   0.793
  0.797   0.804   0.805   0.816   0.819   0.826   0.829   0.834
  0.836   0.845   0.848   0.851   0.854   0.858   0.862   0.864
  0.874   0.877   0.882   0.886   0.894   0.895   0.902   0.911
  0.915   0.917   0.928   0.929   0.939   0.941   0.945   0.950
  0.953   0.959   0.966   0.971   0.978   0.982   0.982   0.985
  0.992   0.996   1.004   1.012   1.018   1.024   1.031   1.037
  1.043   1.045   1.056   1.058   1.063   1.065   1.075   1.078
  1.081   1.086   1.094   1.099   1.102   1.109   1.117   1.126
  1.131   1.135   1.141   1.146   1.162   1.165   1.168   1.176
  1.180   1.182   1.196   1.200   1.206   1.208   1.217   1.221
  1.230   1.236   1.243   1.250   1.260   1.269   1.270   1.279
  1.285   1.290   1.297   1.303   1.308   1.317   1.322   1.332
  1.336   1.350   1.354   1.361   1.368   1.378   1.381   1.384
  1.388   1.391   1.401   1.412   1.417   1.424   1.432   1.433
  1.438   1.445   1.453   1.456   1.459   1.465   1.479   1.490
  1.491   1.500   1.506   1.515   1.524   1.531   1.534   1.541
  1.549   1.554   1.558   1.564   1.573   1.578   1.589   1.596
  1.601   1.609   1.619   1.625   1.629   1.635   1.637   1.642
  1.650   1.655   1.659   1.669   1.671   1.674   1.681   1.686
  1.688   1.699   1.700   1.703   1.713   1.726   1.729   1.739
  1.746   1.749   1.755   1.765   1.775   1.781   1.785   1.787
  1.797   1.807   1.815   1.829   1.836   1.847   1.854   1.873
  1.880   1.881   1.883   1.894   1.898   1.909   1.919   1.926
  1.933   1.936   1.945   1.948   1.960   1.964   1.973   1.981
  1.987   1.999   2.003   2.008   2.013   2.022   2.030   2.033
  2.052   2.062   2.066   2.075   2.076   2.082   2.084   2.105
  2.114   2.119   2.132   2.135   2.142   2.156   2.167   2.172
  2.178   2.187   2.190   2.201   2.215   2.222   2.225   2.233
  2.241   2.254   2.257   2.263   2.267   2.272   2.279   2.282
  2.282   2.302   2.308   2.341   2.345   2.356   2.361   2.370
  2.377   2.381   2.383   2.391   2.396   2.400   2.405   2.409
  2.423   2.427   2.429   2.439   2.443   2.451   2.457   2.463
  2.472   2.481   2.489   2.491   2.497   2.507   2.511   2.520
  2.527   2.531   2.538   2.544   2.551   2.565   2.568   2.581
  2.585   2.593   2.602   2.608   2.614   2.617   2.622   2.628
  2.637   2.647   2.652   2.666   2.668   2.677   2.678   2.702
  2.710   2.717   2.729   2.745   2.754   2.759   2.763   2.767
  2.777   2.785   2.790   2.791   2.796   2.797   2.798   2.811
  2.819   2.826   2.839   2.844   2.853   2.855   2.873   2.881
  2.887   2.891   2.902   2.911   2.915   2.924   2.936   2.938
  2.945   2.948   2.952   2.955   2.957   2.969   2.976   2.982
  2.984   2.990   2.994   3.000   3.008   3.012   3.015   3.026
  3.031   3.032   3.050   3.055   3.056   3.060   3.067   3.068
  3.072   3.077   3.080   3.091   3.094   3.096   3.100   3.103
  3.110   3.119   3.123   3.126   3.129   3.133   3.144   3.147
  3.156   3.160   3.163   3.170   3.174   3.176   3.180   3.184
  3.189   3.190   3.193   3.201   3.204   3.206   3.209   3.213
  3.220   3.222   3.225   3.230   3.235   3.238   3.244   3.249
  3.256   3.260   3.268   3.270   3.272   3.278   3.279   3.288
  3.293   3.297   3.298   3.304   3.311   3.317   3.319   3.326
  3.332   3.340   3.345   3.350   3.353   3.358   3.363   3.367
  3.369   3.382   3.389   3.393   3.396   3.405   3.414   3.427
  3.430   3.438   3.443   3.451   3.460   3.463   3.468   3.471
  3.476   3.479   3.484   3.492   3.498   3.498   3.509   3.518
  3.523   3.526   3.532   3.536   3.544   3.549   3.564   3.572
  3.578   3.583   3.592   3.599   3.602   3.606   3.618   3.623
  3.634   3.647   3.655   3.662   3.673   3.679   3.685   3.687
  3.697   3.704   3.711   3.726   3.736   3.740   3.749   3.770
  3.773   3.778   3.783   3.790   3.801   3.804   3.806   3.812
  3.826   3.828   3.837   3.843   3.853   3.854   3.859   3.871
  3.874   3.878   3.888   3.910   3.912   3.920   3.928   3.929
  3.938   3.941   3.944   3.957   3.959   3.967   3.973   3.978
  3.985   3.991   3.995   4.008   4.014   4.027   4.029   4.043
  4.049   4.054   4.070   4.071   4.086   4.097   4.102   4.119
  4.127   4.135   4.146   4.155   4.158   4.169   4.175   4.179
  4.193   4.195   4.197   4.203   4.207   4.223   4.232   4.235
  4.245   4.252   4.265   4.273   4.289   4.295   4.303   4.314
  4.322   4.336   4.340   4.349   4.362   4.368   4.372   4.391
  4.396   4.401   4.418   4.428   4.435   4.447   4.453   4.467
  4.470   4.476   4.477   4.487   4.511   4.518   4.529   4.542
  4.545   4.554   4.563   4.576   4.582   4.588   4.604   4.615
  4.622   4.633   4.642   4.649   4.654   4.669   4.680   4.683
  4.695   4.719   4.734   4.743   4.762   4.772   4.789   4.796
  4.814   4.817   4.827   4.834   4.841   4.849   4.851   4.857
  4.872   4.884   4.900   4.932   4.935   4.937   4.941   4.950
  4.954   4.961   4.968   4.974   4.983   4.990   5.005   5.006
  5.017   5.027   5.033   5.047   5.059   5.067   5.089   5.095
  5.105   5.113   5.134   5.149   5.158   5.170   5.177   5.189
  5.209   5.231   5.236   5.244   5.247   5.260   5.282   5.285
  5.291   5.315   5.327   5.338   5.352   5.371   5.395   5.410
  5.419   5.436   5.458   5.462   5.467   5.486   5.511   5.523
  5.534   5.548   5.562   5.588   5.607   5.651   5.660   5.664
  5.691   5.702   5.708   5.715   5.760   5.765   5.778   5.816
  5.847   5.874   5.912   5.921   5.949   5.972   6.014   6.074
  6.133   6.146   6.157   6.182   6.187   6.210   6.231   6.308
  6.325   6.348   6.392   6.398   6.473   6.840   7.017   7.902
  8.757   9.727  10.120  10.889  11.128  11.227  11.678  12.001
 12.184  12.515  12.599  12.671  12.815  12.912  13.190  13.370
 13.531  13.566  13.832  13.854  14.274  14.619  14.986
 --------------------------------------------------------------
 
          Ground-State Mulliken Net Atomic Charges

     Atom                 Charge (a.u.)
  ----------------------------------------
      1 C                    -0.069626
      2 C                    -0.103731
      3 N                    -0.154837
      4 C                    -0.155493
      5 C                    -0.094624
      6 C                     0.107295
      7 C                     0.045553
      8 C                    -0.105932
      9 C                     0.030445
     10 N                    -0.163762
     11 N                    -0.278908
     12 C                    -0.002104
     13 C                     0.034931
     14 S                     0.421777
     15 N                    -0.254066
     16 C                     0.019298
     17 S                     0.132681
     18 C                    -0.034660
     19 C                    -0.032772
     20 S                     0.067865
     21 C                     0.037710
     22 C                     0.034837
     23 C                    -0.149579
     24 C                    -0.168336
     25 N                    -0.186570
     26 S                     0.098666
     27 C                    -0.077503
     28 C                    -0.202110
     29 H                     0.124323
     30 H                     0.130705
     31 H                     0.131157
     32 H                     0.130590
     33 H                     0.136452
     34 H                     0.132415
     35 H                     0.145369
     36 H                     0.129043
     37 H                     0.143500
  ----------------------------------------
  Sum of atomic charges =     0.000000

 -----------------------------------------------------------------
                    Cartesian Multipole Moments
 -----------------------------------------------------------------
    Charge (ESU x 10^10)
                 0.0000
    Dipole Moment (Debye)
         X      -1.4185      Y       1.5021      Z       1.0909
       Tot       2.3363
    Quadrupole Moments (Debye-Ang)
        XX    -174.8384     XY       7.2304     YY    -165.9126
        XZ       1.8270     YZ       3.1554     ZZ    -188.5450
    Octopole Moments (Debye-Ang^2)
       XXX    -272.2928    XXY     154.0585    XYY       7.5287
       YYY      -1.5237    XXZ      33.9886    XYZ     -23.7138
       YYZ       4.1460    XZZ       0.6181    YZZ      -7.9496
       ZZZ      21.2949
    Hexadecapole Moments (Debye-Ang^3)
      XXXX  -17970.5019   XXXY     179.2366   XXYY   -3182.9452
      XYYY     -11.6290   YYYY   -3393.2257   XXXZ     -19.4097
      XXYZ      83.1189   XYYZ      22.6679   YYYZ      39.5560
      XXZZ   -3456.4944   XYZZ     -69.0541   YYZZ    -733.6435
      XZZZ     -26.6385   YZZZ     -49.2058   ZZZZ    -773.8536
 -----------------------------------------------------------------
 Calculating analytic gradient of the SCF energy
 K construction time:  CPU 2749.93 s  wall 173.71 s
 Gradient of SCF Energy
            1           2           3           4           5           6
    1  -0.0001445   0.0000509  -0.0000543  -0.0000861   0.0000638   0.0000515
    2  -0.0001400   0.0001805  -0.0000514   0.0001214   0.0000022  -0.0003110
    3   0.0000176  -0.0000428  -0.0000360   0.0004177  -0.0001381  -0.0003167
            7           8           9          10          11          12
    1   0.0004593  -0.0006708   0.0004714   0.0018448  -0.0004045  -0.0007838
    2  -0.0001189  -0.0002267   0.0007975  -0.0001113   0.0003720   0.0002534
    3   0.0008972  -0.0008228  -0.0001211  -0.0029994  -0.0006131   0.0009399
           13          14          15          16          17          18
    1  -0.0003620  -0.0001930  -0.0001713  -0.0011304   0.0004752  -0.0004224
    2  -0.0001129   0.0000907   0.0000247   0.0014626  -0.0020286  -0.0000769
    3   0.0042500   0.0001251  -0.0000468  -0.0018336   0.0019153  -0.0013077
           19          20          21          22          23          24
    1   0.0004490  -0.0004900   0.0001911  -0.0000025   0.0004054   0.0002093
    2  -0.0006236  -0.0007361   0.0004917   0.0002633  -0.0002119   0.0001121
    3   0.0006545  -0.0002423  -0.0010552   0.0002723   0.0000675   0.0007026
           25          26          27          28          29          30
    1  -0.0000330  -0.0001108   0.0001025  -0.0000155   0.0000175   0.0000133
    2   0.0002489   0.0000711  -0.0000903  -0.0000081   0.0000126   0.0000093
    3  -0.0003230  -0.0001204   0.0000266   0.0000469  -0.0000137   0.0000539
           31          32          33          34          35          36
    1   0.0000555   0.0000823   0.0000673   0.0000316  -0.0000007  -0.0000160
    2   0.0000055   0.0000145   0.0000439   0.0001551   0.0001080   0.0000075
    3  -0.0000426  -0.0000342  -0.0001358  -0.0000132  -0.0001054  -0.0000300
           37
    1   0.0000500
    2  -0.0000010
    3   0.0000070
 Max gradient component =       4.250E-03
 RMS gradient           =       7.209E-04
 Gradient time:  CPU 3190.72 s  wall 203.17 s
 Geometry Optimization Parameters
   NAtoms,    NIC,     NZ,  NCons,   NDum,   NFix, NCnnct, MaxDiis
       37     280       0       3       0       0       0       0

 Cartesian Hessian Update
 Hessian Updated using BFGS Update


** CONSTRAINED OPTIMIZATION IN DELOCALIZED INTERNAL COORDINATES **
   Searching for a Minimum

   Optimization Cycle:   3

                       Coordinates (Angstroms)
     ATOM                X               Y               Z
      1  C         7.4224400568    1.6232171483   -0.3659766519
      2  C         6.5274115222    2.6360413132   -0.0635605443
      3  N         7.0540090184    0.3653383109   -0.5894109295
      4  C         5.1821733444    2.3264557827    0.0106318146
      5  C         5.7615862235    0.0792212271   -0.5150971442
      6  C         4.7717769651    1.0189387747   -0.2250767270
      7  C         3.3455199135    0.6526934237   -0.1894216177
      8  C         2.3798900799    1.4432330468   -0.7519855878
      9  C         2.8609696355   -0.5306294582    0.4351170303
     10  N         1.0445149818    1.1961141670   -0.7608482528
     11  N         3.5684254677   -1.4573868592    1.0841745005
     12  C         1.4581868392   -0.7987760674    0.4406380371
     13  C         0.5656201711    0.1186367401   -0.1953345275
     14  S         2.5070129113   -2.5373848669    1.6324441601
     15  N         1.1290922087   -1.9104148087    1.0977039051
     16  C        -0.8776860332   -0.1102998906   -0.2277226491
     17  S        -1.9371366245    1.1945280396    0.1334872286
     18  C        -1.6077345099   -1.2348142012   -0.5154655334
     19  C        -3.3520965862    0.2488144903   -0.1004483699
     20  S        -1.2222578131   -2.8646663792   -0.9907519675
     21  C        -3.0167399809   -1.0373152841   -0.4650432893
     22  C        -4.6847036221    0.7920728848    0.0638930058
     23  C        -2.9235433091   -3.2406016617   -1.1141665492
     24  C        -3.7480668578   -2.2235975030   -0.8102020205
     25  N        -5.7684750428    0.0952899650   -0.1232913337
     26  S        -4.9821633941    2.4417792634    0.5324523301
     27  C        -6.8827000565    0.8475914103    0.1038686283
     28  C        -6.6680164728    2.1351018627    0.4672916757
     29  H         8.4847044707    1.8286429203   -0.4307196935
     30  H         6.8788768520    3.6413735529    0.1194617904
     31  H         4.4549112460    3.0866392989    0.2633183027
     32  H         5.4901476689   -0.9522127146   -0.7027914318
     33  H         2.6718803856    2.3511084955   -1.2657637439
     34  H        -3.2070941612   -4.2376592246   -1.4094560695
     35  H        -4.8238720393   -2.2736481996   -0.8277294738
     36  H        -7.8557417653    0.3948623357   -0.0110659759
     37  H        -7.3900712018    2.8996922453    0.6926231568
   Point Group: c1    Number of degrees of freedom:   105


   Energy is  -2595.899021164

              Constraints and their Current Values
                                        Value     Constraint
   Dihedral:        4   6   7   8       42.246       42.246
   Dihedral:       10  13  16  17      -45.000      -45.000
   Dihedral:       17  19  22  25      179.217      179.217
 Hessian Updated using BFGS Update

 91 Hessian modes will be used to form the next step
  Hessian Eigenvalues:
     0.038218    0.045000    0.045000    0.045000    0.045000    0.045000
     0.045000    0.045000    0.045001    0.045001    0.045001    0.045001
     0.045001    0.045002    0.045005    0.045006    0.045009    0.045012
     0.045364    0.047669    0.158684    0.159963    0.159988    0.159998
     0.159999    0.160000    0.160000    0.160031    0.160167    0.195626
     0.220028    0.224577    0.225705    0.231988    0.233324    0.234418
     0.247451    0.248200    0.249916    0.249960    0.249991    0.249997
     0.249998    0.249998    0.249999    0.249999    0.250000    0.252531
     0.293954    0.299408    0.305083    0.317265    0.320155    0.327083
[...]
     25  N        -5.7674338316    0.0933589487   -0.1123503250
     26  S        -4.9801863998    2.4514088018    0.4997481660
     27  C        -6.8811837335    0.8468532873    0.1137918486
     28  C        -6.6659160248    2.1404212261    0.4547901040
     29  H         8.4867331241    1.8314235069   -0.4115456567
     30  H         6.8804745050    3.6403475516    0.1507703016
     31  H         4.4562568734    3.0862050024    0.2851270368
     32  H         5.4896824162   -0.9439879290   -0.7156724711
     33  H         2.6724583408    2.3701953066   -1.2437970912
     34  H        -3.2170762622   -4.2515494540   -1.3589785411
     35  H        -4.8294737009   -2.2790097140   -0.7907584024
     36  H        -7.8541032149    0.3899962360    0.0157875764
     37  H        -7.3879257487    2.9065665593    0.6751798430
   Point Group: c1    Number of degrees of freedom:   105


   Energy is  -2595.899148769

              Constraints and their Current Values
                                        Value     Constraint
   Dihedral:        4   6   7   8       42.246       42.246
   Dihedral:       10  13  16  17      -45.000      -45.000
   Dihedral:       17  19  22  25      179.217      179.217
 Hessian Updated using BFGS Update

 89 Hessian modes will be used to form the next step
  Hessian Eigenvalues:
     0.010755    0.026540    0.044632    0.045000    0.045000    0.045000
     0.045001    0.045001    0.045002    0.045005    0.045005    0.045008
     0.045011    0.045017    0.045088    0.045575    0.047377    0.049982
     0.158457    0.159316    0.159966    0.159993    0.160000    0.160000
     0.160023    0.160177    0.160252    0.191397    0.220044    0.224572
     0.225719    0.231953    0.234375    0.234451    0.241842    0.247500
     0.248835    0.249913    0.249966    0.249972    0.249995    0.250000
     0.251266    0.251702    0.265632    0.274825    0.285451    0.301562
     0.305109    0.310134    0.320723    0.334355    0.336547    0.354924
     0.355755    0.356585    0.356802    0.356823    0.359255    0.360771
     0.361324    0.363953    0.365018    0.375023    0.384751    0.386345
     0.390459    0.396473    0.407764    0.413152    0.431539    0.455349
     0.473362    0.475414    0.476959    0.480812    0.483378    0.496145
     0.499493    0.510004    0.517751    0.532559    0.540961    0.562060
     0.574971    0.589152    0.591298    0.639078    0.640919

 Minimum Search - Taking Simple RFO Step
 Searching for Lamda that Minimizes Along All modes
 Value Taken    Lamda =   0.00000000
 Step Taken.  Stepsize is  0.002673

                             Maximum     Tolerance    Cnvgd?
         Gradient           0.000073      0.000300     YES
         Displacement       0.001282      0.001200      NO
         Energy change     -0.000001      0.000001     YES

 Final energy is   -2595.89914876897     


 ******************************
 **  OPTIMIZATION CONVERGED  **
 ******************************

                       Coordinates (Angstroms)
     ATOM                X               Y               Z
      1  C         7.4241096867    1.6265479457   -0.3518798652
      2  C         6.5289405467    2.6369449608   -0.0423066513
      3  N         7.0548943857    0.3710147519   -0.5872158147
      4  C         5.1832967782    2.3279514547    0.0257776194
      5  C         5.7618703911    0.0856565460   -0.5193481231
      6  C         4.7718554191    1.0238112876   -0.2248382758
      7  C         3.3456347663    0.6568241067   -0.1926247266
      8  C         2.3807646534    1.4540196695   -0.7452648351
      9  C         2.8620661636   -0.5371663065    0.4140277332
     10  N         1.0455895719    1.2030643662   -0.7655712641
     11  N         3.5700735918   -1.4707844304    1.0532793562
     12  C         1.4597954265   -0.8058835791    0.4124296735
     13  C         0.5658428484    0.1218889203   -0.2110238285
     14  S         2.5089236092   -2.5595960567    1.5843704917
     15  N         1.1317140870   -1.9256391397    1.0559054489
     16  C        -0.8754734360   -0.1073882045   -0.2657306795
     17  S        -1.9344995707    1.2056174194    0.0888178136
     18  C        -1.6092456343   -1.2381161629   -0.5144276247
     19  C        -3.3510710368    0.2539368594   -0.1151305506
     20  S        -1.2288918417   -2.8739493350   -0.9695678060
     21  C        -3.0184899016   -1.0396268057   -0.4554549613
     22  C        -4.6836009136    0.7957781256    0.0525873671
     23  C        -2.9317861220   -3.2501364690   -1.0797302939
     24  C        -3.7535693201   -2.2290196738   -0.7833971097
     25  N        -5.7674338316    0.0933589487   -0.1123503250
     26  S        -4.9801863998    2.4514088018    0.4997481660
     27  C        -6.8811837335    0.8468532873    0.1137918486
     28  C        -6.6659160248    2.1404212261    0.4547901040
     29  H         8.4867331241    1.8314235069   -0.4115456567
     30  H         6.8804745050    3.6403475516    0.1507703016
     31  H         4.4562568734    3.0862050024    0.2851270368
     32  H         5.4896824162   -0.9439879290   -0.7156724711
     33  H         2.6724583408    2.3701953066   -1.2437970912
     34  H        -3.2170762622   -4.2515494540   -1.3589785411
     35  H        -4.8294737009   -2.2790097140   -0.7907584024
     36  H        -7.8541032149    0.3899962360    0.0157875764
     37  H        -7.3879257487    2.9065665593    0.6751798430

Z-matrix Print:
$molecule
0 1
S 
C  1 1.718710
C  2 1.378310 1 110.493064
C  3 1.424375 2 112.317558 1 -1.314276 0
C  4 1.370700 3 114.027359 2 1.934839 0
C  3 1.436156 2 135.245877 1 177.578455 0
H  6 1.077090 3 123.454379 2 1.324816 0
C  6 1.343808 3 111.509446 2 -178.416548 0
H  8 1.078053 6 126.951301 3 -179.983394 0
C  2 1.448226 1 122.510272 3 179.628157 0
N  10 1.302033 2 123.326135 1 -179.216953 0
C  11 1.363574 10 111.148631 2 -179.707611 0
H  12 1.079303 11 119.164293 10 179.795785 0
C  12 1.354968 11 116.073237 10 -0.056592 0
H  14 1.075569 12 128.679034 11 -179.971252 0
C  5 1.460463 4 131.652386 3 -179.121781 0
N  16 1.306377 5 118.453518 4 -137.668184 0
C  17 1.358707 16 120.490258 5 179.645436 0
H  18 1.083050 17 114.457955 16 -179.264374 0
C  18 1.368176 17 126.258301 16 -0.755576 0
C  20 1.423896 18 114.909295 17 0.292676 0
N  21 1.334751 20 127.621141 18 178.094169 0
C  21 1.427787 20 119.398502 18 0.405545 0
N  23 1.332498 21 113.542665 20 177.498581 0
C  20 1.473032 18 121.925367 17 179.980947 0
C  25 1.390278 20 121.084140 18 -42.245781 0
H  26 1.082034 25 120.112981 20 -2.260177 0
C  26 1.382342 25 119.267407 20 178.629035 0
H  28 1.080589 26 121.027047 25 179.770205 0
C  28 1.384942 26 118.498174 25 0.391375 0
H  30 1.083837 28 120.537734 26 179.844606 0
N  30 1.329687 28 123.295659 26 0.022099 0
C  32 1.325876 30 117.707087 28 -0.024922 0
H  33 1.082958 32 116.133098 30 -179.985240 0
S  24 1.605579 23 106.233816 21 0.634291 0
S  14 1.714765 12 109.628584 11 -0.025419 0
S  4 1.740049 3 110.983625 2 179.148161 0
$end

 
 --------------------------------------------------------------
 
                    Orbital Energies (a.u.)
 --------------------------------------------------------------
 
 Alpha MOs
 -- Occupied --
-89.157 -89.093 -89.091 -89.076 -14.494 -14.489 -14.456 -14.443
-14.438 -10.373 -10.371 -10.364 -10.361 -10.342 -10.342 -10.341
-10.336 -10.331 -10.329 -10.328 -10.326 -10.326 -10.325 -10.321
-10.317 -10.314 -10.305 -10.296  -8.167  -8.107  -8.106  -8.091
 -6.117  -6.112  -6.111  -6.057  -6.055  -6.053  -6.052  -6.050
 -6.049  -6.040  -6.037  -6.032  -1.154  -1.082  -1.075  -1.057
 -1.024  -1.016  -0.958  -0.947  -0.913  -0.910  -0.907  -0.885
 -0.862  -0.846  -0.829  -0.807  -0.776  -0.755  -0.746  -0.732
 -0.720  -0.696  -0.688  -0.679  -0.649  -0.641  -0.626  -0.622
 -0.610  -0.602  -0.585  -0.576  -0.570  -0.567  -0.541  -0.534
 -0.528  -0.524  -0.518  -0.514  -0.510  -0.505  -0.499  -0.497
 -0.484  -0.481  -0.476  -0.466  -0.456  -0.446  -0.437  -0.435
 -0.426  -0.425  -0.408  -0.393  -0.384  -0.372  -0.370  -0.368
 -0.367  -0.360  -0.345  -0.336  -0.324  -0.321  -0.271
 -- Virtual --
 -0.053  -0.013   0.024   0.036   0.040   0.061   0.065   0.066
  0.075   0.091   0.100   0.109   0.116   0.120   0.130   0.134
  0.141   0.146   0.150   0.165   0.167   0.170   0.172   0.172
  0.189   0.193   0.198   0.213   0.216   0.226   0.230   0.246
  0.253   0.257   0.260   0.265   0.270   0.275   0.286   0.289
  0.290   0.299   0.299   0.307   0.310   0.312   0.325   0.327
  0.330   0.331   0.334   0.339   0.342   0.351   0.353   0.359
  0.360   0.365   0.368   0.372   0.373   0.381   0.383   0.386
  0.392   0.394   0.395   0.401   0.403   0.404   0.409   0.412
  0.416   0.417   0.419   0.428   0.432   0.434   0.439   0.443
  0.445   0.449   0.456   0.457   0.459   0.461   0.462   0.466
  0.467   0.471   0.475   0.479   0.482   0.484   0.486   0.489
  0.494   0.499   0.500   0.503   0.509   0.514   0.517   0.521
  0.524   0.525   0.529   0.536   0.541   0.547   0.549   0.554
  0.560   0.571   0.575   0.580   0.582   0.588   0.593   0.599
  0.604   0.609   0.615   0.618   0.623   0.629   0.638   0.641
  0.651   0.655   0.661   0.664   0.670   0.674   0.680   0.682
  0.689   0.690   0.697   0.700   0.711   0.718   0.723   0.727
  0.730   0.735   0.740   0.742   0.746   0.752   0.755   0.761
  0.763   0.767   0.769   0.775   0.782   0.786   0.787   0.793
  0.798   0.804   0.805   0.816   0.821   0.826   0.830   0.834
  0.837   0.844   0.849   0.852   0.854   0.859   0.860   0.865
  0.875   0.877   0.882   0.887   0.893   0.896   0.902   0.910
  0.915   0.917   0.928   0.928   0.940   0.941   0.944   0.949
  0.954   0.958   0.965   0.972   0.978   0.981   0.983   0.985
  0.992   0.996   1.004   1.012   1.018   1.024   1.031   1.037
  1.042   1.046   1.056   1.059   1.064   1.066   1.074   1.078
  1.082   1.086   1.094   1.099   1.103   1.109   1.118   1.128
  1.131   1.135   1.142   1.147   1.162   1.166   1.168   1.175
  1.180   1.183   1.196   1.200   1.205   1.208   1.217   1.221
  1.230   1.237   1.244   1.250   1.260   1.268   1.271   1.278
  1.285   1.291   1.297   1.302   1.308   1.317   1.321   1.331
  1.336   1.350   1.353   1.362   1.368   1.378   1.381   1.383
  1.388   1.390   1.401   1.412   1.416   1.423   1.430   1.433
  1.439   1.445   1.453   1.457   1.459   1.466   1.478   1.489
  1.491   1.500   1.505   1.514   1.526   1.531   1.533   1.541
  1.548   1.554   1.557   1.564   1.573   1.578   1.591   1.595
  1.601   1.609   1.618   1.625   1.629   1.634   1.639   1.642
  1.650   1.655   1.659   1.669   1.670   1.675   1.681   1.685
  1.689   1.699   1.701   1.705   1.712   1.728   1.729   1.739
  1.746   1.749   1.755   1.765   1.775   1.783   1.785   1.786
  1.797   1.807   1.815   1.828   1.838   1.847   1.856   1.873
  1.880   1.881   1.884   1.893   1.897   1.908   1.920   1.926
  1.934   1.935   1.945   1.949   1.960   1.963   1.973   1.980
  1.988   1.998   2.004   2.008   2.013   2.023   2.030   2.033
  2.052   2.062   2.066   2.074   2.076   2.082   2.084   2.105
  2.114   2.118   2.131   2.134   2.141   2.157   2.166   2.172
  2.178   2.187   2.190   2.202   2.216   2.222   2.224   2.233
  2.241   2.254   2.256   2.263   2.267   2.273   2.280   2.282
  2.282   2.302   2.309   2.342   2.346   2.356   2.362   2.371
  2.376   2.381   2.383   2.392   2.396   2.400   2.405   2.408
  2.423   2.424   2.429   2.439   2.444   2.452   2.456   2.463
  2.470   2.482   2.490   2.491   2.497   2.506   2.510   2.520
  2.525   2.530   2.537   2.542   2.551   2.565   2.567   2.581
  2.585   2.593   2.602   2.606   2.614   2.617   2.622   2.627
  2.638   2.646   2.653   2.667   2.667   2.678   2.679   2.701
  2.709   2.717   2.727   2.746   2.756   2.760   2.764   2.767
  2.777   2.785   2.790   2.791   2.797   2.797   2.799   2.811
  2.818   2.825   2.840   2.843   2.853   2.854   2.873   2.880
  2.887   2.891   2.902   2.910   2.915   2.925   2.936   2.937
  2.945   2.948   2.952   2.955   2.957   2.967   2.976   2.983
  2.984   2.990   2.993   2.998   3.008   3.013   3.015   3.026
  3.031   3.032   3.050   3.054   3.057   3.061   3.067   3.069
  3.071   3.077   3.080   3.090   3.094   3.096   3.100   3.102
  3.109   3.118   3.123   3.124   3.130   3.134   3.143   3.147
  3.155   3.160   3.164   3.169   3.173   3.175   3.180   3.183
  3.188   3.191   3.195   3.203   3.204   3.207   3.209   3.212
  3.220   3.222   3.224   3.230   3.234   3.238   3.244   3.251
  3.256   3.259   3.268   3.270   3.272   3.278   3.279   3.289
  3.293   3.297   3.298   3.304   3.311   3.315   3.319   3.327
  3.332   3.340   3.345   3.350   3.353   3.359   3.364   3.368
  3.369   3.382   3.388   3.393   3.395   3.405   3.413   3.425
  3.430   3.438   3.443   3.450   3.459   3.462   3.467   3.472
  3.477   3.479   3.484   3.493   3.497   3.499   3.508   3.518
  3.523   3.526   3.531   3.537   3.544   3.550   3.564   3.573
  3.576   3.585   3.591   3.600   3.601   3.607   3.618   3.623
  3.633   3.646   3.654   3.661   3.674   3.679   3.685   3.687
  3.697   3.704   3.710   3.725   3.737   3.740   3.749   3.769
  3.772   3.778   3.783   3.789   3.800   3.803   3.806   3.812
  3.827   3.828   3.836   3.842   3.852   3.854   3.858   3.870
  3.873   3.877   3.888   3.909   3.912   3.920   3.928   3.928
  3.938   3.942   3.944   3.958   3.960   3.967   3.973   3.977
  3.985   3.990   3.996   4.007   4.014   4.027   4.028   4.044
  4.050   4.056   4.070   4.072   4.086   4.096   4.103   4.119
  4.130   4.135   4.147   4.156   4.160   4.169   4.175   4.180
  4.193   4.193   4.197   4.202   4.208   4.222   4.232   4.235
  4.244   4.251   4.263   4.274   4.288   4.295   4.303   4.315
  4.322   4.338   4.340   4.349   4.364   4.370   4.372   4.391
  4.395   4.401   4.418   4.427   4.434   4.447   4.454   4.468
  4.469   4.475   4.477   4.487   4.511   4.518   4.529   4.542
  4.543   4.554   4.563   4.576   4.580   4.588   4.605   4.615
  4.621   4.634   4.642   4.647   4.654   4.668   4.682   4.684
  4.695   4.718   4.733   4.742   4.761   4.771   4.789   4.797
  4.813   4.815   4.827   4.834   4.841   4.848   4.851   4.859
  4.872   4.885   4.898   4.932   4.935   4.937   4.940   4.951
  4.954   4.961   4.969   4.973   4.983   4.990   5.004   5.006
  5.018   5.027   5.033   5.048   5.059   5.067   5.088   5.094
  5.105   5.114   5.134   5.150   5.157   5.170   5.177   5.189
  5.209   5.231   5.236   5.243   5.245   5.260   5.282   5.285
  5.292   5.315   5.327   5.337   5.352   5.370   5.396   5.411
  5.418   5.437   5.459   5.462   5.467   5.486   5.510   5.524
  5.534   5.546   5.559   5.589   5.607   5.651   5.660   5.664
  5.691   5.702   5.709   5.715   5.762   5.764   5.779   5.816
  5.847   5.876   5.914   5.922   5.949   5.971   6.013   6.074
  6.133   6.146   6.158   6.182   6.187   6.208   6.232   6.310
  6.325   6.348   6.391   6.399   6.474   6.842   7.018   7.892
  8.765   9.733  10.121  10.883  11.123  11.222  11.648  11.993
 12.180  12.508  12.596  12.669  12.812  12.910  13.194  13.399
 13.531  13.575  13.838  13.860  14.268  14.627  14.987
 --------------------------------------------------------------
 
          Ground-State Mulliken Net Atomic Charges

     Atom                 Charge (a.u.)
  ----------------------------------------
      1 C                    -0.069765
      2 C                    -0.103759
      3 N                    -0.154871
      4 C                    -0.155252
      5 C                    -0.095004
      6 C                     0.107131
      7 C                     0.046453
      8 C                    -0.106443
      9 C                     0.030064
     10 N                    -0.164122
     11 N                    -0.279030
     12 C                    -0.003690
     13 C                     0.033942
     14 S                     0.421713
     15 N                    -0.254876
     16 C                     0.026571
     17 S                     0.131024
     18 C                    -0.038747
     19 C                    -0.033380
     20 S                     0.068298
     21 C                     0.040547
     22 C                     0.035628
     23 C                    -0.150064
     24 C                    -0.168577
     25 N                    -0.186606
     26 S                     0.099066
     27 C                    -0.077411
     28 C                    -0.201873
     29 H                     0.124313
     30 H                     0.130579
     31 H                     0.130832
     32 H                     0.130506
     33 H                     0.136289
     34 H                     0.132331
     35 H                     0.145659
     36 H                     0.128989
     37 H                     0.143536
  ----------------------------------------
  Sum of atomic charges =     0.000000

 -----------------------------------------------------------------
                    Cartesian Multipole Moments
 -----------------------------------------------------------------
    Charge (ESU x 10^10)
                 0.0000
    Dipole Moment (Debye)
         X      -1.4682      Y       1.4836      Z       1.1166
       Tot       2.3672
    Quadrupole Moments (Debye-Ang)
        XX    -174.8183     XY       7.1637     YY    -165.7899
        XZ       1.8593     YZ       3.1320     ZZ    -188.7085
    Octopole Moments (Debye-Ang^2)
       XXX    -273.9952    XXY     153.8752    XYY       7.0398
       YYY      -1.7021    XXZ      37.0492    XYZ     -22.3806
       YYZ       6.3733    XZZ       0.7461    YZZ      -7.4263
       ZZZ      25.9059
    Hexadecapole Moments (Debye-Ang^3)
      XXXX  -17974.4482   XXXY     177.8872   XXYY   -3185.8402
      XYYY     -11.6986   YYYY   -3417.8450   XXXZ     -17.5837
      XXYZ      85.3053   XYYZ      22.3279   YYYZ      41.3710
      XXZZ   -3454.6904   XYZZ     -69.2371   YYZZ    -736.6355
      XZZZ     -31.3022   YZZZ     -45.4760   ZZZZ    -745.2839
 -----------------------------------------------------------------
Archival summary:
1\1\mn250\OPT\ProcedureUnspecified\BasisUnspecified\45199\afmv_a\SatJun304:35:022017SatJun304:35:022017\0\\#,OPT,ProcedureUnspecified,BasisUnspecified,\\0,1\S\C,1,1.71871\C,2,1.37831,1,110.493\C,3,1.42438,2,112.318,1,-1.31428,0\C,4,1.3707,3,114.027,2,1.93484,0\C,3,1.43616,2,135.246,1,177.578,0\H,6,1.07709,3,123.454,2,1.32482,0\C,6,1.34381,3,111.509,2,-178.417,0\H,8,1.07805,6,126.951,3,-179.983,0\C,2,1.44823,1,122.51,3,179.628,0\N,10,1.30203,2,123.326,1,-179.217,0\C,11,1.36357,10,111.149,2,-179.708,0\H,12,1.0793,11,119.164,10,179.796,0\C,12,1.35497,11,116.073,10,-0.0565921,0\H,14,1.07557,12,128.679,11,-179.971,0\C,5,1.46046,4,131.652,3,-179.122,0\N,16,1.30638,5,118.454,4,-137.668,0\C,17,1.35871,16,120.49,5,179.645,0\H,18,1.08305,17,114.458,16,-179.264,0\C,18,1.36818,17,126.258,16,-0.755576,0\C,20,1.4239,18,114.909,17,0.292676,0\N,21,1.33475,20,127.621,18,178.094,0\C,21,1.42779,20,119.399,18,0.405545,0\N,23,1.3325,21,113.543,20,177.499,0\C,20,1.47303,18,121.925,17,179.981,0\C,25,1.39028,20,121.084,18,-42.2458,0\H,26,1.08203,25,120.113,20,-2.26018,0\C,26,1.38234,25,119.267,20,178.629,0\H,28,1.08059,26,121.027,25,179.77,0\C,28,1.38494,26,118.498,25,0.391375,0\H,30,1.08384,28,120.538,26,179.845,0\N,30,1.32969,28,123.296,26,0.0220986,0\C,32,1.32588,30,117.707,28,-0.0249221,0\H,33,1.08296,32,116.133,30,-179.985,0\S,24,1.60558,23,106.234,21,0.634291,0\S,14,1.71476,12,109.629,11,-0.0254187,0\S,4,1.74005,3,110.984,2,179.148,0\\\@

 Total job time:  7017.08s(wall), 106087.09s(cpu) 
 Sat Jun  3 04:35:02 2017

        *************************************************************
        *                                                           *
        *  Thank you very much for using Q-Chem.  Have a nice day.  *
        *                                                           *
        *************************************************************


0 sent ACK to 0 
now end server 0 ... 
cleanup process ... done
