
Running Job 1 of 1 C271_2/C271_285.qcin
qchem C271_2/C271_285.qcin_2320.0 /tmpu/cab_g/afmv_a/scratch_qchem/qchem2320/ 1
/tmpu/appuserlic/qchem4.4/parallel-MPICH/bin/mpi/mpirun_qchem -machinefile /tmpu/appuserlic/qchem4.4/parallel-MPICH/bin/mpi/machines -np 1 /tmpu/appuserlic/qchem4.4/parallel-MPICH/exe/qcprog.exe C271_2/C271_285.qcin_2320.0 /tmpu/cab_g/afmv_a/scratch_qchem/qchem2320/

Process 0 of 1 is on mn250 - thread support 0
initial socket setup ...start
initial socket setup ...done 
now start server 0 ... 
Check license passed

                  Welcome to Q-Chem
     A Quantum Leap Into The Future Of Chemistry


 Q-Chem 4.4, Q-Chem, Inc., Pleasanton, CA (2016)

 Y. Shao,  Z. Gan,  E. Epifanovsky,  A. T. B. Gilbert,  M. Wormit,  
 J. Kussmann,  A. W. Lange,  A. Behn,  J. Deng,  X. Feng,  D. Ghosh,  
 M. Goldey,  P. R. Horn,  L. D. Jacobson,  I. Kaliman,  F. Rob,  
 R. Z. Khaliullin,  T. Kus,  A. Landau,  J. Liu,  E. I. Proynov,  Y. M. Rhee,  
 R. M. Richard,  M. A. Rohrdanz,  R. P. Steele,  E. J. Sundstrom,  
 H. L. Woodcock III,  P. M. Zimmerman,  D. Zuev,  B. Albrecht,  E. Alguire,  
 B. Austin,  S. A. Baeppler,  G. J. O. Beran,  Y. A. Bernard,  E. Berquist,  
 K. Brandhorst,  K. B. Bravaya,  S. T. Brown,  D. Casanova,  C.-M. Chang,  
 Y. Chen,  S. H. Chien,  K. D. Closser,  M. P. Coons,  D. L. Crittenden,  
 S. Dasgupta,  M. Diedenhofen,  R. A. DiStasio Jr.,  H. Do,  A. D. Dutoi,  
 R. G. Edgar,  P.-T. Fang,  S. Fatehi,  Q. Feng,  L. Fusti-Molnar,  
 A. Ghysels,  A. Golubeva-Zadorozhnaya,  J. Gomes,  A. Gunina,  
 M. W. D. Hanson-Heine,  P. H. P. Harbach,  A. W. Hauser,  J. E. Herr,  
 E. G. Hohenstein,  Z. C. Holden,  K. Hui,  T.-C. Jagau,  H. Ji,  B. Kaduk,  
 K. Khistyaev,  Jaehoon Kim,  Jihan Kim,  R. A. King,  P. Klunzinger,  
 K. Koh,  D. Kosenkov,  T. Kowalczyk,  C. M. Krauter,  A. Kunitsa,  
 K. U. Lao,  A. Laurent,  K. V. Lawler,  J. Lee,  D. Lefrancois,  S. Lehtola,  
 S. V. Levchenko,  C. Y. Lin,  Y.-S. Lin,  F. Liu,  E. Livshits,  
 R. C. Lochan,  A. Luenser,  P. Manohar,  S. F. Manzer,  S.-P. Mao,  Y. Mao,  
 N. Mardirossian,  A. V. Marenich,  L. A. Martinez-Martinez,  S. A. Maurer,  
 N. J. Mayhall,  J.-M. Mewes,  A. F. Morrison,  K. Nanda,  T. S. Nguyen-Beck,  
 C. M. Oana,  R. Olivares-Amaya,  D. P. O'Neill,  J. A. Parkhill,  
 T. M. Perrine,  R. Peverati,  P. A. Pieniazek,  F. Plasser,  A. Prociuk,  
 D. R. Rehn,  E. Rosta,  N. J. Russ,  N. Sergueev,  S. M. Sharada,  
 S. Sharma,  D. W. Small,  A. Sodt,  T. Stauch,  T. Stein,  D. Stuck,  
 Y.-C. Su,  A. J. W. Thom,  T. Tsuchimochi,  L. Vogt,  O. Vydrov,  T. Wang,  
 M. A. Watson,  J. Wenzel,  A. White,  C. F. Williams,  V. Vanovschi,  
 K. Yao,  S. Yeganeh,  S. R. Yost,  Z.-Q. You,  I. Y. Zhang,  X. Zhang,  
 Y. Zhao,  B. R. Brooks,  G. K. L. Chan,  D. M. Chipman,  C. J. Cramer,  
 W. A. Goddard III,  M. S. Gordon,  W. J. Hehre,  A. Klamt,  
 H. F. Schaefer III,  M. W. Schmidt,  C. D. Sherrill,  D. G. Truhlar,  
 A. Warshel,  X. Xu,  A. Aspuru-Guzik,  R. Baer,  A. T. Bell,  N. A. Besley,  
 J.-D. Chai,  A. Dreuw,  B. D. Dunietz,  T. R. Furlani,  S. R. Gwaltney,  
 C.-P. Hsu,  Y. Jung,  J. Kong,  D. S. Lambrecht,  W. Liang,  C. Ochsenfeld,  
 V. A. Rassolov,  L. V. Slipchenko,  J. E. Subotnik,  T. Van Voorhis,  
 J. M. Herbert,  A. I. Krylov,  P. M. W. Gill,  M. Head-Gordon

 Contributors to earlier versions of Q-Chem not listed above: 
 R. D. Adamson,  J. Baker,  E. F. C. Byrd,  A. K. Chakraborty,  C.-L. Cheng,  
 H. Dachsel,  R. J. Doerksen,  G. Hawkins,  A. Heyden,  S. Hirata,  
 G. Kedziora,  F. J. Keil,  C. Kelley,  P. P. Korambath,  W. Kurlancheek,  
 A. M. Lee,  M. S. Lee,  D. Liotard,  I. Lotan,  P. E. Maslen,  N. Nair,  
 D. Neuhauser,  R. Olson,  B. Peters,  J. Ritchie,  N. E. Schultz,  
 N. Shenvi,  A. C. Simmonett,  K. S. Thanthiriwatte,  Q. Wu,  W. Zhang

 Please cite Q-Chem as follows:
 Y. Shao et al., Mol. Phys. 113, 184-215 (2015)
 DOI: 10.1080/00268976.2014.952696

 Q-Chem 4.4.2 for Intel X86 Linux

 Parts of Q-Chem use Armadillo 5.200.1 (Boston Tea Smuggler).
 http://arma.sourceforge.net/

 Q-Chem begins on Thu Jun  1 21:23:06 2017  

Host: 
0

     Scratch files written to /tmpu/cab_g/afmv_a/scratch_qchem/qchem2320//
 Dec716 11556_ 22328  22283 4050   
 Parallel job on  1  processors
Processing $rem in /tmpu/appuserlic/qchem4.4/parallel-MPICH/config/preferences.
 MEM_TOTAL  2000 
FILE_GEOM_ORG=        593

Checking the input file for inconsistencies... 	...done.

--------------------------------------------------------------
User input:
--------------------------------------------------------------
$comment
OPTIMIZATION
$end

$rem
JOBTYPE OPT
EXCHANGE omegaB97X-D
BASIS cc-pVTZ
$end

$molecule
0 1
C          0.00000        0.00000        0.00000
C          1.38508        0.00000        0.00000
N         -0.72771       -1.11322        0.00000
C          2.04720       -1.21160       -0.00386
C         -0.08136       -2.27149       -0.00595
C          1.30925       -2.38901       -0.00649
C          1.96927       -3.70493        0.02329
C          3.04486       -3.95576        0.82999
C          1.55200       -4.80802       -0.77739
N          3.72631       -5.12438        0.91627
N          0.54624       -4.84522       -1.65350
C          2.26335       -6.04410       -0.69858
C          3.37925       -6.16090        0.19241
S          0.53898       -6.32692       -2.28381
N          1.78433       -6.98642       -1.50573
C          4.16725       -7.35995        0.35676
S          5.75926       -7.61787       -0.27156
C          3.76371       -8.48038        1.04597
C          5.86480       -9.20371        0.38857
S          2.32146       -8.89391        1.90863
C          4.71381       -9.53258        1.07383
C          7.04290      -10.02779        0.21782
C          3.00396      -10.45992        2.29258
C          4.23998      -10.67433        1.80804
N          7.15542      -11.22478        0.71779
S          8.44299       -9.50391       -0.67711
C          8.36573      -11.77291        0.41299
C          9.19850      -11.00324       -0.32934
H         -0.55134        0.93273        0.00000
H          1.92494        0.93597       -0.01293
H          3.12873       -1.25416       -0.02668
H         -0.69553       -3.16348       -0.00579
H          3.41622       -3.17720        1.48423
H          2.42053      -11.14836        2.88407
H          4.82071      -11.57075        1.94425
H          8.60527      -12.76519        0.76358
H         10.18975      -11.23057       -0.68031
$end

$opt
CONSTRAINT
tors 4 6 7 8 42.24575
tors 10 13 16 17 -75.00000
tors 17 19 22 25 179.21698
ENDCONSTRAINT
$end
--------------------------------------------------------------
 ----------------------------------------------------------------
             Standard Nuclear Orientation (Angstroms)
    I     Atom           X                Y                Z
 ----------------------------------------------------------------
    1      C       7.4883157329     1.1587334215    -0.6960703107
    2      C       6.6424290183     2.2456713923    -0.8426585780
    3      N       7.0548138502    -0.0699584440    -0.4292126150
    4      C       5.2828288813     2.0502522501    -0.7023333113
    5      C       5.7470515834    -0.2458567941    -0.2942654329
    6      C       4.8051457685     0.7760984037    -0.4208688433
    7      C       3.3621590287     0.5110940755    -0.2954867471
    8      C       2.4499465006     1.0556392545    -1.1568306265
    9      C       2.8041491275    -0.3177799681     0.7211759470
   10      N       1.1060093169     0.8838679901    -1.1141864668
   11      N       3.4515143881    -0.9646549044     1.6922458651
   12      C       1.3892829668    -0.5045371318     0.7794778697
   13      C       0.5521429634     0.1350043073    -0.1915636291
   14      S       2.3323725981    -1.7273979752     2.5631780988
   15      N       0.9962347718    -1.2856822530     1.7815974640
   16      C      -0.8864306993     0.0142248546    -0.2314881336
   17      S      -2.0172942858     1.2290669607     0.2595422063
   18      C      -1.5727380579    -1.0936382716    -0.6728947982
   19      C      -3.3794685019     0.2512226030    -0.1278860208
   20      S      -1.0795734651    -2.6315736508    -1.2948416230
   21      C      -2.9847648241    -0.9748529626    -0.6213051515
   22      C      -4.7366725242     0.7209513650     0.0552400319
   23      C      -2.7587730037    -3.0931212659    -1.4761531808
   24      C      -3.6481675920    -2.1589130670    -1.0957213109
   25      N      -5.7850285811     0.0083415290    -0.2423378755
   26      S      -5.1147625664     2.2970441422     0.6944437904
   27      C      -6.9347213959     0.6915109399     0.0216428446
   28      C      -6.7833842766     1.9389692418     0.5294779281
   29      H       8.5606097100     1.2770714675    -0.7967816908
   30      H       7.0517898496     3.2246656454    -1.0467414229
   31      H       4.5903870711     2.8781195448    -0.7871821700
   32      H       5.4186675843    -1.2547890976    -0.0773079931
   33      H       2.7905005836     1.6842465724    -1.9698310306
   34      H      -2.9875688314    -4.0686255607    -1.8764586375
   35      H      -4.7194876323    -2.2582921640    -1.1377508220
   36      H      -7.8885571976     0.2275354381    -0.1779476241
   37      H      -7.5430080264     2.6484032098     0.8071659475
 ----------------------------------------------------------------
 Molecular Point Group                 C1    NOp =  1
 Largest Abelian Subgroup              C1    NOp =  1
 Nuclear Repulsion Energy =  2960.4402984009 hartrees
 There are      111 alpha and      111 beta electrons
 Requested basis set is cc-pVTZ
 There are 342 shells and 982 basis functions

 Total QAlloc Memory Limit   2000 MB
 Mega-Array Size        61 MB
 MEM_STATIC part        62 MB
 A cutoff of  1.0D-11 yielded  29266 shell pairs
 There are    232314 function pairs (    303565 Cartesian)
 
 -------------------------------------------------------
 OpenMP Integral Computing Module                       
 Release: version 1.0, May 2013, Q-Chem Inc. Pittsburgh 
 -------------------------------------------------------
 Integral Job Info:
 Integral job number is                      11
 Integral operator is                         1
 short-range coefficients              22203600
 long-range coefficients              100000000
 Omega coefficients                         200
 if combine SR and LR in K                    1
 Integral screening is                        0
 Integral computing path is                   2
 max size of driver memory is            800000
 size of driver memory is                776718
 size of scratch memory is             26248924
 max col of scratch BK array              10000
 max len of scratch array in speh3          662
 max len of scratch index in speh4           32
 max int batch size is                      520
 min int batch size is                       52
 fixed nKL is                                52
 max L of basis functions is                  3
 order of int derivative is                   0
 number of shells is                        342
 number of basis is                        1131
 number of cartesian basis is              1131
 number of contracted shell pairs         29266
 number of primitive shell pairs          92280
 maxK2 (contraction) of shell pair          121
 max number of K2 of shell pair               1
 max number of CS2 of shell pair           3971
 max number of PS2 of shell pair          11795
 mem total for path MDJ                  814268
 -------------------------------------------------------
 Smallest overlap matrix eigenvalue = 3.16E-05

 Scale SEOQF with 1.000000e-02/1.000000e-01/1.000000e-01

 Standard Electronic Orientation quadrupole field applied
 Nucleus-field energy     =     0.0000000251 hartrees
 Guess from superposition of atomic densities
 Warning:  Energy on first SCF cycle will be non-variational
 Long-range K will be added via erf
 Coulomb attenuation parameter = 0.2 bohr**(-1)
 A restricted hybrid HF-DFT SCF calculation will be
 performed using Pulay DIIS extrapolation
 Exchange:     0.2220 Hartree-Fock + 1.0000 wB97X-D + LR-HF
 Correlation:  1.0000 wB97X-D
 Using SG-2 standard quadrature grid
 Dispersion:   Grimme D
 SCF converges when DIIS error is below 1.0E-08
 using 16 threads for integral computing 
 using 16 threads for integral computing 
 K construction time:  CPU 70.69 s  wall 4.64 s
 -------------------------------------------------------
 OpenMP BLAS3 based DFT computing Module                
 Release: version 1.0, May 2013, Q-Chem Inc. Pittsburgh 
 -------------------------------------------------------
 ---------------------------------------
  Cycle       Energy         DIIS Error
 ---------------------------------------
    1   -2605.7921781638      1.87E-02
 K construction time:  CPU 1064.66 s  wall 69.55 s
    2   -2595.6409325272      1.40E-03
 K construction time:  CPU 1013.39 s  wall 66.20 s
    3   -2595.6391798918      1.52E-03
 K construction time:  CPU 962.62 s  wall 62.91 s
    4   -2595.8842147809      2.36E-04
 K construction time:  CPU 886.35 s  wall 57.87 s
    5   -2595.8894925900      1.29E-04
 K construction time:  CPU 838.88 s  wall 54.81 s
    6   -2595.8913494984      3.75E-05
 K construction time:  CPU 788.25 s  wall 51.49 s
    7   -2595.8915159081      1.83E-05
 K construction time:  CPU 740.02 s  wall 48.37 s
    8   -2595.8915626708      6.74E-06
 K construction time:  CPU 700.28 s  wall 45.70 s
    9   -2595.8915741001      3.39E-06
 K construction time:  CPU 668.84 s  wall 43.66 s
   10   -2595.8915775718      9.80E-07
 K construction time:  CPU 602.20 s  wall 39.22 s
   11   -2595.8915779752      5.68E-07
 K construction time:  CPU 553.59 s  wall 36.10 s
   12   -2595.8915780656      1.91E-07
 K construction time:  CPU 493.81 s  wall 32.22 s
   13   -2595.8915780770      1.04E-07
 K construction time:  CPU 425.27 s  wall 27.66 s
   14   -2595.8915780809      3.47E-08
 K construction time:  CPU 359.68 s  wall 23.33 s
   15   -2595.8915780819      1.44E-08
 K construction time:  CPU 1064.03 s  wall 69.48 s
   16   -2595.8915780760      5.28E-09 Convergence criterion met
 ---------------------------------------
 SCF time:  CPU 15034.33 s  wall 1004.78 s
 SCF   energy in the final basis set = -2595.8915780760
 Total energy in the final basis set = -2595.8915780760
 
 --------------------------------------------------------------
 
                    Orbital Energies (a.u.)
 --------------------------------------------------------------
 
 Alpha MOs
 -- Occupied --
-89.159 -89.095 -89.089 -89.076 -14.494 -14.490 -14.458 -14.441
-14.439 -10.372 -10.370 -10.366 -10.362 -10.341 -10.340 -10.340
-10.335 -10.332 -10.331 -10.330 -10.327 -10.325 -10.324 -10.322
-10.319 -10.313 -10.306 -10.297  -8.168  -8.110  -8.105  -8.091
 -6.119  -6.113  -6.112  -6.059  -6.055  -6.054  -6.053  -6.050
 -6.048  -6.041  -6.037  -6.033  -1.154  -1.080  -1.075  -1.058
 -1.023  -1.016  -0.958  -0.949  -0.914  -0.910  -0.907  -0.885
 -0.863  -0.846  -0.829  -0.809  -0.776  -0.755  -0.747  -0.732
 -0.723  -0.694  -0.687  -0.679  -0.649  -0.641  -0.627  -0.624
 -0.610  -0.602  -0.587  -0.578  -0.570  -0.570  -0.542  -0.531
 -0.528  -0.523  -0.519  -0.514  -0.510  -0.506  -0.500  -0.498
 -0.484  -0.483  -0.474  -0.467  -0.455  -0.442  -0.436  -0.435
 -0.431  -0.425  -0.408  -0.389  -0.385  -0.374  -0.369  -0.367
 -0.366  -0.362  -0.346  -0.337  -0.325  -0.321  -0.272
 -- Virtual --
 -0.051  -0.014   0.022   0.035   0.041   0.057   0.065   0.070
  0.073   0.082   0.088   0.110   0.114   0.118   0.129   0.133
  0.142   0.145   0.150   0.165   0.167   0.169   0.171   0.171
  0.185   0.192   0.197   0.212   0.216   0.227   0.229   0.245
  0.249   0.254   0.260   0.262   0.270   0.276   0.283   0.291
  0.294   0.296   0.298   0.304   0.309   0.312   0.322   0.325
  0.327   0.334   0.334   0.338   0.343   0.345   0.350   0.354
  0.362   0.364   0.366   0.373   0.374   0.376   0.382   0.385
  0.390   0.393   0.396   0.398   0.402   0.404   0.407   0.410
  0.413   0.417   0.419   0.425   0.430   0.431   0.439   0.443
  0.449   0.451   0.454   0.457   0.459   0.461   0.462   0.465
  0.469   0.470   0.473   0.479   0.481   0.482   0.489   0.494
  0.495   0.500   0.502   0.506   0.509   0.510   0.517   0.521
  0.522   0.527   0.531   0.534   0.539   0.545   0.550   0.550
  0.555   0.566   0.576   0.580   0.583   0.586   0.590   0.597
  0.602   0.606   0.611   0.614   0.624   0.629   0.633   0.638
  0.651   0.653   0.656   0.662   0.665   0.670   0.674   0.682
  0.685   0.691   0.694   0.697   0.701   0.713   0.718   0.727
  0.727   0.731   0.735   0.738   0.740   0.745   0.752   0.757
  0.762   0.767   0.769   0.774   0.780   0.781   0.785   0.793
  0.795   0.801   0.806   0.815   0.818   0.824   0.828   0.832
  0.835   0.839   0.844   0.848   0.853   0.855   0.858   0.863
  0.873   0.875   0.879   0.885   0.897   0.902   0.905   0.914
  0.916   0.921   0.923   0.929   0.933   0.939   0.946   0.950
  0.951   0.960   0.963   0.965   0.974   0.977   0.979   0.985
  0.991   0.993   0.995   1.008   1.015   1.027   1.029   1.036
  1.039   1.045   1.056   1.058   1.061   1.063   1.073   1.081
  1.082   1.089   1.096   1.102   1.107   1.112   1.119   1.126
  1.133   1.135   1.142   1.147   1.151   1.159   1.166   1.174
  1.180   1.189   1.197   1.201   1.207   1.209   1.218   1.220
  1.225   1.237   1.242   1.248   1.264   1.267   1.273   1.282
  1.287   1.290   1.297   1.304   1.309   1.316   1.326   1.336
  1.344   1.353   1.354   1.362   1.370   1.372   1.378   1.387
  1.390   1.395   1.404   1.409   1.414   1.421   1.425   1.433
  1.436   1.448   1.450   1.453   1.462   1.471   1.481   1.490
  1.496   1.506   1.508   1.519   1.521   1.529   1.533   1.546
  1.550   1.555   1.561   1.562   1.578   1.579   1.589   1.600
  1.606   1.608   1.613   1.623   1.626   1.631   1.633   1.646
  1.650   1.654   1.660   1.666   1.671   1.678   1.682   1.687
  1.691   1.695   1.698   1.701   1.707   1.720   1.723   1.739
  1.741   1.748   1.755   1.771   1.772   1.780   1.782   1.793
  1.799   1.807   1.816   1.833   1.842   1.846   1.857   1.861
  1.871   1.881   1.882   1.893   1.902   1.906   1.906   1.921
  1.927   1.934   1.944   1.947   1.956   1.962   1.978   1.981
  1.989   1.999   2.000   2.003   2.009   2.015   2.033   2.038
  2.047   2.062   2.064   2.072   2.077   2.079   2.090   2.099
  2.114   2.122   2.126   2.142   2.150   2.153   2.165   2.175
  2.177   2.188   2.192   2.198   2.207   2.219   2.227   2.232
  2.240   2.251   2.257   2.261   2.267   2.270   2.275   2.280
  2.295   2.300   2.314   2.336   2.342   2.346   2.357   2.368
  2.370   2.374   2.385   2.388   2.392   2.398   2.403   2.406
  2.422   2.426   2.432   2.438   2.439   2.449   2.458   2.467
  2.472   2.476   2.482   2.493   2.495   2.501   2.512   2.517
  2.522   2.532   2.533   2.538   2.549   2.561   2.563   2.571
  2.587   2.597   2.600   2.606   2.618   2.621   2.623   2.626
  2.640   2.645   2.658   2.664   2.665   2.673   2.681   2.683
  2.709   2.721   2.730   2.742   2.749   2.759   2.764   2.771
  2.780   2.786   2.789   2.789   2.796   2.802   2.806   2.813
  2.820   2.827   2.844   2.850   2.855   2.866   2.874   2.883
  2.888   2.897   2.904   2.915   2.922   2.930   2.935   2.940
  2.944   2.946   2.949   2.952   2.962   2.968   2.973   2.976
  2.981   2.991   2.995   2.998   3.008   3.015   3.021   3.024
  3.029   3.034   3.039   3.053   3.054   3.056   3.065   3.070
  3.073   3.077   3.084   3.090   3.092   3.095   3.101   3.103
  3.112   3.120   3.124   3.125   3.130   3.135   3.140   3.142
  3.149   3.158   3.161   3.165   3.171   3.173   3.179   3.183
  3.186   3.189   3.194   3.195   3.202   3.205   3.208   3.213
  3.216   3.222   3.228   3.231   3.233   3.242   3.245   3.249
  3.259   3.262   3.269   3.270   3.273   3.277   3.280   3.290
  3.292   3.297   3.302   3.304   3.314   3.318   3.321   3.323
  3.336   3.339   3.348   3.354   3.356   3.363   3.366   3.372
  3.380   3.382   3.388   3.390   3.401   3.414   3.418   3.427
  3.435   3.442   3.445   3.450   3.455   3.462   3.467   3.469
  3.478   3.481   3.486   3.492   3.495   3.498   3.510   3.518
  3.520   3.523   3.527   3.537   3.547   3.554   3.562   3.565
  3.579   3.581   3.589   3.594   3.597   3.611   3.618   3.636
  3.643   3.649   3.654   3.662   3.677   3.683   3.686   3.692
  3.700   3.709   3.716   3.732   3.738   3.743   3.751   3.761
  3.775   3.779   3.788   3.795   3.798   3.804   3.807   3.808
  3.822   3.826   3.834   3.841   3.853   3.856   3.862   3.868
  3.873   3.879   3.892   3.895   3.907   3.921   3.927   3.930
  3.935   3.944   3.948   3.949   3.958   3.968   3.973   3.973
  3.984   3.986   4.001   4.004   4.027   4.030   4.035   4.040
  4.051   4.061   4.064   4.068   4.088   4.096   4.113   4.118
  4.122   4.136   4.144   4.146   4.153   4.170   4.175   4.179
  4.190   4.194   4.199   4.202   4.204   4.222   4.228   4.240
  4.248   4.263   4.267   4.275   4.289   4.299   4.311   4.317
  4.325   4.332   4.339   4.343   4.359   4.369   4.375   4.388
  4.398   4.403   4.418   4.431   4.436   4.445   4.453   4.461
  4.471   4.477   4.486   4.492   4.506   4.512   4.534   4.539
  4.548   4.556   4.568   4.574   4.581   4.594   4.601   4.607
  4.619   4.625   4.638   4.651   4.655   4.668   4.673   4.681
  4.695   4.721   4.727   4.741   4.760   4.780   4.796   4.803
  4.817   4.819   4.831   4.836   4.843   4.848   4.850   4.859
  4.874   4.885   4.915   4.931   4.937   4.937   4.942   4.949
  4.951   4.961   4.967   4.971   4.983   4.991   5.002   5.009
  5.017   5.028   5.037   5.043   5.052   5.070   5.082   5.090
  5.106   5.112   5.135   5.146   5.160   5.165   5.172   5.195
  5.201   5.227   5.237   5.238   5.246   5.264   5.280   5.286
  5.291   5.314   5.323   5.337   5.343   5.360   5.403   5.409
  5.426   5.431   5.462   5.463   5.467   5.483   5.505   5.522
  5.534   5.545   5.572   5.596   5.604   5.648   5.660   5.663
  5.689   5.699   5.711   5.716   5.741   5.763   5.773   5.815
  5.851   5.861   5.908   5.918   5.940   5.960   6.006   6.083
  6.108   6.135   6.142   6.179   6.185   6.206   6.221   6.302
  6.325   6.346   6.390   6.393   6.473   6.830   7.013   7.863
  8.674   9.701  10.148  10.967  11.094  11.195  11.835  12.022
 12.217  12.522  12.624  12.678  12.808  12.908  13.185  13.238
 13.524  13.576  13.820  13.867  14.252  14.627  14.993
 --------------------------------------------------------------
 
          Ground-State Mulliken Net Atomic Charges

     Atom                 Charge (a.u.)
  ----------------------------------------
      1 C                    -0.069062
      2 C                    -0.102556
      3 N                    -0.155142
      4 C                    -0.156140
      5 C                    -0.092537
      6 C                     0.109533
      7 C                     0.045728
      8 C                    -0.114878
      9 C                     0.030301
     10 N                    -0.140614
     11 N                    -0.280540
     12 C                     0.011877
     13 C                    -0.032637
     14 S                     0.422501
     15 N                    -0.239947
     16 C                     0.046862
     17 S                     0.133137
     18 C                    -0.018341
     19 C                    -0.036812
     20 S                     0.059961
     21 C                     0.027435
     22 C                     0.036374
     23 C                    -0.148976
     24 C                    -0.163902
     25 N                    -0.187763
     26 S                     0.094148
     27 C                    -0.078275
     28 C                    -0.204156
     29 H                     0.124880
     30 H                     0.130569
     31 H                     0.132628
     32 H                     0.130664
     33 H                     0.136178
     34 H                     0.132354
     35 H                     0.144672
     36 H                     0.129101
     37 H                     0.143375
  ----------------------------------------
  Sum of atomic charges =     0.000000

 -----------------------------------------------------------------
                    Cartesian Multipole Moments
 -----------------------------------------------------------------
    Charge (ESU x 10^10)
                 0.0000
    Dipole Moment (Debye)
         X      -0.9433      Y       1.7113      Z       0.6158
       Tot       2.0488
    Quadrupole Moments (Debye-Ang)
        XX    -172.9394     XY       9.0636     YY    -169.6965
        XZ      -3.5862     YZ       1.0435     ZZ    -185.9800
    Octopole Moments (Debye-Ang^2)
       XXX    -241.4805    XXY     154.5587    XYY       0.2867
       YYY     -11.5167    XXZ     -10.6685    XYZ     -46.0039
       YYZ      -8.3243    XZZ      11.1893    YZZ     -13.6145
       ZZZ      30.8467
    Hexadecapole Moments (Debye-Ang^3)
      XXXX  -17858.7571   XXXY     361.8434   XXYY   -3222.5156
      XYYY      73.5566   YYYY   -2639.7682   XXXZ    -315.8011
      XXYZ      -8.2462   XYYZ      -5.4031   YYYZ      46.9798
      XXZZ   -3531.4163   XYZZ     -13.0685   YYZZ    -669.7016
      XZZZ      63.7150   YZZZ     -43.6645   ZZZZ   -1419.2781
 -----------------------------------------------------------------
 Calculating analytic gradient of the SCF energy
 K construction time:  CPU 2653.79 s  wall 167.71 s
 Gradient of SCF Energy
            1           2           3           4           5           6
    1   0.0013869  -0.0023308   0.0005129   0.0019766  -0.0001973  -0.0009562
    2   0.0010694  -0.0007523   0.0000242  -0.0006540  -0.0000086   0.0012634
    3   0.0000629  -0.0002109   0.0000005  -0.0005270  -0.0004271   0.0002893
            7           8           9          10          11          12
    1   0.0008759  -0.0029129  -0.0007178   0.0037421  -0.0021637   0.0037105
    2   0.0007049  -0.0007162   0.0003869   0.0012139   0.0001356   0.0002268
    3  -0.0009763  -0.0000347   0.0004109  -0.0051906  -0.0004304   0.0034344
           13          14          15          16          17          18
    1  -0.0227163   0.0023602   0.0017390   0.0248111  -0.0080057  -0.0040457
    2  -0.0161301  -0.0025370   0.0026052   0.0184865   0.0050013  -0.0119982
    3   0.0064392   0.0034378  -0.0036915  -0.0004708   0.0032492  -0.0075577
           19          20          21          22          23          24
    1   0.0023876   0.0001762   0.0030409   0.0002636   0.0016375  -0.0026648
    2   0.0011553   0.0042274  -0.0038270   0.0001840   0.0017296  -0.0021349
    3   0.0004918   0.0017292  -0.0012997  -0.0004798   0.0008879  -0.0003698
           25          26          27          28          29          30
    1  -0.0003842  -0.0002213   0.0006873   0.0006960  -0.0001543   0.0007057
    2   0.0001137   0.0006646  -0.0017698   0.0003587  -0.0001508  -0.0002941
    3   0.0004481   0.0007590  -0.0008199  -0.0001721  -0.0000370   0.0003562
           31          32          33          34          35          36
    1  -0.0007293  -0.0004608  -0.0007788  -0.0008777   0.0001594  -0.0003374
    2  -0.0002141   0.0000746   0.0001847  -0.0003018   0.0009806   0.0006622
    3   0.0002731  -0.0001396   0.0003456  -0.0004257   0.0003975   0.0001520
           37
    1  -0.0002146
    2   0.0000355
    3   0.0000961
 Max gradient component =       2.481E-02
 RMS gradient           =       4.577E-03
 Gradient time:  CPU 3085.46 s  wall 196.81 s
 Geometry Optimization Parameters
   NAtoms,    NIC,     NZ,  NCons,   NDum,   NFix, NCnnct, MaxDiis
       37     280       0       3       0       0       0       0


** CONSTRAINED OPTIMIZATION IN DELOCALIZED INTERNAL COORDINATES **
   Searching for a Minimum

   Optimization Cycle:   1

                       Coordinates (Angstroms)
     ATOM                X               Y               Z
      1  C         7.4883157329    1.1587334215   -0.6960703107
      2  C         6.6424290183    2.2456713923   -0.8426585780
      3  N         7.0548138502   -0.0699584440   -0.4292126150
      4  C         5.2828288813    2.0502522501   -0.7023333113
      5  C         5.7470515834   -0.2458567941   -0.2942654329
      6  C         4.8051457685    0.7760984037   -0.4208688433
      7  C         3.3621590287    0.5110940755   -0.2954867471
      8  C         2.4499465006    1.0556392545   -1.1568306265
      9  C         2.8041491275   -0.3177799681    0.7211759470
     10  N         1.1060093169    0.8838679901   -1.1141864668
     11  N         3.4515143881   -0.9646549044    1.6922458651
     12  C         1.3892829668   -0.5045371318    0.7794778697
     13  C         0.5521429634    0.1350043073   -0.1915636291
     14  S         2.3323725981   -1.7273979752    2.5631780988
     15  N         0.9962347718   -1.2856822530    1.7815974640
     16  C        -0.8864306993    0.0142248546   -0.2314881336
     17  S        -2.0172942858    1.2290669607    0.2595422063
     18  C        -1.5727380579   -1.0936382716   -0.6728947982
     19  C        -3.3794685019    0.2512226030   -0.1278860208
     20  S        -1.0795734651   -2.6315736508   -1.2948416230
     21  C        -2.9847648241   -0.9748529626   -0.6213051515
     22  C        -4.7366725242    0.7209513650    0.0552400319
     23  C        -2.7587730037   -3.0931212659   -1.4761531808
     24  C        -3.6481675920   -2.1589130670   -1.0957213109
     25  N        -5.7850285811    0.0083415290   -0.2423378755
     26  S        -5.1147625664    2.2970441422    0.6944437904
     27  C        -6.9347213959    0.6915109399    0.0216428446
     28  C        -6.7833842766    1.9389692418    0.5294779281
     29  H         8.5606097100    1.2770714675   -0.7967816908
     30  H         7.0517898496    3.2246656454   -1.0467414229
     31  H         4.5903870711    2.8781195448   -0.7871821700
     32  H         5.4186675843   -1.2547890976   -0.0773079931
     33  H         2.7905005836    1.6842465724   -1.9698310306
     34  H        -2.9875688314   -4.0686255607   -1.8764586375
     35  H        -4.7194876323   -2.2582921640   -1.1377508220
     36  H        -7.8885571976    0.2275354381   -0.1779476241
     37  H        -7.5430080264    2.6484032098    0.8071659475
   Point Group: c1    Number of degrees of freedom:   105


   Energy is  -2595.891578076

              Constraints and their Current Values
                                        Value     Constraint
   Dihedral:        4   6   7   8       42.189       42.246
   Dihedral:       10  13  16  17      -75.000      -75.000
   Dihedral:       17  19  22  25      179.258      179.217

 Attempting to Generate Delocalized Internal Coordinates

   Using Lagrange Multiplier Algorithm


108 Hessian modes will be used to form the next step
  Hessian Eigenvalues:
    -0.977753   -0.977753   -0.977753    0.045000    0.045000    0.045000
     0.045000    0.045000    0.045000    0.045000    0.045000    0.045000
     0.045000    0.045000    0.045000    0.045000    0.045000    0.045000
     0.045000    0.045000    0.045000    0.045000    0.045000    0.045000
     0.045001    0.045001    0.045001    0.045001    0.045001    0.045003
     0.045005    0.045007    0.045009    0.045012    0.159961    0.159984
     0.159995    0.159997    0.159998    0.159999    0.160000    0.160000
     0.160000    0.220002    0.224572    0.225458    0.231978    0.233022
     0.234404    0.247446    0.247715    0.249914    0.249956    0.249989
     0.249992    0.249998    0.249998    0.249998    0.249999    0.249999
     0.249999    0.250000    0.250000    0.297519    0.305115    0.316323
     0.317273    0.326669    0.334470    0.354466    0.355754    0.356364
     0.356781    0.356811    0.359242    0.360777    0.361177    0.363911
     0.365015    0.372838    0.385319    0.386479    0.390167    0.393199
     0.397180    0.410394    0.431175    0.455299    0.463154    0.473302
     0.473331    0.475009    0.483101    0.491313    0.496878    0.499401
     0.517632    0.525704    0.538154    0.558610    0.574891    0.584500
     0.591081    0.623467    0.638978    1.022753    1.022753    1.022753

 Minimum Search - Taking P-RFO Step
 Searching for Lamda that Maximizes Along the Constraint modes Only
 Value Taken    Lamda =   0.00000868
 Searching for Lamda that Minimizes Along All other modes
 Value Taken    Lamda =  -0.00376051
 Step Taken.  Stepsize is  0.125884

                             Maximum     Tolerance    Cnvgd?
         Gradient            0.014112       0.000300      NO
         Displacement        0.054969       0.001200      NO
         Energy change     *********       0.000001      NO


 New Cartesian Coordinates Obtained by Inverse Iteration

 Displacement from previous Coordinates is:  0.822393
 ----------------------------------------------------------------
             Standard Nuclear Orientation (Angstroms)
    I     Atom           X                Y                Z
 ----------------------------------------------------------------
    1      C       7.5096319047     1.1533772080    -0.6176391765
    2      C       6.6765832290     2.2468854809    -0.7880459106
    3      N       7.0633426113    -0.0721469780    -0.3586985965
    4      C       5.3117476805     2.0588268916    -0.6838091469
    5      C       5.7523977366    -0.2411629592    -0.2586646766
    6      C       4.8205517967     0.7857996034    -0.4158079585
    7      C       3.3727230301     0.5306552415    -0.3292803826
    8      C       2.4858277456     1.0805657855    -1.2147374940
    9      C       2.7868214674    -0.2952978593     0.6711029843
   10      N       1.1359098857     0.9169224774    -1.2056729167
   11      N       3.4064783696    -0.9457326699     1.6573890309
   12      C       1.3694265431    -0.4724565840     0.6909288204
   13      C       0.5644425940     0.1718414572    -0.2954815484
   14      S       2.2517328916    -1.6964419571     2.4914984767
   15      N       0.9373136131    -1.2520400194     1.6807656790
   16      C      -0.8936968773     0.0002305485    -0.3238670651
   17      S      -2.0053976511     1.2137680229     0.1732129058
   18      C      -1.5855804711    -1.1106473024    -0.7161225160
   19      C      -3.3867007252     0.2394538737    -0.1531049464
   20      S      -1.1101686234    -2.6704912735    -1.3175382695
   21      C      -3.0000223478    -0.9915224031    -0.6322897455
   22      C      -4.7385657943     0.7129633302     0.0611789340
   23      C      -2.7921866094    -3.1338844625    -1.4477974138
   24      C      -3.6687746062    -2.1876184018    -1.0671908379
   25      N      -5.7961269373    -0.0025626078    -0.1931523284
   26      S      -5.0978698286     2.3008126785     0.6789939637
   27      C      -6.9376791030     0.6851628223     0.0970437056
   28      C      -6.7715856173     1.9408009784     0.5778110694
   29      H       8.5851106469     1.2655475772    -0.6901125366
   30      H       7.0929053481     3.2243578689    -0.9857750088
   31      H       4.6298792780     2.8923094108    -0.7911255541
   32      H       5.4156591524    -1.2482936233    -0.0465256869
   33      H       2.8556026246     1.7030410911    -2.0204346196
   34      H      -3.0273095600    -4.1189289145    -1.8174984251
   35      H      -4.7404248846    -2.2949239853    -1.0826544187
   36      H      -7.8947483720     0.2131531695    -0.0647793230
   37      H      -7.5213003070     2.6557375822     0.8669628804
 ----------------------------------------------------------------
 Molecular Point Group                 C1    NOp =  1
 Largest Abelian Subgroup              C1    NOp =  1
 Nuclear Repulsion Energy =  2961.5638175925 hartrees
 There are      111 alpha and      111 beta electrons
 Applying Cartesian multipole field
    Component          Value
    ---------          -----
     (2,0,0)        1.00000E-12
     (0,2,0)        2.00000E-11
     (0,0,2)       -3.00000E-11
 Nucleus-field energy     =     0.0000000265 hartrees
 Requested basis set is cc-pVTZ
 There are 342 shells and 982 basis functions
 A cutoff of  1.0D-11 yielded  29258 shell pairs
 There are    232498 function pairs (    303859 Cartesian)
 Smallest overlap matrix eigenvalue = 3.06E-05
 Guess MOs from SCF MO coefficient file
 Reading MOs from coefficient file
 Reading MOs from coefficient file
 Long-range K will be added via erf
 Coulomb attenuation parameter = 0.2 bohr**(-1)
 A restricted hybrid HF-DFT SCF calculation will be
 performed using Pulay DIIS extrapolation
 Exchange:     0.2220 Hartree-Fock + 1.0000 wB97X-D + LR-HF
 Correlation:  1.0000 wB97X-D
 Using SG-2 standard quadrature grid
 Dispersion:   Grimme D
 SCF converges when DIIS error is below 1.0E-08
 Geometry optimization detected.  Setting ReadMinima to 0
 Setting SaveMinima to 0
 using 16 threads for integral computing 
 using 16 threads for integral computing 
 K construction time:  CPU 1061.50 s  wall 69.40 s
 -------------------------------------------------------
 OpenMP BLAS3 based DFT computing Module                
 Release: version 1.0, May 2013, Q-Chem Inc. Pittsburgh 
 -------------------------------------------------------
 ---------------------------------------
  Cycle       Energy         DIIS Error
 ---------------------------------------
    1   -2595.8865472858      5.08E-04
 K construction time:  CPU 1066.36 s  wall 69.63 s
    2   -2595.8930564830      6.05E-05
 K construction time:  CPU 839.71 s  wall 54.79 s
    3   -2595.8933599047      6.70E-05
 K construction time:  CPU 780.45 s  wall 50.94 s
    4   -2595.8938169464      1.77E-05
 K construction time:  CPU 735.04 s  wall 47.98 s
    5   -2595.8938560287      9.30E-06
 K construction time:  CPU 695.30 s  wall 45.39 s
    6   -2595.8938672590      3.60E-06
 K construction time:  CPU 638.58 s  wall 41.63 s
    7   -2595.8938691386      1.07E-06
 K construction time:  CPU 575.06 s  wall 37.53 s
    8   -2595.8938693367      5.27E-07
 K construction time:  CPU 534.74 s  wall 34.88 s
    9   -2595.8938693941      1.94E-07
 K construction time:  CPU 468.53 s  wall 30.48 s
   10   -2595.8938694025      7.62E-08
 K construction time:  CPU 418.25 s  wall 27.18 s
   11   -2595.8938694046      3.19E-08
 K construction time:  CPU 367.60 s  wall 23.87 s
   12   -2595.8938694039      1.34E-08
 K construction time:  CPU 304.83 s  wall 19.70 s
   13   -2595.8938694028      4.32E-09 Convergence criterion met
 ---------------------------------------
 SCF time:  CPU 11453.93 s  wall 764.57 s
 SCF   energy in the final basis set = -2595.8938694028
 Total energy in the final basis set = -2595.8938694028
 
 --------------------------------------------------------------
 
                    Orbital Energies (a.u.)
 --------------------------------------------------------------
 
 Alpha MOs
 -- Occupied --
-89.159 -89.094 -89.089 -89.075 -14.495 -14.491 -14.460 -14.441
-14.440 -10.372 -10.371 -10.366 -10.361 -10.343 -10.341 -10.339
-10.335 -10.333 -10.331 -10.330 -10.327 -10.325 -10.324 -10.323
-10.319 -10.313 -10.306 -10.297  -8.169  -8.108  -8.104  -8.090
 -6.119  -6.113  -6.112  -6.058  -6.054  -6.054  -6.051  -6.050
 -6.047  -6.040  -6.037  -6.032  -1.155  -1.080  -1.075  -1.059
 -1.025  -1.018  -0.958  -0.949  -0.914  -0.909  -0.906  -0.886
 -0.863  -0.845  -0.829  -0.807  -0.776  -0.756  -0.747  -0.733
 -0.722  -0.695  -0.687  -0.679  -0.648  -0.641  -0.627  -0.624
 -0.610  -0.602  -0.587  -0.578  -0.571  -0.569  -0.542  -0.531
 -0.529  -0.523  -0.519  -0.513  -0.510  -0.506  -0.501  -0.499
 -0.484  -0.482  -0.475  -0.467  -0.455  -0.443  -0.436  -0.435
 -0.431  -0.424  -0.410  -0.390  -0.386  -0.374  -0.369  -0.368
 -0.366  -0.363  -0.346  -0.336  -0.324  -0.321  -0.273
 -- Virtual --
 -0.051  -0.013   0.021   0.034   0.041   0.058   0.065   0.070
  0.076   0.083   0.089   0.110   0.114   0.118   0.129   0.133
  0.142   0.145   0.150   0.165   0.167   0.169   0.171   0.171
  0.186   0.192   0.197   0.211   0.215   0.227   0.229   0.244
  0.249   0.254   0.260   0.262   0.270   0.275   0.283   0.290
  0.294   0.296   0.298   0.304   0.309   0.312   0.322   0.325
  0.327   0.331   0.334   0.338   0.343   0.345   0.350   0.354
  0.361   0.364   0.367   0.373   0.375   0.376   0.382   0.385
  0.392   0.392   0.395   0.399   0.402   0.404   0.407   0.410
  0.413   0.417   0.418   0.424   0.430   0.431   0.439   0.443
  0.449   0.451   0.454   0.456   0.458   0.461   0.463   0.465
  0.469   0.471   0.473   0.478   0.482   0.484   0.489   0.492
  0.495   0.500   0.501   0.505   0.509   0.511   0.516   0.521
  0.522   0.527   0.530   0.533   0.539   0.544   0.549   0.550
  0.554   0.566   0.575   0.579   0.582   0.587   0.590   0.596
  0.601   0.606   0.610   0.613   0.623   0.628   0.633   0.638
  0.650   0.652   0.656   0.662   0.665   0.671   0.674   0.682
  0.685   0.691   0.694   0.701   0.701   0.713   0.718   0.726
  0.727   0.730   0.736   0.738   0.740   0.745   0.751   0.755
  0.761   0.766   0.769   0.773   0.779   0.781   0.784   0.793
  0.794   0.800   0.806   0.815   0.817   0.825   0.826   0.833
  0.836   0.840   0.844   0.847   0.852   0.854   0.859   0.864
  0.872   0.875   0.878   0.884   0.896   0.903   0.905   0.913
  0.915   0.921   0.923   0.931   0.933   0.938   0.947   0.949
  0.954   0.960   0.962   0.966   0.974   0.977   0.981   0.986
  0.989   0.995   0.996   1.008   1.015   1.026   1.028   1.036
  1.039   1.045   1.054   1.060   1.062   1.064   1.072   1.081
  1.082   1.088   1.095   1.102   1.106   1.112   1.119   1.125
  1.132   1.135   1.143   1.146   1.152   1.160   1.165   1.173
  1.179   1.189   1.197   1.201   1.208   1.209   1.218   1.220
  1.226   1.236   1.242   1.247   1.263   1.264   1.271   1.282
  1.285   1.289   1.296   1.306   1.308   1.316   1.326   1.335
  1.341   1.352   1.353   1.361   1.367   1.371   1.377   1.388
  1.390   1.394   1.403   1.410   1.414   1.421   1.423   1.432
  1.439   1.446   1.451   1.454   1.460   1.470   1.482   1.490
  1.497   1.504   1.508   1.519   1.521   1.529   1.535   1.543
  1.550   1.555   1.561   1.563   1.578   1.580   1.589   1.600
  1.604   1.608   1.613   1.623   1.628   1.629   1.631   1.646
  1.649   1.655   1.660   1.665   1.670   1.678   1.683   1.689
  1.690   1.694   1.700   1.701   1.704   1.721   1.725   1.739
  1.742   1.749   1.757   1.769   1.775   1.779   1.782   1.792
  1.800   1.807   1.817   1.833   1.841   1.843   1.857   1.861
  1.871   1.881   1.882   1.893   1.900   1.903   1.906   1.922
  1.926   1.935   1.943   1.945   1.955   1.962   1.978   1.981
  1.988   1.999   2.000   2.005   2.009   2.016   2.032   2.037
  2.048   2.061   2.065   2.072   2.076   2.078   2.086   2.098
  2.114   2.123   2.128   2.141   2.148   2.156   2.166   2.175
  2.179   2.186   2.191   2.197   2.205   2.218   2.227   2.230
  2.239   2.249   2.256   2.260   2.266   2.269   2.275   2.279
  2.295   2.299   2.307   2.333   2.345   2.347   2.355   2.365
  2.370   2.375   2.385   2.388   2.390   2.398   2.404   2.404
  2.420   2.426   2.431   2.439   2.441   2.449   2.459   2.467
  2.473   2.475   2.484   2.490   2.495   2.502   2.508   2.518
  2.524   2.531   2.534   2.540   2.547   2.561   2.565   2.570
  2.586   2.596   2.600   2.608   2.618   2.620   2.622   2.627
  2.640   2.648   2.651   2.663   2.667   2.673   2.680   2.690
  2.709   2.721   2.727   2.745   2.750   2.759   2.763   2.771
  2.778   2.786   2.789   2.791   2.795   2.799   2.806   2.814
  2.821   2.826   2.843   2.849   2.853   2.867   2.873   2.883
  2.890   2.896   2.902   2.912   2.920   2.932   2.933   2.940
  2.943   2.946   2.949   2.951   2.960   2.967   2.973   2.976
  2.981   2.992   2.996   2.999   3.007   3.014   3.019   3.024
  3.031   3.031   3.039   3.052   3.055   3.058   3.063   3.070
  3.073   3.077   3.083   3.089   3.092   3.095   3.101   3.104
  3.111   3.121   3.123   3.126   3.131   3.135   3.141   3.142
  3.151   3.157   3.159   3.165   3.169   3.174   3.180   3.182
  3.185   3.190   3.195   3.197   3.203   3.206   3.209   3.212
  3.218   3.221   3.227   3.231   3.233   3.241   3.246   3.250
  3.257   3.261   3.266   3.270   3.271   3.277   3.281   3.290
  3.292   3.297   3.302   3.305   3.314   3.317   3.319   3.322
  3.337   3.342   3.347   3.354   3.356   3.361   3.364   3.372
  3.377   3.382   3.389   3.390   3.398   3.410   3.419   3.426
  3.432   3.441   3.443   3.449   3.455   3.461   3.467   3.470
  3.477   3.481   3.485   3.491   3.496   3.497   3.509   3.517
  3.520   3.524   3.525   3.532   3.547   3.551   3.560   3.567
  3.579   3.581   3.589   3.594   3.598   3.608   3.616   3.635
  3.641   3.648   3.653   3.660   3.674   3.680   3.683   3.690
  3.698   3.706   3.714   3.730   3.735   3.742   3.753   3.760
  3.775   3.776   3.786   3.793   3.804   3.804   3.808   3.810
  3.819   3.827   3.833   3.842   3.851   3.855   3.862   3.867
  3.871   3.881   3.889   3.899   3.906   3.920   3.926   3.927
  3.933   3.943   3.946   3.951   3.957   3.969   3.972   3.975
  3.983   3.987   3.998   4.009   4.026   4.029   4.033   4.037
  4.049   4.056   4.063   4.065   4.088   4.095   4.106   4.117
  4.124   4.130   4.143   4.148   4.151   4.168   4.175   4.178
  4.189   4.195   4.197   4.201   4.203   4.221   4.228   4.238
  4.245   4.262   4.267   4.273   4.288   4.298   4.311   4.312
  4.325   4.328   4.340   4.344   4.356   4.369   4.375   4.387
  4.397   4.403   4.417   4.430   4.434   4.439   4.454   4.461
  4.470   4.478   4.485   4.493   4.507   4.510   4.533   4.540
  4.546   4.556   4.565   4.573   4.581   4.594   4.600   4.605
  4.619   4.627   4.640   4.649   4.659   4.668   4.673   4.681
  4.694   4.721   4.726   4.741   4.761   4.784   4.793   4.803
  4.816   4.820   4.829   4.836   4.844   4.848   4.850   4.858
  4.875   4.885   4.912   4.931   4.936   4.936   4.943   4.948
  4.952   4.961   4.968   4.972   4.984   4.991   5.002   5.010
  5.015   5.025   5.037   5.044   5.049   5.068   5.081   5.091
  5.104   5.111   5.134   5.146   5.160   5.164   5.171   5.193
  5.198   5.223   5.237   5.241   5.247   5.261   5.281   5.286
  5.286   5.313   5.321   5.339   5.342   5.363   5.396   5.409
  5.420   5.430   5.463   5.464   5.466   5.481   5.505   5.521
  5.534   5.543   5.570   5.591   5.602   5.648   5.657   5.664
  5.687   5.698   5.709   5.716   5.735   5.761   5.776   5.815
  5.847   5.857   5.902   5.919   5.941   5.961   6.007   6.089
  6.105   6.136   6.147   6.178   6.185   6.212   6.223   6.299
  6.324   6.347   6.390   6.392   6.469   6.829   7.013   7.861
  8.644   9.696  10.129  10.947  11.118  11.197  11.804  12.035
 12.143  12.525  12.605  12.680  12.822  12.912  13.183  13.238
 13.531  13.572  13.830  13.852  14.273  14.601  14.988
 --------------------------------------------------------------
 
          Ground-State Mulliken Net Atomic Charges

     Atom                 Charge (a.u.)
  ----------------------------------------
      1 C                    -0.068901
      2 C                    -0.102800
      3 N                    -0.154577
      4 C                    -0.156027
      5 C                    -0.093318
      6 C                     0.108627
      7 C                     0.046558
      8 C                    -0.108363
      9 C                     0.029452
     10 N                    -0.142195
     11 N                    -0.279853
     12 C                     0.011593
     13 C                    -0.025250
     14 S                     0.421541
     15 N                    -0.238511
     16 C                     0.034735
     17 S                     0.131485
     18 C                    -0.017518
     19 C                    -0.038704
     20 S                     0.056505
     21 C                     0.029828
     22 C                     0.037637
     23 C                    -0.148230
     24 C                    -0.165119
     25 N                    -0.187716
     26 S                     0.094576
     27 C                    -0.077551
     28 C                    -0.203733
     29 H                     0.124867
     30 H                     0.130865
     31 H                     0.132975
     32 H                     0.130987
     33 H                     0.136470
     34 H                     0.132794
     35 H                     0.144383
     36 H                     0.129053
     37 H                     0.143433
  ----------------------------------------
  Sum of atomic charges =     0.000000

 -----------------------------------------------------------------
                    Cartesian Multipole Moments
 -----------------------------------------------------------------
    Charge (ESU x 10^10)
                 0.0000
    Dipole Moment (Debye)
         X      -0.8747      Y       1.7155      Z       0.6727
       Tot       2.0397
    Quadrupole Moments (Debye-Ang)
        XX    -172.5572     XY       9.4251     YY    -169.6591
        XZ      -4.4491     YZ       1.1174     ZZ    -186.4701
    Octopole Moments (Debye-Ang^2)
       XXX    -232.0016    XXY     155.6488    XYY       0.3662
       YYY     -12.7493    XXZ      -5.5496    XYZ     -44.4506
       YYZ      -4.4225    XZZ      11.2400    YZZ     -12.8280
       ZZZ      41.2692
    Hexadecapole Moments (Debye-Ang^3)
      XXXX  -17853.0782   XXXY     338.2736   XXYY   -3222.7602
      XYYY      41.2958   YYYY   -2653.7017   XXXZ    -338.8376
      XXYZ      -0.8428   XYYZ      -5.1104   YYYZ      34.2703
      XXZZ   -3534.5072   XYZZ     -28.2119   YYZZ    -671.3787
      XZZZ      66.1149   YZZZ     -57.2009   ZZZZ   -1381.4222
 -----------------------------------------------------------------
 Calculating analytic gradient of the SCF energy
 K construction time:  CPU 2649.80 s  wall 167.54 s
 Gradient of SCF Energy
            1           2           3           4           5           6
    1   0.0000907  -0.0007713  -0.0000710   0.0006201   0.0002066  -0.0003188
    2   0.0001631   0.0000301  -0.0002975   0.0002022  -0.0001448   0.0000619
    3   0.0000629  -0.0001945   0.0000894  -0.0000761  -0.0001836   0.0001797
            7           8           9          10          11          12
    1   0.0010269  -0.0007925   0.0009490   0.0040360   0.0006016   0.0008885
    2   0.0001976  -0.0004902  -0.0002289   0.0005067   0.0006095   0.0002151
    3   0.0004468  -0.0006693   0.0008837  -0.0037827  -0.0010239   0.0023618
           13          14          15          16          17          18
    1  -0.0067733   0.0005338  -0.0016735   0.0049766  -0.0027515  -0.0014682
    2  -0.0067648   0.0011297   0.0007648   0.0063168  -0.0021256  -0.0017365
    3   0.0052301  -0.0012448  -0.0020278   0.0004190   0.0009614  -0.0021578
           19          20          21          22          23          24
    1   0.0006539  -0.0001922   0.0005809   0.0004072   0.0006281  -0.0006221
    2  -0.0000811   0.0013840   0.0004884  -0.0002993  -0.0003548  -0.0006224
    3   0.0000207   0.0006042   0.0000584   0.0000095   0.0000192  -0.0001089
           25          26          27          28          29          30
    1  -0.0003504  -0.0003659   0.0002437  -0.0000860  -0.0000784   0.0001933
    2   0.0005405   0.0000546  -0.0005607   0.0002948  -0.0000266   0.0000221
    3  -0.0000602   0.0000852  -0.0000297  -0.0000084  -0.0000024   0.0001375
           31          32          33          34          35          36
    1  -0.0000787  -0.0001035   0.0001302  -0.0001868   0.0000995  -0.0001217
    2   0.0000225  -0.0000568   0.0002408   0.0000105   0.0003129   0.0002813
    3   0.0000516  -0.0000134   0.0000331  -0.0001801   0.0001113  -0.0000617
           37
    1  -0.0000607
    2  -0.0000599
    3   0.0000600
 Max gradient component =       6.773E-03
 RMS gradient           =       1.555E-03
 Gradient time:  CPU 3083.93 s  wall 196.66 s
 Geometry Optimization Parameters
   NAtoms,    NIC,     NZ,  NCons,   NDum,   NFix, NCnnct, MaxDiis
       37     280       0       3       0       0       0       0

 Cartesian Hessian Update
 Hessian Updated using BFGS Update


** CONSTRAINED OPTIMIZATION IN DELOCALIZED INTERNAL COORDINATES **
   Searching for a Minimum

   Optimization Cycle:   2

                       Coordinates (Angstroms)
     ATOM                X               Y               Z
      1  C         7.5096319047    1.1533772080   -0.6176391765
      2  C         6.6765832290    2.2468854809   -0.7880459106
      3  N         7.0633426113   -0.0721469780   -0.3586985965
      4  C         5.3117476805    2.0588268916   -0.6838091469
      5  C         5.7523977366   -0.2411629592   -0.2586646766
      6  C         4.8205517967    0.7857996034   -0.4158079585
      7  C         3.3727230301    0.5306552415   -0.3292803826
      8  C         2.4858277456    1.0805657855   -1.2147374940
      9  C         2.7868214674   -0.2952978593    0.6711029843
     10  N         1.1359098857    0.9169224774   -1.2056729167
     11  N         3.4064783696   -0.9457326699    1.6573890309
     12  C         1.3694265431   -0.4724565840    0.6909288204
     13  C         0.5644425940    0.1718414572   -0.2954815484
     14  S         2.2517328916   -1.6964419571    2.4914984767
     15  N         0.9373136131   -1.2520400194    1.6807656790
     16  C        -0.8936968773    0.0002305485   -0.3238670651
     17  S        -2.0053976511    1.2137680229    0.1732129058
     18  C        -1.5855804711   -1.1106473024   -0.7161225160
     19  C        -3.3867007252    0.2394538737   -0.1531049464
     20  S        -1.1101686234   -2.6704912735   -1.3175382695
     21  C        -3.0000223478   -0.9915224031   -0.6322897455
     22  C        -4.7385657943    0.7129633302    0.0611789340
     23  C        -2.7921866094   -3.1338844625   -1.4477974138
     24  C        -3.6687746062   -2.1876184018   -1.0671908379
     25  N        -5.7961269373   -0.0025626078   -0.1931523284
     26  S        -5.0978698286    2.3008126785    0.6789939637
     27  C        -6.9376791030    0.6851628223    0.0970437056
     28  C        -6.7715856173    1.9408009784    0.5778110694
     29  H         8.5851106469    1.2655475772   -0.6901125366
     30  H         7.0929053481    3.2243578689   -0.9857750088
     31  H         4.6298792780    2.8923094108   -0.7911255541
     32  H         5.4156591524   -1.2482936233   -0.0465256869
     33  H         2.8556026246    1.7030410911   -2.0204346196
     34  H        -3.0273095600   -4.1189289145   -1.8174984251
     35  H        -4.7404248846   -2.2949239853   -1.0826544187
     36  H        -7.8947483720    0.2131531695   -0.0647793230
     37  H        -7.5213003070    2.6557375822    0.8669628804
   Point Group: c1    Number of degrees of freedom:   105


   Energy is  -2595.893869403

              Constraints and their Current Values
                                        Value     Constraint
   Dihedral:        4   6   7   8       42.246       42.246
   Dihedral:       10  13  16  17      -75.000      -75.000
   Dihedral:       17  19  22  25      179.217      179.217
 Hessian Updated using BFGS Update

   Using Lagrange Multiplier Algorithm


104 Hessian modes will be used to form the next step
  Hessian Eigenvalues:
    -0.977641    0.041737    0.045000    0.045000    0.045000    0.045000
     0.045000    0.045000    0.045000    0.045000    0.045000    0.045000
     0.045000    0.045000    0.045000    0.045000    0.045000    0.045000
     0.045000    0.045000    0.045000    0.045001    0.045001    0.045001
     0.045001    0.045001    0.045002    0.045005    0.045007    0.045009
     0.045012    0.045282    0.157305    0.159965    0.159987    0.159998
     0.159998    0.159999    0.160000    0.160000    0.160142    0.181561
     0.220045    0.224596    0.225850    0.232005    0.233133    0.234465
     0.247485    0.247719    0.249915    0.249956    0.249989    0.249992
     0.249998    0.249998    0.249998    0.249999    0.250000    0.250000
     0.278345    0.298173    0.305049    0.315653    0.319370    0.326644
     0.334468    0.354445    0.355749    0.356362    0.356800    0.356830
     0.359244    0.360777    0.361177    0.363897    0.365015    0.371354
     0.385110    0.386413    0.392651    0.396833    0.398999    0.419835
     0.431204    0.455305    0.461904    0.472935    0.473353    0.474772
     0.483044    0.491501    0.496768    0.499400    0.517659    0.526845
     0.538336    0.558891    0.574877    0.587914    0.591592    0.627055
     0.638970    1.022966

 Minimum Search - Taking P-RFO Step
 Searching for Lamda that Maximizes Along the Constraint modes Only
 Value Taken    Lamda =   0.00000045
 Searching for Lamda that Minimizes Along All other modes
 Value Taken    Lamda =  -0.00079820
 Step Taken.  Stepsize is  0.090165

                             Maximum     Tolerance    Cnvgd?
         Gradient            0.003704       0.000300      NO
         Displacement        0.034508       0.001200      NO
         Energy change     -0.002291       0.000001      NO


 New Cartesian Coordinates Obtained by Inverse Iteration

 Displacement from previous Coordinates is:  0.536201
 ----------------------------------------------------------------
             Standard Nuclear Orientation (Angstroms)
    I     Atom           X                Y                Z
 ----------------------------------------------------------------
    1      C       7.5093517338     1.1655399620    -0.5712826301
    2      C       6.6769197745     2.2580296960    -0.7492840900
    3      N       7.0612884966    -0.0611578489    -0.3226012661
    4      C       5.3103339052     2.0663629299    -0.6659147596
    5      C       5.7493721368    -0.2336549622    -0.2423644353
    6      C       4.8176186215     0.7912441155    -0.4113932794
    7      C       3.3680950824     0.5355200231    -0.3470805761
    8      C       2.4961660156     1.0916167684    -1.2443253259
    9      C       2.7686140670    -0.2954931356     0.6414107516
   10      N       1.1446025175     0.9302766909    -1.2600564564
   11      N       3.3685068128    -0.9533057622     1.6378299071
   12      C       1.3536427785    -0.4681858844     0.6358076968
   13      C       0.5696353034     0.1854490010    -0.3603488191
   14      S       2.2016996848    -1.7080111674     2.4522293486
   15      N       0.9062545079    -1.2517803870     1.6197614459
   16      C      -0.8916525207    -0.0132716028    -0.3940959563
   17      S      -1.9825540428     1.2138475795     0.1036923284
   18      C      -1.5863482270    -1.1292612715    -0.7512526071
   19      C      -3.3740400364     0.2371167488    -0.1768243062
   20      S      -1.1281501070    -2.7069908484    -1.3295932769
   21      C      -2.9997275818    -1.0030093109    -0.6427916759
   22      C      -4.7200932263     0.7152408529     0.0585438134
   23      C      -2.8148865145    -3.1623376905    -1.4197249139
   24      C      -3.6793985772    -2.2041814964    -1.0426435677
   25      N      -5.7822691533    -0.0042631823    -0.1621062984
   26      S      -5.0633325571     2.3134653622     0.6559751964
   27      C      -6.9167517585     0.6892325295     0.1427493045
   28      C      -6.7390854530     1.9523366881     0.5988138974
   29      H       8.5857253849     1.2800163189    -0.6279531721
   30      H       7.0918235766     3.2375031774    -0.9393191554
   31      H       4.6293424971     2.8992548607    -0.7813341619
   32      H       5.4131311590    -1.2423281623    -0.0377623631
   33      H       2.8807273802     1.7136936676    -2.0430843610
   34      H      -3.0597741432    -4.1544702989    -1.7622561611
   35      H      -4.7514665277    -2.3112497929    -1.0363598618
   36      H      -7.8760377183     0.2122618862     0.0113495701
   37      H      -7.4813334581     2.6730050445     0.8926721641
 ----------------------------------------------------------------
 Molecular Point Group                 C1    NOp =  1
 Largest Abelian Subgroup              C1    NOp =  1
 Nuclear Repulsion Energy =  2963.6577639538 hartrees
 There are      111 alpha and      111 beta electrons
 Applying Cartesian multipole field
    Component          Value
    ---------          -----
     (2,0,0)        1.00000E-12
     (0,2,0)        2.00000E-11
     (0,0,2)       -3.00000E-11
 Nucleus-field energy     =     0.0000000276 hartrees
 Requested basis set is cc-pVTZ
 There are 342 shells and 982 basis functions
 A cutoff of  1.0D-11 yielded  29287 shell pairs
 There are    232729 function pairs (    304110 Cartesian)
 Smallest overlap matrix eigenvalue = 2.97E-05
 Guess MOs from SCF MO coefficient file
 Reading MOs from coefficient file
 Reading MOs from coefficient file
 Long-range K will be added via erf
 Coulomb attenuation parameter = 0.2 bohr**(-1)
 A restricted hybrid HF-DFT SCF calculation will be
 performed using Pulay DIIS extrapolation
 Exchange:     0.2220 Hartree-Fock + 1.0000 wB97X-D + LR-HF
 Correlation:  1.0000 wB97X-D
 Using SG-2 standard quadrature grid
 Dispersion:   Grimme D
 SCF converges when DIIS error is below 1.0E-08
 Geometry optimization detected.  Setting ReadMinima to 0
 Setting SaveMinima to 0
 using 16 threads for integral computing 
 using 16 threads for integral computing 
 K construction time:  CPU 1062.43 s  wall 69.38 s
 -------------------------------------------------------
 OpenMP BLAS3 based DFT computing Module                
 Release: version 1.0, May 2013, Q-Chem Inc. Pittsburgh 
 -------------------------------------------------------
 ---------------------------------------
  Cycle       Energy         DIIS Error
 ---------------------------------------
    1   -2595.8865135917      3.43E-04
 K construction time:  CPU 1066.12 s  wall 69.61 s
    2   -2595.8938694157      4.02E-05
 K construction time:  CPU 816.74 s  wall 53.30 s
    3   -2595.8940284249      4.46E-05
 K construction time:  CPU 763.83 s  wall 49.86 s
    4   -2595.8942355349      1.14E-05
 K construction time:  CPU 716.06 s  wall 46.70 s
    5   -2595.8942534903      6.43E-06
 K construction time:  CPU 669.86 s  wall 43.79 s
    6   -2595.8942586323      2.54E-06
 K construction time:  CPU 614.87 s  wall 40.12 s
    7   -2595.8942595463      6.55E-07
 K construction time:  CPU 552.40 s  wall 35.93 s
    8   -2595.8942596321      3.59E-07
 K construction time:  CPU 514.73 s  wall 33.48 s
    9   -2595.8942596591      1.32E-07
 K construction time:  CPU 453.85 s  wall 29.42 s
   10   -2595.8942596627      5.49E-08
 K construction time:  CPU 405.97 s  wall 26.24 s
   11   -2595.8942596633      2.28E-08
 K construction time:  CPU 358.20 s  wall 23.20 s
   12   -2595.8942596634      8.09E-09 Convergence criterion met
 ---------------------------------------
 SCF time:  CPU 10753.16 s  wall 717.57 s
 SCF   energy in the final basis set = -2595.8942596634
 Total energy in the final basis set = -2595.8942596634
 
 --------------------------------------------------------------
 
                    Orbital Energies (a.u.)
 --------------------------------------------------------------
 
 Alpha MOs
 -- Occupied --
-89.159 -89.093 -89.089 -89.076 -14.495 -14.491 -14.460 -14.440
-14.440 -10.371 -10.371 -10.366 -10.361 -10.343 -10.340 -10.339
-10.336 -10.333 -10.331 -10.330 -10.327 -10.324 -10.324 -10.323
-10.319 -10.313 -10.306 -10.297  -8.169  -8.108  -8.104  -8.090
 -6.119  -6.114  -6.113  -6.057  -6.053  -6.053  -6.051  -6.050
 -6.047  -6.040  -6.037  -6.032  -1.154  -1.080  -1.077  -1.059
 -1.024  -1.016  -0.958  -0.949  -0.915  -0.909  -0.906  -0.886
 -0.863  -0.845  -0.829  -0.807  -0.777  -0.756  -0.747  -0.733
 -0.721  -0.696  -0.687  -0.679  -0.648  -0.641  -0.627  -0.624
 -0.610  -0.602  -0.587  -0.578  -0.571  -0.568  -0.542  -0.531
 -0.528  -0.523  -0.519  -0.513  -0.510  -0.506  -0.501  -0.499
 -0.484  -0.483  -0.474  -0.467  -0.455  -0.443  -0.436  -0.435
 -0.431  -0.424  -0.409  -0.390  -0.386  -0.374  -0.370  -0.368
 -0.366  -0.363  -0.346  -0.336  -0.324  -0.322  -0.273
 -- Virtual --
 -0.051  -0.012   0.022   0.034   0.041   0.058   0.065   0.070
  0.074   0.084   0.088   0.110   0.114   0.118   0.129   0.133
  0.142   0.145   0.150   0.165   0.167   0.169   0.171   0.171
  0.187   0.193   0.197   0.211   0.215   0.227   0.229   0.244
  0.249   0.254   0.260   0.262   0.270   0.274   0.283   0.290
  0.293   0.296   0.298   0.305   0.309   0.312   0.322   0.325
  0.327   0.331   0.334   0.338   0.343   0.345   0.351   0.354
  0.360   0.363   0.368   0.372   0.374   0.376   0.382   0.385
  0.392   0.392   0.395   0.399   0.402   0.404   0.407   0.410
  0.413   0.417   0.417   0.424   0.431   0.431   0.439   0.443
  0.449   0.451   0.455   0.456   0.458   0.461   0.463   0.465
  0.469   0.471   0.473   0.478   0.482   0.484   0.488   0.492
  0.494   0.500   0.501   0.504   0.509   0.512   0.516   0.521
  0.522   0.527   0.530   0.534   0.539   0.545   0.550   0.550
  0.554   0.567   0.575   0.579   0.582   0.587   0.590   0.596
  0.602   0.606   0.610   0.613   0.623   0.628   0.633   0.639
  0.650   0.652   0.657   0.662   0.665   0.672   0.675   0.682
  0.685   0.692   0.695   0.701   0.704   0.713   0.718   0.725
  0.727   0.730   0.737   0.738   0.741   0.745   0.752   0.754
  0.761   0.767   0.770   0.773   0.778   0.781   0.785   0.793
  0.793   0.800   0.807   0.815   0.817   0.826   0.826   0.834
  0.835   0.842   0.844   0.847   0.852   0.853   0.859   0.864
  0.871   0.874   0.878   0.884   0.896   0.904   0.906   0.912
  0.914   0.921   0.923   0.932   0.934   0.938   0.947   0.948
  0.954   0.960   0.962   0.966   0.974   0.977   0.982   0.988
  0.990   0.995   0.996   1.008   1.015   1.026   1.028   1.036
  1.039   1.045   1.054   1.060   1.062   1.065   1.072   1.081
  1.082   1.088   1.094   1.102   1.106   1.112   1.119   1.125
  1.132   1.136   1.143   1.146   1.153   1.160   1.164   1.174
  1.179   1.189   1.197   1.201   1.208   1.209   1.218   1.220
  1.226   1.235   1.242   1.247   1.261   1.264   1.271   1.282
  1.285   1.289   1.297   1.306   1.307   1.316   1.327   1.334
  1.340   1.352   1.354   1.362   1.366   1.371   1.377   1.388
  1.390   1.394   1.403   1.410   1.414   1.421   1.422   1.433
  1.440   1.446   1.452   1.456   1.462   1.469   1.483   1.490
  1.498   1.504   1.507   1.519   1.522   1.529   1.536   1.542
  1.550   1.556   1.561   1.564   1.578   1.580   1.589   1.599
  1.601   1.607   1.613   1.622   1.628   1.630   1.631   1.645
  1.649   1.656   1.660   1.665   1.672   1.678   1.683   1.688
  1.689   1.694   1.700   1.702   1.704   1.721   1.725   1.739
  1.743   1.749   1.758   1.769   1.776   1.779   1.782   1.792
  1.800   1.806   1.818   1.834   1.840   1.844   1.857   1.862
  1.872   1.880   1.882   1.893   1.898   1.903   1.906   1.921
  1.926   1.935   1.943   1.946   1.954   1.963   1.978   1.982
  1.988   1.999   2.001   2.006   2.010   2.016   2.032   2.037
  2.048   2.061   2.065   2.073   2.076   2.078   2.085   2.099
  2.115   2.123   2.128   2.141   2.148   2.158   2.165   2.175
  2.179   2.185   2.190   2.198   2.204   2.218   2.227   2.230
  2.239   2.247   2.257   2.260   2.266   2.270   2.275   2.279
  2.294   2.299   2.304   2.331   2.346   2.347   2.354   2.365
  2.371   2.376   2.385   2.387   2.390   2.398   2.403   2.404
  2.419   2.427   2.431   2.439   2.442   2.448   2.459   2.467
  2.473   2.475   2.484   2.490   2.495   2.502   2.508   2.518
  2.526   2.531   2.536   2.541   2.548   2.561   2.564   2.569
  2.584   2.596   2.601   2.608   2.618   2.621   2.622   2.629
  2.641   2.645   2.651   2.663   2.668   2.673   2.681   2.692
  2.709   2.722   2.725   2.746   2.750   2.759   2.762   2.771
  2.778   2.786   2.788   2.791   2.795   2.798   2.806   2.815
  2.821   2.826   2.842   2.848   2.852   2.868   2.873   2.883
  2.890   2.895   2.902   2.911   2.918   2.931   2.933   2.940
  2.943   2.946   2.950   2.952   2.959   2.968   2.973   2.977
  2.982   2.993   2.996   3.001   3.009   3.014   3.017   3.025
  3.030   3.032   3.040   3.052   3.055   3.059   3.063   3.070
  3.074   3.077   3.083   3.089   3.092   3.096   3.100   3.104
  3.111   3.121   3.123   3.127   3.132   3.136   3.142   3.144
  3.152   3.156   3.158   3.165   3.169   3.175   3.180   3.181
  3.185   3.191   3.194   3.198   3.203   3.208   3.210   3.212
  3.218   3.221   3.227   3.232   3.234   3.241   3.247   3.251
  3.255   3.259   3.265   3.269   3.272   3.277   3.282   3.289
  3.291   3.298   3.302   3.306   3.314   3.317   3.319   3.323
  3.337   3.344   3.345   3.354   3.356   3.359   3.363   3.372
  3.377   3.382   3.390   3.392   3.398   3.408   3.419   3.425
  3.431   3.441   3.444   3.449   3.455   3.461   3.468   3.472
  3.476   3.481   3.487   3.492   3.496   3.498   3.509   3.517
  3.521   3.524   3.527   3.531   3.547   3.551   3.561   3.568
  3.579   3.581   3.590   3.594   3.601   3.606   3.617   3.634
  3.641   3.648   3.652   3.659   3.674   3.679   3.684   3.690
  3.698   3.703   3.713   3.728   3.733   3.742   3.755   3.760
  3.775   3.777   3.785   3.794   3.804   3.804   3.808   3.812
  3.819   3.829   3.834   3.843   3.851   3.856   3.862   3.867
  3.872   3.883   3.887   3.900   3.906   3.919   3.926   3.927
  3.932   3.942   3.946   3.953   3.957   3.969   3.971   3.977
  3.983   3.987   3.997   4.011   4.024   4.028   4.034   4.039
  4.049   4.056   4.063   4.064   4.088   4.095   4.103   4.117
  4.125   4.129   4.144   4.149   4.151   4.167   4.175   4.179
  4.189   4.195   4.197   4.200   4.204   4.220   4.228   4.238
  4.245   4.262   4.268   4.272   4.289   4.299   4.309   4.314
  4.324   4.329   4.340   4.347   4.354   4.369   4.376   4.387
  4.397   4.403   4.418   4.430   4.433   4.439   4.454   4.462
  4.469   4.478   4.486   4.496   4.506   4.511   4.533   4.541
  4.545   4.556   4.565   4.574   4.580   4.594   4.601   4.606
  4.620   4.629   4.641   4.649   4.660   4.666   4.674   4.682
  4.694   4.723   4.727   4.742   4.762   4.786   4.793   4.808
  4.816   4.821   4.826   4.838   4.844   4.849   4.850   4.858
  4.876   4.884   4.911   4.930   4.936   4.936   4.944   4.947
  4.953   4.960   4.968   4.973   4.986   4.991   5.001   5.011
  5.016   5.025   5.036   5.044   5.049   5.067   5.081   5.090
  5.104   5.110   5.135   5.147   5.161   5.165   5.171   5.193
  5.198   5.222   5.237   5.242   5.247   5.258   5.281   5.286
  5.286   5.313   5.320   5.339   5.344   5.365   5.396   5.409
  5.418   5.431   5.464   5.465   5.467   5.485   5.505   5.522
  5.535   5.544   5.570   5.589   5.603   5.647   5.657   5.665
  5.688   5.701   5.710   5.716   5.734   5.760   5.780   5.816
  5.845   5.858   5.900   5.921   5.943   5.964   6.002   6.092
  6.105   6.137   6.149   6.178   6.184   6.214   6.226   6.298
  6.324   6.347   6.390   6.393   6.470   6.833   7.014   7.863
  8.644   9.695  10.129  10.950  11.097  11.201  11.797  12.013
 12.125  12.521  12.623  12.669  12.826  12.907  13.192  13.269
 13.533  13.574  13.835  13.856  14.273  14.634  14.985
 --------------------------------------------------------------
 
          Ground-State Mulliken Net Atomic Charges

     Atom                 Charge (a.u.)
  ----------------------------------------
      1 C                    -0.068979
      2 C                    -0.102902
      3 N                    -0.154500
      4 C                    -0.156224
      5 C                    -0.094300
      6 C                     0.109108
      7 C                     0.044312
      8 C                    -0.106009
      9 C                     0.030949
     10 N                    -0.141027
     11 N                    -0.282384
     12 C                     0.010775
     13 C                    -0.023876
     14 S                     0.425026
     15 N                    -0.240563
     16 C                     0.033774
     17 S                     0.130191
     18 C                    -0.019752
     19 C                    -0.039286
     20 S                     0.055354
     21 C                     0.033838
     22 C                     0.038051
     23 C                    -0.147705
     24 C                    -0.165552
     25 N                    -0.187952
     26 S                     0.094621
     27 C                    -0.077522
     28 C                    -0.203929
     29 H                     0.124767
     30 H                     0.130901
     31 H                     0.133031
     32 H                     0.131482
     33 H                     0.136949
     34 H                     0.132746
     35 H                     0.144615
     36 H                     0.128733
     37 H                     0.143239
  ----------------------------------------
  Sum of atomic charges =     0.000000

 -----------------------------------------------------------------
                    Cartesian Multipole Moments
 -----------------------------------------------------------------
    Charge (ESU x 10^10)
                 0.0000
    Dipole Moment (Debye)
         X      -0.8596      Y       1.6845      Z       0.7363
       Tot       2.0294
    Quadrupole Moments (Debye-Ang)
        XX    -172.9820     XY       9.5396     YY    -169.3466
        XZ      -4.7888     YZ       0.9920     ZZ    -186.6631
    Octopole Moments (Debye-Ang^2)
       XXX    -227.7417    XXY     154.8423    XYY       0.0151
       YYY     -12.5326    XXZ      -1.2981    XYZ     -43.4457
       YYZ      -0.8729    XZZ      11.2240    YZZ     -12.4242
       ZZZ      49.5530
    Hexadecapole Moments (Debye-Ang^3)
      XXXX  -17795.0221   XXXY     329.0189   XXYY   -3207.1955
      XYYY      23.9682   YYYY   -2686.3452   XXXZ    -350.7321
      XXYZ       4.2145   XYYZ      -6.1719   YYYZ      30.5095
      XXZZ   -3518.4765   XYZZ     -38.3828   YYZZ    -676.8619
      XZZZ      61.1915   YZZZ     -61.9178   ZZZZ   -1357.1300
 -----------------------------------------------------------------
 Calculating analytic gradient of the SCF energy
 K construction time:  CPU 2651.71 s  wall 167.66 s
 Gradient of SCF Energy
            1           2           3           4           5           6
    1  -0.0001176   0.0002119  -0.0000549  -0.0002760   0.0000027   0.0000112
    2  -0.0001520   0.0000950  -0.0000028   0.0001293  -0.0000542  -0.0003215
    3   0.0000126  -0.0000326  -0.0000016   0.0001956  -0.0000409  -0.0000418
            7           8           9          10          11          12
    1   0.0002027  -0.0013117   0.0001910   0.0010407  -0.0014431  -0.0008061
    2  -0.0000584  -0.0005094   0.0010216  -0.0014922  -0.0001620   0.0019888
    3   0.0009284  -0.0005834  -0.0014033  -0.0020138   0.0002011  -0.0015834
           13          14          15          16          17          18
    1   0.0019243   0.0003723   0.0008421  -0.0022909   0.0004095  -0.0002569
    2   0.0020113  -0.0018099  -0.0000648   0.0000896  -0.0017270   0.0012201
    3   0.0022208   0.0023470   0.0000641  -0.0003784   0.0011578  -0.0007901
           19          20          21          22          23          24
    1   0.0003392   0.0000405  -0.0000303  -0.0001986   0.0000414   0.0004684
    2  -0.0001357  -0.0004434   0.0001800  -0.0000073  -0.0003504   0.0002115
    3   0.0000515  -0.0000317  -0.0000017   0.0005873  -0.0000747  -0.0000214
           25          26          27          28          29          30
    1  -0.0000465  -0.0000251   0.0001753   0.0002317   0.0000345  -0.0000382
    2   0.0001494   0.0000994  -0.0001094   0.0000298   0.0000476   0.0000118
    3  -0.0004845  -0.0000883   0.0001127  -0.0000104  -0.0000021   0.0000164
           31          32          33          34          35          36
    1   0.0000733   0.0001952  -0.0000111   0.0000743  -0.0000521   0.0000240
    2   0.0000115   0.0000509   0.0000599   0.0001253  -0.0000585  -0.0000380
    3  -0.0000122  -0.0001212  -0.0000794  -0.0000233  -0.0000209  -0.0000991
           37
    1   0.0000528
    2  -0.0000359
    3   0.0000450
 Max gradient component =       2.347E-03
 RMS gradient           =       7.308E-04
 Gradient time:  CPU 3086.51 s  wall 196.80 s
 Geometry Optimization Parameters
   NAtoms,    NIC,     NZ,  NCons,   NDum,   NFix, NCnnct, MaxDiis
       37     280       0       3       0       0       0       0

 Cartesian Hessian Update
 Hessian Updated using BFGS Update


** CONSTRAINED OPTIMIZATION IN DELOCALIZED INTERNAL COORDINATES **
   Searching for a Minimum

   Optimization Cycle:   3

                       Coordinates (Angstroms)
     ATOM                X               Y               Z
      1  C         7.5093517338    1.1655399620   -0.5712826301
      2  C         6.6769197745    2.2580296960   -0.7492840900
      3  N         7.0612884966   -0.0611578489   -0.3226012661
      4  C         5.3103339052    2.0663629299   -0.6659147596
      5  C         5.7493721368   -0.2336549622   -0.2423644353
      6  C         4.8176186215    0.7912441155   -0.4113932794
      7  C         3.3680950824    0.5355200231   -0.3470805761
      8  C         2.4961660156    1.0916167684   -1.2443253259
      9  C         2.7686140670   -0.2954931356    0.6414107516
     10  N         1.1446025175    0.9302766909   -1.2600564564
     11  N         3.3685068128   -0.9533057622    1.6378299071
     12  C         1.3536427785   -0.4681858844    0.6358076968
     13  C         0.5696353034    0.1854490010   -0.3603488191
     14  S         2.2016996848   -1.7080111674    2.4522293486
     15  N         0.9062545079   -1.2517803870    1.6197614459
     16  C        -0.8916525207   -0.0132716028   -0.3940959563
     17  S        -1.9825540428    1.2138475795    0.1036923284
     18  C        -1.5863482270   -1.1292612715   -0.7512526071
     19  C        -3.3740400364    0.2371167488   -0.1768243062
     20  S        -1.1281501070   -2.7069908484   -1.3295932769
     21  C        -2.9997275818   -1.0030093109   -0.6427916759
     22  C        -4.7200932263    0.7152408529    0.0585438134
     23  C        -2.8148865145   -3.1623376905   -1.4197249139
     24  C        -3.6793985772   -2.2041814964   -1.0426435677
     25  N        -5.7822691533   -0.0042631823   -0.1621062984
     26  S        -5.0633325571    2.3134653622    0.6559751964
     27  C        -6.9167517585    0.6892325295    0.1427493045
     28  C        -6.7390854530    1.9523366881    0.5988138974
     29  H         8.5857253849    1.2800163189   -0.6279531721
     30  H         7.0918235766    3.2375031774   -0.9393191554
     31  H         4.6293424971    2.8992548607   -0.7813341619
     32  H         5.4131311590   -1.2423281623   -0.0377623631
     33  H         2.8807273802    1.7136936676   -2.0430843610
     34  H        -3.0597741432   -4.1544702989   -1.7622561611
     35  H        -4.7514665277   -2.3112497929   -1.0363598618
     36  H        -7.8760377183    0.2122618862    0.0113495701
     37  H        -7.4813334581    2.6730050445    0.8926721641
   Point Group: c1    Number of degrees of freedom:   105


   Energy is  -2595.894259663

              Constraints and their Current Values
                                        Value     Constraint
   Dihedral:        4   6   7   8       42.246       42.246
   Dihedral:       10  13  16  17      -75.000      -75.000
   Dihedral:       17  19  22  25      179.217      179.217
 Hessian Updated using BFGS Update

 88 Hessian modes will be used to form the next step
  Hessian Eigenvalues:
     0.032572    0.045000    0.045000    0.045000    0.045000    0.045000
     0.045000    0.045000    0.045001    0.045001    0.045001    0.045001
     0.045002    0.045005    0.045007    0.045008    0.045011    0.045154
     0.045324    0.158488    0.159967    0.159987    0.159998    0.159999
     0.160000    0.160000    0.160126    0.160162    0.179417    0.220041
     0.224600    0.225900    0.232012    0.233235    0.234468    0.247488
     0.247734    0.249915    0.249960    0.249989    0.249992    0.249998
     0.249999    0.249999    0.260893    0.297867    0.304908    0.313336
[...]
     27  C        -6.9147322650    0.6751774653    0.1706120941
     28  C        -6.7411025341    1.9516672554    0.5893591682
     29  H         8.5929809254    1.2593289241   -0.5876116280
     30  H         7.1182045674    3.2355818520   -0.8673607712
     31  H         4.6513154570    2.9150635855   -0.7364432858
     32  H         5.3939187796   -1.2472934784   -0.0748279730
     33  H         2.8975360669    1.7722051394   -2.0317801226
     34  H        -3.0587686714   -4.1874195467   -1.6611539580
     35  H        -4.7490991523   -2.3316837630   -0.9576674529
     36  H        -7.8716285985    0.1861982982    0.0698975502
     37  H        -7.4849732315    2.6739050034    0.8753685367
   Point Group: c1    Number of degrees of freedom:   105


   Energy is  -2595.894429811

              Constraints and their Current Values
                                        Value     Constraint
   Dihedral:        4   6   7   8       42.246       42.246
   Dihedral:       10  13  16  17      -75.000      -75.000
   Dihedral:       17  19  22  25      179.217      179.217
 Hessian Updated using BFGS Update

102 Hessian modes will be used to form the next step
  Hessian Eigenvalues:
     0.008819    0.018385    0.043023    0.044965    0.045000    0.045000
     0.045000    0.045000    0.045000    0.045000    0.045000    0.045000
     0.045000    0.045000    0.045000    0.045000    0.045000    0.045000
     0.045001    0.045001    0.045001    0.045002    0.045004    0.045005
     0.045007    0.045008    0.045011    0.045088    0.045234    0.045494
     0.048244    0.155098    0.158139    0.159952    0.159990    0.159995
     0.160031    0.160081    0.160563    0.163166    0.166058    0.219978
     0.224712    0.226247    0.230976    0.232043    0.234920    0.235648
     0.247869    0.248429    0.249430    0.249865    0.249953    0.249994
     0.249995    0.252795    0.254618    0.275553    0.297110    0.303268
     0.305499    0.315851    0.318281    0.326443    0.334655    0.348864
     0.355731    0.355814    0.356773    0.356810    0.359247    0.360792
     0.361300    0.363891    0.365017    0.370537    0.385269    0.385942
     0.391172    0.396166    0.402505    0.423566    0.448502    0.455816
     0.459956    0.466386    0.467067    0.474626    0.482627    0.483715
     0.493901    0.497517    0.503463    0.525077    0.530370    0.538384
     0.559954    0.576533    0.591298    0.624473    0.639379    0.665627

 Minimum Search - Taking Simple RFO Step
 Searching for Lamda that Minimizes Along All modes
 Value Taken    Lamda =   0.00000000
 Step Taken.  Stepsize is  0.003072

                             Maximum     Tolerance    Cnvgd?
         Gradient           0.000075      0.000300     YES
         Displacement       0.001331      0.001200      NO
         Energy change      0.000000      0.000001     YES

 Final energy is   -2595.89442981092     


 ******************************
 **  OPTIMIZATION CONVERGED  **
 ******************************

                       Coordinates (Angstroms)
     ATOM                X               Y               Z
      1  C         7.5153167902    1.1529336231   -0.5420606636
      2  C         6.6931173135    2.2557971713   -0.7029261267
      3  N         7.0551515989   -0.0749882153   -0.3229130359
      4  C         5.3245022134    2.0739869938   -0.6346729845
      5  C         5.7412050020   -0.2378511518   -0.2565429085
      6  C         4.8191971581    0.7979650484   -0.4120033144
      7  C         3.3675054662    0.5507581522   -0.3626140662
      8  C         2.5054707472    1.1317926870   -1.2515719314
      9  C         2.7568714243   -0.3004503801    0.6029738027
     10  N         1.1535021143    0.9694700728   -1.2850458341
     11  N         3.3497520701   -0.9794811043    1.5881956945
     12  C         1.3406420173   -0.4683011258    0.5842134904
     13  C         0.5656626492    0.2105267793   -0.4057914405
     14  S         2.1723464959   -1.7427707659    2.3786434730
     15  N         0.8824421655   -1.2668366475    1.5493875855
     16  C        -0.8915159158    0.0104769757   -0.4697083695
     17  S        -1.9845337379    1.2403393973    0.0294283818
     18  C        -1.5851815579   -1.1235650772   -0.7720087094
     19  C        -3.3731249945    0.2455357741   -0.1980739850
     20  S        -1.1293045347   -2.7144614543   -1.3119808281
     21  C        -2.9975538662   -1.0034602697   -0.6392175611
     22  C        -4.7196155239    0.7183177990    0.0465274889
     23  C        -2.8146938162   -3.1829171443   -1.3553636897
     24  C        -3.6781462368   -2.2195254186   -0.9900217546
     25  N        -5.7790338670   -0.0162836952   -0.1348168802
     26  S        -5.0676826853    2.3283223391    0.6086539564
     27  C        -6.9147322650    0.6751774653    0.1706120941
     28  C        -6.7411025341    1.9516672554    0.5893591682
     29  H         8.5929809254    1.2593289241   -0.5876116280
     30  H         7.1182045674    3.2355818520   -0.8673607712
     31  H         4.6513154570    2.9150635855   -0.7364432858
     32  H         5.3939187796   -1.2472934784   -0.0748279730
     33  H         2.8975360669    1.7722051394   -2.0317801226
     34  H        -3.0587686714   -4.1874195467   -1.6611539580
     35  H        -4.7490991523   -2.3316837630   -0.9576674529
     36  H        -7.8716285985    0.1861982982    0.0698975502
     37  H        -7.4849732315    2.6739050034    0.8753685367

Z-matrix Print:
$molecule
0 1
S 
C  1 1.719415
C  2 1.363308 1 109.628197
C  3 1.423676 2 114.450875 1 -1.556918 0
C  4 1.376827 3 112.149806 2 1.324646 0
C  4 1.437040 3 112.066792 2 -179.082971 0
H  6 1.077296 4 123.476082 3 179.868978 0
C  6 1.344302 4 111.628793 3 -0.244154 0
H  8 1.078010 6 126.830255 4 -179.759591 0
C  5 1.447891 4 127.158313 3 -179.931123 0
N  10 1.301880 5 123.297656 4 0.219192 0
C  11 1.364264 10 111.115565 5 -179.989348 0
H  12 1.079303 11 119.178761 10 179.764539 0
C  12 1.354593 11 116.111464 10 -0.075268 0
H  14 1.075534 12 128.781385 11 -179.693571 0
C  2 1.472235 1 121.291626 3 174.184417 0
N  16 1.301783 2 119.791351 1 75.000032 0
C  17 1.362090 16 120.072025 2 178.356406 0
H  18 1.082852 17 114.339955 16 -179.313431 0
C  18 1.367827 17 126.220064 16 -0.668235 0
C  20 1.424707 18 115.096783 17 -0.143185 0
N  21 1.335385 20 127.846008 18 179.301531 0
C  21 1.426265 20 119.142639 18 0.673295 0
N  23 1.333854 21 113.705481 20 178.809430 0
C  20 1.473418 18 121.861954 17 179.800430 0
C  25 1.390377 20 121.159242 18 -42.245700 0
H  26 1.082103 25 120.152405 20 -2.435703 0
C  26 1.382324 25 119.238162 20 178.570361 0
H  28 1.080609 26 121.080561 25 179.536694 0
C  28 1.384990 26 118.508857 25 0.180090 0
H  30 1.083861 28 120.477997 26 179.874836 0
N  30 1.329500 28 123.307297 26 0.095283 0
C  32 1.325664 30 117.695966 28 0.040136 0
H  33 1.082867 32 116.154947 30 179.855732 0
S  24 1.605625 23 105.974075 21 0.189823 0
S  14 1.715394 12 109.598846 11 -0.019629 0
S  3 1.740789 2 134.086183 1 179.272063 0
$end

 
 --------------------------------------------------------------
 
                    Orbital Energies (a.u.)
 --------------------------------------------------------------
 
 Alpha MOs
 -- Occupied --
-89.159 -89.093 -89.089 -89.076 -14.495 -14.491 -14.460 -14.441
-14.439 -10.372 -10.371 -10.366 -10.361 -10.343 -10.341 -10.339
-10.335 -10.333 -10.331 -10.330 -10.327 -10.325 -10.324 -10.322
-10.319 -10.313 -10.306 -10.297  -8.169  -8.108  -8.105  -8.091
 -6.119  -6.113  -6.113  -6.057  -6.054  -6.053  -6.051  -6.050
 -6.048  -6.040  -6.037  -6.032  -1.155  -1.080  -1.076  -1.058
 -1.024  -1.017  -0.958  -0.949  -0.914  -0.909  -0.906  -0.886
 -0.863  -0.845  -0.829  -0.807  -0.776  -0.756  -0.747  -0.733
 -0.721  -0.696  -0.687  -0.679  -0.648  -0.641  -0.627  -0.624
 -0.610  -0.602  -0.587  -0.578  -0.571  -0.568  -0.542  -0.531
 -0.528  -0.523  -0.519  -0.514  -0.510  -0.506  -0.501  -0.499
 -0.484  -0.482  -0.475  -0.467  -0.455  -0.443  -0.435  -0.435
 -0.431  -0.424  -0.410  -0.390  -0.386  -0.374  -0.369  -0.368
 -0.366  -0.362  -0.346  -0.336  -0.324  -0.322  -0.273
 -- Virtual --
 -0.051  -0.013   0.022   0.035   0.041   0.058   0.065   0.069
  0.075   0.085   0.089   0.110   0.114   0.119   0.129   0.133
  0.142   0.145   0.150   0.165   0.167   0.169   0.171   0.171
  0.187   0.193   0.197   0.211   0.215   0.227   0.229   0.246
  0.249   0.254   0.260   0.261   0.270   0.274   0.283   0.290
  0.292   0.296   0.298   0.305   0.309   0.311   0.322   0.325
  0.327   0.331   0.334   0.338   0.343   0.345   0.352   0.354
  0.361   0.363   0.368   0.372   0.375   0.376   0.382   0.386
  0.391   0.392   0.396   0.399   0.402   0.405   0.407   0.410
  0.413   0.417   0.418   0.424   0.430   0.432   0.439   0.443
  0.448   0.449   0.455   0.456   0.457   0.461   0.463   0.465
  0.469   0.471   0.473   0.478   0.482   0.484   0.488   0.492
  0.493   0.499   0.501   0.503   0.509   0.512   0.516   0.521
  0.522   0.526   0.529   0.534   0.539   0.545   0.550   0.551
  0.554   0.567   0.575   0.579   0.582   0.588   0.591   0.596
  0.602   0.607   0.609   0.613   0.622   0.629   0.633   0.639
  0.649   0.652   0.656   0.663   0.665   0.672   0.675   0.682
  0.685   0.691   0.696   0.701   0.706   0.713   0.719   0.725
  0.727   0.730   0.736   0.739   0.741   0.745   0.752   0.753
  0.760   0.768   0.770   0.773   0.778   0.780   0.785   0.791
  0.793   0.799   0.807   0.814   0.817   0.825   0.827   0.834
  0.835   0.843   0.845   0.847   0.851   0.853   0.861   0.865
  0.869   0.875   0.877   0.885   0.895   0.904   0.907   0.911
  0.915   0.922   0.923   0.932   0.935   0.939   0.947   0.948
  0.954   0.958   0.963   0.967   0.973   0.977   0.983   0.987
  0.990   0.995   0.997   1.009   1.016   1.026   1.028   1.035
  1.039   1.046   1.053   1.061   1.062   1.066   1.073   1.081
  1.082   1.087   1.094   1.101   1.106   1.113   1.121   1.124
  1.132   1.136   1.143   1.146   1.155   1.161   1.163   1.174
  1.179   1.190   1.197   1.201   1.207   1.209   1.218   1.224
  1.227   1.234   1.243   1.247   1.259   1.265   1.270   1.282
  1.285   1.289   1.297   1.305   1.307   1.317   1.326   1.334
  1.338   1.352   1.354   1.362   1.366   1.372   1.377   1.387
  1.391   1.393   1.403   1.409   1.414   1.420   1.422   1.432
  1.440   1.445   1.451   1.456   1.461   1.470   1.483   1.489
  1.499   1.505   1.506   1.516   1.522   1.529   1.535   1.538
  1.549   1.555   1.560   1.563   1.578   1.579   1.586   1.593
  1.601   1.607   1.612   1.622   1.626   1.627   1.633   1.645
  1.651   1.656   1.660   1.665   1.672   1.678   1.683   1.688
  1.690   1.694   1.701   1.702   1.706   1.719   1.725   1.739
  1.743   1.749   1.758   1.768   1.776   1.778   1.783   1.793
  1.800   1.806   1.817   1.832   1.842   1.847   1.857   1.862
  1.873   1.881   1.881   1.892   1.898   1.904   1.907   1.922
  1.926   1.935   1.942   1.947   1.953   1.961   1.980   1.982
  1.988   2.000   2.002   2.006   2.010   2.016   2.032   2.036
  2.048   2.061   2.066   2.073   2.076   2.077   2.083   2.099
  2.115   2.123   2.128   2.141   2.146   2.160   2.163   2.175
  2.179   2.183   2.191   2.199   2.202   2.218   2.226   2.230
  2.239   2.247   2.257   2.259   2.267   2.269   2.274   2.279
  2.292   2.300   2.305   2.331   2.346   2.349   2.355   2.367
  2.371   2.377   2.385   2.387   2.391   2.399   2.401   2.405
  2.418   2.427   2.433   2.438   2.444   2.447   2.459   2.466
  2.473   2.476   2.484   2.488   2.494   2.502   2.508   2.519
  2.524   2.530   2.538   2.540   2.548   2.561   2.564   2.570
  2.585   2.595   2.601   2.608   2.618   2.621   2.622   2.632
  2.640   2.641   2.651   2.663   2.667   2.673   2.682   2.692
  2.708   2.722   2.726   2.747   2.750   2.759   2.762   2.771
  2.777   2.784   2.787   2.791   2.795   2.797   2.805   2.815
  2.820   2.826   2.842   2.848   2.851   2.869   2.873   2.882
  2.890   2.894   2.902   2.910   2.918   2.930   2.932   2.940
  2.943   2.946   2.949   2.952   2.959   2.968   2.972   2.978
  2.982   2.993   2.995   3.002   3.009   3.014   3.017   3.025
  3.029   3.031   3.042   3.051   3.055   3.058   3.063   3.069
  3.073   3.078   3.083   3.089   3.091   3.095   3.101   3.103
  3.110   3.120   3.123   3.128   3.131   3.136   3.143   3.147
  3.153   3.157   3.158   3.164   3.168   3.174   3.179   3.181
  3.185   3.190   3.195   3.198   3.203   3.208   3.212   3.213
  3.216   3.220   3.226   3.232   3.234   3.241   3.248   3.252
  3.255   3.258   3.264   3.270   3.272   3.278   3.283   3.288
  3.294   3.298   3.302   3.305   3.313   3.316   3.320   3.324
  3.337   3.344   3.346   3.352   3.356   3.358   3.363   3.373
  3.376   3.381   3.391   3.393   3.397   3.406   3.418   3.425
  3.430   3.441   3.445   3.449   3.456   3.462   3.468   3.471
  3.477   3.479   3.488   3.492   3.493   3.498   3.510   3.517
  3.520   3.524   3.527   3.530   3.546   3.551   3.560   3.568
  3.578   3.581   3.590   3.594   3.600   3.605   3.618   3.634
  3.641   3.648   3.652   3.658   3.674   3.678   3.684   3.690
  3.697   3.703   3.711   3.725   3.733   3.741   3.755   3.759
  3.774   3.777   3.784   3.795   3.803   3.803   3.808   3.812
  3.818   3.830   3.833   3.842   3.852   3.856   3.861   3.868
  3.871   3.880   3.887   3.900   3.906   3.919   3.925   3.927
  3.933   3.942   3.946   3.954   3.958   3.969   3.971   3.979
  3.984   3.986   3.997   4.010   4.020   4.026   4.033   4.042
  4.049   4.058   4.063   4.065   4.087   4.095   4.104   4.117
  4.125   4.131   4.144   4.148   4.150   4.167   4.175   4.180
  4.189   4.194   4.197   4.201   4.204   4.219   4.228   4.238
  4.244   4.261   4.268   4.270   4.289   4.296   4.307   4.313
  4.325   4.330   4.339   4.350   4.354   4.368   4.375   4.387
  4.398   4.405   4.417   4.430   4.433   4.440   4.453   4.462
  4.470   4.478   4.485   4.494   4.507   4.513   4.534   4.539
  4.544   4.556   4.565   4.576   4.580   4.591   4.601   4.607
  4.619   4.631   4.639   4.649   4.659   4.666   4.674   4.681
  4.694   4.722   4.724   4.742   4.761   4.785   4.791   4.808
  4.815   4.820   4.824   4.839   4.843   4.849   4.849   4.859
  4.875   4.884   4.910   4.930   4.936   4.937   4.942   4.948
  4.950   4.961   4.968   4.975   4.984   4.991   5.002   5.010
  5.016   5.025   5.035   5.044   5.048   5.067   5.082   5.090
  5.103   5.110   5.134   5.146   5.160   5.165   5.172   5.192
  5.199   5.223   5.236   5.242   5.247   5.259   5.281   5.285
  5.286   5.313   5.320   5.339   5.345   5.363   5.394   5.409
  5.418   5.432   5.464   5.465   5.467   5.484   5.504   5.523
  5.535   5.542   5.571   5.585   5.602   5.648   5.658   5.664
  5.688   5.701   5.708   5.715   5.737   5.757   5.782   5.816
  5.845   5.860   5.901   5.918   5.943   5.963   6.003   6.089
  6.108   6.138   6.149   6.178   6.184   6.212   6.226   6.298
  6.324   6.347   6.389   6.393   6.470   6.834   7.015   7.853
  8.642   9.695  10.129  10.940  11.102  11.203  11.784  12.008
 12.125  12.519  12.615  12.661  12.822  12.905  13.192  13.270
 13.534  13.566  13.833  13.864  14.269  14.626  14.986
 --------------------------------------------------------------
 
          Ground-State Mulliken Net Atomic Charges

     Atom                 Charge (a.u.)
  ----------------------------------------
      1 C                    -0.068973
      2 C                    -0.102936
      3 N                    -0.154569
      4 C                    -0.156013
      5 C                    -0.094584
      6 C                     0.109141
      7 C                     0.046747
      8 C                    -0.106608
      9 C                     0.030492
     10 N                    -0.141759
     11 N                    -0.281370
     12 C                     0.006420
     13 C                    -0.023748
     14 S                     0.423389
     15 N                    -0.239033
     16 C                     0.041389
     17 S                     0.128490
     18 C                    -0.027852
     19 C                    -0.039857
     20 S                     0.056116
     21 C                     0.037018
     22 C                     0.039487
     23 C                    -0.147564
     24 C                    -0.165506
     25 N                    -0.188199
     26 S                     0.094926
     27 C                    -0.077303
     28 C                    -0.203457
     29 H                     0.124809
     30 H                     0.130721
     31 H                     0.132836
     32 H                     0.131387
     33 H                     0.136704
     34 H                     0.132558
     35 H                     0.144890
     36 H                     0.128548
     37 H                     0.143263
  ----------------------------------------
  Sum of atomic charges =     0.000000

 -----------------------------------------------------------------
                    Cartesian Multipole Moments
 -----------------------------------------------------------------
    Charge (ESU x 10^10)
                 0.0000
    Dipole Moment (Debye)
         X      -0.9179      Y       1.6676      Z       0.8030
       Tot       2.0659
    Quadrupole Moments (Debye-Ang)
        XX    -172.5656     XY       9.7803     YY    -169.1403
        XZ      -4.8099     YZ       0.9825     ZZ    -187.2305
    Octopole Moments (Debye-Ang^2)
       XXX    -224.7902    XXY     156.0239    XYY      -0.2428
       YYY     -14.0711    XXZ       5.2012    XYZ     -40.9697
       YYZ       3.3275    XZZ      11.2715    YZZ     -11.8835
       ZZZ      58.1492
    Hexadecapole Moments (Debye-Ang^3)
      XXXX  -17748.4856   XXXY     339.8738   XXYY   -3209.6121
      XYYY      28.1417   YYYY   -2715.8192   XXXZ    -338.8300
      XXYZ       9.9917   XYYZ      -5.1916   YYYZ      37.7645
      XXZZ   -3517.3005   XYZZ     -41.3639   YYZZ    -680.0983
      XZZZ      60.5950   YZZZ     -52.0098   ZZZZ   -1302.3745
 -----------------------------------------------------------------
Archival summary:
1\1\mn250\OPT\ProcedureUnspecified\BasisUnspecified\45199\afmv_a\ThuJun123:33:052017ThuJun123:33:052017\0\\#,OPT,ProcedureUnspecified,BasisUnspecified,\\0,1\S\C,1,1.71941\C,2,1.36331,1,109.628\C,3,1.42368,2,114.451,1,-1.55692,0\C,4,1.37683,3,112.15,2,1.32465,0\C,4,1.43704,3,112.067,2,-179.083,0\H,6,1.0773,4,123.476,3,179.869,0\C,6,1.3443,4,111.629,3,-0.244154,0\H,8,1.07801,6,126.83,4,-179.76,0\C,5,1.44789,4,127.158,3,-179.931,0\N,10,1.30188,5,123.298,4,0.219192,0\C,11,1.36426,10,111.116,5,-179.989,0\H,12,1.0793,11,119.179,10,179.765,0\C,12,1.35459,11,116.111,10,-0.0752677,0\H,14,1.07553,12,128.781,11,-179.694,0\C,2,1.47223,1,121.292,3,174.184,0\N,16,1.30178,2,119.791,1,75,0\C,17,1.36209,16,120.072,2,178.356,0\H,18,1.08285,17,114.34,16,-179.313,0\C,18,1.36783,17,126.22,16,-0.668235,0\C,20,1.42471,18,115.097,17,-0.143185,0\N,21,1.33538,20,127.846,18,179.302,0\C,21,1.42626,20,119.143,18,0.673295,0\N,23,1.33385,21,113.705,20,178.809,0\C,20,1.47342,18,121.862,17,179.8,0\C,25,1.39038,20,121.159,18,-42.2457,0\H,26,1.0821,25,120.152,20,-2.4357,0\C,26,1.38232,25,119.238,20,178.57,0\H,28,1.08061,26,121.081,25,179.537,0\C,28,1.38499,26,118.509,25,0.18009,0\H,30,1.08386,28,120.478,26,179.875,0\N,30,1.3295,28,123.307,26,0.095283,0\C,32,1.32566,30,117.696,28,0.0401363,0\H,33,1.08287,32,116.155,30,179.856,0\S,24,1.60563,23,105.974,21,0.189823,0\S,14,1.71539,12,109.599,11,-0.0196293,0\S,3,1.74079,2,134.086,1,179.272,0\\\@

 Total job time:  7799.22s(wall), 117827.18s(cpu) 
 Thu Jun  1 23:33:05 2017

        *************************************************************
        *                                                           *
        *  Thank you very much for using Q-Chem.  Have a nice day.  *
        *                                                           *
        *************************************************************


0 sent ACK to 0 
now end server 0 ... 
cleanup process ... done
