
Running Job 1 of 1 C271_2/C271_165.qcin
qchem C271_2/C271_165.qcin_34339.0 /tmpu/cab_g/afmv_a/scratch_qchem/qchem34339/ 1
/tmpu/appuserlic/qchem4.4/parallel-MPICH/bin/mpi/mpirun_qchem -machinefile /tmpu/appuserlic/qchem4.4/parallel-MPICH/bin/mpi/machines -np 1 /tmpu/appuserlic/qchem4.4/parallel-MPICH/exe/qcprog.exe C271_2/C271_165.qcin_34339.0 /tmpu/cab_g/afmv_a/scratch_qchem/qchem34339/

Process 0 of 1 is on mn250 - thread support 0
initial socket setup ...start
initial socket setup ...done 
now start server 0 ... 
Check license passed

                  Welcome to Q-Chem
     A Quantum Leap Into The Future Of Chemistry


 Q-Chem 4.4, Q-Chem, Inc., Pleasanton, CA (2016)

 Y. Shao,  Z. Gan,  E. Epifanovsky,  A. T. B. Gilbert,  M. Wormit,  
 J. Kussmann,  A. W. Lange,  A. Behn,  J. Deng,  X. Feng,  D. Ghosh,  
 M. Goldey,  P. R. Horn,  L. D. Jacobson,  I. Kaliman,  F. Rob,  
 R. Z. Khaliullin,  T. Kus,  A. Landau,  J. Liu,  E. I. Proynov,  Y. M. Rhee,  
 R. M. Richard,  M. A. Rohrdanz,  R. P. Steele,  E. J. Sundstrom,  
 H. L. Woodcock III,  P. M. Zimmerman,  D. Zuev,  B. Albrecht,  E. Alguire,  
 B. Austin,  S. A. Baeppler,  G. J. O. Beran,  Y. A. Bernard,  E. Berquist,  
 K. Brandhorst,  K. B. Bravaya,  S. T. Brown,  D. Casanova,  C.-M. Chang,  
 Y. Chen,  S. H. Chien,  K. D. Closser,  M. P. Coons,  D. L. Crittenden,  
 S. Dasgupta,  M. Diedenhofen,  R. A. DiStasio Jr.,  H. Do,  A. D. Dutoi,  
 R. G. Edgar,  P.-T. Fang,  S. Fatehi,  Q. Feng,  L. Fusti-Molnar,  
 A. Ghysels,  A. Golubeva-Zadorozhnaya,  J. Gomes,  A. Gunina,  
 M. W. D. Hanson-Heine,  P. H. P. Harbach,  A. W. Hauser,  J. E. Herr,  
 E. G. Hohenstein,  Z. C. Holden,  K. Hui,  T.-C. Jagau,  H. Ji,  B. Kaduk,  
 K. Khistyaev,  Jaehoon Kim,  Jihan Kim,  R. A. King,  P. Klunzinger,  
 K. Koh,  D. Kosenkov,  T. Kowalczyk,  C. M. Krauter,  A. Kunitsa,  
 K. U. Lao,  A. Laurent,  K. V. Lawler,  J. Lee,  D. Lefrancois,  S. Lehtola,  
 S. V. Levchenko,  C. Y. Lin,  Y.-S. Lin,  F. Liu,  E. Livshits,  
 R. C. Lochan,  A. Luenser,  P. Manohar,  S. F. Manzer,  S.-P. Mao,  Y. Mao,  
 N. Mardirossian,  A. V. Marenich,  L. A. Martinez-Martinez,  S. A. Maurer,  
 N. J. Mayhall,  J.-M. Mewes,  A. F. Morrison,  K. Nanda,  T. S. Nguyen-Beck,  
 C. M. Oana,  R. Olivares-Amaya,  D. P. O'Neill,  J. A. Parkhill,  
 T. M. Perrine,  R. Peverati,  P. A. Pieniazek,  F. Plasser,  A. Prociuk,  
 D. R. Rehn,  E. Rosta,  N. J. Russ,  N. Sergueev,  S. M. Sharada,  
 S. Sharma,  D. W. Small,  A. Sodt,  T. Stauch,  T. Stein,  D. Stuck,  
 Y.-C. Su,  A. J. W. Thom,  T. Tsuchimochi,  L. Vogt,  O. Vydrov,  T. Wang,  
 M. A. Watson,  J. Wenzel,  A. White,  C. F. Williams,  V. Vanovschi,  
 K. Yao,  S. Yeganeh,  S. R. Yost,  Z.-Q. You,  I. Y. Zhang,  X. Zhang,  
 Y. Zhao,  B. R. Brooks,  G. K. L. Chan,  D. M. Chipman,  C. J. Cramer,  
 W. A. Goddard III,  M. S. Gordon,  W. J. Hehre,  A. Klamt,  
 H. F. Schaefer III,  M. W. Schmidt,  C. D. Sherrill,  D. G. Truhlar,  
 A. Warshel,  X. Xu,  A. Aspuru-Guzik,  R. Baer,  A. T. Bell,  N. A. Besley,  
 J.-D. Chai,  A. Dreuw,  B. D. Dunietz,  T. R. Furlani,  S. R. Gwaltney,  
 C.-P. Hsu,  Y. Jung,  J. Kong,  D. S. Lambrecht,  W. Liang,  C. Ochsenfeld,  
 V. A. Rassolov,  L. V. Slipchenko,  J. E. Subotnik,  T. Van Voorhis,  
 J. M. Herbert,  A. I. Krylov,  P. M. W. Gill,  M. Head-Gordon

 Contributors to earlier versions of Q-Chem not listed above: 
 R. D. Adamson,  J. Baker,  E. F. C. Byrd,  A. K. Chakraborty,  C.-L. Cheng,  
 H. Dachsel,  R. J. Doerksen,  G. Hawkins,  A. Heyden,  S. Hirata,  
 G. Kedziora,  F. J. Keil,  C. Kelley,  P. P. Korambath,  W. Kurlancheek,  
 A. M. Lee,  M. S. Lee,  D. Liotard,  I. Lotan,  P. E. Maslen,  N. Nair,  
 D. Neuhauser,  R. Olson,  B. Peters,  J. Ritchie,  N. E. Schultz,  
 N. Shenvi,  A. C. Simmonett,  K. S. Thanthiriwatte,  Q. Wu,  W. Zhang

 Please cite Q-Chem as follows:
 Y. Shao et al., Mol. Phys. 113, 184-215 (2015)
 DOI: 10.1080/00268976.2014.952696

 Q-Chem 4.4.2 for Intel X86 Linux

 Parts of Q-Chem use Armadillo 5.200.1 (Boston Tea Smuggler).
 http://arma.sourceforge.net/

 Q-Chem begins on Sat Jun  3 10:33:55 2017  

Host: 
0

     Scratch files written to /tmpu/cab_g/afmv_a/scratch_qchem/qchem34339//
 Dec716 11556_ 22328  22283 4050   
 Parallel job on  1  processors
Processing $rem in /tmpu/appuserlic/qchem4.4/parallel-MPICH/config/preferences.
 MEM_TOTAL  2000 
FILE_GEOM_ORG=        593

Checking the input file for inconsistencies... 	...done.

--------------------------------------------------------------
User input:
--------------------------------------------------------------
$comment
OPTIMIZATION
$end

$rem
JOBTYPE OPT
EXCHANGE omegaB97X-D
BASIS cc-pVTZ
$end

$molecule
0 1
C          0.00000        0.00000        0.00000
C          1.38508        0.00000        0.00000
N         -0.72771       -1.11322        0.00000
C          2.04720       -1.21160       -0.00386
C         -0.08136       -2.27149       -0.00595
C          1.30925       -2.38901       -0.00649
C          1.96927       -3.70493        0.02329
C          3.04486       -3.95576        0.82999
C          1.55200       -4.80802       -0.77739
N          3.72631       -5.12438        0.91627
N          0.54624       -4.84522       -1.65350
C          2.26335       -6.04410       -0.69858
C          3.37925       -6.16090        0.19241
S          0.53898       -6.32692       -2.28381
N          1.78433       -6.98642       -1.50573
C          4.16725       -7.35995        0.35676
S          3.72176       -8.94425       -0.17926
C          5.39950       -7.41625        0.96635
C          5.17359       -9.65481        0.41156
S          6.41742       -6.22951        1.70847
C          5.98269       -8.70817        1.00463
C          5.45076      -11.06801        0.26247
C          7.60261       -7.46977        2.05873
C          7.26763       -8.70629        1.64969
N          6.54623      -11.62936        0.68703
S          4.34478      -12.17371       -0.50554
C          6.55248      -12.96460        0.41270
C          5.45794      -13.44715       -0.22455
H         -0.55134        0.93273        0.00000
H          1.92494        0.93597       -0.01293
H          3.12873       -1.25416       -0.02668
H         -0.69553       -3.16348       -0.00579
H          3.41622       -3.17720        1.48423
H          8.51413       -7.18776        2.56252
H          7.86803       -9.59177        1.77140
H          7.40092      -13.56487        0.70381
H          5.25201      -14.45593       -0.53665
$end

$opt
CONSTRAINT
tors 4 6 7 8 42.24575
tors 10 13 16 17 165.00000
tors 17 19 22 25 179.21698
ENDCONSTRAINT
$end
--------------------------------------------------------------
 ----------------------------------------------------------------
             Standard Nuclear Orientation (Angstroms)
    I     Atom           X                Y                Z
 ----------------------------------------------------------------
    1      C       7.6044479848     0.3826659210    -0.2865132606
    2      C       6.9407064983     1.3835451597     0.4035118078
    3      N       6.9789260477    -0.6291615349    -0.8812805412
    4      C       5.5633261145     1.3310130043     0.4838610769
    5      C       5.6559145693    -0.6709284019    -0.7959032913
    6      C       4.8867102093     0.2823544081    -0.1271851512
    7      C       3.4167944848     0.2007938468    -0.0979561753
    8      C       2.6280127297     1.3008915271    -0.2933605345
    9      C       2.7048046461    -1.0114160796     0.1378993468
   10      N       1.2729683173     1.3294018497    -0.2702770494
   11      N       3.2126827207    -2.2239934160     0.3664202744
   12      C       1.2768920684    -0.9947527027     0.1680921818
   13      C       0.5804662744     0.2381601970    -0.0502083570
   14      S       1.9614988226    -3.2138936720     0.5841692814
   15      N       0.7356246822    -2.1848680060     0.4121689050
   16      C      -0.8574787703     0.3722234511    -0.0460952734
   17      S      -1.9947431039    -0.9286022880    -0.1474239589
   18      C      -1.5379344290     1.5648042907     0.0430156582
   19      C      -3.3517533402     0.1269747041    -0.0696128603
   20      S      -1.0366658052     3.2161840967     0.1731292674
   21      C      -2.9505959750     1.4427580477     0.0318222699
   22      C      -4.7114033021    -0.3695735979    -0.1008705316
   23      C      -2.7134192682     3.7189130805     0.2100570947
   24      C      -3.6077512870     2.7178223307     0.1294681174
   25      N      -5.7559651365     0.4045207942    -0.0295404318
   26      S      -5.0978221128    -2.0630850738    -0.2361590910
   27      C      -6.9092028367    -0.3208887986    -0.0741004860
   28      C      -6.7644734330    -1.6640166942    -0.1837395868
   29      H       8.6849432188     0.3914405109    -0.3666013643
   30      H       7.5019882908     2.1753214044     0.8786001925
   31      H       5.0093242464     2.0817324422     1.0329890242
   32      H       5.1695844810    -1.5040470084    -1.2880896456
   33      H       3.0877595318     2.2597673075    -0.4965452200
   34      H      -2.9370425129     4.7707134270     0.2990030902
   35      H      -4.6785272409     2.8303579010     0.1414228899
   36      H      -7.8605415950     0.1861836507    -0.0216444402
   37      H      -7.5278072782    -2.4204786135    -0.2341128807
 ----------------------------------------------------------------
 Molecular Point Group                 C1    NOp =  1
 Largest Abelian Subgroup              C1    NOp =  1
 Nuclear Repulsion Energy =  2965.7016475484 hartrees
 There are      111 alpha and      111 beta electrons
 Requested basis set is cc-pVTZ
 There are 342 shells and 982 basis functions

 Total QAlloc Memory Limit   2000 MB
 Mega-Array Size        61 MB
 MEM_STATIC part        62 MB
 A cutoff of  1.0D-11 yielded  29216 shell pairs
 There are    231720 function pairs (    302714 Cartesian)
 
 -------------------------------------------------------
 OpenMP Integral Computing Module                       
 Release: version 1.0, May 2013, Q-Chem Inc. Pittsburgh 
 -------------------------------------------------------
 Integral Job Info:
 Integral job number is                      11
 Integral operator is                         1
 short-range coefficients              22203600
 long-range coefficients              100000000
 Omega coefficients                         200
 if combine SR and LR in K                    1
 Integral screening is                        0
 Integral computing path is                   2
 max size of driver memory is            800000
 size of driver memory is                776718
 size of scratch memory is             26248924
 max col of scratch BK array              10000
 max len of scratch array in speh3          662
 max len of scratch index in speh4           32
 max int batch size is                      520
 min int batch size is                       52
 fixed nKL is                                52
 max L of basis functions is                  3
 order of int derivative is                   0
 number of shells is                        342
 number of basis is                        1131
 number of cartesian basis is              1131
 number of contracted shell pairs         29216
 number of primitive shell pairs          92357
 maxK2 (contraction) of shell pair          121
 max number of K2 of shell pair               1
 max number of CS2 of shell pair           3966
 max number of PS2 of shell pair          11718
 mem total for path MDJ                  808052
 -------------------------------------------------------
 Smallest overlap matrix eigenvalue = 2.30E-05

 Scale SEOQF with 1.000000e-02/1.000000e-01/1.000000e+00

 Standard Electronic Orientation quadrupole field applied
 Nucleus-field energy     =     0.0000000393 hartrees
 Guess from superposition of atomic densities
 Warning:  Energy on first SCF cycle will be non-variational
 Long-range K will be added via erf
 Coulomb attenuation parameter = 0.2 bohr**(-1)
 A restricted hybrid HF-DFT SCF calculation will be
 performed using Pulay DIIS extrapolation
 Exchange:     0.2220 Hartree-Fock + 1.0000 wB97X-D + LR-HF
 Correlation:  1.0000 wB97X-D
 Using SG-2 standard quadrature grid
 Dispersion:   Grimme D
 SCF converges when DIIS error is below 1.0E-08
 using 16 threads for integral computing 
 using 16 threads for integral computing 
 K construction time:  CPU 72.46 s  wall 4.70 s
 -------------------------------------------------------
 OpenMP BLAS3 based DFT computing Module                
 Release: version 1.0, May 2013, Q-Chem Inc. Pittsburgh 
 -------------------------------------------------------
 ---------------------------------------
  Cycle       Energy         DIIS Error
 ---------------------------------------
    1   -2605.8967040830      1.87E-02
 K construction time:  CPU 1089.25 s  wall 71.11 s
    2   -2595.6593569312      1.38E-03
 K construction time:  CPU 1031.25 s  wall 67.41 s
    3   -2595.6533582150      1.51E-03
 K construction time:  CPU 991.35 s  wall 64.64 s
    4   -2595.8967585326      2.53E-04
 K construction time:  CPU 917.24 s  wall 59.86 s
    5   -2595.9027734002      1.40E-04
 K construction time:  CPU 872.25 s  wall 56.85 s
    6   -2595.9048769754      4.43E-05
 K construction time:  CPU 820.09 s  wall 53.44 s
    7   -2595.9050935705      2.05E-05
 K construction time:  CPU 768.68 s  wall 50.10 s
    8   -2595.9051521229      6.35E-06
 K construction time:  CPU 738.12 s  wall 48.08 s
    9   -2595.9051642304      3.35E-06
 K construction time:  CPU 704.19 s  wall 45.89 s
   10   -2595.9051677316      1.11E-06
 K construction time:  CPU 632.63 s  wall 41.30 s
   11   -2595.9051681272      6.89E-07
 K construction time:  CPU 590.01 s  wall 38.38 s
   12   -2595.9051682432      2.17E-07
 K construction time:  CPU 528.34 s  wall 34.29 s
   13   -2595.9051682565      9.95E-08
 K construction time:  CPU 465.72 s  wall 30.31 s
   14   -2595.9051682588      2.99E-08
 K construction time:  CPU 390.19 s  wall 25.27 s
   15   -2595.9051682593      1.34E-08
 K construction time:  CPU 1087.90 s  wall 71.11 s
   16   -2595.9051682562      4.75E-09 Convergence criterion met
 ---------------------------------------
 SCF time:  CPU 15563.90 s  wall 1038.19 s
 SCF   energy in the final basis set = -2595.9051682562
 Total energy in the final basis set = -2595.9051682562
 
 --------------------------------------------------------------
 
                    Orbital Energies (a.u.)
 --------------------------------------------------------------
 
 Alpha MOs
 -- Occupied --
-89.156 -89.095 -89.093 -89.075 -14.495 -14.489 -14.452 -14.445
-14.436 -10.375 -10.370 -10.363 -10.361 -10.345 -10.341 -10.340
-10.334 -10.328 -10.327 -10.327 -10.327 -10.326 -10.323 -10.318
-10.315 -10.314 -10.303 -10.296  -8.166  -8.109  -8.108  -8.089
 -6.116  -6.111  -6.110  -6.059  -6.057  -6.055  -6.054  -6.052
 -6.051  -6.039  -6.035  -6.032  -1.153  -1.084  -1.073  -1.055
 -1.024  -1.016  -0.957  -0.947  -0.912  -0.911  -0.907  -0.884
 -0.862  -0.845  -0.829  -0.808  -0.776  -0.753  -0.745  -0.729
 -0.724  -0.694  -0.689  -0.679  -0.648  -0.641  -0.624  -0.621
 -0.609  -0.596  -0.584  -0.578  -0.570  -0.568  -0.541  -0.536
 -0.526  -0.523  -0.518  -0.514  -0.511  -0.503  -0.497  -0.492
 -0.489  -0.481  -0.476  -0.464  -0.458  -0.448  -0.437  -0.433
 -0.430  -0.423  -0.404  -0.397  -0.383  -0.373  -0.371  -0.370
 -0.364  -0.358  -0.343  -0.336  -0.327  -0.319  -0.268
 -- Virtual --
 -0.057  -0.011   0.026   0.038   0.045   0.057   0.064   0.065
  0.074   0.101   0.107   0.111   0.118   0.121   0.131   0.134
  0.142   0.147   0.150   0.166   0.168   0.169   0.171   0.179
  0.190   0.199   0.200   0.212   0.214   0.227   0.231   0.243
  0.253   0.254   0.260   0.266   0.272   0.273   0.288   0.291
  0.297   0.298   0.302   0.308   0.311   0.317   0.319   0.328
  0.330   0.333   0.335   0.339   0.345   0.350   0.353   0.357
  0.363   0.366   0.369   0.374   0.378   0.381   0.386   0.387
  0.391   0.394   0.399   0.403   0.406   0.406   0.409   0.410
  0.418   0.425   0.428   0.429   0.434   0.438   0.438   0.441
  0.449   0.451   0.454   0.457   0.461   0.462   0.465   0.469
  0.470   0.471   0.476   0.479   0.483   0.486   0.489   0.491
  0.493   0.499   0.502   0.507   0.509   0.514   0.517   0.523
  0.523   0.530   0.533   0.543   0.545   0.547   0.549   0.552
  0.555   0.562   0.577   0.579   0.586   0.590   0.594   0.595
  0.604   0.611   0.622   0.629   0.633   0.638   0.646   0.652
  0.654   0.660   0.663   0.666   0.672   0.676   0.682   0.684
  0.687   0.694   0.699   0.703   0.706   0.719   0.726   0.732
  0.734   0.737   0.740   0.741   0.743   0.747   0.764   0.768
  0.772   0.773   0.774   0.776   0.780   0.791   0.794   0.797
  0.804   0.808   0.812   0.816   0.821   0.825   0.826   0.831
  0.831   0.843   0.850   0.851   0.853   0.857   0.867   0.870
  0.875   0.878   0.881   0.895   0.896   0.903   0.909   0.917
  0.918   0.922   0.932   0.935   0.938   0.945   0.947   0.953
  0.955   0.966   0.970   0.974   0.979   0.982   0.985   0.992
  0.994   1.001   1.007   1.018   1.023   1.027   1.029   1.036
  1.044   1.053   1.054   1.058   1.067   1.069   1.072   1.075
  1.085   1.087   1.094   1.098   1.106   1.111   1.118   1.124
  1.136   1.142   1.147   1.148   1.166   1.169   1.173   1.174
  1.179   1.192   1.193   1.203   1.210   1.217   1.222   1.226
  1.233   1.237   1.244   1.254   1.264   1.264   1.270   1.274
  1.279   1.289   1.297   1.302   1.308   1.315   1.322   1.334
  1.343   1.350   1.356   1.361   1.366   1.373   1.380   1.383
  1.389   1.399   1.403   1.413   1.416   1.426   1.431   1.434
  1.441   1.448   1.450   1.455   1.460   1.473   1.485   1.487
  1.494   1.504   1.511   1.523   1.529   1.533   1.537   1.542
  1.551   1.561   1.568   1.573   1.587   1.590   1.595   1.599
  1.606   1.615   1.617   1.625   1.630   1.632   1.638   1.645
  1.650   1.660   1.661   1.663   1.672   1.678   1.684   1.687
  1.692   1.698   1.702   1.706   1.715   1.725   1.727   1.742
  1.746   1.756   1.760   1.767   1.776   1.778   1.786   1.791
  1.804   1.805   1.819   1.825   1.833   1.848   1.859   1.869
  1.880   1.882   1.883   1.891   1.903   1.911   1.922   1.925
  1.930   1.943   1.947   1.956   1.958   1.973   1.979   1.983
  1.992   2.000   2.003   2.007   2.018   2.020   2.027   2.032
  2.050   2.061   2.066   2.075   2.080   2.085   2.088   2.108
  2.116   2.120   2.132   2.138   2.143   2.156   2.164   2.172
  2.177   2.185   2.189   2.197   2.202   2.220   2.230   2.232
  2.236   2.244   2.256   2.257   2.267   2.275   2.282   2.285
  2.301   2.306   2.324   2.344   2.348   2.356   2.361   2.367
  2.370   2.379   2.383   2.391   2.397   2.399   2.406   2.412
  2.422   2.428   2.436   2.443   2.451   2.456   2.463   2.468
  2.471   2.479   2.485   2.492   2.500   2.511   2.515   2.520
  2.525   2.530   2.540   2.545   2.551   2.567   2.570   2.578
  2.590   2.600   2.604   2.615   2.615   2.620   2.627   2.630
  2.633   2.651   2.657   2.660   2.671   2.672   2.680   2.706
  2.711   2.727   2.737   2.754   2.760   2.766   2.769   2.778
  2.780   2.784   2.790   2.793   2.797   2.801   2.809   2.814
  2.823   2.826   2.840   2.848   2.859   2.867   2.875   2.876
  2.887   2.892   2.905   2.911   2.917   2.931   2.936   2.937
  2.941   2.946   2.952   2.953   2.958   2.966   2.973   2.975
  2.980   2.987   2.995   3.002   3.011   3.018   3.025   3.026
  3.030   3.036   3.040   3.055   3.059   3.062   3.065   3.072
  3.073   3.078   3.083   3.090   3.092   3.098   3.104   3.107
  3.112   3.116   3.122   3.123   3.131   3.132   3.136   3.146
  3.149   3.157   3.164   3.172   3.174   3.178   3.180   3.183
  3.186   3.191   3.194   3.197   3.202   3.203   3.208   3.211
  3.219   3.222   3.226   3.228   3.238   3.242   3.245   3.251
  3.255   3.257   3.265   3.265   3.270   3.276   3.279   3.287
  3.295   3.296   3.300   3.302   3.309   3.317   3.323   3.328
  3.330   3.339   3.345   3.349   3.351   3.361   3.369   3.370
  3.375   3.381   3.386   3.394   3.395   3.409   3.416   3.419
  3.421   3.430   3.441   3.450   3.451   3.462   3.464   3.470
  3.480   3.482   3.484   3.486   3.498   3.500   3.508   3.514
  3.517   3.527   3.536   3.545   3.549   3.559   3.566   3.575
  3.581   3.584   3.594   3.595   3.601   3.616   3.623   3.637
  3.645   3.650   3.657   3.664   3.677   3.680   3.690   3.692
  3.706   3.716   3.720   3.733   3.739   3.750   3.757   3.763
  3.775   3.775   3.782   3.791   3.800   3.805   3.807   3.812
  3.824   3.830   3.837   3.845   3.851   3.855   3.865   3.867
  3.871   3.878   3.889   3.903   3.921   3.923   3.929   3.938
  3.947   3.950   3.951   3.953   3.962   3.967   3.970   3.981
  3.986   3.992   3.997   4.007   4.022   4.033   4.036   4.043
  4.060   4.071   4.076   4.085   4.093   4.094   4.110   4.119
  4.134   4.138   4.141   4.159   4.172   4.176   4.184   4.187
  4.190   4.194   4.202   4.211   4.222   4.225   4.236   4.247
  4.264   4.272   4.277   4.283   4.287   4.290   4.308   4.319
  4.323   4.338   4.347   4.356   4.357   4.377   4.384   4.388
  4.399   4.403   4.416   4.423   4.433   4.439   4.452   4.458
  4.470   4.473   4.480   4.491   4.505   4.520   4.525   4.533
  4.547   4.554   4.563   4.569   4.574   4.590   4.598   4.603
  4.617   4.635   4.640   4.654   4.663   4.675   4.680   4.692
  4.697   4.714   4.726   4.738   4.748   4.779   4.792   4.794
  4.814   4.822   4.837   4.844   4.848   4.853   4.854   4.868
  4.875   4.884   4.904   4.934   4.935   4.940   4.946   4.950
  4.957   4.965   4.967   4.978   4.984   4.988   4.999   5.009
  5.026   5.037   5.043   5.054   5.068   5.081   5.093   5.099
  5.110   5.130   5.133   5.142   5.163   5.172   5.174   5.197
  5.206   5.229   5.234   5.241   5.252   5.259   5.280   5.283
  5.315   5.316   5.337   5.341   5.352   5.382   5.401   5.411
  5.427   5.442   5.459   5.462   5.477   5.486   5.511   5.530
  5.531   5.545   5.560   5.588   5.606   5.654   5.661   5.663
  5.693   5.703   5.719   5.736   5.759   5.775   5.806   5.821
  5.851   5.887   5.892   5.941   5.947   5.994   6.014   6.094
  6.134   6.144   6.165   6.186   6.198   6.221   6.254   6.314
  6.342   6.352   6.397   6.409   6.488   6.851   7.019   7.990
  8.904   9.787  10.166  10.929  11.168  11.209  11.701  12.001
 12.293  12.504  12.563  12.813  12.871  13.154  13.160  13.430
 13.537  13.566  13.832  13.889  14.262  14.721  14.997
 --------------------------------------------------------------
 
          Ground-State Mulliken Net Atomic Charges

     Atom                 Charge (a.u.)
  ----------------------------------------
      1 C                    -0.072580
      2 C                    -0.101896
      3 N                    -0.155471
      4 C                    -0.158277
      5 C                    -0.094308
      6 C                     0.111962
      7 C                     0.032615
      8 C                    -0.096061
      9 C                     0.027243
     10 N                    -0.180646
     11 N                    -0.277392
     12 C                     0.015906
     13 C                     0.097856
     14 S                     0.414778
     15 N                    -0.279218
     16 C                    -0.041443
     17 S                     0.130757
     18 C                    -0.009973
     19 C                    -0.024230
     20 S                     0.087662
     21 C                     0.026070
     22 C                     0.036097
     23 C                    -0.159870
     24 C                    -0.161958
     25 N                    -0.183715
     26 S                     0.099823
     27 C                    -0.075409
     28 C                    -0.202838
     29 H                     0.124508
     30 H                     0.128914
     31 H                     0.131423
     32 H                     0.127845
     33 H                     0.133517
     34 H                     0.130988
     35 H                     0.142661
     36 H                     0.129165
     37 H                     0.145497
  ----------------------------------------
  Sum of atomic charges =     0.000000

 -----------------------------------------------------------------
                    Cartesian Multipole Moments
 -----------------------------------------------------------------
    Charge (ESU x 10^10)
                 0.0000
    Dipole Moment (Debye)
         X      -1.7977      Y       0.2897      Z       1.1447
       Tot       2.1508
    Quadrupole Moments (Debye-Ang)
        XX    -169.0524     XY      17.8594     YY    -170.8566
        XZ       8.2038     YZ       2.0129     ZZ    -189.4432
    Octopole Moments (Debye-Ang^2)
       XXX    -222.3943    XXY      57.0294    XYY     -28.8188
       YYY       1.8683    XXZ      53.6201    XYZ      -1.1181
       YYZ      11.3672    XZZ       3.2822    YZZ     -10.1788
       ZZZ       4.0093
    Hexadecapole Moments (Debye-Ang^3)
      XXXX  -17332.8829   XXXY    1235.3899   XXYY   -3586.2505
      XYYY     -74.5523   YYYY   -3527.5214   XXXZ     469.1575
      XXYZ      44.8535   XYYZ      34.9101   YYYZ      14.0151
      XXZZ   -3459.8862   XYZZ       6.8953   YYZZ    -729.0710
      XZZZ      15.5551   YZZZ      -9.8894   ZZZZ    -348.9583
 -----------------------------------------------------------------
 Calculating analytic gradient of the SCF energy
 K construction time:  CPU 2898.22 s  wall 182.96 s
 Gradient of SCF Energy
            1           2           3           4           5           6
    1   0.0014281  -0.0027460   0.0003954   0.0018186  -0.0003848  -0.0001690
    2   0.0005387  -0.0002350   0.0001083  -0.0004670   0.0001142   0.0008524
    3   0.0004584  -0.0003066  -0.0000511  -0.0009316  -0.0001185   0.0013787
            7           8           9          10          11          12
    1  -0.0001920   0.0009549  -0.0003298   0.0004783  -0.0006589   0.0001750
    2   0.0004348  -0.0002529   0.0001414   0.0003811  -0.0005500   0.0006114
    3   0.0001435  -0.0017910  -0.0001748  -0.0022990   0.0001884   0.0014744
           13          14          15          16          17          18
    1  -0.0021472   0.0006552   0.0005207   0.0028781  -0.0016278  -0.0008297
    2  -0.0003804  -0.0007234   0.0007701  -0.0008920  -0.0009989   0.0006566
    3   0.0034317  -0.0000099   0.0000772  -0.0027976  -0.0021728   0.0019573
           19          20          21          22          23          24
    1  -0.0000587   0.0007410   0.0004393   0.0001429   0.0009700  -0.0009461
    2   0.0007914  -0.0005003  -0.0003090   0.0003198  -0.0006248   0.0018009
    3   0.0007736   0.0021382   0.0000941   0.0006513  -0.0018264  -0.0003901
           25          26          27          28          29          30
    1   0.0005378   0.0001974   0.0004453  -0.0004993  -0.0002054   0.0007417
    2   0.0000543  -0.0008178   0.0007938   0.0002373  -0.0000069  -0.0005949
    3  -0.0003239  -0.0005138   0.0000139  -0.0000173  -0.0000650  -0.0000174
           31          32          33          34          35          36
    1  -0.0006908  -0.0003864  -0.0007595  -0.0004548   0.0001475  -0.0004745
    2  -0.0000699   0.0002257  -0.0000654   0.0002593  -0.0007647  -0.0007577
    3  -0.0000240  -0.0001253   0.0003277   0.0002137   0.0002696   0.0000809
           37
    1  -0.0001065
    2  -0.0000808
    3   0.0002835
 Max gradient component =       3.432E-03
 RMS gradient           =       9.630E-04
 Gradient time:  CPU 3340.77 s  wall 212.67 s
 Geometry Optimization Parameters
   NAtoms,    NIC,     NZ,  NCons,   NDum,   NFix, NCnnct, MaxDiis
       37     280       0       3       0       0       0       0


** CONSTRAINED OPTIMIZATION IN DELOCALIZED INTERNAL COORDINATES **
   Searching for a Minimum

   Optimization Cycle:   1

                       Coordinates (Angstroms)
     ATOM                X               Y               Z
      1  C         7.6044479848    0.3826659210   -0.2865132606
      2  C         6.9407064983    1.3835451597    0.4035118078
      3  N         6.9789260477   -0.6291615349   -0.8812805412
      4  C         5.5633261145    1.3310130043    0.4838610769
      5  C         5.6559145693   -0.6709284019   -0.7959032913
      6  C         4.8867102093    0.2823544081   -0.1271851512
      7  C         3.4167944848    0.2007938468   -0.0979561753
      8  C         2.6280127297    1.3008915271   -0.2933605345
      9  C         2.7048046461   -1.0114160796    0.1378993468
     10  N         1.2729683173    1.3294018497   -0.2702770494
     11  N         3.2126827207   -2.2239934160    0.3664202744
     12  C         1.2768920684   -0.9947527027    0.1680921818
     13  C         0.5804662744    0.2381601970   -0.0502083570
     14  S         1.9614988226   -3.2138936720    0.5841692814
     15  N         0.7356246822   -2.1848680060    0.4121689050
     16  C        -0.8574787703    0.3722234511   -0.0460952734
     17  S        -1.9947431039   -0.9286022880   -0.1474239589
     18  C        -1.5379344290    1.5648042907    0.0430156582
     19  C        -3.3517533402    0.1269747041   -0.0696128603
     20  S        -1.0366658052    3.2161840967    0.1731292674
     21  C        -2.9505959750    1.4427580477    0.0318222699
     22  C        -4.7114033021   -0.3695735979   -0.1008705316
     23  C        -2.7134192682    3.7189130805    0.2100570947
     24  C        -3.6077512870    2.7178223307    0.1294681174
     25  N        -5.7559651365    0.4045207942   -0.0295404318
     26  S        -5.0978221128   -2.0630850738   -0.2361590910
     27  C        -6.9092028367   -0.3208887986   -0.0741004860
     28  C        -6.7644734330   -1.6640166942   -0.1837395868
     29  H         8.6849432188    0.3914405109   -0.3666013643
     30  H         7.5019882908    2.1753214044    0.8786001925
     31  H         5.0093242464    2.0817324422    1.0329890242
     32  H         5.1695844810   -1.5040470084   -1.2880896456
     33  H         3.0877595318    2.2597673075   -0.4965452200
     34  H        -2.9370425129    4.7707134270    0.2990030902
     35  H        -4.6785272409    2.8303579010    0.1414228899
     36  H        -7.8605415950    0.1861836507   -0.0216444402
     37  H        -7.5278072782   -2.4204786135   -0.2341128807
   Point Group: c1    Number of degrees of freedom:   105


   Energy is  -2595.905168256

              Constraints and their Current Values
                                        Value     Constraint
   Dihedral:        4   6   7   8       42.189       42.246
   Dihedral:       10  13  16  17      165.000      165.000
   Dihedral:       17  19  22  25      179.258      179.217

 Attempting to Generate Delocalized Internal Coordinates

   Using Lagrange Multiplier Algorithm


106 Hessian modes will be used to form the next step
  Hessian Eigenvalues:
    -0.977753   -0.977753    0.045000    0.045000    0.045000    0.045000
     0.045000    0.045000    0.045000    0.045000    0.045000    0.045000
     0.045000    0.045000    0.045000    0.045000    0.045000    0.045000
     0.045000    0.045000    0.045000    0.045000    0.045000    0.045001
     0.045001    0.045001    0.045001    0.045001    0.045003    0.045005
     0.045007    0.045009    0.045012    0.159961    0.159984    0.159995
     0.159997    0.159998    0.159999    0.160000    0.160000    0.160000
     0.220002    0.224572    0.225458    0.231978    0.233022    0.234404
     0.247446    0.247715    0.249914    0.249956    0.249989    0.249992
     0.249998    0.249998    0.249998    0.249999    0.249999    0.249999
     0.250000    0.250000    0.297521    0.305115    0.316329    0.317278
     0.326676    0.334470    0.354466    0.355754    0.356364    0.356781
     0.356811    0.359242    0.360773    0.361176    0.363911    0.365006
     0.372838    0.385318    0.386474    0.390167    0.393199    0.397166
     0.410394    0.431175    0.455299    0.463160    0.473302    0.473331
     0.475009    0.483101    0.491320    0.496878    0.499416    0.517638
     0.525704    0.538146    0.558610    0.574891    0.584500    0.591081
     0.623467    0.638974    1.022753    1.022753

 Minimum Search - Taking P-RFO Step
 Searching for Lamda that Maximizes Along the Constraint modes Only
 Value Taken    Lamda =   0.00000176
 Searching for Lamda that Minimizes Along All other modes
 Value Taken    Lamda =  -0.00066589
 Step Taken.  Stepsize is  0.098677

                             Maximum     Tolerance    Cnvgd?
         Gradient            0.005332       0.000300      NO
         Displacement        0.032267       0.001200      NO
         Energy change     *********       0.000001      NO


 New Cartesian Coordinates Obtained by Inverse Iteration

 Displacement from previous Coordinates is:  0.496341
 ----------------------------------------------------------------
             Standard Nuclear Orientation (Angstroms)
    I     Atom           X                Y                Z
 ----------------------------------------------------------------
    1      C       7.6078884957     0.3410266018    -0.3019527103
    2      C       6.9630916040     1.3470441151     0.3988855770
    3      N       6.9673819504    -0.6607732078    -0.8973524547
    4      C       5.5844450398     1.3096969076     0.4877629296
    5      C       5.6450820983    -0.6866730551    -0.8057916130
    6      C       4.8914455530     0.2737702026    -0.1292408172
    7      C       3.4205442488     0.2115829003    -0.0903632792
    8      C       2.6430649234     1.3230888971    -0.2712916291
    9      C       2.6961865432    -0.9936703296     0.1374063173
   10      N       1.2878286208     1.3681562092    -0.2453352154
   11      N       3.1912309400    -2.2138043568     0.3504377218
   12      C       1.2688372463    -0.9598534549     0.1743244058
   13      C       0.5857778671     0.2836157208    -0.0261508474
   14      S       1.9274726520    -3.1889547938     0.5650780240
   15      N       0.7125846861    -2.1453703437     0.4086025381
   16      C      -0.8542340084     0.4174726155    -0.0089211954
   17      S      -1.9709860328    -0.8979416434    -0.1085285256
   18      C      -1.5504596384     1.6022740097     0.0538575166
   19      C      -3.3441965634     0.1363165734    -0.0511845249
   20      S      -1.0781276251     3.2653180709     0.1424183829
   21      C      -2.9619718105     1.4581728116     0.0434700402
   22      C      -4.6971203860    -0.3782137048    -0.0912407035
   23      C      -2.7620555724     3.7398445284     0.2014556052
   24      C      -3.6388087403     2.7227457644     0.1318637582
   25      N      -5.7526725659     0.3821663709    -0.0344353671
   26      S      -5.0600903934    -2.0764260517    -0.2170489637
   27      C      -6.8957378196    -0.3577334191    -0.0918522184
   28      C      -6.7320610372    -1.6993388162    -0.1938265522
   29      H       8.6881708112     0.3367443589    -0.3889985062
   30      H       7.5323561610     2.1329342904     0.8744334656
   31      H       5.0463378636     2.0651502559     1.0452770006
   32      H       5.1484745099    -1.5137448503    -1.2977389773
   33      H       3.1175821720     2.2756503932    -0.4737005161
   34      H      -3.0003352265     4.7889548071     0.2766010588
   35      H      -4.7111740133     2.8225931664     0.1431631971
   36      H      -7.8512066471     0.1428462352    -0.0569742184
   37      H      -7.4842973943    -2.4658303136    -0.2546983561
 ----------------------------------------------------------------
 Molecular Point Group                 C1    NOp =  1
 Largest Abelian Subgroup              C1    NOp =  1
 Nuclear Repulsion Energy =  2966.4226223840 hartrees
 There are      111 alpha and      111 beta electrons
 Applying Cartesian multipole field
    Component          Value
    ---------          -----
     (2,0,0)        1.00000E-12
     (0,2,0)        2.00000E-11
     (0,0,2)       -3.00000E-10
 Nucleus-field energy     =     0.0000000403 hartrees
 Requested basis set is cc-pVTZ
 There are 342 shells and 982 basis functions
 A cutoff of  1.0D-11 yielded  29212 shell pairs
 There are    231700 function pairs (    302660 Cartesian)
 Smallest overlap matrix eigenvalue = 2.19E-05
 Guess MOs from SCF MO coefficient file
 Reading MOs from coefficient file
 Reading MOs from coefficient file
 Long-range K will be added via erf
 Coulomb attenuation parameter = 0.2 bohr**(-1)
 A restricted hybrid HF-DFT SCF calculation will be
 performed using Pulay DIIS extrapolation
 Exchange:     0.2220 Hartree-Fock + 1.0000 wB97X-D + LR-HF
 Correlation:  1.0000 wB97X-D
 Using SG-2 standard quadrature grid
 Dispersion:   Grimme D
 SCF converges when DIIS error is below 1.0E-08
 Geometry optimization detected.  Setting ReadMinima to 0
 Setting SaveMinima to 0
 using 16 threads for integral computing 
 using 16 threads for integral computing 
 K construction time:  CPU 1085.70 s  wall 70.84 s
 -------------------------------------------------------
 OpenMP BLAS3 based DFT computing Module                
 Release: version 1.0, May 2013, Q-Chem Inc. Pittsburgh 
 -------------------------------------------------------
 ---------------------------------------
  Cycle       Energy         DIIS Error
 ---------------------------------------
    1   -2595.9063067729      2.90E-04
 K construction time:  CPU 1084.37 s  wall 70.77 s
    2   -2595.9053468292      3.00E-05
 K construction time:  CPU 816.63 s  wall 53.31 s
    3   -2595.9054540603      2.94E-05
 K construction time:  CPU 769.79 s  wall 50.19 s
    4   -2595.9055414471      9.98E-06
 K construction time:  CPU 720.59 s  wall 46.91 s
    5   -2595.9055533514      4.64E-06
 K construction time:  CPU 664.39 s  wall 43.33 s
    6   -2595.9055559515      1.47E-06
 K construction time:  CPU 605.17 s  wall 39.39 s
    7   -2595.9055562623      5.37E-07
 K construction time:  CPU 550.15 s  wall 35.81 s
    8   -2595.9055563109      2.56E-07
 K construction time:  CPU 505.93 s  wall 33.01 s
    9   -2595.9055563244      8.49E-08
 K construction time:  CPU 436.54 s  wall 28.28 s
   10   -2595.9055563263      3.57E-08
 K construction time:  CPU 386.02 s  wall 25.08 s
   11   -2595.9055563291      1.45E-08
 K construction time:  CPU 339.74 s  wall 21.99 s
   12   -2595.9055563293      6.47E-09 Convergence criterion met
 ---------------------------------------
 SCF time:  CPU 10721.13 s  wall 715.53 s
 SCF   energy in the final basis set = -2595.9055563293
 Total energy in the final basis set = -2595.9055563293
 
 --------------------------------------------------------------
 
                    Orbital Energies (a.u.)
 --------------------------------------------------------------
 
 Alpha MOs
 -- Occupied --
-89.156 -89.094 -89.093 -89.075 -14.495 -14.489 -14.453 -14.445
-14.436 -10.375 -10.370 -10.363 -10.361 -10.345 -10.341 -10.340
-10.334 -10.328 -10.327 -10.327 -10.327 -10.326 -10.323 -10.319
-10.315 -10.314 -10.303 -10.296  -8.166  -8.109  -8.108  -8.090
 -6.116  -6.111  -6.110  -6.058  -6.057  -6.054  -6.054  -6.052
 -6.051  -6.039  -6.035  -6.032  -1.153  -1.084  -1.073  -1.055
 -1.024  -1.016  -0.957  -0.946  -0.912  -0.911  -0.907  -0.884
 -0.862  -0.845  -0.829  -0.807  -0.776  -0.753  -0.745  -0.729
 -0.724  -0.695  -0.689  -0.679  -0.648  -0.641  -0.624  -0.621
 -0.609  -0.596  -0.584  -0.578  -0.570  -0.568  -0.541  -0.536
 -0.527  -0.523  -0.518  -0.514  -0.512  -0.503  -0.497  -0.492
 -0.489  -0.481  -0.477  -0.464  -0.458  -0.449  -0.437  -0.433
 -0.430  -0.423  -0.403  -0.397  -0.383  -0.373  -0.371  -0.370
 -0.365  -0.358  -0.343  -0.337  -0.326  -0.319  -0.268
 -- Virtual --
 -0.057  -0.011   0.026   0.038   0.045   0.058   0.064   0.065
  0.075   0.101   0.107   0.112   0.118   0.121   0.131   0.134
  0.142   0.147   0.151   0.166   0.169   0.169   0.171   0.179
  0.190   0.199   0.200   0.212   0.214   0.227   0.231   0.244
  0.253   0.254   0.260   0.266   0.271   0.273   0.288   0.291
  0.297   0.298   0.301   0.308   0.311   0.318   0.320   0.328
  0.330   0.333   0.335   0.339   0.344   0.350   0.353   0.357
  0.364   0.366   0.369   0.374   0.378   0.381   0.386   0.387
  0.391   0.394   0.399   0.402   0.406   0.406   0.409   0.410
  0.418   0.425   0.429   0.429   0.434   0.438   0.438   0.441
  0.449   0.451   0.455   0.457   0.461   0.462   0.465   0.469
  0.470   0.472   0.476   0.479   0.483   0.486   0.489   0.491
  0.494   0.499   0.502   0.505   0.510   0.515   0.517   0.523
  0.523   0.529   0.532   0.543   0.545   0.546   0.549   0.552
  0.556   0.561   0.574   0.580   0.586   0.590   0.594   0.596
  0.604   0.611   0.622   0.628   0.633   0.639   0.647   0.652
  0.654   0.660   0.663   0.667   0.673   0.677   0.682   0.685
  0.688   0.694   0.698   0.703   0.707   0.718   0.727   0.731
  0.735   0.738   0.741   0.742   0.744   0.748   0.763   0.768
  0.772   0.773   0.773   0.776   0.780   0.791   0.794   0.797
  0.805   0.809   0.813   0.817   0.822   0.825   0.826   0.831
  0.832   0.842   0.849   0.852   0.852   0.856   0.866   0.871
  0.873   0.878   0.881   0.895   0.897   0.903   0.908   0.916
  0.921   0.923   0.934   0.935   0.937   0.946   0.949   0.952
  0.955   0.966   0.971   0.974   0.981   0.984   0.986   0.992
  0.995   1.000   1.009   1.019   1.022   1.026   1.029   1.036
  1.043   1.052   1.054   1.058   1.065   1.069   1.072   1.076
  1.085   1.087   1.095   1.098   1.106   1.111   1.118   1.124
  1.135   1.142   1.146   1.149   1.165   1.170   1.175   1.176
  1.178   1.192   1.193   1.204   1.212   1.218   1.221   1.225
  1.235   1.238   1.244   1.254   1.263   1.267   1.270   1.274
  1.279   1.290   1.298   1.301   1.308   1.316   1.321   1.335
  1.341   1.350   1.355   1.360   1.365   1.373   1.379   1.383
  1.389   1.400   1.403   1.414   1.417   1.426   1.432   1.434
  1.442   1.448   1.449   1.456   1.460   1.473   1.485   1.487
  1.494   1.504   1.510   1.523   1.530   1.534   1.538   1.542
  1.551   1.562   1.568   1.572   1.587   1.590   1.596   1.599
  1.606   1.615   1.617   1.627   1.631   1.633   1.640   1.645
  1.651   1.659   1.662   1.663   1.671   1.679   1.684   1.688
  1.692   1.697   1.700   1.706   1.714   1.724   1.728   1.741
  1.746   1.754   1.761   1.767   1.775   1.781   1.786   1.791
  1.804   1.807   1.819   1.826   1.834   1.850   1.859   1.868
  1.879   1.882   1.883   1.891   1.906   1.914   1.923   1.925
  1.931   1.942   1.947   1.956   1.958   1.974   1.980   1.983
  1.993   2.000   2.003   2.007   2.018   2.021   2.029   2.031
  2.051   2.060   2.067   2.074   2.081   2.084   2.088   2.109
  2.115   2.120   2.132   2.138   2.144   2.154   2.164   2.173
  2.177   2.185   2.190   2.197   2.202   2.220   2.229   2.235
  2.236   2.244   2.256   2.258   2.266   2.275   2.282   2.285
  2.301   2.306   2.324   2.345   2.348   2.357   2.360   2.367
  2.370   2.380   2.383   2.391   2.397   2.399   2.406   2.412
  2.422   2.430   2.436   2.442   2.452   2.457   2.463   2.469
  2.474   2.479   2.485   2.492   2.500   2.511   2.517   2.519
  2.525   2.531   2.539   2.544   2.551   2.567   2.571   2.577
  2.589   2.601   2.604   2.615   2.617   2.620   2.628   2.630
  2.636   2.651   2.657   2.660   2.671   2.673   2.679   2.705
  2.710   2.727   2.738   2.754   2.759   2.766   2.770   2.778
  2.781   2.785   2.790   2.793   2.797   2.801   2.808   2.813
  2.824   2.827   2.840   2.849   2.859   2.868   2.875   2.877
  2.887   2.891   2.906   2.910   2.919   2.931   2.936   2.937
  2.941   2.947   2.953   2.954   2.958   2.965   2.973   2.974
  2.980   2.987   2.995   3.001   3.012   3.017   3.024   3.026
  3.030   3.037   3.041   3.055   3.060   3.062   3.064   3.071
  3.072   3.079   3.083   3.090   3.092   3.098   3.104   3.107
  3.112   3.116   3.121   3.123   3.129   3.131   3.136   3.146
  3.149   3.157   3.165   3.172   3.174   3.177   3.180   3.183
  3.186   3.191   3.193   3.197   3.202   3.202   3.208   3.212
  3.219   3.222   3.226   3.228   3.237   3.242   3.246   3.251
  3.255   3.256   3.264   3.265   3.269   3.277   3.278   3.288
  3.295   3.296   3.301   3.302   3.309   3.315   3.322   3.329
  3.331   3.339   3.345   3.349   3.352   3.360   3.368   3.370
  3.375   3.380   3.385   3.393   3.396   3.408   3.415   3.420
  3.422   3.431   3.441   3.448   3.452   3.462   3.464   3.470
  3.479   3.482   3.484   3.487   3.499   3.500   3.508   3.514
  3.518   3.527   3.535   3.543   3.550   3.560   3.564   3.578
  3.580   3.584   3.595   3.596   3.601   3.615   3.622   3.638
  3.644   3.649   3.657   3.664   3.677   3.681   3.689   3.693
  3.707   3.717   3.722   3.734   3.739   3.750   3.756   3.762
  3.773   3.775   3.781   3.792   3.801   3.804   3.807   3.812
  3.824   3.830   3.837   3.845   3.850   3.855   3.864   3.866
  3.871   3.877   3.890   3.903   3.921   3.923   3.928   3.937
  3.945   3.949   3.951   3.953   3.962   3.967   3.971   3.980
  3.986   3.991   3.998   4.007   4.024   4.033   4.035   4.042
  4.060   4.071   4.076   4.085   4.093   4.093   4.111   4.119
  4.136   4.138   4.141   4.159   4.171   4.176   4.183   4.188
  4.189   4.195   4.202   4.212   4.223   4.225   4.236   4.247
  4.264   4.272   4.274   4.282   4.288   4.293   4.306   4.319
  4.322   4.338   4.346   4.353   4.356   4.378   4.383   4.388
  4.397   4.403   4.416   4.421   4.432   4.437   4.452   4.458
  4.470   4.472   4.480   4.492   4.505   4.521   4.524   4.533
  4.545   4.553   4.565   4.569   4.573   4.590   4.597   4.603
  4.617   4.636   4.641   4.654   4.662   4.677   4.682   4.692
  4.698   4.713   4.726   4.738   4.750   4.780   4.791   4.793
  4.812   4.822   4.837   4.844   4.849   4.853   4.854   4.868
  4.877   4.884   4.904   4.934   4.935   4.940   4.946   4.950
  4.957   4.966   4.967   4.977   4.985   4.988   4.999   5.009
  5.025   5.036   5.044   5.054   5.068   5.082   5.094   5.099
  5.111   5.130   5.132   5.144   5.162   5.173   5.174   5.196
  5.207   5.232   5.235   5.241   5.252   5.259   5.281   5.283
  5.315   5.315   5.336   5.340   5.353   5.383   5.399   5.411
  5.427   5.442   5.459   5.463   5.478   5.487   5.512   5.530
  5.532   5.547   5.558   5.587   5.607   5.655   5.662   5.664
  5.693   5.704   5.719   5.736   5.759   5.776   5.811   5.821
  5.850   5.885   5.892   5.942   5.949   5.995   6.016   6.094
  6.137   6.148   6.165   6.185   6.197   6.222   6.259   6.313
  6.343   6.354   6.398   6.408   6.485   6.850   7.019   8.001
  8.902   9.790  10.165  10.929  11.176  11.220  11.692  12.000
 12.293  12.499  12.559  12.815  12.878  13.146  13.150  13.436
 13.532  13.568  13.835  13.887  14.266  14.723  14.986
 --------------------------------------------------------------
 
          Ground-State Mulliken Net Atomic Charges

     Atom                 Charge (a.u.)
  ----------------------------------------
      1 C                    -0.072252
      2 C                    -0.102712
      3 N                    -0.155080
      4 C                    -0.158067
      5 C                    -0.094594
      6 C                     0.110379
      7 C                     0.032874
      8 C                    -0.094378
      9 C                     0.025619
     10 N                    -0.180677
     11 N                    -0.276911
     12 C                     0.020607
     13 C                     0.101470
     14 S                     0.413447
     15 N                    -0.280763
     16 C                    -0.044863
     17 S                     0.131677
     18 C                    -0.014242
     19 C                    -0.024662
     20 S                     0.087681
     21 C                     0.027381
     22 C                     0.036674
     23 C                    -0.160898
     24 C                    -0.161755
     25 N                    -0.183714
     26 S                     0.100287
     27 C                    -0.075327
     28 C                    -0.202952
     29 H                     0.124374
     30 H                     0.129289
     31 H                     0.131737
     32 H                     0.127961
     33 H                     0.133497
     34 H                     0.131428
     35 H                     0.142958
     36 H                     0.129148
     37 H                     0.145360
  ----------------------------------------
  Sum of atomic charges =     0.000000

 -----------------------------------------------------------------
                    Cartesian Multipole Moments
 -----------------------------------------------------------------
    Charge (ESU x 10^10)
                 0.0000
    Dipole Moment (Debye)
         X      -1.7763      Y       0.2536      Z       1.1192
       Tot       2.1147
    Quadrupole Moments (Debye-Ang)
        XX    -168.8287     XY      17.9166     YY    -170.9982
        XZ       8.4701     YZ       1.8869     ZZ    -189.4583
    Octopole Moments (Debye-Ang^2)
       XXX    -214.2286    XXY      56.1168    XYY     -31.6330
       YYY      -2.7288    XXZ      52.2747    XYZ      -1.3208
       YYZ      10.1915    XZZ       3.3689    YZZ     -11.6351
       ZZZ       2.7916
    Hexadecapole Moments (Debye-Ang^3)
      XXXX  -17290.3536   XXXY    1243.5462   XXYY   -3582.5103
      XYYY     -62.0847   YYYY   -3547.0332   XXXZ     493.3553
      XXYZ      44.2037   XYYZ      39.8773   YYYZ      11.9844
      XXZZ   -3453.6338   XYZZ      12.5471   YYZZ    -733.3031
      XZZZ      26.8010   YZZZ      -9.6043   ZZZZ    -345.7724
 -----------------------------------------------------------------
 Calculating analytic gradient of the SCF energy
 K construction time:  CPU 2902.71 s  wall 183.40 s
 Gradient of SCF Energy
            1           2           3           4           5           6
    1   0.0000556  -0.0007049  -0.0000845   0.0006316   0.0001848  -0.0001378
    2  -0.0000580   0.0002675  -0.0001997   0.0001050   0.0000504  -0.0000479
    3   0.0000530   0.0000381  -0.0001376   0.0000984  -0.0002455   0.0001783
            7           8           9          10          11          12
    1   0.0000159   0.0001502   0.0002580   0.0006069   0.0001375  -0.0000202
    2  -0.0002097  -0.0001288  -0.0001126  -0.0003156   0.0000832   0.0000233
    3   0.0003715  -0.0005797   0.0000222  -0.0029588  -0.0001470   0.0009103
           13          14          15          16          17          18
    1  -0.0004161   0.0002954  -0.0009356   0.0004216   0.0002871  -0.0004043
    2   0.0001500   0.0007048   0.0003130  -0.0012398   0.0002872   0.0001884
    3   0.0031787  -0.0000292  -0.0001019  -0.0003369  -0.0022170   0.0015820
           19          20          21          22          23          24
    1  -0.0001950  -0.0000408   0.0002016  -0.0000419   0.0002397  -0.0002649
    2   0.0004680   0.0000195  -0.0005273   0.0001590  -0.0002773   0.0009002
    3   0.0002665  -0.0000661   0.0002912  -0.0002024   0.0001770  -0.0005337
           25          26          27          28          29          30
    1   0.0000712   0.0000381   0.0002459  -0.0001688  -0.0000695   0.0002381
    2  -0.0001762  -0.0002600   0.0003099   0.0000429   0.0000172  -0.0001232
    3   0.0002406   0.0001027   0.0000985  -0.0003135  -0.0000330   0.0000980
           31          32          33          34          35          36
    1  -0.0000900  -0.0000796  -0.0000855  -0.0001781  -0.0000060  -0.0001411
    2  -0.0000037  -0.0000007   0.0000486  -0.0000041  -0.0002419  -0.0002189
    3  -0.0000217  -0.0000578   0.0000188   0.0001148  -0.0000251  -0.0000011
           37
    1  -0.0000148
    2   0.0000071
    3   0.0001676
 Max gradient component =       3.179E-03
 RMS gradient           =       5.723E-04
 Gradient time:  CPU 3348.19 s  wall 213.81 s
 Geometry Optimization Parameters
   NAtoms,    NIC,     NZ,  NCons,   NDum,   NFix, NCnnct, MaxDiis
       37     280       0       3       0       0       0       0

 Cartesian Hessian Update
 Hessian Updated using BFGS Update


** CONSTRAINED OPTIMIZATION IN DELOCALIZED INTERNAL COORDINATES **
   Searching for a Minimum

   Optimization Cycle:   2

                       Coordinates (Angstroms)
     ATOM                X               Y               Z
      1  C         7.6078884957    0.3410266018   -0.3019527103
      2  C         6.9630916040    1.3470441151    0.3988855770
      3  N         6.9673819504   -0.6607732078   -0.8973524547
      4  C         5.5844450398    1.3096969076    0.4877629296
      5  C         5.6450820983   -0.6866730551   -0.8057916130
      6  C         4.8914455530    0.2737702026   -0.1292408172
      7  C         3.4205442488    0.2115829003   -0.0903632792
      8  C         2.6430649234    1.3230888971   -0.2712916291
      9  C         2.6961865432   -0.9936703296    0.1374063173
     10  N         1.2878286208    1.3681562092   -0.2453352154
     11  N         3.1912309400   -2.2138043568    0.3504377218
     12  C         1.2688372463   -0.9598534549    0.1743244058
     13  C         0.5857778671    0.2836157208   -0.0261508474
     14  S         1.9274726520   -3.1889547938    0.5650780240
     15  N         0.7125846861   -2.1453703437    0.4086025381
     16  C        -0.8542340084    0.4174726155   -0.0089211954
     17  S        -1.9709860328   -0.8979416434   -0.1085285256
     18  C        -1.5504596384    1.6022740097    0.0538575166
     19  C        -3.3441965634    0.1363165734   -0.0511845249
     20  S        -1.0781276251    3.2653180709    0.1424183829
     21  C        -2.9619718105    1.4581728116    0.0434700402
     22  C        -4.6971203860   -0.3782137048   -0.0912407035
     23  C        -2.7620555724    3.7398445284    0.2014556052
     24  C        -3.6388087403    2.7227457644    0.1318637582
     25  N        -5.7526725659    0.3821663709   -0.0344353671
     26  S        -5.0600903934   -2.0764260517   -0.2170489637
     27  C        -6.8957378196   -0.3577334191   -0.0918522184
     28  C        -6.7320610372   -1.6993388162   -0.1938265522
     29  H         8.6881708112    0.3367443589   -0.3889985062
     30  H         7.5323561610    2.1329342904    0.8744334656
     31  H         5.0463378636    2.0651502559    1.0452770006
     32  H         5.1484745099   -1.5137448503   -1.2977389773
     33  H         3.1175821720    2.2756503932   -0.4737005161
     34  H        -3.0003352265    4.7889548071    0.2766010588
     35  H        -4.7111740133    2.8225931664    0.1431631971
     36  H        -7.8512066471    0.1428462352   -0.0569742184
     37  H        -7.4842973943   -2.4658303136   -0.2546983561
   Point Group: c1    Number of degrees of freedom:   105


   Energy is  -2595.905556329

              Constraints and their Current Values
                                        Value     Constraint
   Dihedral:        4   6   7   8       42.246       42.246
   Dihedral:       10  13  16  17      165.000      165.000
   Dihedral:       17  19  22  25      179.217      179.217
 Hessian Updated using BFGS Update

 81 Hessian modes will be used to form the next step
  Hessian Eigenvalues:
     0.027319    0.045000    0.045000    0.045001    0.045001    0.045001
     0.045003    0.045005    0.045007    0.045009    0.045012    0.048724
     0.156749    0.159967    0.159990    0.159997    0.159998    0.159999
     0.160000    0.160000    0.160127    0.220050    0.224572    0.225245
     0.232031    0.232935    0.234473    0.245814    0.247489    0.247732
     0.249927    0.249956    0.249989    0.249993    0.249998    0.249998
     0.249999    0.250000    0.296922    0.304781    0.306867    0.316415
     0.325979    0.332125    0.334452    0.354446    0.355725    0.356358
     0.356800    0.357016    0.359334    0.360770    0.361206    0.363931
     0.365020    0.373383    0.385361    0.386364    0.390281    0.394131
     0.397525    0.415099    0.431237    0.455865    0.464814    0.473302
     0.473837    0.474816    0.483214    0.491225    0.497513    0.499536
     0.517687    0.526137    0.538323    0.559481    0.574936    0.585395
     0.592095    0.622713    0.638961

 Minimum Search - Taking Simple RFO Step
 Searching for Lamda that Minimizes Along All modes
 Value Taken    Lamda =  -0.00018534
 Step Taken.  Stepsize is  0.076105

                             Maximum     Tolerance    Cnvgd?
         Gradient           0.001801      0.000300      NO
         Displacement       0.030048      0.001200      NO
         Energy change     -0.000388      0.000001      NO


 New Cartesian Coordinates Obtained by Inverse Iteration

 Displacement from previous Coordinates is:  0.255826
 ----------------------------------------------------------------
             Standard Nuclear Orientation (Angstroms)
    I     Atom           X                Y                Z
 ----------------------------------------------------------------
    1      C       7.6050294216     0.3519580697    -0.3215916348
    2      C       6.9617347854     1.3511050141     0.3899455431
    3      N       6.9638256964    -0.6489443704    -0.9174022275
    4      C       5.5830993883     1.3073623986     0.4883417776
    5      C       5.6421909707    -0.6803407423    -0.8180204858
    6      C       4.8893957581     0.2742096349    -0.1325038925
    7      C       3.4188540049     0.2083324529    -0.0817847071
    8      C       2.6382934688     1.3203448360    -0.2467221143
    9      C       2.6983129272    -1.0005510991     0.1398374590
   10      N       1.2832015931     1.3636866911    -0.2116949131
   11      N       3.1966726880    -2.2224011105     0.3370636761
   12      C       1.2715620011    -0.9690811414     0.1873939201
   13      C       0.5854861469     0.2770863331     0.0063171214
   14      S       1.9371368683    -3.2039332919     0.5498953252
   15      N       0.7210489381    -2.1592386598     0.4140619554
   16      C      -0.8548892468     0.4123784339     0.0357723376
   17      S      -1.9717985321    -0.9028749126    -0.0634466069
   18      C      -1.5490394368     1.5984853372     0.0729071941
   19      C      -3.3438622012     0.1332993547    -0.0316793461
   20      S      -1.0754555266     3.2624343221     0.1333475091
   21      C      -2.9606546563     1.4557074564     0.0546530992
   22      C      -4.6976809141    -0.3776787440    -0.0833260265
   23      C      -2.7588719024     3.7392346714     0.1836711218
   24      C      -3.6358749103     2.7213325876     0.1266232747
   25      N      -5.7516094201     0.3863116068    -0.0457497670
   26      S      -5.0642562190    -2.0749392175    -0.2008478406
   27      C      -6.8961708524    -0.3503530694    -0.1135648972
   28      C      -6.7350878475    -1.6931958835    -0.2030796135
   29      H       8.6848752260     0.3520042372    -0.4162140473
   30      H       7.5283390365     2.1386973672     0.8655638889
   31      H       5.0475358056     2.0578731566     1.0545867042
   32      H       5.1467176261    -1.5076787275    -1.3103881198
   33      H       3.1118362027     2.2741641601    -0.4462878498
   34      H      -2.9945753852     4.7898827846     0.2402692841
   35      H      -4.7079901543     2.8254552440     0.1308749366
   36      H      -7.8486825483     0.1566241780    -0.0967276113
   37      H      -7.4884002888    -2.4579218928    -0.2716840795
 ----------------------------------------------------------------
 Molecular Point Group                 C1    NOp =  1
 Largest Abelian Subgroup              C1    NOp =  1
 Nuclear Repulsion Energy =  2966.1422648386 hartrees
 There are      111 alpha and      111 beta electrons
 Applying Cartesian multipole field
    Component          Value
    ---------          -----
     (2,0,0)        1.00000E-12
     (0,2,0)        2.00000E-11
     (0,0,2)       -3.00000E-10
 Nucleus-field energy     =     0.0000000407 hartrees
 Requested basis set is cc-pVTZ
 There are 342 shells and 982 basis functions
 A cutoff of  1.0D-11 yielded  29212 shell pairs
 There are    231658 function pairs (    302586 Cartesian)
 Smallest overlap matrix eigenvalue = 2.14E-05
 Guess MOs from SCF MO coefficient file
 Reading MOs from coefficient file
 Reading MOs from coefficient file
 Long-range K will be added via erf
 Coulomb attenuation parameter = 0.2 bohr**(-1)
 A restricted hybrid HF-DFT SCF calculation will be
 performed using Pulay DIIS extrapolation
 Exchange:     0.2220 Hartree-Fock + 1.0000 wB97X-D + LR-HF
 Correlation:  1.0000 wB97X-D
 Using SG-2 standard quadrature grid
 Dispersion:   Grimme D
 SCF converges when DIIS error is below 1.0E-08
 Geometry optimization detected.  Setting ReadMinima to 0
 Setting SaveMinima to 0
 using 16 threads for integral computing 
 using 16 threads for integral computing 
 K construction time:  CPU 1085.05 s  wall 70.88 s
 -------------------------------------------------------
 OpenMP BLAS3 based DFT computing Module                
 Release: version 1.0, May 2013, Q-Chem Inc. Pittsburgh 
 -------------------------------------------------------
 ---------------------------------------
  Cycle       Energy         DIIS Error
 ---------------------------------------
    1   -2595.9038191614      2.02E-04
 K construction time:  CPU 1087.48 s  wall 70.92 s
    2   -2595.9055495236      1.85E-05
 K construction time:  CPU 786.70 s  wall 51.30 s
    3   -2595.9056485440      1.22E-05
 K construction time:  CPU 734.06 s  wall 47.86 s
    4   -2595.9056631819      8.32E-06
 K construction time:  CPU 702.66 s  wall 45.85 s
    5   -2595.9056723385      2.89E-06
 K construction time:  CPU 638.09 s  wall 41.53 s
    6   -2595.9056734483      1.18E-06
 K construction time:  CPU 575.33 s  wall 37.45 s
    7   -2595.9056736365      3.19E-07
 K construction time:  CPU 533.84 s  wall 34.84 s
    8   -2595.9056736636      1.68E-07
 K construction time:  CPU 478.63 s  wall 31.08 s
    9   -2595.9056736692      4.82E-08
 K construction time:  CPU 427.93 s  wall 27.72 s
   10   -2595.9056736700      1.74E-08
 K construction time:  CPU 372.57 s  wall 24.05 s
   11   -2595.9056736695      1.02E-08
 K construction time:  CPU 310.22 s  wall 20.16 s
   12   -2595.9056736708      3.88E-09 Convergence criterion met
 ---------------------------------------
 SCF time:  CPU 10434.58 s  wall 695.52 s
 SCF   energy in the final basis set = -2595.9056736708
 Total energy in the final basis set = -2595.9056736708
 
 --------------------------------------------------------------
 
                    Orbital Energies (a.u.)
 --------------------------------------------------------------
 
 Alpha MOs
 -- Occupied --
-89.156 -89.094 -89.093 -89.075 -14.495 -14.489 -14.453 -14.445
-14.436 -10.374 -10.370 -10.363 -10.361 -10.345 -10.341 -10.340
-10.334 -10.328 -10.327 -10.327 -10.327 -10.326 -10.323 -10.319
-10.315 -10.314 -10.303 -10.296  -8.166  -8.109  -8.108  -8.089
 -6.117  -6.111  -6.110  -6.058  -6.057  -6.054  -6.054  -6.052
 -6.051  -6.039  -6.035  -6.032  -1.153  -1.084  -1.073  -1.055
 -1.024  -1.016  -0.957  -0.946  -0.912  -0.911  -0.907  -0.884
 -0.862  -0.845  -0.830  -0.807  -0.776  -0.753  -0.745  -0.728
 -0.724  -0.695  -0.689  -0.679  -0.648  -0.641  -0.623  -0.621
 -0.609  -0.596  -0.584  -0.578  -0.570  -0.567  -0.541  -0.536
 -0.527  -0.523  -0.518  -0.514  -0.512  -0.503  -0.497  -0.492
 -0.489  -0.481  -0.477  -0.463  -0.458  -0.449  -0.437  -0.433
 -0.430  -0.423  -0.403  -0.397  -0.383  -0.373  -0.371  -0.370
 -0.365  -0.358  -0.343  -0.337  -0.327  -0.319  -0.268
 -- Virtual --
 -0.057  -0.011   0.026   0.038   0.045   0.058   0.064   0.065
  0.074   0.101   0.107   0.112   0.118   0.121   0.131   0.134
  0.142   0.147   0.151   0.167   0.169   0.170   0.171   0.179
  0.190   0.199   0.200   0.212   0.214   0.227   0.231   0.243
  0.253   0.254   0.260   0.266   0.271   0.273   0.288   0.291
  0.297   0.298   0.301   0.309   0.311   0.318   0.320   0.328
  0.330   0.333   0.335   0.339   0.344   0.350   0.354   0.357
  0.364   0.366   0.369   0.374   0.378   0.381   0.386   0.387
  0.391   0.393   0.399   0.402   0.405   0.406   0.408   0.410
  0.418   0.425   0.429   0.430   0.434   0.438   0.438   0.441
  0.450   0.451   0.455   0.457   0.461   0.462   0.465   0.469
  0.470   0.472   0.476   0.480   0.483   0.487   0.489   0.491
  0.494   0.499   0.502   0.505   0.509   0.515   0.517   0.523
  0.523   0.529   0.532   0.542   0.546   0.546   0.549   0.552
  0.557   0.561   0.574   0.579   0.586   0.589   0.594   0.596
  0.604   0.611   0.622   0.628   0.633   0.639   0.647   0.651
  0.654   0.660   0.663   0.667   0.673   0.676   0.682   0.685
  0.689   0.694   0.698   0.704   0.707   0.718   0.727   0.731
  0.736   0.738   0.741   0.742   0.744   0.748   0.763   0.769
  0.772   0.773   0.774   0.776   0.780   0.791   0.794   0.797
  0.806   0.810   0.813   0.817   0.822   0.825   0.827   0.831
  0.832   0.843   0.849   0.851   0.853   0.856   0.865   0.870
  0.872   0.879   0.881   0.895   0.897   0.903   0.908   0.916
  0.922   0.923   0.934   0.936   0.937   0.947   0.949   0.952
  0.955   0.967   0.971   0.975   0.980   0.985   0.987   0.992
  0.994   1.000   1.010   1.019   1.023   1.026   1.029   1.037
  1.044   1.052   1.054   1.058   1.066   1.070   1.073   1.077
  1.084   1.088   1.095   1.099   1.106   1.111   1.119   1.125
  1.135   1.142   1.146   1.149   1.165   1.170   1.176   1.177
  1.179   1.192   1.193   1.204   1.213   1.220   1.222   1.225
  1.235   1.238   1.244   1.255   1.263   1.268   1.271   1.274
  1.279   1.290   1.299   1.301   1.308   1.317   1.321   1.335
  1.341   1.350   1.355   1.360   1.365   1.373   1.379   1.383
  1.389   1.400   1.402   1.414   1.417   1.427   1.431   1.433
  1.443   1.448   1.449   1.456   1.460   1.473   1.485   1.487
  1.494   1.503   1.509   1.522   1.531   1.534   1.538   1.542
  1.551   1.562   1.569   1.573   1.587   1.591   1.596   1.601
  1.607   1.615   1.616   1.626   1.632   1.634   1.640   1.643
  1.651   1.659   1.661   1.663   1.671   1.679   1.685   1.689
  1.692   1.697   1.700   1.706   1.714   1.725   1.729   1.741
  1.746   1.753   1.761   1.767   1.775   1.782   1.786   1.790
  1.803   1.808   1.819   1.827   1.835   1.851   1.860   1.869
  1.879   1.882   1.882   1.890   1.907   1.913   1.923   1.925
  1.932   1.942   1.947   1.956   1.958   1.974   1.981   1.984
  1.993   2.000   2.003   2.006   2.019   2.021   2.030   2.031
  2.052   2.061   2.067   2.074   2.081   2.084   2.088   2.109
  2.114   2.120   2.133   2.139   2.144   2.154   2.164   2.173
  2.176   2.184   2.190   2.196   2.202   2.220   2.229   2.235
  2.236   2.244   2.256   2.259   2.267   2.275   2.282   2.285
  2.300   2.306   2.324   2.346   2.347   2.357   2.361   2.367
  2.371   2.381   2.382   2.391   2.397   2.399   2.406   2.413
  2.422   2.430   2.435   2.440   2.452   2.458   2.463   2.471
  2.476   2.480   2.484   2.492   2.500   2.511   2.516   2.519
  2.525   2.532   2.539   2.544   2.552   2.568   2.572   2.577
  2.589   2.601   2.605   2.615   2.618   2.620   2.628   2.631
  2.637   2.652   2.656   2.660   2.672   2.674   2.679   2.705
  2.710   2.728   2.739   2.754   2.758   2.766   2.769   2.778
  2.781   2.786   2.790   2.793   2.797   2.801   2.809   2.812
  2.824   2.827   2.840   2.850   2.858   2.868   2.875   2.877
  2.886   2.891   2.906   2.910   2.920   2.931   2.936   2.937
  2.940   2.947   2.953   2.953   2.958   2.965   2.973   2.974
  2.980   2.988   2.994   3.002   3.012   3.017   3.023   3.027
  3.030   3.037   3.041   3.055   3.059   3.062   3.064   3.070
  3.071   3.080   3.084   3.090   3.092   3.098   3.104   3.107
  3.112   3.117   3.121   3.123   3.128   3.131   3.135   3.146
  3.149   3.157   3.165   3.171   3.174   3.178   3.180   3.184
  3.186   3.190   3.193   3.198   3.202   3.202   3.208   3.212
  3.219   3.222   3.227   3.229   3.238   3.241   3.247   3.251
  3.254   3.256   3.263   3.265   3.268   3.278   3.279   3.289
  3.294   3.296   3.301   3.302   3.309   3.314   3.321   3.328
  3.331   3.338   3.345   3.350   3.353   3.359   3.368   3.369
  3.375   3.379   3.385   3.392   3.397   3.408   3.416   3.420
  3.422   3.432   3.441   3.447   3.453   3.463   3.464   3.470
  3.478   3.481   3.485   3.487   3.500   3.500   3.508   3.514
  3.519   3.526   3.535   3.542   3.551   3.558   3.564   3.578
  3.580   3.584   3.595   3.598   3.600   3.615   3.623   3.638
  3.644   3.650   3.657   3.664   3.676   3.681   3.689   3.693
  3.708   3.719   3.724   3.734   3.738   3.750   3.756   3.762
  3.773   3.775   3.780   3.794   3.801   3.804   3.807   3.813
  3.824   3.830   3.838   3.846   3.850   3.855   3.864   3.866
  3.871   3.877   3.891   3.904   3.921   3.923   3.928   3.937
  3.944   3.950   3.950   3.953   3.962   3.968   3.971   3.980
  3.986   3.992   3.998   4.008   4.024   4.032   4.037   4.042
  4.061   4.071   4.076   4.085   4.093   4.093   4.111   4.119
  4.136   4.139   4.141   4.159   4.171   4.176   4.182   4.189
  4.189   4.196   4.202   4.212   4.223   4.226   4.236   4.247
  4.266   4.272   4.274   4.282   4.289   4.294   4.307   4.319
  4.322   4.339   4.346   4.352   4.355   4.379   4.383   4.389
  4.396   4.403   4.416   4.421   4.432   4.436   4.453   4.457
  4.471   4.472   4.480   4.492   4.505   4.520   4.525   4.534
  4.545   4.553   4.565   4.570   4.572   4.590   4.597   4.603
  4.617   4.636   4.641   4.654   4.663   4.677   4.681   4.693
  4.698   4.713   4.726   4.737   4.750   4.780   4.791   4.793
  4.811   4.822   4.837   4.843   4.849   4.853   4.854   4.868
  4.877   4.884   4.904   4.933   4.934   4.940   4.946   4.950
  4.957   4.965   4.966   4.976   4.985   4.988   4.999   5.009
  5.025   5.036   5.044   5.054   5.068   5.083   5.094   5.098
  5.112   5.130   5.133   5.144   5.162   5.173   5.174   5.195
  5.207   5.234   5.235   5.241   5.252   5.258   5.282   5.284
  5.315   5.316   5.336   5.340   5.354   5.382   5.399   5.411
  5.428   5.442   5.459   5.464   5.478   5.488   5.511   5.530
  5.533   5.547   5.557   5.588   5.606   5.655   5.662   5.665
  5.694   5.705   5.720   5.736   5.760   5.777   5.813   5.822
  5.849   5.886   5.891   5.943   5.950   5.995   6.017   6.094
  6.138   6.150   6.166   6.185   6.198   6.223   6.259   6.314
  6.344   6.353   6.399   6.409   6.486   6.850   7.020   8.008
  8.904   9.793  10.165  10.930  11.171  11.223  11.694  11.991
 12.291  12.499  12.556  12.812  12.873  13.144  13.150  13.450
 13.532  13.571  13.835  13.891  14.266  14.733  14.983
 --------------------------------------------------------------
 
          Ground-State Mulliken Net Atomic Charges

     Atom                 Charge (a.u.)
  ----------------------------------------
      1 C                    -0.072278
      2 C                    -0.102883
      3 N                    -0.155015
      4 C                    -0.158190
      5 C                    -0.094884
      6 C                     0.110124
      7 C                     0.033042
      8 C                    -0.094488
      9 C                     0.025146
     10 N                    -0.180453
     11 N                    -0.277507
     12 C                     0.022360
     13 C                     0.104010
     14 S                     0.414211
     15 N                    -0.281570
     16 C                    -0.047992
     17 S                     0.131523
     18 C                    -0.013954
     19 C                    -0.025047
     20 S                     0.087965
     21 C                     0.027867
     22 C                     0.037205
     23 C                    -0.161454
     24 C                    -0.161835
     25 N                    -0.183671
     26 S                     0.100631
     27 C                    -0.075256
     28 C                    -0.202877
     29 H                     0.124245
     30 H                     0.129349
     31 H                     0.131793
     32 H                     0.127932
     33 H                     0.133290
     34 H                     0.131512
     35 H                     0.142810
     36 H                     0.129089
     37 H                     0.145250
  ----------------------------------------
  Sum of atomic charges =     0.000000

 -----------------------------------------------------------------
                    Cartesian Multipole Moments
 -----------------------------------------------------------------
    Charge (ESU x 10^10)
                 0.0000
    Dipole Moment (Debye)
         X      -1.7855      Y       0.2498      Z       1.0813
       Tot       2.1023
    Quadrupole Moments (Debye-Ang)
        XX    -168.8768     XY      17.8146     YY    -170.8815
        XZ       8.7608     YZ       1.7418     ZZ    -189.4947
    Octopole Moments (Debye-Ang^2)
       XXX    -215.3845    XXY      56.3820    XYY     -31.1551
       YYY      -1.9474    XXZ      50.2407    XYZ      -1.1951
       YYZ       8.4710    XZZ       2.9966    YZZ     -11.2556
       ZZZ       0.3834
    Hexadecapole Moments (Debye-Ang^3)
      XXXX  -17294.1960   XXXY    1240.5635   XXYY   -3581.7297
      XYYY     -63.4732   YYYY   -3550.3347   XXXZ     514.7936
      XXYZ      43.4880   XYYZ      45.1524   YYYZ      10.0411
      XXZZ   -3454.9853   XYZZ      13.4181   YYZZ    -734.7150
      XZZZ      35.9324   YZZZ      -7.7626   ZZZZ    -344.6170
 -----------------------------------------------------------------
 Calculating analytic gradient of the SCF energy
 K construction time:  CPU 2909.10 s  wall 183.75 s
 Gradient of SCF Energy
            1           2           3           4           5           6
    1  -0.0002552   0.0003921  -0.0000605  -0.0002985   0.0000344   0.0000374
    2  -0.0001581   0.0001567  -0.0000539  -0.0000588   0.0000570  -0.0000986
    3  -0.0001048   0.0000342  -0.0000199   0.0004915  -0.0001394  -0.0005771
            7           8           9          10          11          12
    1  -0.0000010  -0.0003608   0.0000301  -0.0003634  -0.0002735   0.0000690
    2  -0.0001421  -0.0000552   0.0003625  -0.0006095  -0.0000827   0.0004972
    3   0.0005406  -0.0000351  -0.0000035  -0.0033790   0.0000782   0.0002241
           13          14          15          16          17          18
    1   0.0007233   0.0000879   0.0003186  -0.0006730   0.0002853   0.0000105
    2   0.0010530  -0.0007272  -0.0002257  -0.0002275   0.0005273  -0.0003245
    3   0.0029238   0.0000762   0.0000467   0.0014654  -0.0022549   0.0010130
           19          20          21          22          23          24
    1  -0.0000811  -0.0002289   0.0000744  -0.0000518  -0.0000699   0.0002656
    2  -0.0000079   0.0002096  -0.0001887   0.0000524   0.0000949  -0.0001021
    3  -0.0001414  -0.0005859   0.0000841  -0.0004450   0.0004506  -0.0000175
           25          26          27          28          29          30
    1  -0.0000788  -0.0000186  -0.0000038   0.0000611   0.0000547  -0.0000711
    2  -0.0001260   0.0000655  -0.0000825  -0.0000090   0.0000122   0.0000207
    3   0.0003300   0.0001775   0.0001158  -0.0002096  -0.0000043   0.0000530
           31          32          33          34          35          36
    1   0.0001138   0.0000720   0.0001487   0.0000920  -0.0000617   0.0000636
    2   0.0000351  -0.0000283   0.0000264  -0.0000773   0.0000598   0.0001234
    3  -0.0000521  -0.0000148  -0.0000622   0.0000193  -0.0000875  -0.0000628
           37
    1   0.0000168
    2   0.0000316
    3   0.0000728
 Max gradient component =       3.379E-03
 RMS gradient           =       5.644E-04
 Gradient time:  CPU 3353.19 s  wall 213.48 s
 Geometry Optimization Parameters
   NAtoms,    NIC,     NZ,  NCons,   NDum,   NFix, NCnnct, MaxDiis
       37     280       0       3       0       0       0       0

 Cartesian Hessian Update
 Hessian Updated using BFGS Update


** CONSTRAINED OPTIMIZATION IN DELOCALIZED INTERNAL COORDINATES **
   Searching for a Minimum

   Optimization Cycle:   3

                       Coordinates (Angstroms)
     ATOM                X               Y               Z
      1  C         7.6050294216    0.3519580697   -0.3215916348
      2  C         6.9617347854    1.3511050141    0.3899455431
      3  N         6.9638256964   -0.6489443704   -0.9174022275
      4  C         5.5830993883    1.3073623986    0.4883417776
      5  C         5.6421909707   -0.6803407423   -0.8180204858
      6  C         4.8893957581    0.2742096349   -0.1325038925
      7  C         3.4188540049    0.2083324529   -0.0817847071
      8  C         2.6382934688    1.3203448360   -0.2467221143
      9  C         2.6983129272   -1.0005510991    0.1398374590
     10  N         1.2832015931    1.3636866911   -0.2116949131
     11  N         3.1966726880   -2.2224011105    0.3370636761
     12  C         1.2715620011   -0.9690811414    0.1873939201
     13  C         0.5854861469    0.2770863331    0.0063171214
     14  S         1.9371368683   -3.2039332919    0.5498953252
     15  N         0.7210489381   -2.1592386598    0.4140619554
     16  C        -0.8548892468    0.4123784339    0.0357723376
     17  S        -1.9717985321   -0.9028749126   -0.0634466069
     18  C        -1.5490394368    1.5984853372    0.0729071941
     19  C        -3.3438622012    0.1332993547   -0.0316793461
     20  S        -1.0754555266    3.2624343221    0.1333475091
     21  C        -2.9606546563    1.4557074564    0.0546530992
     22  C        -4.6976809141   -0.3776787440   -0.0833260265
     23  C        -2.7588719024    3.7392346714    0.1836711218
     24  C        -3.6358749103    2.7213325876    0.1266232747
     25  N        -5.7516094201    0.3863116068   -0.0457497670
     26  S        -5.0642562190   -2.0749392175   -0.2008478406
     27  C        -6.8961708524   -0.3503530694   -0.1135648972
     28  C        -6.7350878475   -1.6931958835   -0.2030796135
     29  H         8.6848752260    0.3520042372   -0.4162140473
     30  H         7.5283390365    2.1386973672    0.8655638889
     31  H         5.0475358056    2.0578731566    1.0545867042
     32  H         5.1467176261   -1.5076787275   -1.3103881198
     33  H         3.1118362027    2.2741641601   -0.4462878498
     34  H        -2.9945753852    4.7898827846    0.2402692841
     35  H        -4.7079901543    2.8254552440    0.1308749366
     36  H        -7.8486825483    0.1566241780   -0.0967276113
     37  H        -7.4884002888   -2.4579218928   -0.2716840795
   Point Group: c1    Number of degrees of freedom:   105


   Energy is  -2595.905673671

              Constraints and their Current Values
                                        Value     Constraint
   Dihedral:        4   6   7   8       42.246       42.246
   Dihedral:       10  13  16  17      165.000      165.000
   Dihedral:       17  19  22  25      179.217      179.217
 Hessian Updated using BFGS Update

 80 Hessian modes will be used to form the next step
  Hessian Eigenvalues:
     0.016064    0.045000    0.045001    0.045001    0.045002    0.045005
     0.045009    0.045012    0.045691    0.050285    0.159675    0.159969
     0.159991    0.159998    0.159999    0.160000    0.160000    0.160059
     0.161549    0.220196    0.224574    0.225715    0.231965    0.233289
     0.234478    0.247414    0.247724    0.248379    0.249942    0.249961
     0.249989    0.249994    0.249998    0.249998    0.249999    0.249999
     0.268243    0.298131    0.305012    0.313093    0.316497    0.325497
     0.328980    0.334463    0.354479    0.355815    0.356390    0.356804
     0.357016    0.359329    0.360772    0.361301    0.363968    0.365023
     0.373067    0.385358    0.386881    0.391973    0.397017    0.399954
     0.417415    0.431353    0.456864    0.464956    0.473306    0.473779
     0.474598    0.483692    0.492931    0.497869    0.499614    0.517701
     0.526515    0.538214    0.559469    0.574938    0.591050    0.596363
     0.628377    0.638934

 Minimum Search - Taking Simple RFO Step
 Searching for Lamda that Minimizes Along All modes
 Value Taken    Lamda =  -0.00007599
 Step Taken.  Stepsize is  0.060678

[...]
     26  S        -5.0658606531   -2.0751126482   -0.1833967384
     27  C        -6.8956587926   -0.3466680385   -0.1330125121
     28  C        -6.7359148792   -1.6906100723   -0.2076146458
     29  H         8.6806026836    0.3616767376   -0.4473853990
     30  H         7.5324357316    2.1324002119    0.8623161815
     31  H         5.0522301124    2.0451978587    1.0715936859
     32  H         5.1369537096   -1.4919882182   -1.3341262981
     33  H         3.1038128570    2.2784206521   -0.4053080611
     34  H        -2.9877475155    4.7912238293    0.1901819705
     35  H        -4.7040006599    2.8292727639    0.0877349505
     36  H        -7.8480472863    0.1608178727   -0.1302381968
     37  H        -7.4897152848   -2.4546082334   -0.2797688692
   Point Group: c1    Number of degrees of freedom:   105


   Energy is  -2595.905729550

              Constraints and their Current Values
                                        Value     Constraint
   Dihedral:        4   6   7   8       42.246       42.246
   Dihedral:       10  13  16  17      165.000      165.000
   Dihedral:       17  19  22  25      179.217      179.217
 Hessian Updated using BFGS Update

 96 Hessian modes will be used to form the next step
  Hessian Eigenvalues:
     0.013323    0.020589    0.042047    0.045000    0.045000    0.045000
     0.045000    0.045000    0.045000    0.045000    0.045000    0.045000
     0.045001    0.045001    0.045001    0.045001    0.045002    0.045005
     0.045006    0.045008    0.045009    0.045020    0.045227    0.046060
     0.048850    0.155657    0.159464    0.159947    0.159980    0.160000
     0.160000    0.160053    0.160087    0.160182    0.220119    0.224570
     0.225630    0.231917    0.233892    0.234696    0.246486    0.247346
     0.247839    0.247992    0.249793    0.249963    0.249993    0.249996
     0.249998    0.249999    0.251583    0.267531    0.297538    0.304393
     0.311086    0.316288    0.323356    0.328573    0.334652    0.352845
     0.354515    0.355783    0.356386    0.356798    0.357302    0.359349
     0.360770    0.361325    0.363957    0.365018    0.385570    0.386738
     0.389465    0.395454    0.406423    0.410409    0.431228    0.442584
     0.455259    0.464329    0.471754    0.473931    0.476529    0.483104
     0.491614    0.498592    0.499532    0.517142    0.527741    0.538361
     0.564993    0.575136    0.591797    0.629467    0.639309    0.659394

 Minimum Search - Taking Simple RFO Step
 Searching for Lamda that Minimizes Along All modes
 Value Taken    Lamda =   0.00000000
 Step Taken.  Stepsize is  0.002022

                             Maximum     Tolerance    Cnvgd?
         Gradient           0.000032      0.000300     YES
         Displacement       0.000767      0.001200     YES
         Energy change      0.000000      0.000001     YES

 Final energy is   -2595.90572955040     


 ******************************
 **  OPTIMIZATION CONVERGED  **
 ******************************

                       Coordinates (Angstroms)
     ATOM                X               Y               Z
      1  C         7.6016188103    0.3594880593   -0.3445345071
      2  C         6.9623513512    1.3497313388    0.3827198201
      3  N         6.9566959125   -0.6356554530   -0.9460986316
      4  C         5.5849481306    1.3032137573    0.4914545927
      5  C         5.6357731999   -0.6695405450   -0.8369595820
      6  C         4.8871481145    0.2770058542   -0.1359268242
      7  C         3.4173877913    0.2078949713   -0.0714480256
      8  C         2.6343094108    1.3210401683   -0.2141893914
      9  C         2.6995677524   -1.0047893381    0.1401241106
     10  N         1.2798847997    1.3627042585   -0.1618910757
     11  N         3.2002385166   -2.2290246917    0.3138777708
     12  C         1.2731960828   -0.9748690625    0.2037584793
     13  C         0.5844646080    0.2728637111    0.0490942348
     14  S         1.9426124003   -3.2131138067    0.5263848050
     15  N         0.7244464974   -2.1674971389    0.4189971344
     16  C        -0.8549381781    0.4061433860    0.0895552937
     17  S        -1.9740334769   -0.9080510945   -0.0162131924
     18  C        -1.5475678152    1.5943005174    0.0988686822
     19  C        -3.3436749076    0.1318530607   -0.0123281238
     20  S        -1.0701841284    3.2570822451    0.1459237564
     21  C        -2.9590819763    1.4546815411    0.0616054668
     22  C        -4.6977489039   -0.3774337119   -0.0748894126
     23  C        -2.7532447757    3.7391709644    0.1557489621
     24  C        -3.6323394857    2.7228158758    0.1022357212
     25  N        -5.7506712415    0.3887998829   -0.0584357844
     26  S        -5.0658606531   -2.0751126482   -0.1833967384
     27  C        -6.8956587926   -0.3466680385   -0.1330125121
     28  C        -6.7359148792   -1.6906100723   -0.2076146458
     29  H         8.6806026836    0.3616767376   -0.4473853990
     30  H         7.5324357316    2.1324002119    0.8623161815
     31  H         5.0522301124    2.0451978587    1.0715936859
     32  H         5.1369537096   -1.4919882182   -1.3341262981
     33  H         3.1038128570    2.2784206521   -0.4053080611
     34  H        -2.9877475155    4.7912238293    0.1901819705
     35  H        -4.7040006599    2.8292727639    0.0877349505
     36  H        -7.8480472863    0.1608178727   -0.1302381968
     37  H        -7.4897152848   -2.4546082334   -0.2797688692

Z-matrix Print:
$molecule
0 1
S 
C  1 1.719690
C  2 1.379584 1 110.972452
C  3 1.418892 2 111.905956 1 -0.652259 0
C  4 1.375333 3 114.569964 2 1.591339 0
C  3 1.436346 2 135.841318 1 179.796918 0
H  6 1.077033 3 123.592150 2 -0.736929 0
C  6 1.344860 3 111.220589 2 179.076705 0
H  8 1.078421 6 126.611392 3 -179.731569 0
C  5 1.446126 4 125.526341 3 -176.474722 0
N  10 1.309915 5 117.145309 4 8.929350 0
C  11 1.356074 10 120.723360 5 179.983727 0
H  12 1.083299 11 114.363574 10 -179.315724 0
C  12 1.368459 11 126.335109 10 -0.383194 0
C  14 1.425002 12 114.800942 11 -0.536113 0
N  15 1.334022 14 127.680112 12 179.791008 0
C  15 1.428104 14 119.466051 12 0.788196 0
N  17 1.330344 15 113.604039 14 179.318919 0
C  2 1.448034 1 122.139951 3 179.765630 0
N  19 1.302317 2 123.268218 1 -179.216985 0
C  20 1.362891 19 111.164079 2 -179.792938 0
H  21 1.079163 20 119.177304 19 179.929087 0
C  21 1.355457 20 116.043644 19 -0.012305 0
H  23 1.075693 21 128.704978 20 179.549504 0
C  14 1.472796 12 121.891845 11 179.528395 0
C  25 1.390552 14 121.041463 12 -42.245741 0
H  26 1.082077 25 120.058308 14 -2.480302 0
C  26 1.382471 25 119.295987 14 178.567666 0
H  28 1.080546 26 121.005328 25 179.746909 0
C  28 1.384971 26 118.497817 25 0.462747 0
H  30 1.083877 28 120.522405 26 179.733896 0
N  30 1.329705 28 123.283784 26 -0.060510 0
C  32 1.325857 30 117.716293 28 -0.033644 0
H  33 1.082782 32 116.141245 30 179.833324 0
S  18 1.608967 17 106.325558 15 -0.005009 0
S  23 1.713917 21 109.663432 20 -0.038146 0
S  4 1.730593 3 111.695503 2 -178.372055 0
$end

 
 --------------------------------------------------------------
 
                    Orbital Energies (a.u.)
 --------------------------------------------------------------
 
 Alpha MOs
 -- Occupied --
-89.156 -89.094 -89.093 -89.075 -14.495 -14.489 -14.453 -14.445
-14.436 -10.375 -10.370 -10.363 -10.361 -10.345 -10.341 -10.340
-10.334 -10.329 -10.327 -10.327 -10.327 -10.326 -10.323 -10.319
-10.315 -10.314 -10.303 -10.296  -8.166  -8.109  -8.108  -8.089
 -6.116  -6.111  -6.110  -6.058  -6.057  -6.054  -6.054  -6.052
 -6.051  -6.039  -6.035  -6.032  -1.153  -1.084  -1.073  -1.055
 -1.024  -1.016  -0.957  -0.946  -0.912  -0.911  -0.907  -0.884
 -0.862  -0.845  -0.829  -0.807  -0.776  -0.753  -0.745  -0.728
 -0.724  -0.695  -0.689  -0.679  -0.648  -0.641  -0.623  -0.621
 -0.609  -0.596  -0.584  -0.578  -0.570  -0.567  -0.541  -0.536
 -0.527  -0.523  -0.518  -0.514  -0.512  -0.503  -0.497  -0.492
 -0.489  -0.481  -0.477  -0.463  -0.458  -0.449  -0.437  -0.433
 -0.430  -0.423  -0.403  -0.397  -0.383  -0.373  -0.371  -0.370
 -0.364  -0.358  -0.343  -0.337  -0.327  -0.319  -0.268
 -- Virtual --
 -0.057  -0.011   0.026   0.038   0.045   0.058   0.064   0.065
  0.075   0.101   0.107   0.112   0.118   0.121   0.131   0.134
  0.142   0.147   0.151   0.167   0.169   0.170   0.171   0.179
  0.190   0.199   0.200   0.212   0.214   0.227   0.231   0.243
  0.253   0.254   0.260   0.266   0.271   0.273   0.288   0.291
  0.297   0.298   0.301   0.309   0.311   0.318   0.320   0.327
  0.330   0.333   0.335   0.339   0.345   0.351   0.354   0.356
  0.364   0.366   0.369   0.375   0.378   0.381   0.386   0.387
  0.391   0.393   0.399   0.402   0.405   0.407   0.408   0.410
  0.419   0.425   0.428   0.430   0.434   0.438   0.438   0.441
  0.450   0.451   0.455   0.457   0.461   0.462   0.465   0.469
  0.470   0.472   0.476   0.480   0.483   0.487   0.489   0.491
  0.494   0.499   0.502   0.505   0.509   0.515   0.518   0.523
  0.523   0.528   0.532   0.543   0.545   0.546   0.549   0.552
  0.557   0.561   0.574   0.579   0.586   0.589   0.594   0.596
  0.604   0.611   0.623   0.628   0.633   0.639   0.648   0.651
  0.655   0.660   0.663   0.667   0.674   0.676   0.682   0.686
  0.689   0.693   0.698   0.705   0.707   0.719   0.727   0.731
  0.736   0.740   0.741   0.742   0.745   0.748   0.763   0.768
  0.771   0.773   0.774   0.775   0.780   0.791   0.794   0.797
  0.806   0.811   0.813   0.816   0.822   0.825   0.827   0.831
  0.833   0.843   0.848   0.851   0.854   0.855   0.865   0.870
  0.872   0.879   0.881   0.895   0.898   0.903   0.908   0.915
  0.922   0.923   0.934   0.937   0.937   0.947   0.950   0.952
  0.956   0.968   0.971   0.975   0.980   0.985   0.987   0.992
  0.993   0.999   1.011   1.019   1.023   1.026   1.029   1.037
  1.044   1.052   1.054   1.057   1.066   1.070   1.073   1.077
  1.084   1.087   1.095   1.099   1.106   1.112   1.120   1.125
  1.135   1.141   1.146   1.149   1.164   1.169   1.176   1.177
  1.180   1.192   1.194   1.204   1.213   1.220   1.223   1.226
  1.235   1.239   1.245   1.255   1.263   1.268   1.273   1.274
  1.278   1.289   1.299   1.301   1.309   1.318   1.320   1.333
  1.341   1.351   1.356   1.360   1.364   1.372   1.379   1.384
  1.389   1.400   1.402   1.413   1.417   1.428   1.431   1.433
  1.443   1.448   1.449   1.457   1.460   1.473   1.486   1.486
  1.495   1.503   1.508   1.522   1.531   1.534   1.539   1.542
  1.551   1.562   1.570   1.573   1.587   1.590   1.597   1.602
  1.608   1.616   1.616   1.625   1.632   1.634   1.639   1.644
  1.650   1.659   1.662   1.663   1.671   1.679   1.687   1.690
  1.693   1.697   1.701   1.707   1.714   1.725   1.730   1.740
  1.745   1.753   1.762   1.767   1.776   1.783   1.786   1.790
  1.803   1.809   1.820   1.828   1.836   1.852   1.860   1.869
  1.879   1.881   1.882   1.890   1.908   1.914   1.923   1.925
  1.933   1.942   1.947   1.955   1.959   1.974   1.981   1.984
  1.993   2.000   2.004   2.005   2.018   2.021   2.031   2.031
  2.052   2.061   2.067   2.075   2.081   2.084   2.089   2.110
  2.114   2.121   2.134   2.140   2.143   2.154   2.164   2.174
  2.176   2.184   2.189   2.196   2.201   2.220   2.230   2.234
  2.236   2.245   2.256   2.258   2.266   2.275   2.282   2.285
  2.300   2.305   2.324   2.346   2.346   2.356   2.361   2.367
  2.372   2.381   2.382   2.391   2.396   2.399   2.406   2.413
  2.421   2.431   2.434   2.440   2.452   2.458   2.463   2.472
  2.478   2.482   2.483   2.492   2.499   2.511   2.514   2.518
  2.526   2.532   2.539   2.544   2.552   2.569   2.572   2.577
  2.590   2.601   2.605   2.615   2.617   2.621   2.628   2.631
  2.638   2.651   2.656   2.660   2.672   2.675   2.679   2.705
  2.710   2.727   2.739   2.754   2.756   2.767   2.769   2.778
  2.781   2.787   2.789   2.793   2.797   2.801   2.809   2.812
  2.825   2.828   2.840   2.851   2.858   2.868   2.875   2.878
  2.886   2.891   2.906   2.910   2.922   2.931   2.936   2.938
  2.940   2.947   2.952   2.953   2.959   2.966   2.973   2.974
  2.980   2.988   2.994   3.002   3.012   3.018   3.022   3.027
  3.030   3.038   3.042   3.054   3.058   3.062   3.063   3.070
  3.071   3.079   3.085   3.090   3.091   3.098   3.104   3.107
  3.112   3.117   3.121   3.122   3.127   3.131   3.136   3.146
  3.149   3.157   3.165   3.171   3.174   3.179   3.180   3.184
  3.186   3.190   3.194   3.198   3.201   3.203   3.209   3.212
  3.219   3.222   3.227   3.229   3.239   3.241   3.248   3.252
  3.255   3.256   3.263   3.266   3.268   3.278   3.280   3.290
  3.294   3.297   3.301   3.302   3.310   3.314   3.321   3.328
  3.332   3.338   3.345   3.350   3.353   3.359   3.368   3.368
  3.374   3.379   3.384   3.392   3.397   3.408   3.417   3.419
  3.422   3.432   3.441   3.446   3.453   3.463   3.464   3.470
  3.478   3.481   3.485   3.488   3.500   3.501   3.507   3.514
  3.518   3.527   3.535   3.542   3.551   3.556   3.565   3.577
  3.580   3.585   3.595   3.599   3.600   3.614   3.625   3.637
  3.643   3.650   3.657   3.665   3.676   3.681   3.689   3.694
  3.708   3.720   3.725   3.733   3.738   3.750   3.755   3.761
  3.772   3.775   3.780   3.794   3.801   3.804   3.807   3.813
  3.824   3.830   3.838   3.846   3.850   3.855   3.864   3.866
  3.870   3.877   3.891   3.904   3.922   3.924   3.928   3.938
  3.944   3.950   3.950   3.953   3.962   3.967   3.971   3.981
  3.986   3.992   3.998   4.008   4.024   4.032   4.039   4.042
  4.062   4.071   4.076   4.086   4.093   4.093   4.111   4.120
  4.136   4.140   4.141   4.160   4.171   4.176   4.182   4.189
  4.190   4.196   4.202   4.212   4.222   4.227   4.236   4.247
  4.267   4.271   4.274   4.282   4.291   4.295   4.307   4.319
  4.321   4.340   4.346   4.351   4.355   4.380   4.383   4.389
  4.395   4.404   4.416   4.421   4.432   4.436   4.453   4.458
  4.471   4.473   4.480   4.491   4.506   4.520   4.525   4.534
  4.546   4.554   4.565   4.570   4.572   4.591   4.597   4.603
  4.616   4.636   4.640   4.654   4.664   4.677   4.681   4.693
  4.698   4.713   4.726   4.735   4.751   4.781   4.791   4.793
  4.812   4.822   4.837   4.844   4.849   4.853   4.855   4.868
  4.877   4.884   4.904   4.933   4.934   4.940   4.946   4.950
  4.957   4.965   4.966   4.976   4.986   4.988   4.999   5.009
  5.026   5.037   5.045   5.055   5.069   5.084   5.094   5.099
  5.113   5.130   5.134   5.144   5.161   5.173   5.174   5.196
  5.208   5.233   5.235   5.241   5.252   5.259   5.282   5.283
  5.316   5.317   5.336   5.340   5.354   5.383   5.399   5.411
  5.428   5.442   5.459   5.464   5.478   5.488   5.512   5.530
  5.532   5.547   5.557   5.588   5.605   5.655   5.662   5.665
  5.694   5.705   5.720   5.737   5.761   5.777   5.815   5.822
  5.850   5.887   5.891   5.943   5.950   5.996   6.017   6.094
  6.138   6.151   6.167   6.186   6.199   6.224   6.260   6.314
  6.345   6.353   6.399   6.409   6.487   6.851   7.021   8.010
  8.907   9.796  10.168  10.930  11.178  11.223  11.696  11.997
 12.298  12.499  12.555  12.812  12.875  13.151  13.155  13.452
 13.531  13.575  13.832  13.894  14.264  14.736  14.985
 --------------------------------------------------------------
 
          Ground-State Mulliken Net Atomic Charges

     Atom                 Charge (a.u.)
  ----------------------------------------
      1 C                    -0.072269
      2 C                    -0.102922
      3 N                    -0.155081
      4 C                    -0.157939
      5 C                    -0.095105
      6 C                     0.109970
      7 C                     0.033596
      8 C                    -0.095630
      9 C                     0.023138
     10 N                    -0.180981
     11 N                    -0.277158
     12 C                     0.025078
     13 C                     0.107690
     14 S                     0.413639
     15 N                    -0.281933
     16 C                    -0.052173
     17 S                     0.131259
     18 C                    -0.012654
     19 C                    -0.024584
     20 S                     0.088808
     21 C                     0.026732
     22 C                     0.037659
     23 C                    -0.161973
     24 C                    -0.161171
     25 N                    -0.183627
     26 S                     0.100740
     27 C                    -0.075142
     28 C                    -0.202739
     29 H                     0.124268
     30 H                     0.129267
     31 H                     0.131698
     32 H                     0.127986
     33 H                     0.133092
     34 H                     0.131446
     35 H                     0.142671
     36 H                     0.129094
     37 H                     0.145251
  ----------------------------------------
  Sum of atomic charges =     0.000000

 -----------------------------------------------------------------
                    Cartesian Multipole Moments
 -----------------------------------------------------------------
    Charge (ESU x 10^10)
                 0.0000
    Dipole Moment (Debye)
         X      -1.7979      Y       0.2482      Z       1.0463
       Tot       2.0950
    Quadrupole Moments (Debye-Ang)
        XX    -168.7607     XY      17.7416     YY    -170.8981
        XZ       9.1526     YZ       1.5572     ZZ    -189.5344
    Octopole Moments (Debye-Ang^2)
       XXX    -215.2171    XXY      55.9102    XYY     -31.1822
       YYY      -1.1955    XXZ      48.9740    XYZ      -0.7771
       YYZ       6.3054    XZZ       2.6471    YZZ     -10.8948
       ZZZ      -2.5961
    Hexadecapole Moments (Debye-Ang^3)
      XXXX  -17273.0672   XXXY    1233.9780   XXYY   -3581.1017
      XYYY     -66.7158   YYYY   -3552.7415   XXXZ     540.2427
      XXYZ      39.7816   XYYZ      51.7381   YYYZ       4.9710
      XXZZ   -3455.9075   XYZZ      13.5280   YYZZ    -735.8334
      XZZZ      47.5967   YZZZ      -8.7490   ZZZZ    -344.7619
 -----------------------------------------------------------------
Archival summary:
1\1\mn250\OPT\ProcedureUnspecified\BasisUnspecified\45199\afmv_a\SatJun312:17:282017SatJun312:17:282017\0\\#,OPT,ProcedureUnspecified,BasisUnspecified,\\0,1\S\C,1,1.71969\C,2,1.37958,1,110.972\C,3,1.41889,2,111.906,1,-0.652259,0\C,4,1.37533,3,114.57,2,1.59134,0\C,3,1.43635,2,135.841,1,179.797,0\H,6,1.07703,3,123.592,2,-0.736929,0\C,6,1.34486,3,111.221,2,179.077,0\H,8,1.07842,6,126.611,3,-179.732,0\C,5,1.44613,4,125.526,3,-176.475,0\N,10,1.30991,5,117.145,4,8.92935,0\C,11,1.35607,10,120.723,5,179.984,0\H,12,1.0833,11,114.364,10,-179.316,0\C,12,1.36846,11,126.335,10,-0.383194,0\C,14,1.425,12,114.801,11,-0.536113,0\N,15,1.33402,14,127.68,12,179.791,0\C,15,1.4281,14,119.466,12,0.788196,0\N,17,1.33034,15,113.604,14,179.319,0\C,2,1.44803,1,122.14,3,179.766,0\N,19,1.30232,2,123.268,1,-179.217,0\C,20,1.36289,19,111.164,2,-179.793,0\H,21,1.07916,20,119.177,19,179.929,0\C,21,1.35546,20,116.044,19,-0.0123049,0\H,23,1.07569,21,128.705,20,179.55,0\C,14,1.4728,12,121.892,11,179.528,0\C,25,1.39055,14,121.041,12,-42.2457,0\H,26,1.08208,25,120.058,14,-2.4803,0\C,26,1.38247,25,119.296,14,178.568,0\H,28,1.08055,26,121.005,25,179.747,0\C,28,1.38497,26,118.498,25,0.462747,0\H,30,1.08388,28,120.522,26,179.734,0\N,30,1.32971,28,123.284,26,-0.0605102,0\C,32,1.32586,30,117.716,28,-0.0336444,0\H,33,1.08278,32,116.141,30,179.833,0\S,18,1.60897,17,106.326,15,-0.00500852,0\S,23,1.71392,21,109.663,20,-0.038146,0\S,4,1.73059,3,111.696,2,-178.372,0\\\@

 Total job time:  6213.24s(wall), 93990.08s(cpu) 
 Sat Jun  3 12:17:29 2017

        *************************************************************
        *                                                           *
        *  Thank you very much for using Q-Chem.  Have a nice day.  *
        *                                                           *
        *************************************************************


0 sent ACK to 0 
now end server 0 ... 
cleanup process ... done
