
Running Job 1 of 1 C271_2/C271_180.qcin
qchem C271_2/C271_180.qcin_35709.0 /tmpu/cab_g/afmv_a/scratch_qchem/qchem35709/ 1
/tmpu/appuserlic/qchem4.4/parallel-MPICH/bin/mpi/mpirun_qchem -machinefile /tmpu/appuserlic/qchem4.4/parallel-MPICH/bin/mpi/machines -np 1 /tmpu/appuserlic/qchem4.4/parallel-MPICH/exe/qcprog.exe C271_2/C271_180.qcin_35709.0 /tmpu/cab_g/afmv_a/scratch_qchem/qchem35709/

Process 0 of 1 is on mn250 - thread support 0
initial socket setup ...start
initial socket setup ...done 
now start server 0 ... 
Check license passed

                  Welcome to Q-Chem
     A Quantum Leap Into The Future Of Chemistry


 Q-Chem 4.4, Q-Chem, Inc., Pleasanton, CA (2016)

 Y. Shao,  Z. Gan,  E. Epifanovsky,  A. T. B. Gilbert,  M. Wormit,  
 J. Kussmann,  A. W. Lange,  A. Behn,  J. Deng,  X. Feng,  D. Ghosh,  
 M. Goldey,  P. R. Horn,  L. D. Jacobson,  I. Kaliman,  F. Rob,  
 R. Z. Khaliullin,  T. Kus,  A. Landau,  J. Liu,  E. I. Proynov,  Y. M. Rhee,  
 R. M. Richard,  M. A. Rohrdanz,  R. P. Steele,  E. J. Sundstrom,  
 H. L. Woodcock III,  P. M. Zimmerman,  D. Zuev,  B. Albrecht,  E. Alguire,  
 B. Austin,  S. A. Baeppler,  G. J. O. Beran,  Y. A. Bernard,  E. Berquist,  
 K. Brandhorst,  K. B. Bravaya,  S. T. Brown,  D. Casanova,  C.-M. Chang,  
 Y. Chen,  S. H. Chien,  K. D. Closser,  M. P. Coons,  D. L. Crittenden,  
 S. Dasgupta,  M. Diedenhofen,  R. A. DiStasio Jr.,  H. Do,  A. D. Dutoi,  
 R. G. Edgar,  P.-T. Fang,  S. Fatehi,  Q. Feng,  L. Fusti-Molnar,  
 A. Ghysels,  A. Golubeva-Zadorozhnaya,  J. Gomes,  A. Gunina,  
 M. W. D. Hanson-Heine,  P. H. P. Harbach,  A. W. Hauser,  J. E. Herr,  
 E. G. Hohenstein,  Z. C. Holden,  K. Hui,  T.-C. Jagau,  H. Ji,  B. Kaduk,  
 K. Khistyaev,  Jaehoon Kim,  Jihan Kim,  R. A. King,  P. Klunzinger,  
 K. Koh,  D. Kosenkov,  T. Kowalczyk,  C. M. Krauter,  A. Kunitsa,  
 K. U. Lao,  A. Laurent,  K. V. Lawler,  J. Lee,  D. Lefrancois,  S. Lehtola,  
 S. V. Levchenko,  C. Y. Lin,  Y.-S. Lin,  F. Liu,  E. Livshits,  
 R. C. Lochan,  A. Luenser,  P. Manohar,  S. F. Manzer,  S.-P. Mao,  Y. Mao,  
 N. Mardirossian,  A. V. Marenich,  L. A. Martinez-Martinez,  S. A. Maurer,  
 N. J. Mayhall,  J.-M. Mewes,  A. F. Morrison,  K. Nanda,  T. S. Nguyen-Beck,  
 C. M. Oana,  R. Olivares-Amaya,  D. P. O'Neill,  J. A. Parkhill,  
 T. M. Perrine,  R. Peverati,  P. A. Pieniazek,  F. Plasser,  A. Prociuk,  
 D. R. Rehn,  E. Rosta,  N. J. Russ,  N. Sergueev,  S. M. Sharada,  
 S. Sharma,  D. W. Small,  A. Sodt,  T. Stauch,  T. Stein,  D. Stuck,  
 Y.-C. Su,  A. J. W. Thom,  T. Tsuchimochi,  L. Vogt,  O. Vydrov,  T. Wang,  
 M. A. Watson,  J. Wenzel,  A. White,  C. F. Williams,  V. Vanovschi,  
 K. Yao,  S. Yeganeh,  S. R. Yost,  Z.-Q. You,  I. Y. Zhang,  X. Zhang,  
 Y. Zhao,  B. R. Brooks,  G. K. L. Chan,  D. M. Chipman,  C. J. Cramer,  
 W. A. Goddard III,  M. S. Gordon,  W. J. Hehre,  A. Klamt,  
 H. F. Schaefer III,  M. W. Schmidt,  C. D. Sherrill,  D. G. Truhlar,  
 A. Warshel,  X. Xu,  A. Aspuru-Guzik,  R. Baer,  A. T. Bell,  N. A. Besley,  
 J.-D. Chai,  A. Dreuw,  B. D. Dunietz,  T. R. Furlani,  S. R. Gwaltney,  
 C.-P. Hsu,  Y. Jung,  J. Kong,  D. S. Lambrecht,  W. Liang,  C. Ochsenfeld,  
 V. A. Rassolov,  L. V. Slipchenko,  J. E. Subotnik,  T. Van Voorhis,  
 J. M. Herbert,  A. I. Krylov,  P. M. W. Gill,  M. Head-Gordon

 Contributors to earlier versions of Q-Chem not listed above: 
 R. D. Adamson,  J. Baker,  E. F. C. Byrd,  A. K. Chakraborty,  C.-L. Cheng,  
 H. Dachsel,  R. J. Doerksen,  G. Hawkins,  A. Heyden,  S. Hirata,  
 G. Kedziora,  F. J. Keil,  C. Kelley,  P. P. Korambath,  W. Kurlancheek,  
 A. M. Lee,  M. S. Lee,  D. Liotard,  I. Lotan,  P. E. Maslen,  N. Nair,  
 D. Neuhauser,  R. Olson,  B. Peters,  J. Ritchie,  N. E. Schultz,  
 N. Shenvi,  A. C. Simmonett,  K. S. Thanthiriwatte,  Q. Wu,  W. Zhang

 Please cite Q-Chem as follows:
 Y. Shao et al., Mol. Phys. 113, 184-215 (2015)
 DOI: 10.1080/00268976.2014.952696

 Q-Chem 4.4.2 for Intel X86 Linux

 Parts of Q-Chem use Armadillo 5.200.1 (Boston Tea Smuggler).
 http://arma.sourceforge.net/

 Q-Chem begins on Sat Jun  3 12:17:38 2017  

Host: 
0

     Scratch files written to /tmpu/cab_g/afmv_a/scratch_qchem/qchem35709//
 Dec716 11556_ 22328  22283 4050   
 Parallel job on  1  processors
Processing $rem in /tmpu/appuserlic/qchem4.4/parallel-MPICH/config/preferences.
 MEM_TOTAL  2000 
FILE_GEOM_ORG=        593

Checking the input file for inconsistencies... 	...done.

--------------------------------------------------------------
User input:
--------------------------------------------------------------
$comment
OPTIMIZATION
$end

$rem
JOBTYPE OPT
EXCHANGE omegaB97X-D
BASIS cc-pVTZ
$end

$molecule
0 1
C          0.00000        0.00000        0.00000
C          1.38508        0.00000        0.00000
N         -0.72771       -1.11322        0.00000
C          2.04720       -1.21160       -0.00386
C         -0.08136       -2.27149       -0.00595
C          1.30925       -2.38901       -0.00649
C          1.96927       -3.70493        0.02329
C          3.04486       -3.95576        0.82999
C          1.55200       -4.80802       -0.77739
N          3.72631       -5.12438        0.91627
N          0.54624       -4.84522       -1.65350
C          2.26335       -6.04410       -0.69858
C          3.37925       -6.16090        0.19241
S          0.53898       -6.32692       -2.28381
N          1.78433       -6.98642       -1.50573
C          4.16725       -7.35995        0.35676
S          3.91759       -8.85630       -0.47654
C          5.24284       -7.48644        1.20548
C          5.24086       -9.62433        0.31140
S          6.02523       -6.40518        2.30730
C          5.86192       -8.76203        1.19074
C          5.60656      -10.99715        0.03244
C          7.16320       -7.66629        2.73181
C          6.97878       -8.83533        2.09320
N          6.61068      -11.59852        0.60298
S          4.74009      -11.99572       -1.10233
C          6.73509      -12.87992        0.15496
C          5.82399      -13.28065       -0.76496
H         -0.55134        0.93273        0.00000
H          1.92494        0.93597       -0.01293
H          3.12873       -1.25416       -0.02668
H         -0.69553       -3.16348       -0.00579
H          3.41622       -3.17720        1.48423
H          7.93306       -7.44725        3.45538
H          7.57866       -9.72060        2.21891
H          7.52823      -13.50399        0.53756
H          5.73469      -14.23656       -1.25046
$end

$opt
CONSTRAINT
tors 4 6 7 8 42.24575
tors 10 13 16 17 180.00000
tors 17 19 22 25 179.21698
ENDCONSTRAINT
$end
--------------------------------------------------------------
 ----------------------------------------------------------------
             Standard Nuclear Orientation (Angstroms)
    I     Atom           X                Y                Z
 ----------------------------------------------------------------
    1      C       7.6083554596     0.4082379417    -0.0675270717
    2      C       6.9275497164     1.2921724908     0.7532103158
    3      N       6.9981003640    -0.4988690633    -0.8248686144
    4      C       5.5488005860     1.2303639564     0.7934954822
    5      C       5.6735748141    -0.5509117574    -0.7767360541
    6      C       4.8878935432     0.2894617157     0.0132543133
    7      C       3.4178328391     0.2070044069    -0.0035091542
    8      C       2.6317849918     1.3254785864    -0.0449665824
    9      C       2.7027711578    -1.0257867132     0.0268735629
   10      N       1.2765179226     1.3525207535    -0.0482737841
   11      N       3.2074321837    -2.2599945885     0.0774098810
   12      C       1.2745145384    -1.0114141577     0.0271257146
   13      C       0.5810892509     0.2416512294    -0.0144283010
   14      S       1.9533443543    -3.2693737971     0.1119876625
   15      N       0.7299092097    -2.2239447823     0.0728726908
   16      C      -0.8568093064     0.3760565525    -0.0220946566
   17      S      -1.9946077901    -0.9276606313     0.0168725531
   18      C      -1.5367889414     1.5716778190    -0.0586554239
   19      C      -3.3511896242     0.1308363985    -0.0152643854
   20      S      -1.0348340303     3.2273208655    -0.1050448815
   21      C      -2.9494924052     1.4497825549    -0.0544566021
   22      C      -4.7110295468    -0.3656082093     0.0085696298
   23      C      -2.7113778827     3.7318962231    -0.1187310950
   24      C      -3.6061246357     2.7283206040    -0.0913045626
   25      N      -5.7552467250     0.4121724849    -0.0007265833
   26      S      -5.0981538694    -2.0637478425     0.0540866999
   27      C      -6.9087666506    -0.3133532175     0.0337692828
   28      C      -6.7645905064    -1.6605966149     0.0667695390
   29      H       8.6903634830     0.4273013827    -0.1209711641
   30      H       7.4766488600     2.0003858971     1.3570147105
   31      H       4.9813030976     1.8886096223     1.4390173570
   32      H       5.1998633582    -1.2974773244    -1.4021065724
   33      H       3.0943622097     2.3033774579    -0.0877452630
   34      H      -2.9345521978     4.7873106172    -0.1413179949
   35      H      -4.6768442432     2.8419794674    -0.0895223408
   36      H      -7.8598703739     0.1968613340     0.0338292344
   37      H      -7.5282278971    -2.4177784546     0.0981106514
 ----------------------------------------------------------------
 Molecular Point Group                 C1    NOp =  1
 Largest Abelian Subgroup              C1    NOp =  1
 Nuclear Repulsion Energy =  2966.4349483222 hartrees
 There are      111 alpha and      111 beta electrons
 Requested basis set is cc-pVTZ
 There are 342 shells and 982 basis functions

 Total QAlloc Memory Limit   2000 MB
 Mega-Array Size        61 MB
 MEM_STATIC part        62 MB
 A cutoff of  1.0D-11 yielded  29216 shell pairs
 There are    231704 function pairs (    302696 Cartesian)
 
 -------------------------------------------------------
 OpenMP Integral Computing Module                       
 Release: version 1.0, May 2013, Q-Chem Inc. Pittsburgh 
 -------------------------------------------------------
 Integral Job Info:
 Integral job number is                      11
 Integral operator is                         1
 short-range coefficients              22203600
 long-range coefficients              100000000
 Omega coefficients                         200
 if combine SR and LR in K                    1
 Integral screening is                        0
 Integral computing path is                   2
 max size of driver memory is            800000
 size of driver memory is                776718
 size of scratch memory is             26248924
 max col of scratch BK array              10000
 max len of scratch array in speh3          662
 max len of scratch index in speh4           32
 max int batch size is                      520
 min int batch size is                       52
 fixed nKL is                                52
 max L of basis functions is                  3
 order of int derivative is                   0
 number of shells is                        342
 number of basis is                        1131
 number of cartesian basis is              1131
 number of contracted shell pairs         29216
 number of primitive shell pairs          92371
 maxK2 (contraction) of shell pair          121
 max number of K2 of shell pair               1
 max number of CS2 of shell pair           3961
 max number of PS2 of shell pair          11690
 mem total for path MDJ                  808052
 -------------------------------------------------------
 Smallest overlap matrix eigenvalue = 2.04E-05

 Scale SEOQF with 1.000000e-02/1.000000e-01/1.000000e+00

 Standard Electronic Orientation quadrupole field applied
 Nucleus-field energy     =     0.0000000454 hartrees
 Guess from superposition of atomic densities
 Warning:  Energy on first SCF cycle will be non-variational
 Long-range K will be added via erf
 Coulomb attenuation parameter = 0.2 bohr**(-1)
 A restricted hybrid HF-DFT SCF calculation will be
 performed using Pulay DIIS extrapolation
 Exchange:     0.2220 Hartree-Fock + 1.0000 wB97X-D + LR-HF
 Correlation:  1.0000 wB97X-D
 Using SG-2 standard quadrature grid
 Dispersion:   Grimme D
 SCF converges when DIIS error is below 1.0E-08
 using 16 threads for integral computing 
 using 16 threads for integral computing 
 K construction time:  CPU 70.63 s  wall 4.68 s
 -------------------------------------------------------
 OpenMP BLAS3 based DFT computing Module                
 Release: version 1.0, May 2013, Q-Chem Inc. Pittsburgh 
 -------------------------------------------------------
 ---------------------------------------
  Cycle       Energy         DIIS Error
 ---------------------------------------
    1   -2605.9012955109      1.87E-02
 K construction time:  CPU 1086.94 s  wall 70.96 s
    2   -2595.6613721153      1.38E-03
 K construction time:  CPU 1042.27 s  wall 68.00 s
    3   -2595.6556402922      1.51E-03
 K construction time:  CPU 998.52 s  wall 65.09 s
    4   -2595.8981895766      2.55E-04
 K construction time:  CPU 923.36 s  wall 60.14 s
    5   -2595.9042865335      1.40E-04
 K construction time:  CPU 867.44 s  wall 56.61 s
    6   -2595.9063906788      4.46E-05
 K construction time:  CPU 817.31 s  wall 53.32 s
    7   -2595.9066094145      2.04E-05
 K construction time:  CPU 770.73 s  wall 50.22 s
    8   -2595.9066678894      6.35E-06
 K construction time:  CPU 741.48 s  wall 48.29 s
    9   -2595.9066799501      3.35E-06
 K construction time:  CPU 702.61 s  wall 45.77 s
   10   -2595.9066834344      1.12E-06
 K construction time:  CPU 632.01 s  wall 41.23 s
   11   -2595.9066838306      6.91E-07
 K construction time:  CPU 590.84 s  wall 38.39 s
   12   -2595.9066839475      2.16E-07
 K construction time:  CPU 526.91 s  wall 34.20 s
   13   -2595.9066839608      9.91E-08
 K construction time:  CPU 467.87 s  wall 30.35 s
   14   -2595.9066839629      2.98E-08
 K construction time:  CPU 392.61 s  wall 25.35 s
   15   -2595.9066839633      1.34E-08
 K construction time:  CPU 1089.86 s  wall 71.18 s
   16   -2595.9066839599      4.79E-09 Convergence criterion met
 ---------------------------------------
 SCF time:  CPU 15601.88 s  wall 1039.58 s
 SCF   energy in the final basis set = -2595.9066839599
 Total energy in the final basis set = -2595.9066839599
 
 --------------------------------------------------------------
 
                    Orbital Energies (a.u.)
 --------------------------------------------------------------
 
 Alpha MOs
 -- Occupied --
-89.156 -89.094 -89.093 -89.075 -14.495 -14.488 -14.452 -14.445
-14.436 -10.375 -10.370 -10.363 -10.360 -10.346 -10.341 -10.340
-10.334 -10.329 -10.328 -10.327 -10.327 -10.326 -10.322 -10.318
-10.315 -10.314 -10.303 -10.296  -8.166  -8.109  -8.108  -8.089
 -6.116  -6.111  -6.110  -6.058  -6.057  -6.055  -6.054  -6.052
 -6.051  -6.039  -6.035  -6.031  -1.153  -1.084  -1.073  -1.054
 -1.024  -1.016  -0.957  -0.946  -0.912  -0.911  -0.907  -0.884
 -0.862  -0.845  -0.829  -0.807  -0.776  -0.753  -0.745  -0.728
 -0.724  -0.694  -0.689  -0.679  -0.648  -0.642  -0.623  -0.621
 -0.609  -0.595  -0.584  -0.577  -0.570  -0.568  -0.541  -0.537
 -0.526  -0.523  -0.517  -0.514  -0.512  -0.503  -0.497  -0.491
 -0.489  -0.481  -0.477  -0.463  -0.458  -0.449  -0.437  -0.433
 -0.430  -0.423  -0.403  -0.397  -0.383  -0.373  -0.371  -0.370
 -0.364  -0.358  -0.342  -0.337  -0.327  -0.319  -0.268
 -- Virtual --
 -0.058  -0.010   0.027   0.038   0.046   0.057   0.064   0.066
  0.075   0.102   0.107   0.114   0.117   0.121   0.131   0.134
  0.142   0.147   0.151   0.167   0.169   0.170   0.170   0.180
  0.191   0.198   0.201   0.213   0.214   0.227   0.230   0.242
  0.253   0.254   0.260   0.266   0.271   0.273   0.289   0.291
  0.297   0.298   0.302   0.309   0.310   0.319   0.322   0.327
  0.331   0.332   0.337   0.339   0.345   0.351   0.355   0.356
  0.363   0.366   0.369   0.375   0.379   0.381   0.386   0.387
  0.392   0.393   0.399   0.403   0.405   0.407   0.408   0.410
  0.419   0.424   0.429   0.432   0.434   0.437   0.439   0.440
  0.450   0.451   0.455   0.457   0.461   0.464   0.465   0.469
  0.471   0.472   0.476   0.480   0.483   0.487   0.489   0.492
  0.495   0.499   0.502   0.507   0.510   0.515   0.517   0.523
  0.524   0.527   0.532   0.543   0.546   0.547   0.548   0.553
  0.557   0.563   0.573   0.578   0.585   0.591   0.595   0.599
  0.603   0.612   0.623   0.627   0.635   0.640   0.649   0.650
  0.652   0.661   0.664   0.668   0.675   0.676   0.680   0.686
  0.689   0.693   0.698   0.703   0.711   0.720   0.726   0.732
  0.737   0.739   0.742   0.744   0.747   0.751   0.764   0.766
  0.770   0.773   0.775   0.778   0.779   0.793   0.798   0.800
  0.806   0.809   0.813   0.818   0.821   0.824   0.826   0.831
  0.834   0.838   0.846   0.852   0.854   0.858   0.862   0.869
  0.875   0.878   0.881   0.893   0.899   0.902   0.906   0.914
  0.924   0.928   0.933   0.937   0.943   0.948   0.950   0.952
  0.957   0.970   0.972   0.976   0.980   0.984   0.988   0.992
  0.994   1.007   1.014   1.015   1.023   1.027   1.031   1.038
  1.050   1.051   1.054   1.062   1.065   1.072   1.076   1.081
  1.085   1.088   1.094   1.103   1.106   1.112   1.123   1.127
  1.134   1.139   1.145   1.150   1.163   1.172   1.177   1.179
  1.188   1.193   1.195   1.209   1.216   1.220   1.224   1.227
  1.235   1.235   1.249   1.257   1.263   1.271   1.274   1.276
  1.280   1.289   1.299   1.301   1.314   1.319   1.325   1.335
  1.343   1.349   1.359   1.365   1.367   1.370   1.380   1.382
  1.389   1.398   1.403   1.415   1.418   1.427   1.430   1.436
  1.444   1.448   1.452   1.457   1.462   1.475   1.484   1.486
  1.495   1.502   1.507   1.519   1.531   1.535   1.542   1.544
  1.548   1.564   1.571   1.576   1.586   1.591   1.596   1.605
  1.610   1.612   1.617   1.627   1.631   1.636   1.639   1.645
  1.654   1.661   1.663   1.668   1.672   1.681   1.683   1.686
  1.692   1.698   1.700   1.711   1.717   1.726   1.733   1.740
  1.747   1.753   1.763   1.767   1.778   1.780   1.783   1.793
  1.809   1.817   1.820   1.833   1.835   1.857   1.863   1.870
  1.881   1.882   1.885   1.892   1.908   1.920   1.922   1.925
  1.935   1.940   1.947   1.955   1.959   1.973   1.980   1.990
  1.993   1.994   2.003   2.006   2.019   2.025   2.031   2.032
  2.051   2.060   2.064   2.075   2.080   2.086   2.094   2.107
  2.117   2.122   2.132   2.139   2.146   2.160   2.164   2.172
  2.181   2.182   2.188   2.194   2.201   2.220   2.230   2.233
  2.235   2.244   2.256   2.258   2.268   2.277   2.280   2.286
  2.302   2.309   2.324   2.343   2.347   2.355   2.362   2.366
  2.377   2.379   2.382   2.393   2.396   2.398   2.406   2.415
  2.420   2.431   2.434   2.442   2.453   2.456   2.461   2.473
  2.480   2.486   2.491   2.494   2.499   2.511   2.516   2.518
  2.524   2.533   2.542   2.544   2.556   2.568   2.574   2.582
  2.591   2.605   2.607   2.614   2.616   2.620   2.627   2.631
  2.640   2.651   2.657   2.662   2.669   2.676   2.683   2.706
  2.716   2.739   2.741   2.755   2.761   2.765   2.772   2.779
  2.781   2.787   2.789   2.792   2.798   2.805   2.809   2.815
  2.827   2.827   2.838   2.846   2.858   2.869   2.875   2.877
  2.889   2.891   2.906   2.913   2.926   2.937   2.938   2.941
  2.944   2.947   2.952   2.954   2.961   2.970   2.971   2.977
  2.980   2.989   2.992   3.003   3.011   3.020   3.021   3.027
  3.030   3.044   3.046   3.056   3.058   3.061   3.062   3.067
  3.069   3.079   3.088   3.090   3.092   3.097   3.104   3.106
  3.109   3.117   3.119   3.122   3.128   3.133   3.138   3.147
  3.153   3.155   3.165   3.170   3.172   3.177   3.180   3.183
  3.186   3.188   3.194   3.200   3.203   3.203   3.210   3.214
  3.216   3.225   3.228   3.229   3.237   3.242   3.244   3.251
  3.254   3.256   3.264   3.269   3.270   3.280   3.282   3.291
  3.293   3.294   3.300   3.305   3.313   3.314   3.321   3.326
  3.330   3.334   3.343   3.349   3.352   3.357   3.365   3.372
  3.376   3.379   3.382   3.389   3.394   3.409   3.417   3.421
  3.424   3.432   3.440   3.445   3.454   3.460   3.465   3.469
  3.477   3.482   3.484   3.490   3.500   3.501   3.508   3.512
  3.517   3.529   3.535   3.540   3.555   3.556   3.566   3.575
  3.581   3.585   3.596   3.598   3.601   3.617   3.624   3.638
  3.645   3.652   3.661   3.670   3.674   3.685   3.689   3.695
  3.709   3.727   3.732   3.734   3.739   3.753   3.754   3.758
  3.773   3.778   3.780   3.794   3.800   3.804   3.807   3.814
  3.824   3.828   3.841   3.848   3.851   3.856   3.866   3.868
  3.869   3.879   3.890   3.905   3.923   3.924   3.930   3.940
  3.947   3.950   3.951   3.955   3.963   3.967   3.975   3.980
  3.987   3.995   3.998   4.010   4.022   4.034   4.038   4.043
  4.063   4.075   4.079   4.087   4.093   4.099   4.113   4.122
  4.137   4.142   4.145   4.164   4.172   4.174   4.179   4.188
  4.189   4.198   4.202   4.213   4.225   4.227   4.237   4.248
  4.266   4.272   4.278   4.283   4.289   4.299   4.310   4.321
  4.324   4.341   4.345   4.349   4.352   4.382   4.383   4.390
  4.393   4.409   4.415   4.423   4.436   4.437   4.451   4.461
  4.472   4.474   4.481   4.490   4.506   4.521   4.525   4.534
  4.548   4.556   4.564   4.571   4.572   4.592   4.597   4.604
  4.616   4.636   4.640   4.655   4.667   4.676   4.682   4.694
  4.701   4.714   4.729   4.735   4.751   4.783   4.791   4.795
  4.814   4.823   4.836   4.845   4.848   4.855   4.858   4.872
  4.874   4.886   4.904   4.934   4.935   4.940   4.947   4.952
  4.956   4.961   4.968   4.978   4.987   4.994   4.997   5.009
  5.029   5.042   5.045   5.057   5.073   5.086   5.095   5.100
  5.111   5.125   5.144   5.147   5.158   5.174   5.177   5.198
  5.209   5.231   5.234   5.241   5.254   5.258   5.280   5.283
  5.317   5.320   5.338   5.343   5.356   5.391   5.400   5.411
  5.432   5.440   5.459   5.465   5.481   5.487   5.514   5.530
  5.531   5.548   5.558   5.590   5.605   5.655   5.662   5.665
  5.694   5.705   5.724   5.741   5.764   5.780   5.818   5.823
  5.854   5.891   5.894   5.946   5.954   6.001   6.018   6.098
  6.136   6.152   6.170   6.190   6.204   6.224   6.259   6.317
  6.343   6.354   6.399   6.412   6.491   6.854   7.019   8.020
  8.938   9.809  10.175  10.942  11.183  11.226  11.734  12.019
 12.340  12.507  12.560  12.826  12.873  13.157  13.202  13.478
 13.537  13.589  13.837  13.911  14.269  14.757  14.998
 --------------------------------------------------------------
 
          Ground-State Mulliken Net Atomic Charges

     Atom                 Charge (a.u.)
  ----------------------------------------
      1 C                    -0.072086
      2 C                    -0.102073
      3 N                    -0.155634
      4 C                    -0.157034
      5 C                    -0.094397
      6 C                     0.110661
      7 C                     0.031517
      8 C                    -0.094205
      9 C                     0.019317
     10 N                    -0.183323
     11 N                    -0.275784
     12 C                     0.024623
     13 C                     0.118599
     14 S                     0.413817
     15 N                    -0.284052
     16 C                    -0.060443
     17 S                     0.130194
     18 C                    -0.004743
     19 C                    -0.021405
     20 S                     0.091955
     21 C                     0.019556
     22 C                     0.037267
     23 C                    -0.162531
     24 C                    -0.159620
     25 N                    -0.183346
     26 S                     0.099983
     27 C                    -0.074963
     28 C                    -0.203035
     29 H                     0.124196
     30 H                     0.128436
     31 H                     0.130918
     32 H                     0.128317
     33 H                     0.131382
     34 H                     0.131093
     35 H                     0.142014
     36 H                     0.129106
     37 H                     0.145723
  ----------------------------------------
  Sum of atomic charges =     0.000000

 -----------------------------------------------------------------
                    Cartesian Multipole Moments
 -----------------------------------------------------------------
    Charge (ESU x 10^10)
                 0.0000
    Dipole Moment (Debye)
         X      -1.8896      Y       0.1156      Z       1.2924
       Tot       2.2922
    Quadrupole Moments (Debye-Ang)
        XX    -169.4825     XY      16.5297     YY    -171.2436
        XZ       9.3308     YZ       1.5829     ZZ    -188.6825
    Octopole Moments (Debye-Ang^2)
       XXX    -229.5163    XXY      46.1733    XYY     -31.3889
       YYY      -0.8815    XXZ      76.5508    XYZ      12.0249
       YYZ       4.2246    XZZ       8.3218    YZZ      -8.2629
       ZZZ       2.3519
    Hexadecapole Moments (Debye-Ang^3)
      XXXX  -17378.7131   XXXY    1156.2346   XXYY   -3603.3739
      XYYY     -91.2184   YYYY   -3546.9510   XXXZ     532.5612
      XXYZ      40.5715   XYYZ      33.5847   YYYZ      -4.3671
      XXZZ   -3426.7200   XYZZ      17.1758   YYZZ    -730.0255
      XZZZ      11.8287   YZZZ       6.4350   ZZZZ    -321.5851
 -----------------------------------------------------------------
 Calculating analytic gradient of the SCF energy
 K construction time:  CPU 2921.44 s  wall 184.55 s
 Gradient of SCF Energy
            1           2           3           4           5           6
    1   0.0012504  -0.0023623   0.0003943   0.0014477  -0.0005332   0.0001225
    2   0.0003341  -0.0002137   0.0000777  -0.0003243   0.0002263   0.0006175
    3   0.0004983  -0.0003881  -0.0000558  -0.0008294  -0.0001493   0.0010902
            7           8           9          10          11          12
    1  -0.0004349   0.0014183  -0.0000914   0.0000132  -0.0004414  -0.0003469
    2   0.0004104  -0.0002076   0.0000874   0.0004778  -0.0005070   0.0003765
    3   0.0000243  -0.0007594  -0.0000014  -0.0000969   0.0001137   0.0004155
           13          14          15          16          17          18
    1  -0.0001034   0.0004902   0.0005004   0.0009891  -0.0010613  -0.0005825
    2  -0.0005110  -0.0003003   0.0001934  -0.0002648  -0.0004560  -0.0003006
    3   0.0000805  -0.0001908   0.0001185  -0.0000039  -0.0000457  -0.0000612
           19          20          21          22          23          24
    1  -0.0003569   0.0004906   0.0003806   0.0000826   0.0010079  -0.0007618
    2   0.0006637   0.0002116  -0.0005600   0.0003313  -0.0007005   0.0017265
    3  -0.0002129   0.0000346   0.0002941   0.0003360  -0.0002715  -0.0004065
           25          26          27          28          29          30
    1   0.0006943   0.0002195   0.0004300  -0.0005887  -0.0001916   0.0004759
    2   0.0000918  -0.0007874   0.0006487   0.0003254   0.0000081  -0.0003890
    3  -0.0004027  -0.0001437   0.0001490   0.0001337  -0.0000594  -0.0000193
           31          32          33          34          35          36
    1  -0.0005082  -0.0003814  -0.0008766  -0.0003333   0.0001595  -0.0005094
    2   0.0000204   0.0000077  -0.0000102   0.0002499  -0.0007139  -0.0007683
    3   0.0000671  -0.0000136   0.0003083   0.0002838   0.0001478   0.0000642
           37
    1  -0.0001020
    2  -0.0000714
    3  -0.0000483
 Max gradient component =       2.362E-03
 RMS gradient           =       5.485E-04
 Gradient time:  CPU 3366.52 s  wall 214.28 s
 Geometry Optimization Parameters
   NAtoms,    NIC,     NZ,  NCons,   NDum,   NFix, NCnnct, MaxDiis
       37     280       0       3       0       0       0       0


** CONSTRAINED OPTIMIZATION IN DELOCALIZED INTERNAL COORDINATES **
   Searching for a Minimum

   Optimization Cycle:   1

                       Coordinates (Angstroms)
     ATOM                X               Y               Z
      1  C         7.6083554596    0.4082379417   -0.0675270717
      2  C         6.9275497164    1.2921724908    0.7532103158
      3  N         6.9981003640   -0.4988690633   -0.8248686144
      4  C         5.5488005860    1.2303639564    0.7934954822
      5  C         5.6735748141   -0.5509117574   -0.7767360541
      6  C         4.8878935432    0.2894617157    0.0132543133
      7  C         3.4178328391    0.2070044069   -0.0035091542
      8  C         2.6317849918    1.3254785864   -0.0449665824
      9  C         2.7027711578   -1.0257867132    0.0268735629
     10  N         1.2765179226    1.3525207535   -0.0482737841
     11  N         3.2074321837   -2.2599945885    0.0774098810
     12  C         1.2745145384   -1.0114141577    0.0271257146
     13  C         0.5810892509    0.2416512294   -0.0144283010
     14  S         1.9533443543   -3.2693737971    0.1119876625
     15  N         0.7299092097   -2.2239447823    0.0728726908
     16  C        -0.8568093064    0.3760565525   -0.0220946566
     17  S        -1.9946077901   -0.9276606313    0.0168725531
     18  C        -1.5367889414    1.5716778190   -0.0586554239
     19  C        -3.3511896242    0.1308363985   -0.0152643854
     20  S        -1.0348340303    3.2273208655   -0.1050448815
     21  C        -2.9494924052    1.4497825549   -0.0544566021
     22  C        -4.7110295468   -0.3656082093    0.0085696298
     23  C        -2.7113778827    3.7318962231   -0.1187310950
     24  C        -3.6061246357    2.7283206040   -0.0913045626
     25  N        -5.7552467250    0.4121724849   -0.0007265833
     26  S        -5.0981538694   -2.0637478425    0.0540866999
     27  C        -6.9087666506   -0.3133532175    0.0337692828
     28  C        -6.7645905064   -1.6605966149    0.0667695390
     29  H         8.6903634830    0.4273013827   -0.1209711641
     30  H         7.4766488600    2.0003858971    1.3570147105
     31  H         4.9813030976    1.8886096223    1.4390173570
     32  H         5.1998633582   -1.2974773244   -1.4021065724
     33  H         3.0943622097    2.3033774579   -0.0877452630
     34  H        -2.9345521978    4.7873106172   -0.1413179949
     35  H        -4.6768442432    2.8419794674   -0.0895223408
     36  H        -7.8598703739    0.1968613340    0.0338292344
     37  H        -7.5282278971   -2.4177784546    0.0981106514
   Point Group: c1    Number of degrees of freedom:   105


   Energy is  -2595.906683960

              Constraints and their Current Values
                                        Value     Constraint
   Dihedral:        4   6   7   8       42.189       42.246
   Dihedral:       10  13  16  17     -180.000      180.000
   Dihedral:       17  19  22  25      179.258      179.217

 Attempting to Generate Delocalized Internal Coordinates

   Using Lagrange Multiplier Algorithm


106 Hessian modes will be used to form the next step
  Hessian Eigenvalues:
    -0.977753   -0.977753    0.045000    0.045000    0.045000    0.045000
     0.045000    0.045000    0.045000    0.045000    0.045000    0.045000
     0.045000    0.045000    0.045000    0.045000    0.045000    0.045000
     0.045000    0.045000    0.045000    0.045000    0.045000    0.045001
     0.045001    0.045001    0.045001    0.045001    0.045003    0.045005
     0.045007    0.045009    0.045012    0.159961    0.159984    0.159995
     0.159997    0.159998    0.159999    0.160000    0.160000    0.160000
     0.220002    0.224572    0.225458    0.231978    0.233022    0.234404
     0.247446    0.247715    0.249914    0.249956    0.249989    0.249992
     0.249998    0.249998    0.249998    0.249999    0.249999    0.249999
     0.250000    0.250000    0.297526    0.305112    0.316326    0.317279
     0.326679    0.334478    0.354466    0.355754    0.356364    0.356781
     0.356811    0.359242    0.360774    0.361168    0.363915    0.365007
     0.372838    0.385316    0.386475    0.390167    0.393199    0.397174
     0.410394    0.431175    0.455299    0.463153    0.473302    0.473331
     0.475009    0.483101    0.491312    0.496878    0.499410    0.517641
     0.525704    0.538160    0.558610    0.574891    0.584500    0.591081
     0.623467    0.638975    1.022753    1.022753

 Minimum Search - Taking P-RFO Step
 Searching for Lamda that Maximizes Along the Constraint modes Only
 Value Taken    Lamda =   0.00000125
 Searching for Lamda that Minimizes Along All other modes
 Value Taken    Lamda =  -0.00021773
 Step Taken.  Stepsize is  0.035186

                             Maximum     Tolerance    Cnvgd?
         Gradient            0.004810       0.000300      NO
         Displacement        0.018516       0.001200      NO
         Energy change     *********       0.000001      NO


 New Cartesian Coordinates Obtained by Inverse Iteration

 Displacement from previous Coordinates is:  0.413073
 ----------------------------------------------------------------
             Standard Nuclear Orientation (Angstroms)
    I     Atom           X                Y                Z
 ----------------------------------------------------------------
    1      C       7.6134660517     0.3683939978    -0.0662639046
    2      C       6.9446517065     1.2619020627     0.7540557828
    3      N       6.9938974414    -0.5339191564    -0.8213565554
    4      C       5.5640169737     1.2145816602     0.7941878950
    5      C       5.6694916207    -0.5708445497    -0.7745334818
    6      C       4.8924945673     0.2808899870     0.0123465386
    7      C       3.4211428596     0.2161745303    -0.0035085234
    8      C       2.6463607966     1.3435980252    -0.0447043726
    9      C       2.6927986484    -1.0079530673     0.0264129465
   10      N       1.2909637035     1.3869978766    -0.0482754441
   11      N       3.1833553847    -2.2474373965     0.0770304742
   12      C       1.2651933842    -0.9768944605     0.0255377181
   13      C       0.5845836991     0.2832620505    -0.0143685322
   14      S       1.9162977853    -3.2411271587     0.1131056139
   15      N       0.7049043088    -2.1823198371     0.0711168226
   16      C      -0.8535855916     0.4176602302    -0.0199769513
   17      S      -1.9736446483    -0.8993971132     0.0202150055
   18      C      -1.5474738241     1.6057083917    -0.0565525153
   19      C      -3.3436475939     0.1403105099    -0.0120283206
   20      S      -1.0709260052     3.2683987884    -0.1059910690
   21      C      -2.9590847856     1.4643555700    -0.0519302092
   22      C      -4.6975820597    -0.3725909306     0.0105155273
   23      C      -2.7545287334     3.7494395376    -0.1201033560
   24      C      -3.6337013843     2.7325199090    -0.0897718479
   25      N      -5.7517560930     0.3918155633     0.0018473181
   26      S      -5.0635787110    -2.0743218054     0.0555708428
   27      C      -6.8960236968    -0.3476387850     0.0315100288
   28      C      -6.7346990876    -1.6931056588     0.0634647818
   29      H       8.6958926802     0.3749156856    -0.1199061259
   30      H       7.4988072123     1.9675441011     1.3563121675
   31      H       5.0060002977     1.8809839043     1.4388132248
   32      H       5.1901908526    -1.3141909461    -1.3990440401
   33      H       3.1250505211     2.3141840079    -0.0914324043
   34      H      -2.9912007664     4.8013039661    -0.1486111253
   35      H      -4.7058926226     2.8349846791    -0.0900453170
   36      H      -7.8503974426     0.1561609238     0.0296751037
   37      H      -7.4883321356    -2.4600818849     0.0927044978
 ----------------------------------------------------------------
 Molecular Point Group                 C1    NOp =  1
 Largest Abelian Subgroup              C1    NOp =  1
 Nuclear Repulsion Energy =  2967.2531051485 hartrees
 There are      111 alpha and      111 beta electrons
 Applying Cartesian multipole field
    Component          Value
    ---------          -----
     (2,0,0)        1.00000E-12
     (0,2,0)        2.00000E-11
     (0,0,2)       -3.00000E-10
 Nucleus-field energy     =     0.0000000456 hartrees
 Requested basis set is cc-pVTZ
 There are 342 shells and 982 basis functions
 A cutoff of  1.0D-11 yielded  29228 shell pairs
 There are    231780 function pairs (    302782 Cartesian)
 Smallest overlap matrix eigenvalue = 2.02E-05
 Guess MOs from SCF MO coefficient file
 Reading MOs from coefficient file
 Reading MOs from coefficient file
 Long-range K will be added via erf
 Coulomb attenuation parameter = 0.2 bohr**(-1)
 A restricted hybrid HF-DFT SCF calculation will be
 performed using Pulay DIIS extrapolation
 Exchange:     0.2220 Hartree-Fock + 1.0000 wB97X-D + LR-HF
 Correlation:  1.0000 wB97X-D
 Using SG-2 standard quadrature grid
 Dispersion:   Grimme D
 SCF converges when DIIS error is below 1.0E-08
 Geometry optimization detected.  Setting ReadMinima to 0
 Setting SaveMinima to 0
 using 16 threads for integral computing 
 using 16 threads for integral computing 
 K construction time:  CPU 1088.51 s  wall 71.05 s
 -------------------------------------------------------
 OpenMP BLAS3 based DFT computing Module                
 Release: version 1.0, May 2013, Q-Chem Inc. Pittsburgh 
 -------------------------------------------------------
 ---------------------------------------
  Cycle       Energy         DIIS Error
 ---------------------------------------
    1   -2595.9090978721      2.04E-04
 K construction time:  CPU 1091.46 s  wall 71.22 s
    2   -2595.9066721520      2.37E-05
 K construction time:  CPU 805.66 s  wall 52.56 s
    3   -2595.9066844565      2.80E-05
 K construction time:  CPU 752.82 s  wall 49.12 s
    4   -2595.9067646548      6.35E-06
 K construction time:  CPU 694.70 s  wall 45.32 s
    5   -2595.9067687216      3.31E-06
 K construction time:  CPU 643.73 s  wall 42.00 s
    6   -2595.9067699615      9.36E-07
 K construction time:  CPU 580.53 s  wall 37.74 s
    7   -2595.9067700729      3.68E-07
 K construction time:  CPU 519.10 s  wall 33.77 s
    8   -2595.9067700935      1.32E-07
 K construction time:  CPU 476.92 s  wall 31.01 s
    9   -2595.9067700987      5.96E-08
 K construction time:  CPU 404.00 s  wall 26.18 s
   10   -2595.9067700991      2.04E-08
 K construction time:  CPU 346.71 s  wall 22.44 s
   11   -2595.9067701020      8.62E-09 Convergence criterion met
 ---------------------------------------
 SCF time:  CPU 9955.78 s  wall 664.07 s
 SCF   energy in the final basis set = -2595.9067701020
 Total energy in the final basis set = -2595.9067701020
 
 --------------------------------------------------------------
 
                    Orbital Energies (a.u.)
 --------------------------------------------------------------
 
 Alpha MOs
 -- Occupied --
-89.156 -89.094 -89.093 -89.075 -14.495 -14.489 -14.452 -14.445
-14.436 -10.375 -10.370 -10.363 -10.360 -10.345 -10.341 -10.340
-10.334 -10.329 -10.328 -10.327 -10.327 -10.326 -10.322 -10.319
-10.315 -10.314 -10.303 -10.296  -8.166  -8.109  -8.108  -8.090
 -6.116  -6.111  -6.110  -6.058  -6.057  -6.054  -6.054  -6.052
 -6.051  -6.039  -6.035  -6.032  -1.153  -1.084  -1.073  -1.055
 -1.024  -1.016  -0.957  -0.946  -0.912  -0.911  -0.907  -0.884
 -0.862  -0.845  -0.829  -0.807  -0.776  -0.753  -0.745  -0.728
 -0.724  -0.695  -0.689  -0.679  -0.648  -0.641  -0.623  -0.621
 -0.609  -0.595  -0.584  -0.577  -0.570  -0.568  -0.540  -0.537
 -0.526  -0.523  -0.518  -0.514  -0.512  -0.503  -0.497  -0.491
 -0.489  -0.481  -0.477  -0.463  -0.458  -0.449  -0.437  -0.433
 -0.430  -0.423  -0.402  -0.397  -0.383  -0.373  -0.371  -0.370
 -0.364  -0.358  -0.343  -0.337  -0.327  -0.319  -0.268
 -- Virtual --
 -0.058  -0.010   0.026   0.038   0.046   0.058   0.064   0.066
  0.075   0.102   0.107   0.114   0.117   0.121   0.131   0.134
  0.142   0.147   0.151   0.167   0.169   0.170   0.171   0.180
  0.191   0.198   0.201   0.212   0.214   0.227   0.230   0.242
  0.253   0.254   0.260   0.266   0.271   0.273   0.289   0.291
  0.297   0.298   0.302   0.309   0.309   0.319   0.322   0.327
  0.331   0.332   0.337   0.339   0.344   0.351   0.355   0.356
  0.363   0.366   0.369   0.375   0.379   0.380   0.386   0.388
  0.392   0.393   0.399   0.403   0.405   0.407   0.408   0.410
  0.419   0.424   0.429   0.432   0.434   0.437   0.439   0.440
  0.450   0.451   0.455   0.457   0.461   0.464   0.465   0.469
  0.470   0.472   0.476   0.480   0.482   0.487   0.489   0.492
  0.495   0.499   0.502   0.507   0.510   0.515   0.517   0.523
  0.524   0.527   0.532   0.543   0.546   0.547   0.548   0.553
  0.558   0.563   0.571   0.579   0.585   0.591   0.595   0.599
  0.603   0.612   0.623   0.627   0.636   0.640   0.649   0.650
  0.652   0.661   0.663   0.669   0.675   0.677   0.680   0.686
  0.689   0.693   0.698   0.702   0.711   0.719   0.726   0.732
  0.737   0.740   0.742   0.744   0.747   0.750   0.763   0.765
  0.770   0.772   0.775   0.778   0.779   0.793   0.798   0.800
  0.806   0.809   0.813   0.819   0.822   0.824   0.826   0.831
  0.835   0.838   0.845   0.852   0.854   0.857   0.862   0.870
  0.873   0.878   0.881   0.893   0.899   0.902   0.906   0.913
  0.924   0.928   0.933   0.936   0.943   0.948   0.949   0.953
  0.958   0.970   0.971   0.977   0.980   0.985   0.988   0.992
  0.994   1.007   1.014   1.018   1.022   1.027   1.030   1.038
  1.049   1.050   1.054   1.062   1.063   1.072   1.076   1.081
  1.085   1.088   1.094   1.102   1.105   1.112   1.123   1.127
  1.134   1.139   1.144   1.150   1.163   1.172   1.176   1.180
  1.188   1.193   1.195   1.209   1.216   1.221   1.224   1.228
  1.235   1.238   1.249   1.258   1.262   1.270   1.273   1.276
  1.279   1.290   1.299   1.300   1.313   1.319   1.324   1.335
  1.343   1.349   1.358   1.364   1.367   1.370   1.380   1.382
  1.389   1.397   1.403   1.414   1.418   1.427   1.430   1.436
  1.444   1.448   1.451   1.457   1.462   1.474   1.484   1.486
  1.494   1.501   1.507   1.519   1.531   1.535   1.543   1.544
  1.548   1.564   1.571   1.576   1.586   1.591   1.596   1.605
  1.610   1.611   1.617   1.629   1.632   1.637   1.640   1.645
  1.654   1.662   1.663   1.668   1.672   1.682   1.684   1.686
  1.692   1.696   1.699   1.710   1.718   1.727   1.732   1.740
  1.746   1.750   1.763   1.767   1.777   1.781   1.784   1.792
  1.810   1.818   1.820   1.833   1.837   1.858   1.862   1.869
  1.881   1.881   1.885   1.892   1.909   1.923   1.923   1.925
  1.936   1.941   1.946   1.955   1.959   1.973   1.980   1.991
  1.993   1.995   2.004   2.006   2.019   2.025   2.031   2.033
  2.052   2.060   2.065   2.074   2.080   2.086   2.094   2.107
  2.116   2.122   2.132   2.140   2.145   2.158   2.164   2.172
  2.181   2.183   2.189   2.194   2.201   2.220   2.230   2.234
  2.237   2.243   2.256   2.259   2.268   2.278   2.278   2.285
  2.302   2.309   2.324   2.344   2.347   2.355   2.362   2.366
  2.377   2.379   2.382   2.393   2.396   2.398   2.407   2.414
  2.420   2.431   2.434   2.443   2.453   2.456   2.461   2.473
  2.480   2.485   2.491   2.494   2.499   2.511   2.516   2.519
  2.523   2.535   2.541   2.543   2.555   2.568   2.573   2.582
  2.590   2.605   2.608   2.614   2.617   2.620   2.628   2.631
  2.643   2.650   2.657   2.661   2.669   2.677   2.682   2.706
  2.716   2.738   2.742   2.755   2.760   2.767   2.772   2.778
  2.781   2.787   2.790   2.792   2.797   2.806   2.809   2.815
  2.827   2.829   2.839   2.846   2.858   2.870   2.874   2.878
  2.889   2.891   2.905   2.913   2.925   2.937   2.937   2.941
  2.945   2.947   2.953   2.954   2.960   2.968   2.970   2.976
  2.980   2.989   2.992   3.002   3.011   3.019   3.021   3.027
  3.029   3.044   3.046   3.055   3.058   3.061   3.063   3.067
  3.069   3.080   3.089   3.090   3.092   3.098   3.104   3.105
  3.110   3.117   3.119   3.122   3.128   3.133   3.137   3.146
  3.152   3.155   3.167   3.170   3.172   3.176   3.180   3.183
  3.186   3.188   3.194   3.200   3.203   3.203   3.210   3.214
  3.216   3.225   3.228   3.229   3.236   3.241   3.245   3.251
  3.254   3.256   3.264   3.268   3.271   3.280   3.281   3.292
  3.293   3.295   3.300   3.305   3.312   3.314   3.320   3.326
  3.331   3.335   3.343   3.349   3.352   3.357   3.365   3.371
  3.376   3.379   3.382   3.389   3.394   3.407   3.417   3.421
  3.424   3.431   3.440   3.445   3.455   3.461   3.465   3.469
  3.477   3.481   3.483   3.490   3.500   3.501   3.508   3.513
  3.518   3.529   3.534   3.540   3.555   3.556   3.565   3.575
  3.582   3.586   3.596   3.598   3.601   3.617   3.624   3.639
  3.644   3.652   3.660   3.669   3.673   3.685   3.688   3.695
  3.709   3.728   3.732   3.735   3.739   3.752   3.753   3.757
  3.772   3.777   3.781   3.794   3.800   3.803   3.808   3.815
  3.824   3.828   3.841   3.848   3.851   3.856   3.866   3.866
  3.868   3.878   3.891   3.905   3.923   3.924   3.930   3.939
  3.946   3.949   3.950   3.955   3.963   3.967   3.975   3.980
  3.987   3.994   3.998   4.010   4.023   4.034   4.038   4.042
  4.064   4.074   4.079   4.087   4.093   4.098   4.114   4.122
  4.138   4.141   4.144   4.164   4.171   4.174   4.180   4.188
  4.189   4.198   4.202   4.214   4.225   4.228   4.237   4.248
  4.264   4.272   4.277   4.283   4.290   4.300   4.309   4.321
  4.324   4.340   4.343   4.349   4.351   4.381   4.383   4.389
  4.392   4.407   4.415   4.421   4.434   4.437   4.451   4.461
  4.471   4.474   4.482   4.490   4.506   4.521   4.524   4.534
  4.547   4.556   4.565   4.570   4.573   4.592   4.596   4.604
  4.616   4.637   4.639   4.655   4.666   4.677   4.683   4.694
  4.701   4.714   4.729   4.736   4.752   4.782   4.791   4.794
  4.812   4.823   4.837   4.845   4.849   4.856   4.858   4.873
  4.874   4.886   4.905   4.934   4.935   4.940   4.947   4.952
  4.956   4.962   4.968   4.977   4.988   4.994   4.997   5.009
  5.028   5.041   5.045   5.057   5.072   5.086   5.096   5.100
  5.112   5.125   5.143   5.148   5.157   5.174   5.177   5.197
  5.209   5.233   5.235   5.241   5.254   5.258   5.281   5.283
  5.316   5.320   5.337   5.342   5.356   5.392   5.398   5.411
  5.432   5.441   5.459   5.465   5.481   5.488   5.514   5.530
  5.532   5.550   5.557   5.589   5.606   5.656   5.664   5.665
  5.694   5.705   5.723   5.740   5.764   5.780   5.821   5.824
  5.854   5.889   5.894   5.946   5.955   6.000   6.019   6.096
  6.138   6.153   6.169   6.189   6.202   6.225   6.262   6.316
  6.345   6.356   6.400   6.412   6.489   6.853   7.019   8.025
  8.933   9.806  10.174  10.943  11.189  11.238  11.724  12.018
 12.339  12.502  12.560  12.829  12.880  13.147  13.195  13.471
 13.532  13.591  13.839  13.904  14.272  14.750  14.986
 --------------------------------------------------------------
 
          Ground-State Mulliken Net Atomic Charges

     Atom                 Charge (a.u.)
  ----------------------------------------
      1 C                    -0.071798
      2 C                    -0.102618
      3 N                    -0.155340
      4 C                    -0.157022
      5 C                    -0.094527
      6 C                     0.109228
      7 C                     0.030743
      8 C                    -0.092459
      9 C                     0.019315
     10 N                    -0.182769
     11 N                    -0.275554
     12 C                     0.026955
     13 C                     0.117302
     14 S                     0.412508
     15 N                    -0.284596
     16 C                    -0.058996
     17 S                     0.130961
     18 C                    -0.008530
     19 C                    -0.021331
     20 S                     0.091398
     21 C                     0.020887
     22 C                     0.037461
     23 C                    -0.162814
     24 C                    -0.159949
     25 N                    -0.183309
     26 S                     0.100430
     27 C                    -0.074983
     28 C                    -0.203324
     29 H                     0.124054
     30 H                     0.128679
     31 H                     0.131399
     32 H                     0.128472
     33 H                     0.131441
     34 H                     0.131438
     35 H                     0.142427
     36 H                     0.129150
     37 H                     0.145671
  ----------------------------------------
  Sum of atomic charges =     0.000000

 -----------------------------------------------------------------
                    Cartesian Multipole Moments
 -----------------------------------------------------------------
    Charge (ESU x 10^10)
                 0.0000
    Dipole Moment (Debye)
         X      -1.8840      Y       0.0901      Z       1.2788
       Tot       2.2788
    Quadrupole Moments (Debye-Ang)
        XX    -169.4046     XY      16.6191     YY    -171.3451
        XZ       9.3891     YZ       1.4930     ZZ    -188.6623
    Octopole Moments (Debye-Ang^2)
       XXX    -222.7021    XXY      45.7228    XYY     -33.9931
       YYY      -5.1511    XXZ      75.9316    XYZ      11.9151
       YYZ       3.9367    XZZ       8.6939    YZZ      -9.6822
       ZZZ       1.9650
    Hexadecapole Moments (Debye-Ang^3)
      XXXX  -17350.3200   XXXY    1165.6023   XXYY   -3598.6096
      XYYY     -79.8132   YYYY   -3559.0357   XXXZ     534.8890
      XXYZ      38.8050   XYYZ      33.9910   YYYZ      -5.5416
      XXZZ   -3419.5015   XYZZ      21.3107   YYZZ    -732.6153
      XZZZ      10.3584   YZZZ       6.6419   ZZZZ    -321.2528
 -----------------------------------------------------------------
 Calculating analytic gradient of the SCF energy
 K construction time:  CPU 2930.06 s  wall 185.01 s
 Gradient of SCF Energy
            1           2           3           4           5           6
    1   0.0001197  -0.0006085   0.0000157   0.0004353   0.0000046   0.0000386
    2  -0.0000364   0.0001582  -0.0001213   0.0000735   0.0000432  -0.0000077
    3   0.0000558   0.0000090  -0.0001513   0.0001157  -0.0001509   0.0001062
            7           8           9          10          11          12
    1  -0.0001569   0.0004351   0.0002101   0.0003788   0.0000381  -0.0001900
    2  -0.0001528   0.0000163   0.0000294  -0.0000965   0.0000917  -0.0000348
    3   0.0002005  -0.0002938   0.0000978  -0.0002216  -0.0001443   0.0002557
           13          14          15          16          17          18
    1  -0.0001395   0.0000948  -0.0007637   0.0001678   0.0004742  -0.0003305
    2  -0.0003222   0.0005237   0.0001887  -0.0008138  -0.0000236   0.0001706
    3   0.0001400   0.0000719  -0.0000735   0.0000497  -0.0000166  -0.0000133
           19          20          21          22          23          24
    1  -0.0001612  -0.0000769   0.0002042  -0.0000643   0.0002663  -0.0002694
    2   0.0003898   0.0001619  -0.0003572   0.0000975  -0.0003458   0.0008638
    3  -0.0002036   0.0000231   0.0001306  -0.0000331  -0.0001664  -0.0001523
           25          26          27          28          29          30
    1   0.0001142   0.0000973   0.0002194  -0.0001711  -0.0000622   0.0001755
    2  -0.0001172  -0.0002567   0.0002919   0.0000480   0.0000150  -0.0000936
    3   0.0000149   0.0000579  -0.0000183   0.0000348  -0.0000296   0.0000706
           31          32          33          34          35          36
    1  -0.0000526   0.0000194  -0.0000801  -0.0001836  -0.0000570  -0.0001233
    2   0.0000194   0.0000049   0.0000351   0.0000112  -0.0002608  -0.0002067
    3  -0.0000394  -0.0000159   0.0000722   0.0001326   0.0000747   0.0000371
           37
    1  -0.0000181
    2   0.0000134
    3  -0.0000269
 Max gradient component =       8.638E-04
 RMS gradient           =       2.247E-04
 Gradient time:  CPU 3375.50 s  wall 214.83 s
 Geometry Optimization Parameters
   NAtoms,    NIC,     NZ,  NCons,   NDum,   NFix, NCnnct, MaxDiis
       37     280       0       3       0       0       0       0

 Cartesian Hessian Update
 Hessian Updated using BFGS Update


** CONSTRAINED OPTIMIZATION IN DELOCALIZED INTERNAL COORDINATES **
   Searching for a Minimum

   Optimization Cycle:   2

                       Coordinates (Angstroms)
     ATOM                X               Y               Z
      1  C         7.6134660517    0.3683939978   -0.0662639046
      2  C         6.9446517065    1.2619020627    0.7540557828
      3  N         6.9938974414   -0.5339191564   -0.8213565554
      4  C         5.5640169737    1.2145816602    0.7941878950
      5  C         5.6694916207   -0.5708445497   -0.7745334818
      6  C         4.8924945673    0.2808899870    0.0123465386
      7  C         3.4211428596    0.2161745303   -0.0035085234
      8  C         2.6463607966    1.3435980252   -0.0447043726
      9  C         2.6927986484   -1.0079530673    0.0264129465
     10  N         1.2909637035    1.3869978766   -0.0482754441
     11  N         3.1833553847   -2.2474373965    0.0770304742
     12  C         1.2651933842   -0.9768944605    0.0255377181
     13  C         0.5845836991    0.2832620505   -0.0143685322
     14  S         1.9162977853   -3.2411271587    0.1131056139
     15  N         0.7049043088   -2.1823198371    0.0711168226
     16  C        -0.8535855916    0.4176602302   -0.0199769513
     17  S        -1.9736446483   -0.8993971132    0.0202150055
     18  C        -1.5474738241    1.6057083917   -0.0565525153
     19  C        -3.3436475939    0.1403105099   -0.0120283206
     20  S        -1.0709260052    3.2683987884   -0.1059910690
     21  C        -2.9590847856    1.4643555700   -0.0519302092
     22  C        -4.6975820597   -0.3725909306    0.0105155273
     23  C        -2.7545287334    3.7494395376   -0.1201033560
     24  C        -3.6337013843    2.7325199090   -0.0897718479
     25  N        -5.7517560930    0.3918155633    0.0018473181
     26  S        -5.0635787110   -2.0743218054    0.0555708428
     27  C        -6.8960236968   -0.3476387850    0.0315100288
     28  C        -6.7346990876   -1.6931056588    0.0634647818
     29  H         8.6958926802    0.3749156856   -0.1199061259
     30  H         7.4988072123    1.9675441011    1.3563121675
     31  H         5.0060002977    1.8809839043    1.4388132248
     32  H         5.1901908526   -1.3141909461   -1.3990440401
     33  H         3.1250505211    2.3141840079   -0.0914324043
     34  H        -2.9912007664    4.8013039661   -0.1486111253
     35  H        -4.7058926226    2.8349846791   -0.0900453170
     36  H        -7.8503974426    0.1561609238    0.0296751037
     37  H        -7.4883321356   -2.4600818849    0.0927044978
   Point Group: c1    Number of degrees of freedom:   105


   Energy is  -2595.906770102

              Constraints and their Current Values
                                        Value     Constraint
   Dihedral:        4   6   7   8       42.246       42.246
   Dihedral:       10  13  16  17     -180.000      180.000
   Dihedral:       17  19  22  25      179.217      179.217
 Hessian Updated using BFGS Update

 82 Hessian modes will be used to form the next step
  Hessian Eigenvalues:
     0.041737    0.045000    0.045000    0.045000    0.045000    0.045000
     0.045000    0.045000    0.045001    0.045001    0.045001    0.045002
     0.045005    0.045007    0.045008    0.045010    0.045246    0.144447
     0.159963    0.159986    0.159997    0.159998    0.159999    0.160000
     0.160287    0.218961    0.224497    0.224576    0.231905    0.232052
     0.234415    0.243271    0.247591    0.247739    0.249926    0.249957
     0.249989    0.249993    0.249998    0.297483    0.304068    0.313764
     0.316312    0.326125    0.333902    0.347219    0.355182    0.355673
     0.356397    0.356713    0.356808    0.359479    0.360754    0.361014
     0.363985    0.364994    0.375618    0.385270    0.386991    0.390119
     0.395290    0.400468    0.420896    0.431755    0.452524    0.468604
     0.473302    0.474064    0.474825    0.483129    0.493455    0.497962
     0.500001    0.517772    0.527828    0.539011    0.559557    0.574810
     0.586303    0.591876    0.623745    0.638906

 Minimum Search - Taking Simple RFO Step
 Searching for Lamda that Minimizes Along All modes
 Value Taken    Lamda =  -0.00002979
 Step Taken.  Stepsize is  0.012941

                             Maximum     Tolerance    Cnvgd?
         Gradient           0.002140      0.000300      NO
         Displacement       0.004939      0.001200      NO
         Energy change     -0.000086      0.000001      NO


 New Cartesian Coordinates Obtained by Inverse Iteration

 Displacement from previous Coordinates is:  0.109350
 ----------------------------------------------------------------
             Standard Nuclear Orientation (Angstroms)
    I     Atom           X                Y                Z
 ----------------------------------------------------------------
    1      C       7.6122226789     0.3788872845    -0.0651852508
    2      C       6.9401259148     1.2708353665     0.7539169650
    3      N       6.9960099877    -0.5264914702    -0.8192085249
    4      C       5.5592230694     1.2184049148     0.7933079503
    5      C       5.6717301622    -0.5677811563    -0.7737345354
    6      C       4.8912181792     0.2825362855     0.0110417151
    7      C       3.4201413562     0.2132256954    -0.0046159448
    8      C       2.6419291116     1.3384296208    -0.0453992645
    9      C       2.6956264617    -1.0132220396     0.0246956773
   10      N       1.2866293113     1.3785772172    -0.0482526186
   11      N       3.1902971112    -2.2512912812     0.0753006492
   12      C       1.2680778072    -0.9862106288     0.0234799459
   13      C       0.5835570822     0.2730193043    -0.0146644416
   14      S       1.9271411278    -3.2501120548     0.1100049909
   15      N       0.7131108873    -2.1942942638     0.0687229963
   16      C      -0.8546725316     0.4085586821    -0.0188140174
   17      S      -1.9783855617    -0.9057791860     0.0211119973
   18      C      -1.5450803791     1.5980473357    -0.0549188263
   19      C      -3.3454085158     0.1375452076    -0.0100497350
   20      S      -1.0633667131     3.2589539571    -0.1053125060
   21      C      -2.9570687632     1.4606374673    -0.0499963991
   22      C      -4.7010958173    -0.3707988075     0.0119545147
   23      C      -2.7454447569     3.7452513250    -0.1193614692
   24      C      -3.6273880218     2.7305663390    -0.0880684266
   25      N      -5.7529683142     0.3969263122     0.0040609890
   26      S      -5.0726418632    -2.0709724976     0.0550800554
   27      C      -6.8996275110    -0.3388795546     0.0322633343
   28      C      -6.7424433282    -1.6848966707     0.0628842004
   29      H       8.6947605272     0.3888887748    -0.1181667376
   30      H       7.4902646775     1.9800679814     1.3554944651
   31      H       4.9990227867     1.8834921023     1.4372818299
   32      H       5.1956639538    -1.3137530171    -1.3975470987
   33      H       3.1189790260     2.3098579117    -0.0930291992
   34      H      -2.9778748305     4.7978768452    -0.1505225794
   35      H      -4.6990727929     2.8381619451    -0.0894471217
   36      H      -7.8514213613     0.1697156801     0.0304035099
   37      H      -7.4982648443    -2.4497177197     0.0913071045
 ----------------------------------------------------------------
 Molecular Point Group                 C1    NOp =  1
 Largest Abelian Subgroup              C1    NOp =  1
 Nuclear Repulsion Energy =  2966.8916230039 hartrees
 There are      111 alpha and      111 beta electrons
 Applying Cartesian multipole field
    Component          Value
    ---------          -----
     (2,0,0)        1.00000E-12
     (0,2,0)        2.00000E-11
     (0,0,2)       -3.00000E-10
 Nucleus-field energy     =     0.0000000457 hartrees
 Requested basis set is cc-pVTZ
 There are 342 shells and 982 basis functions
 A cutoff of  1.0D-11 yielded  29216 shell pairs
 There are    231652 function pairs (    302583 Cartesian)
 Smallest overlap matrix eigenvalue = 2.03E-05
 Guess MOs from SCF MO coefficient file
 Reading MOs from coefficient file
 Reading MOs from coefficient file
 Long-range K will be added via erf
 Coulomb attenuation parameter = 0.2 bohr**(-1)
 A restricted hybrid HF-DFT SCF calculation will be
 performed using Pulay DIIS extrapolation
 Exchange:     0.2220 Hartree-Fock + 1.0000 wB97X-D + LR-HF
 Correlation:  1.0000 wB97X-D
 Using SG-2 standard quadrature grid
 Dispersion:   Grimme D
 SCF converges when DIIS error is below 1.0E-08
 Geometry optimization detected.  Setting ReadMinima to 0
 Setting SaveMinima to 0
 using 16 threads for integral computing 
 using 16 threads for integral computing 
 K construction time:  CPU 1088.87 s  wall 71.04 s
 -------------------------------------------------------
 OpenMP BLAS3 based DFT computing Module                
 Release: version 1.0, May 2013, Q-Chem Inc. Pittsburgh 
 -------------------------------------------------------
 ---------------------------------------
  Cycle       Energy         DIIS Error
 ---------------------------------------
    1   -2595.9064368613      5.41E-05
 K construction time:  CPU 1088.17 s  wall 71.04 s
    2   -2595.9067776112      7.19E-06
 K construction time:  CPU 729.43 s  wall 47.72 s
    3   -2595.9067769114      9.17E-06
 K construction time:  CPU 683.27 s  wall 44.56 s
    4   -2595.9067856932      1.61E-06
 K construction time:  CPU 612.02 s  wall 39.91 s
    5   -2595.9067859228      1.08E-06
 K construction time:  CPU 565.10 s  wall 36.79 s
    6   -2595.9067860527      2.59E-07
 K construction time:  CPU 493.48 s  wall 32.06 s
    7   -2595.9067860615      1.03E-07
 K construction time:  CPU 435.45 s  wall 28.26 s
    8   -2595.9067860624      3.62E-08
 K construction time:  CPU 396.39 s  wall 25.75 s
    9   -2595.9067860623      1.84E-08
 K construction time:  CPU 330.40 s  wall 21.34 s
   10   -2595.9067860642      6.37E-09 Convergence criterion met
 ---------------------------------------
 SCF time:  CPU 8675.09 s  wall 578.78 s
 SCF   energy in the final basis set = -2595.9067860642
 Total energy in the final basis set = -2595.9067860642
 
 --------------------------------------------------------------
 
                    Orbital Energies (a.u.)
 --------------------------------------------------------------
 
 Alpha MOs
 -- Occupied --
-89.156 -89.094 -89.093 -89.075 -14.495 -14.488 -14.452 -14.445
-14.436 -10.375 -10.370 -10.363 -10.360 -10.345 -10.341 -10.340
-10.334 -10.329 -10.328 -10.327 -10.327 -10.326 -10.322 -10.318
-10.315 -10.314 -10.303 -10.296  -8.166  -8.109  -8.108  -8.089
 -6.116  -6.111  -6.110  -6.058  -6.057  -6.054  -6.054  -6.052
 -6.051  -6.039  -6.035  -6.032  -1.153  -1.084  -1.073  -1.055
 -1.024  -1.016  -0.957  -0.946  -0.912  -0.911  -0.907  -0.884
 -0.862  -0.845  -0.829  -0.808  -0.776  -0.753  -0.745  -0.728
 -0.724  -0.695  -0.689  -0.679  -0.648  -0.641  -0.623  -0.621
 -0.609  -0.595  -0.584  -0.577  -0.570  -0.568  -0.541  -0.537
 -0.526  -0.523  -0.518  -0.514  -0.512  -0.503  -0.496  -0.491
 -0.489  -0.481  -0.477  -0.463  -0.458  -0.449  -0.437  -0.433
 -0.430  -0.423  -0.402  -0.397  -0.383  -0.373  -0.371  -0.370
 -0.364  -0.358  -0.343  -0.337  -0.327  -0.319  -0.268
 -- Virtual --
 -0.058  -0.010   0.027   0.038   0.046   0.058   0.064   0.066
  0.074   0.102   0.107   0.114   0.117   0.121   0.131   0.134
  0.142   0.147   0.151   0.167   0.169   0.170   0.171   0.180
  0.191   0.198   0.201   0.213   0.214   0.227   0.230   0.242
  0.253   0.254   0.260   0.266   0.271   0.273   0.289   0.291
  0.297   0.299   0.302   0.309   0.309   0.319   0.322   0.327
  0.331   0.332   0.337   0.339   0.344   0.351   0.355   0.356
  0.363   0.366   0.369   0.375   0.379   0.380   0.386   0.388
  0.392   0.393   0.399   0.403   0.405   0.407   0.408   0.410
  0.419   0.424   0.429   0.432   0.434   0.437   0.439   0.440
  0.450   0.451   0.455   0.457   0.461   0.464   0.465   0.469
  0.470   0.472   0.476   0.480   0.482   0.487   0.489   0.492
  0.495   0.499   0.502   0.507   0.510   0.515   0.517   0.523
  0.524   0.527   0.532   0.543   0.546   0.547   0.548   0.553
  0.558   0.563   0.572   0.578   0.585   0.591   0.595   0.599
  0.603   0.612   0.623   0.627   0.635   0.640   0.649   0.650
  0.652   0.661   0.663   0.668   0.675   0.677   0.681   0.686
  0.689   0.693   0.698   0.703   0.712   0.719   0.726   0.732
  0.737   0.740   0.742   0.744   0.747   0.751   0.763   0.766
  0.770   0.772   0.775   0.778   0.779   0.793   0.798   0.800
  0.806   0.809   0.813   0.819   0.822   0.824   0.826   0.831
  0.835   0.838   0.846   0.852   0.855   0.857   0.862   0.870
  0.873   0.878   0.881   0.893   0.899   0.902   0.906   0.913
  0.924   0.928   0.933   0.937   0.943   0.948   0.949   0.953
  0.958   0.970   0.972   0.977   0.980   0.985   0.988   0.992
  0.994   1.007   1.014   1.017   1.023   1.027   1.030   1.038
  1.050   1.050   1.054   1.062   1.064   1.072   1.076   1.081
  1.084   1.088   1.094   1.102   1.105   1.112   1.123   1.127
  1.134   1.139   1.145   1.150   1.163   1.172   1.176   1.180
  1.187   1.193   1.195   1.209   1.216   1.221   1.224   1.228
  1.235   1.237   1.249   1.257   1.262   1.270   1.274   1.276
  1.279   1.290   1.299   1.301   1.313   1.319   1.324   1.336
  1.343   1.349   1.358   1.364   1.367   1.370   1.380   1.382
  1.389   1.397   1.403   1.414   1.418   1.427   1.430   1.436
  1.444   1.448   1.451   1.457   1.462   1.474   1.484   1.486
  1.494   1.501   1.507   1.519   1.531   1.535   1.542   1.544
  1.547   1.564   1.571   1.576   1.586   1.591   1.596   1.605
  1.610   1.611   1.617   1.628   1.631   1.637   1.640   1.645
  1.654   1.662   1.663   1.668   1.672   1.681   1.684   1.686
  1.692   1.696   1.699   1.710   1.718   1.727   1.732   1.740
  1.747   1.751   1.763   1.767   1.777   1.781   1.784   1.792
  1.809   1.818   1.820   1.833   1.837   1.858   1.862   1.870
  1.881   1.881   1.885   1.892   1.908   1.922   1.923   1.925
  1.935   1.941   1.946   1.955   1.959   1.973   1.981   1.991
  1.993   1.995   2.004   2.006   2.020   2.025   2.031   2.033
  2.052   2.061   2.065   2.074   2.080   2.086   2.095   2.107
  2.116   2.122   2.132   2.140   2.145   2.158   2.164   2.172
  2.180   2.183   2.188   2.194   2.201   2.219   2.230   2.234
  2.236   2.243   2.256   2.258   2.268   2.277   2.279   2.285
  2.302   2.309   2.324   2.344   2.347   2.356   2.363   2.367
  2.377   2.379   2.382   2.393   2.396   2.398   2.407   2.414
  2.420   2.431   2.434   2.443   2.453   2.456   2.461   2.473
  2.480   2.485   2.491   2.494   2.499   2.511   2.516   2.518
  2.523   2.535   2.541   2.543   2.555   2.568   2.574   2.582
  2.590   2.605   2.608   2.614   2.616   2.620   2.628   2.631
  2.642   2.651   2.657   2.661   2.669   2.677   2.682   2.706
  2.716   2.738   2.742   2.755   2.760   2.767   2.772   2.779
  2.781   2.787   2.790   2.792   2.797   2.806   2.809   2.815
  2.827   2.829   2.839   2.845   2.858   2.870   2.874   2.878
  2.889   2.891   2.905   2.913   2.925   2.937   2.937   2.941
  2.945   2.947   2.953   2.954   2.960   2.969   2.970   2.976
  2.980   2.989   2.992   3.002   3.011   3.019   3.021   3.027
  3.029   3.044   3.046   3.055   3.058   3.061   3.063   3.067
  3.069   3.080   3.089   3.090   3.091   3.097   3.104   3.106
  3.109   3.117   3.119   3.122   3.128   3.133   3.137   3.146
  3.152   3.155   3.166   3.170   3.172   3.177   3.180   3.183
  3.187   3.188   3.194   3.200   3.203   3.203   3.210   3.214
  3.216   3.225   3.228   3.229   3.237   3.241   3.245   3.251
  3.254   3.256   3.264   3.268   3.271   3.280   3.281   3.291
  3.293   3.295   3.300   3.304   3.312   3.314   3.320   3.326
  3.331   3.335   3.343   3.349   3.352   3.356   3.366   3.371
  3.376   3.379   3.382   3.389   3.394   3.407   3.417   3.421
  3.424   3.432   3.440   3.445   3.455   3.461   3.465   3.469
  3.477   3.482   3.483   3.490   3.501   3.501   3.508   3.513
  3.518   3.529   3.534   3.540   3.555   3.556   3.565   3.575
  3.582   3.585   3.596   3.599   3.601   3.617   3.624   3.639
  3.644   3.652   3.660   3.669   3.674   3.685   3.688   3.695
  3.709   3.728   3.732   3.735   3.739   3.752   3.753   3.757
  3.772   3.777   3.780   3.794   3.801   3.803   3.807   3.815
  3.824   3.828   3.841   3.847   3.851   3.856   3.865   3.866
  3.868   3.879   3.892   3.905   3.923   3.924   3.930   3.939
  3.946   3.950   3.951   3.955   3.963   3.967   3.975   3.980
  3.987   3.994   3.998   4.010   4.023   4.033   4.038   4.042
  4.064   4.074   4.079   4.087   4.093   4.098   4.114   4.122
  4.138   4.141   4.145   4.164   4.171   4.174   4.180   4.188
  4.189   4.198   4.202   4.213   4.225   4.227   4.237   4.248
  4.265   4.272   4.277   4.283   4.289   4.300   4.309   4.321
  4.324   4.340   4.344   4.349   4.351   4.381   4.383   4.389
  4.392   4.407   4.415   4.421   4.434   4.436   4.452   4.461
  4.471   4.473   4.481   4.491   4.506   4.521   4.525   4.534
  4.547   4.555   4.565   4.571   4.572   4.592   4.596   4.604
  4.616   4.637   4.639   4.654   4.666   4.677   4.682   4.694
  4.701   4.714   4.729   4.736   4.752   4.783   4.791   4.794
  4.812   4.823   4.837   4.844   4.849   4.856   4.857   4.872
  4.874   4.886   4.904   4.933   4.935   4.940   4.947   4.953
  4.956   4.962   4.968   4.977   4.988   4.994   4.998   5.009
  5.028   5.041   5.045   5.057   5.072   5.086   5.095   5.100
  5.112   5.125   5.143   5.147   5.157   5.174   5.177   5.197
  5.209   5.234   5.235   5.242   5.254   5.258   5.282   5.283
  5.316   5.320   5.337   5.342   5.356   5.391   5.398   5.411
  5.432   5.440   5.459   5.465   5.481   5.488   5.514   5.530
  5.533   5.550   5.557   5.590   5.606   5.656   5.664   5.665
  5.694   5.706   5.723   5.740   5.764   5.780   5.821   5.823
  5.853   5.889   5.894   5.946   5.955   6.000   6.019   6.097
  6.139   6.154   6.169   6.189   6.202   6.225   6.261   6.316
  6.345   6.355   6.400   6.412   6.489   6.852   7.020   8.026
  8.932   9.807  10.173  10.943  11.186  11.236  11.725  12.013
 12.337  12.502  12.559  12.825  12.878  13.150  13.190  13.476
 13.533  13.591  13.839  13.904  14.272  14.751  14.985
 --------------------------------------------------------------
 
          Ground-State Mulliken Net Atomic Charges

     Atom                 Charge (a.u.)
  ----------------------------------------
      1 C                    -0.071793
      2 C                    -0.102785
      3 N                    -0.155292
      4 C                    -0.157071
      5 C                    -0.094681
      6 C                     0.109251
      7 C                     0.030979
      8 C                    -0.092812
      9 C                     0.020076
     10 N                    -0.182658
     11 N                    -0.276024
     12 C                     0.025859
     13 C                     0.117195
     14 S                     0.413140
     15 N                    -0.284501
     16 C                    -0.058707
     17 S                     0.130843
     18 C                    -0.007924
     19 C                    -0.021766
     20 S                     0.091498
     21 C                     0.021151
     22 C                     0.037498
     23 C                    -0.162724
     24 C                    -0.160264
     25 N                    -0.183261
     26 S                     0.100606
     27 C                    -0.074938
     28 C                    -0.203322
     29 H                     0.123989
     30 H                     0.128793
     31 H                     0.131388
     32 H                     0.128456
     33 H                     0.131313
     34 H                     0.131442
     35 H                     0.142245
     36 H                     0.129141
     37 H                     0.145660
  ----------------------------------------
  Sum of atomic charges =     0.000000

 -----------------------------------------------------------------
                    Cartesian Multipole Moments
 -----------------------------------------------------------------
    Charge (ESU x 10^10)
                 0.0000
    Dipole Moment (Debye)
         X      -1.8927      Y       0.0979      Z       1.2680
       Tot       2.2803
    Quadrupole Moments (Debye-Ang)
        XX    -169.4986     XY      16.5854     YY    -171.2735
        XZ       9.3815     YZ       1.4968     ZZ    -188.6607
    Octopole Moments (Debye-Ang^2)
       XXX    -224.9520    XXY      46.0945    XYY     -33.3066
       YYY      -4.0670    XXZ      75.6015    XYZ      12.0399
       YYZ       3.8400    XZZ       8.6139    YZZ      -9.3061
       ZZZ       1.9338
    Hexadecapole Moments (Debye-Ang^3)
      XXXX  -17369.0018   XXXY    1164.9140   XXYY   -3599.3202
      XYYY     -81.8033   YYYY   -3556.4018   XXXZ     535.3045
      XXYZ      39.1009   XYYZ      34.6753   YYYZ      -6.4845
      XXZZ   -3421.3144   XYZZ      20.6774   YYZZ    -732.0803
      XZZZ      11.4646   YZZZ       5.7367   ZZZZ    -320.8799
 -----------------------------------------------------------------
 Calculating analytic gradient of the SCF energy
 K construction time:  CPU 2939.74 s  wall 185.58 s
 Gradient of SCF Energy
            1           2           3           4           5           6
    1  -0.0000645  -0.0000342   0.0000070   0.0000397   0.0000005   0.0000114
    2  -0.0000638   0.0001348  -0.0000392  -0.0000311   0.0000521  -0.0000419
    3  -0.0000320   0.0000238  -0.0000442   0.0002416  -0.0000730  -0.0002238
            7           8           9          10          11          12
    1  -0.0000621  -0.0000522  -0.0000083  -0.0000828  -0.0001661   0.0000512
    2  -0.0001457  -0.0000427   0.0001588   0.0000077  -0.0000975   0.0002229
    3   0.0002971  -0.0002079   0.0000424  -0.0002361  -0.0000290   0.0001170
           13          14          15          16          17          18
    1   0.0000340   0.0001734   0.0001463  -0.0000120   0.0000250  -0.0000945
    2   0.0001311  -0.0003090   0.0000059  -0.0000383   0.0000354  -0.0000530
    3   0.0001308   0.0000204   0.0000117   0.0000789  -0.0000553   0.0000139
           19          20          21          22          23          24
    1  -0.0000488  -0.0001257   0.0001192  -0.0000179   0.0000715   0.0000223
    2   0.0001230   0.0000842  -0.0001456   0.0000546  -0.0000573   0.0002450
    3  -0.0001426   0.0000063   0.0000397  -0.0000668  -0.0000917  -0.0000469
           25          26          27          28          29          30
    1  -0.0000192   0.0000363   0.0000607  -0.0000455   0.0000032   0.0000473
    2  -0.0001061  -0.0000506   0.0000655   0.0000010   0.0000136  -0.0000421
    3   0.0000798   0.0000533  -0.0000466   0.0000308  -0.0000066   0.0000465
           31          32          33          34          35          36
    1   0.0000108   0.0000249   0.0000314  -0.0000323  -0.0000438  -0.0000050
    2   0.0000159   0.0000033   0.0000122  -0.0000217  -0.0000899  -0.0000110
    3  -0.0000524  -0.0000027   0.0000250   0.0000603   0.0000308   0.0000191
           37
    1  -0.0000010
    2   0.0000192
    3  -0.0000116
 Max gradient component =       3.090E-04
 RMS gradient           =       9.339E-05
 Gradient time:  CPU 3385.64 s  wall 215.39 s
 Geometry Optimization Parameters
   NAtoms,    NIC,     NZ,  NCons,   NDum,   NFix, NCnnct, MaxDiis
       37     280       0       3       0       0       0       0

 Cartesian Hessian Update
 Hessian Updated using BFGS Update


** CONSTRAINED OPTIMIZATION IN DELOCALIZED INTERNAL COORDINATES **
   Searching for a Minimum

   Optimization Cycle:   3

                       Coordinates (Angstroms)
     ATOM                X               Y               Z
      1  C         7.6122226789    0.3788872845   -0.0651852508
      2  C         6.9401259148    1.2708353665    0.7539169650
      3  N         6.9960099877   -0.5264914702   -0.8192085249
      4  C         5.5592230694    1.2184049148    0.7933079503
      5  C         5.6717301622   -0.5677811563   -0.7737345354
      6  C         4.8912181792    0.2825362855    0.0110417151
      7  C         3.4201413562    0.2132256954   -0.0046159448
      8  C         2.6419291116    1.3384296208   -0.0453992645
      9  C         2.6956264617   -1.0132220396    0.0246956773
     10  N         1.2866293113    1.3785772172   -0.0482526186
     11  N         3.1902971112   -2.2512912812    0.0753006492
     12  C         1.2680778072   -0.9862106288    0.0234799459
     13  C         0.5835570822    0.2730193043   -0.0146644416
     14  S         1.9271411278   -3.2501120548    0.1100049909
     15  N         0.7131108873   -2.1942942638    0.0687229963
     16  C        -0.8546725316    0.4085586821   -0.0188140174
     17  S        -1.9783855617   -0.9057791860    0.0211119973
     18  C        -1.5450803791    1.5980473357   -0.0549188263
     19  C        -3.3454085158    0.1375452076   -0.0100497350
     20  S        -1.0633667131    3.2589539571   -0.1053125060
     21  C        -2.9570687632    1.4606374673   -0.0499963991
     22  C        -4.7010958173   -0.3707988075    0.0119545147
     23  C        -2.7454447569    3.7452513250   -0.1193614692
     24  C        -3.6273880218    2.7305663390   -0.0880684266
     25  N        -5.7529683142    0.3969263122    0.0040609890
     26  S        -5.0726418632   -2.0709724976    0.0550800554
     27  C        -6.8996275110   -0.3388795546    0.0322633343
     28  C        -6.7424433282   -1.6848966707    0.0628842004
     29  H         8.6947605272    0.3888887748   -0.1181667376
     30  H         7.4902646775    1.9800679814    1.3554944651
     31  H         4.9990227867    1.8834921023    1.4372818299
     32  H         5.1956639538   -1.3137530171   -1.3975470987
     33  H         3.1189790260    2.3098579117   -0.0930291992
     34  H        -2.9778748305    4.7978768452   -0.1505225794
     35  H        -4.6990727929    2.8381619451   -0.0894471217
     36  H        -7.8514213613    0.1697156801    0.0304035099
     37  H        -7.4982648443   -2.4497177197    0.0913071045
   Point Group: c1    Number of degrees of freedom:   105


   Energy is  -2595.906786064

              Constraints and their Current Values
                                        Value     Constraint
   Dihedral:        4   6   7   8       42.246       42.246
   Dihedral:       10  13  16  17     -180.000      180.000
   Dihedral:       17  19  22  25      179.217      179.217
 Hessian Updated using BFGS Update

 94 Hessian modes will be used to form the next step
  Hessian Eigenvalues:
     0.036333    0.044954    0.045000    0.045000    0.045000    0.045000
     0.045000    0.045000    0.045000    0.045000    0.045000    0.045000
     0.045000    0.045000    0.045000    0.045000    0.045001    0.045001
     0.045001    0.045001    0.045002    0.045005    0.045007    0.045008
     0.045010    0.045178    0.142073    0.159834    0.159964    0.159987
     0.159998    0.160000    0.160000    0.160090    0.219583    0.224552
     0.224864    0.231555    0.232720    0.234213    0.243110    0.246800
     0.247827    0.248082    0.249940    0.249958    0.249989    0.249994
     0.249998    0.249998    0.249999    0.297185    0.303774    0.314726
     0.315845    0.326271    0.333695    0.348467    0.354453    0.355803
     0.356345    0.356685    0.356849    0.359215    0.360761    0.361136
     0.363908    0.365009    0.372443    0.385029    0.385404    0.390345
     0.395693    0.407833    0.430855    0.445836    0.454444    0.460009
     0.473243    0.473350    0.478760    0.482798    0.494011    0.498694
     0.500670    0.517635    0.527025    0.537726    0.561181    0.574816
     0.590961    0.603785    0.630075    0.638770

 Minimum Search - Taking Simple RFO Step
 Searching for Lamda that Minimizes Along All modes
 Value Taken    Lamda =  -0.00000419
 Step Taken.  Stepsize is  0.007605

                             Maximum     Tolerance    Cnvgd?
         Gradient           0.000331      0.000300      NO
[...]
     26  S        -5.0741905831   -2.0703727746    0.0529722820
     27  C        -6.9002190019   -0.3374261137    0.0321297295
     28  C        -6.7436776824   -1.6835784049    0.0604798599
     29  H         8.6945261410    0.3918412315   -0.1175440881
     30  H         7.4874411686    1.9853484553    1.3524442313
     31  H         4.9971572026    1.8853437829    1.4350661504
     32  H         5.1968758686   -1.3159230427   -1.3947091521
     33  H         3.1173286285    2.3091303694   -0.0940773350
     34  H        -2.9731520876    4.7970378539   -0.1530951778
     35  H        -4.6966823615    2.8403281977   -0.0895999998
     36  H        -7.8516213493    0.1718933489    0.0301678035
     37  H        -7.4997598427   -2.4482299246    0.0873273655
   Point Group: c1    Number of degrees of freedom:   105


   Energy is  -2595.906788593

              Constraints and their Current Values
                                        Value     Constraint
   Dihedral:        4   6   7   8       42.246       42.246
   Dihedral:       10  13  16  17     -180.000      180.000
   Dihedral:       17  19  22  25      179.217      179.217
 Hessian Updated using BFGS Update

 92 Hessian modes will be used to form the next step
  Hessian Eigenvalues:
     0.017917    0.043512    0.045000    0.045000    0.045000    0.045000
     0.045000    0.045000    0.045000    0.045000    0.045000    0.045001
     0.045001    0.045001    0.045001    0.045003    0.045005    0.045007
     0.045008    0.045010    0.045094    0.045408    0.141997    0.158565
     0.159968    0.159988    0.159999    0.160007    0.160050    0.160145
     0.219614    0.224567    0.224997    0.231805    0.233477    0.234469
     0.244084    0.247242    0.247740    0.248346    0.249950    0.249964
     0.249994    0.249996    0.249998    0.249999    0.250000    0.254668
     0.296924    0.303740    0.310966    0.316112    0.326221    0.331229
     0.335014    0.354421    0.355475    0.356041    0.356452    0.356626
     0.356897    0.359247    0.360757    0.361091    0.363936    0.365010
     0.384968    0.385455    0.389576    0.394053    0.408153    0.430275
     0.435008    0.443912    0.454981    0.464174    0.473411    0.477048
     0.479143    0.481865    0.493328    0.498986    0.504366    0.517438
     0.527003    0.538135    0.561203    0.574985    0.590705    0.626376
     0.638468    0.660899

 Minimum Search - Taking Simple RFO Step
 Searching for Lamda that Minimizes Along All modes
 Value Taken    Lamda =   0.00000000
 Step Taken.  Stepsize is  0.003367

                             Maximum     Tolerance    Cnvgd?
         Gradient           0.000069      0.000300     YES
         Displacement       0.001685      0.001200      NO
         Energy change     -0.000001      0.000001     YES

 Final energy is   -2595.90678859294     


 ******************************
 **  OPTIMIZATION CONVERGED  **
 ******************************

                       Coordinates (Angstroms)
     ATOM                X               Y               Z
      1  C         7.6119863476    0.3811944638   -0.0648752644
      2  C         6.9387499257    1.2737727424    0.7523820998
      3  N         6.9964920161   -0.5261409181   -0.8171413717
      4  C         5.5578586387    1.2201154113    0.7915993657
      5  C         5.6721939052   -0.5681989769   -0.7723966572
      6  C         4.8906804697    0.2833693719    0.0100150917
      7  C         3.4197533587    0.2126505710   -0.0048263077
      8  C         2.6410315341    1.3374183298   -0.0455693766
      9  C         2.6956780360   -1.0143841443    0.0240008403
     10  N         1.2858483721    1.3765922273   -0.0468874183
     11  N         3.1906950026   -2.2522479633    0.0744075986
     12  C         1.2680166945   -0.9881926841    0.0223943575
     13  C         0.5832440223    0.2706773749   -0.0136748526
     14  S         1.9273941348   -3.2512533939    0.1080535617
     15  N         0.7129928845   -2.1961644971    0.0668668839
     16  C        -0.8548431426    0.4062422668   -0.0162350952
     17  S        -1.9792950977   -0.9074894593    0.0235067270
     18  C        -1.5442340206    1.5961234441   -0.0522898067
     19  C        -3.3455660907    0.1368377007   -0.0071615918
     20  S        -1.0604473377    3.2561262583   -0.1040391253
     21  C        -2.9564596990    1.4598589844   -0.0473399524
     22  C        -4.7016580585   -0.3704866478    0.0133639046
     23  C        -2.7422289246    3.7441553271   -0.1188493573
     24  C        -3.6253055855    2.7303187559   -0.0866535706
     25  N        -5.7530981727    0.3979756841    0.0058058412
     26  S        -5.0741905831   -2.0703727746    0.0529722820
     27  C        -6.9002190019   -0.3374261137    0.0321297295
     28  C        -6.7436776824   -1.6835784049    0.0604798599
     29  H         8.6945261410    0.3918412315   -0.1175440881
     30  H         7.4874411686    1.9853484553    1.3524442313
     31  H         4.9971572026    1.8853437829    1.4350661504
     32  H         5.1968758686   -1.3159230427   -1.3947091521
     33  H         3.1173286285    2.3091303694   -0.0940773350
     34  H        -2.9731520876    4.7970378539   -0.1530951778
     35  H        -4.6966823615    2.8403281977   -0.0895999998
     36  H        -7.8516213493    0.1718933489    0.0301678035
     37  H        -7.4997598427   -2.4482299246    0.0873273655

Z-matrix Print:
$molecule
0 1
S 
C  1 1.719958
C  2 1.379639 1 111.023165
C  3 1.418793 2 111.896567 1 0.002018 0
C  4 1.375637 3 114.560775 2 0.024463 0
C  3 1.436304 2 135.864597 1 -179.920787 0
H  6 1.077014 3 123.618341 2 -0.074636 0
C  6 1.344889 3 111.203922 2 179.916993 0
H  8 1.078453 6 126.593446 3 -179.902306 0
C  5 1.444465 4 125.461451 3 -179.961103 0
N  10 1.310650 5 117.030866 4 -0.089618 0
C  11 1.355750 10 120.760023 5 -179.925785 0
H  12 1.083253 11 114.427714 10 -178.878595 0
C  12 1.368638 11 126.335533 10 0.353802 0
C  14 1.425037 12 114.779544 11 -0.696589 0
N  15 1.334125 14 127.673495 12 179.503198 0
C  15 1.427902 14 119.485765 12 0.614365 0
N  17 1.330122 15 113.609850 14 179.248735 0
C  2 1.448028 1 122.069418 3 179.796322 0
N  19 1.302351 2 123.316916 1 -179.216984 0
C  20 1.362863 19 111.163464 2 179.874974 0
H  21 1.079155 20 119.166633 19 -179.951933 0
C  21 1.355520 20 116.044719 19 -0.007930 0
H  23 1.075673 21 128.703832 20 -179.773775 0
C  14 1.472701 12 121.946489 11 179.197281 0
C  25 1.390501 14 121.147808 12 -42.245746 0
H  26 1.082111 25 119.984497 14 -2.612432 0
C  26 1.382490 25 119.304991 14 178.475393 0
H  28 1.080498 26 121.133395 25 179.583008 0
C  28 1.384866 26 118.509306 25 0.330391 0
H  30 1.083873 28 120.523126 26 179.751563 0
N  30 1.329660 28 123.274651 26 -0.089063 0
C  32 1.325721 30 117.707151 28 0.049995 0
H  33 1.082724 32 116.170298 30 -179.981392 0
S  18 1.609248 17 106.343555 15 -0.058757 0
S  23 1.713725 21 109.667164 20 0.048710 0
S  4 1.729837 3 111.755514 2 -179.952238 0
$end

 
 --------------------------------------------------------------
 
                    Orbital Energies (a.u.)
 --------------------------------------------------------------
 
 Alpha MOs
 -- Occupied --
-89.156 -89.094 -89.093 -89.075 -14.495 -14.489 -14.452 -14.445
-14.436 -10.375 -10.370 -10.363 -10.360 -10.345 -10.341 -10.340
-10.334 -10.329 -10.328 -10.327 -10.327 -10.326 -10.322 -10.318
-10.315 -10.314 -10.303 -10.296  -8.166  -8.109  -8.108  -8.089
 -6.116  -6.111  -6.110  -6.058  -6.057  -6.054  -6.054  -6.052
 -6.051  -6.039  -6.035  -6.032  -1.153  -1.084  -1.073  -1.055
 -1.024  -1.016  -0.957  -0.946  -0.912  -0.911  -0.907  -0.884
 -0.862  -0.845  -0.829  -0.808  -0.776  -0.753  -0.745  -0.728
 -0.724  -0.695  -0.689  -0.679  -0.648  -0.641  -0.623  -0.621
 -0.609  -0.595  -0.584  -0.577  -0.570  -0.568  -0.541  -0.537
 -0.526  -0.523  -0.518  -0.514  -0.512  -0.503  -0.496  -0.491
 -0.489  -0.481  -0.477  -0.463  -0.458  -0.449  -0.437  -0.433
 -0.430  -0.423  -0.403  -0.397  -0.383  -0.373  -0.371  -0.370
 -0.364  -0.358  -0.342  -0.337  -0.327  -0.319  -0.268
 -- Virtual --
 -0.058  -0.010   0.027   0.038   0.046   0.058   0.064   0.066
  0.075   0.102   0.107   0.114   0.117   0.121   0.131   0.134
  0.142   0.147   0.151   0.167   0.169   0.170   0.171   0.180
  0.191   0.198   0.201   0.213   0.214   0.227   0.230   0.242
  0.253   0.254   0.260   0.266   0.271   0.273   0.289   0.291
  0.297   0.299   0.302   0.309   0.309   0.319   0.322   0.326
  0.331   0.332   0.337   0.339   0.344   0.351   0.355   0.356
  0.363   0.366   0.369   0.375   0.379   0.380   0.386   0.388
  0.392   0.393   0.399   0.403   0.405   0.407   0.408   0.410
  0.419   0.424   0.429   0.432   0.434   0.437   0.439   0.440
  0.450   0.451   0.455   0.457   0.461   0.464   0.465   0.469
  0.470   0.472   0.476   0.480   0.482   0.487   0.489   0.492
  0.495   0.499   0.502   0.507   0.510   0.515   0.517   0.523
  0.524   0.527   0.532   0.543   0.546   0.547   0.548   0.553
  0.558   0.563   0.572   0.578   0.585   0.591   0.594   0.599
  0.603   0.612   0.623   0.627   0.636   0.640   0.649   0.650
  0.652   0.661   0.663   0.668   0.675   0.677   0.681   0.686
  0.689   0.693   0.698   0.703   0.712   0.719   0.726   0.732
  0.737   0.740   0.742   0.744   0.747   0.751   0.763   0.766
  0.770   0.772   0.775   0.778   0.779   0.793   0.798   0.800
  0.806   0.809   0.813   0.819   0.822   0.824   0.826   0.831
  0.835   0.838   0.846   0.852   0.855   0.857   0.862   0.870
  0.873   0.878   0.881   0.893   0.899   0.902   0.906   0.914
  0.924   0.928   0.933   0.937   0.943   0.948   0.949   0.953
  0.958   0.970   0.972   0.977   0.980   0.985   0.988   0.992
  0.994   1.007   1.014   1.017   1.023   1.027   1.030   1.038
  1.050   1.051   1.054   1.062   1.064   1.072   1.076   1.081
  1.085   1.088   1.094   1.102   1.105   1.112   1.123   1.127
  1.134   1.139   1.145   1.150   1.163   1.172   1.176   1.180
  1.187   1.193   1.195   1.209   1.216   1.221   1.224   1.228
  1.235   1.237   1.249   1.257   1.262   1.270   1.274   1.276
  1.279   1.290   1.299   1.301   1.313   1.319   1.324   1.335
  1.343   1.349   1.358   1.364   1.367   1.370   1.381   1.382
  1.389   1.397   1.403   1.414   1.418   1.427   1.430   1.436
  1.444   1.448   1.451   1.457   1.462   1.474   1.484   1.486
  1.494   1.501   1.507   1.519   1.531   1.535   1.542   1.544
  1.547   1.564   1.571   1.576   1.586   1.591   1.596   1.605
  1.611   1.611   1.617   1.628   1.631   1.637   1.640   1.645
  1.654   1.662   1.663   1.668   1.672   1.682   1.684   1.686
  1.692   1.696   1.699   1.710   1.718   1.727   1.732   1.740
  1.747   1.751   1.763   1.767   1.777   1.781   1.784   1.792
  1.809   1.818   1.820   1.833   1.837   1.858   1.862   1.870
  1.881   1.881   1.885   1.892   1.908   1.922   1.923   1.925
  1.935   1.940   1.946   1.955   1.959   1.973   1.981   1.991
  1.993   1.995   2.004   2.006   2.020   2.025   2.031   2.033
  2.052   2.061   2.065   2.074   2.080   2.086   2.095   2.107
  2.116   2.122   2.132   2.140   2.145   2.158   2.164   2.172
  2.180   2.183   2.188   2.194   2.201   2.219   2.230   2.234
  2.236   2.243   2.256   2.258   2.268   2.277   2.279   2.285
  2.302   2.309   2.324   2.344   2.347   2.356   2.363   2.367
  2.377   2.379   2.382   2.393   2.396   2.398   2.407   2.415
  2.421   2.431   2.434   2.442   2.453   2.456   2.461   2.473
  2.480   2.485   2.491   2.494   2.499   2.511   2.516   2.518
  2.523   2.535   2.541   2.543   2.555   2.568   2.574   2.582
  2.590   2.605   2.608   2.614   2.616   2.620   2.628   2.631
  2.642   2.651   2.657   2.661   2.669   2.677   2.682   2.706
  2.716   2.738   2.742   2.755   2.760   2.767   2.771   2.779
  2.781   2.787   2.790   2.792   2.797   2.805   2.809   2.815
  2.827   2.829   2.839   2.845   2.858   2.870   2.874   2.878
  2.889   2.890   2.906   2.913   2.926   2.937   2.937   2.941
  2.945   2.947   2.953   2.954   2.960   2.969   2.970   2.976
  2.980   2.989   2.992   3.002   3.011   3.019   3.021   3.027
  3.029   3.044   3.046   3.055   3.058   3.061   3.062   3.067
  3.069   3.080   3.089   3.090   3.091   3.097   3.104   3.106
  3.109   3.117   3.119   3.122   3.128   3.133   3.137   3.146
  3.152   3.155   3.166   3.170   3.172   3.177   3.180   3.183
  3.187   3.188   3.194   3.200   3.203   3.204   3.210   3.214
  3.216   3.225   3.228   3.229   3.237   3.241   3.245   3.251
  3.254   3.256   3.264   3.268   3.271   3.280   3.281   3.291
  3.293   3.294   3.300   3.305   3.313   3.314   3.320   3.326
  3.331   3.335   3.343   3.349   3.352   3.356   3.366   3.371
  3.376   3.379   3.382   3.389   3.394   3.407   3.417   3.421
  3.424   3.432   3.440   3.445   3.455   3.461   3.465   3.469
  3.477   3.482   3.483   3.490   3.501   3.501   3.508   3.513
  3.518   3.529   3.534   3.540   3.555   3.556   3.565   3.575
  3.582   3.585   3.596   3.599   3.601   3.617   3.624   3.639
  3.644   3.652   3.660   3.669   3.674   3.685   3.688   3.695
  3.710   3.728   3.732   3.735   3.739   3.752   3.753   3.757
  3.772   3.778   3.781   3.794   3.801   3.803   3.807   3.815
  3.824   3.828   3.841   3.848   3.851   3.856   3.865   3.866
  3.868   3.879   3.892   3.905   3.923   3.924   3.930   3.939
  3.945   3.950   3.951   3.955   3.963   3.967   3.975   3.980
  3.987   3.994   3.998   4.010   4.023   4.033   4.038   4.042
  4.064   4.074   4.079   4.087   4.093   4.098   4.114   4.122
  4.138   4.141   4.145   4.164   4.171   4.174   4.180   4.188
  4.189   4.198   4.202   4.213   4.225   4.227   4.237   4.248
  4.265   4.272   4.277   4.283   4.289   4.300   4.309   4.320
  4.324   4.340   4.344   4.349   4.351   4.382   4.383   4.389
  4.392   4.407   4.415   4.421   4.434   4.436   4.452   4.461
  4.471   4.474   4.481   4.491   4.506   4.521   4.525   4.534
  4.547   4.555   4.564   4.571   4.573   4.592   4.596   4.604
  4.616   4.637   4.639   4.654   4.666   4.677   4.682   4.694
  4.701   4.714   4.729   4.736   4.752   4.783   4.791   4.794
  4.811   4.824   4.837   4.844   4.849   4.856   4.858   4.872
  4.874   4.886   4.905   4.933   4.935   4.940   4.947   4.953
  4.956   4.962   4.968   4.977   4.988   4.994   4.998   5.009
  5.028   5.041   5.045   5.057   5.072   5.086   5.095   5.100
  5.113   5.125   5.143   5.147   5.157   5.174   5.177   5.197
  5.209   5.234   5.235   5.242   5.254   5.258   5.282   5.283
  5.316   5.320   5.337   5.342   5.356   5.392   5.399   5.411
  5.432   5.440   5.459   5.465   5.481   5.488   5.514   5.530
  5.533   5.550   5.557   5.590   5.606   5.656   5.665   5.665
  5.694   5.706   5.723   5.739   5.764   5.780   5.821   5.824
  5.853   5.890   5.894   5.947   5.955   6.000   6.019   6.097
  6.139   6.154   6.170   6.189   6.202   6.225   6.261   6.316
  6.345   6.355   6.400   6.412   6.490   6.853   7.020   8.027
  8.934   9.809  10.174  10.943  11.187  11.235  11.725  12.014
 12.337  12.502  12.559  12.823  12.879  13.153  13.193  13.477
 13.534  13.591  13.837  13.905  14.271  14.752  14.986
 --------------------------------------------------------------
 
          Ground-State Mulliken Net Atomic Charges

     Atom                 Charge (a.u.)
  ----------------------------------------
      1 C                    -0.071819
      2 C                    -0.102791
      3 N                    -0.155290
      4 C                    -0.157069
      5 C                    -0.094833
      6 C                     0.109339
      7 C                     0.031179
      8 C                    -0.093080
      9 C                     0.020009
     10 N                    -0.182792
     11 N                    -0.276025
     12 C                     0.025946
     13 C                     0.117432
     14 S                     0.413037
     15 N                    -0.284367
     16 C                    -0.058707
     17 S                     0.130827
     18 C                    -0.007708
     19 C                    -0.021887
     20 S                     0.091549
     21 C                     0.021211
     22 C                     0.037522
     23 C                    -0.162685
     24 C                    -0.160455
     25 N                    -0.183293
     26 S                     0.100652
     27 C                    -0.074908
     28 C                    -0.203349
     29 H                     0.123985
     30 H                     0.128806
     31 H                     0.131368
     32 H                     0.128440
     33 H                     0.131324
     34 H                     0.131418
     35 H                     0.142208
     36 H                     0.129143
     37 H                     0.145659
  ----------------------------------------
  Sum of atomic charges =     0.000000

 -----------------------------------------------------------------
                    Cartesian Multipole Moments
 -----------------------------------------------------------------
    Charge (ESU x 10^10)
                 0.0000
    Dipole Moment (Debye)
         X      -1.8931      Y       0.1027      Z       1.2554
       Tot       2.2739
    Quadrupole Moments (Debye-Ang)
        XX    -169.5441     XY      16.6111     YY    -171.2587
        XZ       9.3891     YZ       1.4821     ZZ    -188.6628
    Octopole Moments (Debye-Ang^2)
       XXX    -225.2992    XXY      46.2990    XYY     -33.1784
       YYY      -3.6880    XXZ      75.1093    XYZ      12.0521
       YYZ       3.6662    XZZ       8.5894    YZZ      -9.2179
       ZZZ       1.7733
    Hexadecapole Moments (Debye-Ang^3)
      XXXX  -17371.0712   XXXY    1165.0332   XXYY   -3598.9237
      XYYY     -82.4683   YYYY   -3555.7988   XXXZ     535.7340
      XXYZ      38.9238   XYYZ      35.2910   YYYZ      -7.6021
      XXZZ   -3421.2209   XYZZ      20.1419   YYZZ    -731.8305
      XZZZ      11.8881   YZZZ       4.7624   ZZZZ    -320.3409
 -----------------------------------------------------------------
Archival summary:
1\1\mn250\OPT\ProcedureUnspecified\BasisUnspecified\45199\afmv_a\SatJun313:30:262017SatJun313:30:262017\0\\#,OPT,ProcedureUnspecified,BasisUnspecified,\\0,1\S\C,1,1.71996\C,2,1.37964,1,111.023\C,3,1.41879,2,111.897,1,0.00201836,0\C,4,1.37564,3,114.561,2,0.0244634,0\C,3,1.4363,2,135.865,1,-179.921,0\H,6,1.07701,3,123.618,2,-0.0746359,0\C,6,1.34489,3,111.204,2,179.917,0\H,8,1.07845,6,126.593,3,-179.902,0\C,5,1.44446,4,125.461,3,-179.961,0\N,10,1.31065,5,117.031,4,-0.089618,0\C,11,1.35575,10,120.76,5,-179.926,0\H,12,1.08325,11,114.428,10,-178.879,0\C,12,1.36864,11,126.336,10,0.353802,0\C,14,1.42504,12,114.78,11,-0.696589,0\N,15,1.33412,14,127.673,12,179.503,0\C,15,1.4279,14,119.486,12,0.614365,0\N,17,1.33012,15,113.61,14,179.249,0\C,2,1.44803,1,122.069,3,179.796,0\N,19,1.30235,2,123.317,1,-179.217,0\C,20,1.36286,19,111.163,2,179.875,0\H,21,1.07916,20,119.167,19,-179.952,0\C,21,1.35552,20,116.045,19,-0.00793007,0\H,23,1.07567,21,128.704,20,-179.774,0\C,14,1.4727,12,121.946,11,179.197,0\C,25,1.3905,14,121.148,12,-42.2457,0\H,26,1.08211,25,119.984,14,-2.61243,0\C,26,1.38249,25,119.305,14,178.475,0\H,28,1.0805,26,121.133,25,179.583,0\C,28,1.38487,26,118.509,25,0.330391,0\H,30,1.08387,28,120.523,26,179.752,0\N,30,1.32966,28,123.275,26,-0.0890629,0\C,32,1.32572,30,117.707,28,0.049995,0\H,33,1.08272,32,116.17,30,-179.981,0\S,18,1.60925,17,106.344,15,-0.0587573,0\S,23,1.71373,21,109.667,20,0.0487103,0\S,4,1.72984,3,111.756,2,-179.952,0\\\@

 Total job time:  4367.94s(wall), 66116.45s(cpu) 
 Sat Jun  3 13:30:26 2017

        *************************************************************
        *                                                           *
        *  Thank you very much for using Q-Chem.  Have a nice day.  *
        *                                                           *
        *************************************************************


0 sent ACK to 0 
now end server 0 ... 
cleanup process ... done
