
Running Job 1 of 1 C271_2/C271_345.qcin
qchem C271_2/C271_345.qcin_61221.0 /tmpu/cab_g/afmv_a/scratch_qchem/qchem61221/ 1
/tmpu/appuserlic/qchem4.4/parallel-MPICH/bin/mpi/mpirun_qchem -machinefile /tmpu/appuserlic/qchem4.4/parallel-MPICH/bin/mpi/machines -np 1 /tmpu/appuserlic/qchem4.4/parallel-MPICH/exe/qcprog.exe C271_2/C271_345.qcin_61221.0 /tmpu/cab_g/afmv_a/scratch_qchem/qchem61221/

Process 0 of 1 is on mn250 - thread support 0
initial socket setup ...start
initial socket setup ...done 
now start server 0 ... 
Check license passed

                  Welcome to Q-Chem
     A Quantum Leap Into The Future Of Chemistry


 Q-Chem 4.4, Q-Chem, Inc., Pleasanton, CA (2016)

 Y. Shao,  Z. Gan,  E. Epifanovsky,  A. T. B. Gilbert,  M. Wormit,  
 J. Kussmann,  A. W. Lange,  A. Behn,  J. Deng,  X. Feng,  D. Ghosh,  
 M. Goldey,  P. R. Horn,  L. D. Jacobson,  I. Kaliman,  F. Rob,  
 R. Z. Khaliullin,  T. Kus,  A. Landau,  J. Liu,  E. I. Proynov,  Y. M. Rhee,  
 R. M. Richard,  M. A. Rohrdanz,  R. P. Steele,  E. J. Sundstrom,  
 H. L. Woodcock III,  P. M. Zimmerman,  D. Zuev,  B. Albrecht,  E. Alguire,  
 B. Austin,  S. A. Baeppler,  G. J. O. Beran,  Y. A. Bernard,  E. Berquist,  
 K. Brandhorst,  K. B. Bravaya,  S. T. Brown,  D. Casanova,  C.-M. Chang,  
 Y. Chen,  S. H. Chien,  K. D. Closser,  M. P. Coons,  D. L. Crittenden,  
 S. Dasgupta,  M. Diedenhofen,  R. A. DiStasio Jr.,  H. Do,  A. D. Dutoi,  
 R. G. Edgar,  P.-T. Fang,  S. Fatehi,  Q. Feng,  L. Fusti-Molnar,  
 A. Ghysels,  A. Golubeva-Zadorozhnaya,  J. Gomes,  A. Gunina,  
 M. W. D. Hanson-Heine,  P. H. P. Harbach,  A. W. Hauser,  J. E. Herr,  
 E. G. Hohenstein,  Z. C. Holden,  K. Hui,  T.-C. Jagau,  H. Ji,  B. Kaduk,  
 K. Khistyaev,  Jaehoon Kim,  Jihan Kim,  R. A. King,  P. Klunzinger,  
 K. Koh,  D. Kosenkov,  T. Kowalczyk,  C. M. Krauter,  A. Kunitsa,  
 K. U. Lao,  A. Laurent,  K. V. Lawler,  J. Lee,  D. Lefrancois,  S. Lehtola,  
 S. V. Levchenko,  C. Y. Lin,  Y.-S. Lin,  F. Liu,  E. Livshits,  
 R. C. Lochan,  A. Luenser,  P. Manohar,  S. F. Manzer,  S.-P. Mao,  Y. Mao,  
 N. Mardirossian,  A. V. Marenich,  L. A. Martinez-Martinez,  S. A. Maurer,  
 N. J. Mayhall,  J.-M. Mewes,  A. F. Morrison,  K. Nanda,  T. S. Nguyen-Beck,  
 C. M. Oana,  R. Olivares-Amaya,  D. P. O'Neill,  J. A. Parkhill,  
 T. M. Perrine,  R. Peverati,  P. A. Pieniazek,  F. Plasser,  A. Prociuk,  
 D. R. Rehn,  E. Rosta,  N. J. Russ,  N. Sergueev,  S. M. Sharada,  
 S. Sharma,  D. W. Small,  A. Sodt,  T. Stauch,  T. Stein,  D. Stuck,  
 Y.-C. Su,  A. J. W. Thom,  T. Tsuchimochi,  L. Vogt,  O. Vydrov,  T. Wang,  
 M. A. Watson,  J. Wenzel,  A. White,  C. F. Williams,  V. Vanovschi,  
 K. Yao,  S. Yeganeh,  S. R. Yost,  Z.-Q. You,  I. Y. Zhang,  X. Zhang,  
 Y. Zhao,  B. R. Brooks,  G. K. L. Chan,  D. M. Chipman,  C. J. Cramer,  
 W. A. Goddard III,  M. S. Gordon,  W. J. Hehre,  A. Klamt,  
 H. F. Schaefer III,  M. W. Schmidt,  C. D. Sherrill,  D. G. Truhlar,  
 A. Warshel,  X. Xu,  A. Aspuru-Guzik,  R. Baer,  A. T. Bell,  N. A. Besley,  
 J.-D. Chai,  A. Dreuw,  B. D. Dunietz,  T. R. Furlani,  S. R. Gwaltney,  
 C.-P. Hsu,  Y. Jung,  J. Kong,  D. S. Lambrecht,  W. Liang,  C. Ochsenfeld,  
 V. A. Rassolov,  L. V. Slipchenko,  J. E. Subotnik,  T. Van Voorhis,  
 J. M. Herbert,  A. I. Krylov,  P. M. W. Gill,  M. Head-Gordon

 Contributors to earlier versions of Q-Chem not listed above: 
 R. D. Adamson,  J. Baker,  E. F. C. Byrd,  A. K. Chakraborty,  C.-L. Cheng,  
 H. Dachsel,  R. J. Doerksen,  G. Hawkins,  A. Heyden,  S. Hirata,  
 G. Kedziora,  F. J. Keil,  C. Kelley,  P. P. Korambath,  W. Kurlancheek,  
 A. M. Lee,  M. S. Lee,  D. Liotard,  I. Lotan,  P. E. Maslen,  N. Nair,  
 D. Neuhauser,  R. Olson,  B. Peters,  J. Ritchie,  N. E. Schultz,  
 N. Shenvi,  A. C. Simmonett,  K. S. Thanthiriwatte,  Q. Wu,  W. Zhang

 Please cite Q-Chem as follows:
 Y. Shao et al., Mol. Phys. 113, 184-215 (2015)
 DOI: 10.1080/00268976.2014.952696

 Q-Chem 4.4.2 for Intel X86 Linux

 Parts of Q-Chem use Armadillo 5.200.1 (Boston Tea Smuggler).
 http://arma.sourceforge.net/

 Q-Chem begins on Thu Jun  1 14:53:38 2017  

Host: 
0

     Scratch files written to /tmpu/cab_g/afmv_a/scratch_qchem/qchem61221//
 Dec716 11556_ 22328  22283 4050   
 Parallel job on  1  processors
Processing $rem in /tmpu/appuserlic/qchem4.4/parallel-MPICH/config/preferences.
 MEM_TOTAL  2000 
FILE_GEOM_ORG=        593

Checking the input file for inconsistencies... 	...done.

--------------------------------------------------------------
User input:
--------------------------------------------------------------
$comment
OPTIMIZATION
$end

$rem
JOBTYPE OPT
EXCHANGE omegaB97X-D
BASIS cc-pVTZ
$end

$molecule
0 1
C          0.00000        0.00000        0.00000
C          1.38508        0.00000        0.00000
N         -0.72771       -1.11322        0.00000
C          2.04720       -1.21160       -0.00386
C         -0.08136       -2.27149       -0.00595
C          1.30925       -2.38901       -0.00649
C          1.96927       -3.70493        0.02329
C          3.04486       -3.95576        0.82999
C          1.55200       -4.80802       -0.77739
N          3.72631       -5.12438        0.91627
N          0.54624       -4.84522       -1.65350
C          2.26335       -6.04410       -0.69858
C          3.37925       -6.16090        0.19241
S          0.53898       -6.32692       -2.28381
N          1.78433       -6.98642       -1.50573
C          4.16725       -7.35995        0.35676
S          5.71635       -7.45493        1.12295
C          3.79546       -8.61293       -0.07338
C          5.84618       -9.15105        0.86201
S          2.40057       -9.22608       -0.89412
C          4.73481       -9.63775        0.20589
C          6.99595       -9.90911        1.30871
C          3.08833      -10.83573       -0.85375
C          4.29339      -10.92314       -0.26324
N          7.11410      -11.19444        1.13726
S          8.34982       -9.18060        2.12842
C          8.28729      -11.65386        1.65759
C          9.08816      -10.72447        2.23358
H         -0.55134        0.93273        0.00000
H          1.92494        0.93597       -0.01293
H          3.12873       -1.25416       -0.02668
H         -0.69553       -3.16348       -0.00579
H          3.41622       -3.17720        1.48423
H          2.52662      -11.65002       -1.28458
H          4.86788      -11.82542       -0.13991
H          8.52407      -12.70489        1.59281
H         10.04670      -10.86089        2.70265
$end

$opt
CONSTRAINT
tors 4 6 7 8 42.24575
tors 10 13 16 17 -15.00000
tors 17 19 22 25 179.21698
ENDCONSTRAINT
$end
--------------------------------------------------------------
 ----------------------------------------------------------------
             Standard Nuclear Orientation (Angstroms)
    I     Atom           X                Y                Z
 ----------------------------------------------------------------
    1      C       7.4103866656     1.6910042817    -0.2240224021
    2      C       6.5660156611     2.5476185981     0.4627789710
    3      N       6.9897601631     0.5817233251    -0.8251793844
    4      C       5.2223628828     2.2376373909     0.5327876595
    5      C       5.6974586710     0.2924901825    -0.7497197218
    6      C       4.7585658715     1.0826530590    -0.0850917404
    7      C       3.3298174969     0.7269743940    -0.0669405860
    8      C       2.3502121377     1.6603570288    -0.2663011244
    9      C       2.8560139604    -0.5979145026     0.1615104670
   10      N       1.0137094645     1.4343452671    -0.2532499388
   11      N       3.5805507671    -1.6945293315     0.3917018711
   12      C       1.4501070013    -0.8492412980     0.1811081532
   13      C       0.5364856621     0.2319818124    -0.0402306463
   14      S       2.5355817117    -2.9020413448     0.5984207736
   15      N       1.1397978018    -2.1204579548     0.4190885675
   16      C      -0.9010972798     0.0941748610    -0.0465831456
   17      S      -2.0418819532     1.3917684817     0.0565684465
   18      C      -1.5783265096    -1.0999409681    -0.1396157255
   19      C      -3.3960346422     0.3328689860    -0.0257171522
   20      S      -1.0725756152    -2.7496784614    -0.2732847876
   21      C      -2.9913127242    -0.9816060396    -0.1299725957
   22      C      -4.7570064717     0.8257968863     0.0050183491
   23      C      -2.7479688687    -3.2566706746    -0.3136954166
   24      C      -3.6450125455    -2.2581183165    -0.2317319974
   25      N      -5.7994500905     0.0491610802    -0.0696533325
   26      S      -5.1480257227     2.5179466286     0.1441171496
   27      C      -6.9546389487     0.7714553009    -0.0247692368
   28      C      -6.8135594420     2.1146574589     0.0884895149
   29      H       8.4706222232     1.9023641433    -0.2960544769
   30      H       6.9656208263     3.4290797352     0.9434012981
   31      H       4.5336541456     2.8695276959     1.0790789415
   32      H       5.3793431106    -0.6154811750    -1.2469535489
   33      H       2.6235019156     2.6890281464    -0.4643978936
   34      H      -2.9687302427    -4.3088186777    -0.4056182780
   35      H      -4.7154689896    -2.3734214977    -0.2453857529
   36      H      -7.9045825221     0.2620358167    -0.0797626382
   37      H      -7.5789234066     2.8689935990     0.1397828117
 ----------------------------------------------------------------
 Molecular Point Group                 C1    NOp =  1
 Largest Abelian Subgroup              C1    NOp =  1
 Nuclear Repulsion Energy =  2986.3566408622 hartrees
 There are      111 alpha and      111 beta electrons
 Requested basis set is cc-pVTZ
 There are 342 shells and 982 basis functions

 Total QAlloc Memory Limit   2000 MB
 Mega-Array Size        61 MB
 MEM_STATIC part        62 MB
 A cutoff of  1.0D-11 yielded  29421 shell pairs
 There are    234007 function pairs (    305960 Cartesian)
 
 -------------------------------------------------------
 OpenMP Integral Computing Module                       
 Release: version 1.0, May 2013, Q-Chem Inc. Pittsburgh 
 -------------------------------------------------------
 Integral Job Info:
 Integral job number is                      11
 Integral operator is                         1
 short-range coefficients              22203600
 long-range coefficients              100000000
 Omega coefficients                         200
 if combine SR and LR in K                    1
 Integral screening is                        0
 Integral computing path is                   2
 max size of driver memory is            800000
 size of driver memory is                776718
 size of scratch memory is             26248924
 max col of scratch BK array              10000
 max len of scratch array in speh3          662
 max len of scratch index in speh4           32
 max int batch size is                      520
 min int batch size is                       52
 fixed nKL is                                52
 max L of basis functions is                  3
 order of int derivative is                   0
 number of shells is                        342
 number of basis is                        1131
 number of cartesian basis is              1131
 number of contracted shell pairs         29421
 number of primitive shell pairs          93208
 maxK2 (contraction) of shell pair          121
 max number of K2 of shell pair               1
 max number of CS2 of shell pair           3958
 max number of PS2 of shell pair          11760
 mem total for path MDJ                  824628
 -------------------------------------------------------
 Smallest overlap matrix eigenvalue = 2.34E-05

 Scale SEOQF with 1.000000e-02/1.000000e-01/1.000000e+00

 Standard Electronic Orientation quadrupole field applied
 Nucleus-field energy     =     0.0000000399 hartrees
 Guess from superposition of atomic densities
 Warning:  Energy on first SCF cycle will be non-variational
 Long-range K will be added via erf
 Coulomb attenuation parameter = 0.2 bohr**(-1)
 A restricted hybrid HF-DFT SCF calculation will be
 performed using Pulay DIIS extrapolation
 Exchange:     0.2220 Hartree-Fock + 1.0000 wB97X-D + LR-HF
 Correlation:  1.0000 wB97X-D
 Using SG-2 standard quadrature grid
 Dispersion:   Grimme D
 SCF converges when DIIS error is below 1.0E-08
 using 16 threads for integral computing 
 using 16 threads for integral computing 
 K construction time:  CPU 73.08 s  wall 4.78 s
 -------------------------------------------------------
 OpenMP BLAS3 based DFT computing Module                
 Release: version 1.0, May 2013, Q-Chem Inc. Pittsburgh 
 -------------------------------------------------------
 ---------------------------------------
  Cycle       Energy         DIIS Error
 ---------------------------------------
    1   -2605.9671296932      1.87E-02
 K construction time:  CPU 1113.75 s  wall 72.74 s
    2   -2595.6340030276      1.39E-03
 K construction time:  CPU 1063.43 s  wall 69.35 s
    3   -2595.6353365665      1.50E-03
 K construction time:  CPU 1017.33 s  wall 66.30 s
    4   -2595.8750031608      2.44E-04
 K construction time:  CPU 940.04 s  wall 61.35 s
    5   -2595.8804410143      1.40E-04
 K construction time:  CPU 890.74 s  wall 58.09 s
    6   -2595.8824877255      4.68E-05
 K construction time:  CPU 840.94 s  wall 54.95 s
    7   -2595.8827267017      2.15E-05
 K construction time:  CPU 792.99 s  wall 51.75 s
    8   -2595.8827923426      6.26E-06
 K construction time:  CPU 759.80 s  wall 49.51 s
    9   -2595.8828049990      3.48E-06
 K construction time:  CPU 724.92 s  wall 47.28 s
   10   -2595.8828088558      1.10E-06
 K construction time:  CPU 655.17 s  wall 42.64 s
   11   -2595.8828093155      6.19E-07
 K construction time:  CPU 612.01 s  wall 39.86 s
   12   -2595.8828094289      2.34E-07
 K construction time:  CPU 549.59 s  wall 35.76 s
   13   -2595.8828094436      1.08E-07
 K construction time:  CPU 494.29 s  wall 32.16 s
   14   -2595.8828094473      3.62E-08
 K construction time:  CPU 421.39 s  wall 27.28 s
   15   -2595.8828094479      1.74E-08
 K construction time:  CPU 1113.64 s  wall 72.74 s
   16   -2595.8828094419      7.26E-09 Convergence criterion met
 ---------------------------------------
 SCF time:  CPU 16028.21 s  wall 1068.47 s
 SCF   energy in the final basis set = -2595.8828094419
 Total energy in the final basis set = -2595.8828094419
 
 --------------------------------------------------------------
 
                    Orbital Energies (a.u.)
 --------------------------------------------------------------
 
 Alpha MOs
 -- Occupied --
-89.158 -89.094 -89.092 -89.069 -14.496 -14.491 -14.451 -14.444
-14.437 -10.374 -10.371 -10.366 -10.365 -10.345 -10.341 -10.340
-10.334 -10.328 -10.327 -10.327 -10.327 -10.327 -10.319 -10.315
-10.314 -10.313 -10.303 -10.291  -8.169  -8.108  -8.107  -8.084
 -6.119  -6.113  -6.112  -6.058  -6.056  -6.054  -6.053  -6.051
 -6.051  -6.034  -6.030  -6.026  -1.157  -1.083  -1.073  -1.055
 -1.027  -1.017  -0.956  -0.945  -0.915  -0.911  -0.907  -0.885
 -0.862  -0.845  -0.827  -0.807  -0.775  -0.755  -0.748  -0.731
 -0.721  -0.696  -0.688  -0.676  -0.650  -0.645  -0.624  -0.619
 -0.609  -0.601  -0.585  -0.578  -0.570  -0.568  -0.540  -0.536
 -0.525  -0.522  -0.520  -0.514  -0.511  -0.504  -0.497  -0.493
 -0.490  -0.484  -0.479  -0.465  -0.458  -0.454  -0.448  -0.434
 -0.427  -0.420  -0.395  -0.384  -0.378  -0.373  -0.372  -0.368
 -0.365  -0.358  -0.343  -0.333  -0.324  -0.319  -0.265
 -- Virtual --
 -0.058  -0.012   0.024   0.037   0.046   0.059   0.061   0.066
  0.070   0.100   0.109   0.113   0.119   0.122   0.131   0.137
  0.143   0.148   0.151   0.164   0.168   0.170   0.173   0.180
  0.192   0.197   0.203   0.213   0.213   0.226   0.230   0.242
  0.253   0.256   0.261   0.267   0.271   0.276   0.286   0.291
  0.291   0.300   0.307   0.309   0.312   0.315   0.322   0.327
  0.334   0.336   0.340   0.342   0.345   0.353   0.358   0.361
  0.363   0.366   0.370   0.374   0.378   0.381   0.385   0.387
  0.389   0.393   0.398   0.400   0.403   0.408   0.411   0.413
  0.418   0.423   0.425   0.427   0.432   0.434   0.440   0.444
  0.450   0.454   0.456   0.457   0.458   0.460   0.464   0.467
  0.470   0.477   0.479   0.480   0.482   0.486   0.489   0.495
  0.499   0.500   0.504   0.507   0.514   0.518   0.519   0.523
  0.525   0.532   0.534   0.541   0.545   0.548   0.553   0.560
  0.566   0.573   0.577   0.584   0.586   0.593   0.598   0.606
  0.609   0.613   0.619   0.622   0.630   0.635   0.640   0.650
  0.655   0.660   0.664   0.672   0.679   0.684   0.684   0.689
  0.691   0.696   0.707   0.708   0.715   0.723   0.727   0.730
  0.737   0.739   0.741   0.748   0.750   0.754   0.762   0.766
  0.771   0.774   0.779   0.781   0.791   0.794   0.796   0.803
  0.803   0.807   0.810   0.821   0.825   0.829   0.833   0.838
  0.843   0.849   0.852   0.855   0.858   0.862   0.867   0.874
  0.876   0.883   0.888   0.890   0.896   0.905   0.917   0.919
  0.922   0.923   0.932   0.939   0.942   0.947   0.950   0.953
  0.957   0.964   0.969   0.977   0.980   0.984   0.986   0.993
  0.996   1.007   1.015   1.015   1.028   1.033   1.039   1.042
  1.049   1.055   1.060   1.063   1.067   1.069   1.078   1.081
  1.086   1.092   1.095   1.099   1.102   1.119   1.121   1.129
  1.132   1.143   1.145   1.156   1.163   1.170   1.174   1.175
  1.182   1.189   1.198   1.201   1.212   1.216   1.225   1.232
  1.235   1.238   1.249   1.253   1.265   1.271   1.272   1.285
  1.287   1.291   1.298   1.306   1.312   1.314   1.324   1.338
  1.342   1.351   1.360   1.362   1.369   1.372   1.379   1.382
  1.389   1.400   1.407   1.409   1.416   1.423   1.434   1.440
  1.442   1.447   1.450   1.457   1.466   1.472   1.478   1.487
  1.495   1.497   1.507   1.515   1.526   1.533   1.536   1.542
  1.556   1.558   1.562   1.576   1.583   1.584   1.597   1.598
  1.605   1.615   1.619   1.623   1.633   1.640   1.641   1.644
  1.650   1.657   1.662   1.668   1.674   1.677   1.685   1.687
  1.694   1.701   1.710   1.717   1.720   1.728   1.738   1.747
  1.748   1.754   1.775   1.779   1.781   1.789   1.796   1.803
  1.811   1.814   1.823   1.840   1.851   1.860   1.869   1.874
  1.875   1.884   1.891   1.901   1.917   1.921   1.925   1.934
  1.945   1.945   1.959   1.961   1.975   1.979   1.983   1.986
  1.993   2.001   2.007   2.012   2.021   2.031   2.034   2.047
  2.059   2.064   2.069   2.082   2.083   2.089   2.097   2.116
  2.118   2.122   2.137   2.139   2.153   2.167   2.174   2.181
  2.185   2.190   2.203   2.220   2.222   2.227   2.232   2.235
  2.244   2.254   2.258   2.265   2.277   2.279   2.283   2.297
  2.301   2.315   2.327   2.347   2.348   2.352   2.364   2.376
  2.382   2.383   2.391   2.396   2.400   2.409   2.412   2.420
  2.423   2.426   2.436   2.442   2.449   2.456   2.461   2.464
  2.476   2.479   2.484   2.493   2.506   2.509   2.512   2.518
  2.522   2.534   2.541   2.549   2.550   2.559   2.576   2.591
  2.600   2.605   2.606   2.616   2.617   2.620   2.626   2.634
  2.639   2.654   2.659   2.668   2.670   2.677   2.689   2.704
  2.716   2.725   2.728   2.747   2.761   2.765   2.774   2.778
  2.785   2.793   2.795   2.797   2.799   2.804   2.811   2.817
  2.827   2.833   2.846   2.851   2.862   2.866   2.872   2.878
  2.889   2.902   2.907   2.913   2.922   2.933   2.938   2.943
  2.948   2.952   2.955   2.956   2.962   2.967   2.971   2.979
  2.984   2.990   2.996   3.007   3.011   3.014   3.023   3.031
  3.034   3.040   3.044   3.045   3.056   3.064   3.067   3.073
  3.074   3.082   3.089   3.090   3.096   3.100   3.106   3.112
  3.114   3.117   3.120   3.122   3.132   3.135   3.137   3.140
  3.149   3.160   3.161   3.168   3.174   3.178   3.182   3.186
  3.191   3.193   3.198   3.201   3.202   3.204   3.208   3.218
  3.223   3.225   3.227   3.231   3.235   3.243   3.244   3.253
  3.262   3.264   3.265   3.269   3.273   3.279   3.286   3.290
  3.293   3.295   3.305   3.306   3.315   3.317   3.324   3.330
  3.332   3.340   3.345   3.349   3.351   3.357   3.366   3.367
  3.378   3.383   3.386   3.391   3.399   3.406   3.420   3.426
  3.434   3.436   3.442   3.453   3.459   3.463   3.468   3.471
  3.476   3.478   3.485   3.490   3.501   3.505   3.506   3.511
  3.518   3.531   3.535   3.544   3.552   3.555   3.564   3.572
  3.578   3.590   3.594   3.602   3.607   3.619   3.631   3.640
  3.643   3.646   3.657   3.665   3.676   3.680   3.688   3.702
  3.709   3.722   3.728   3.741   3.752   3.755   3.757   3.759
  3.769   3.780   3.790   3.793   3.798   3.806   3.813   3.820
  3.824   3.828   3.837   3.843   3.855   3.862   3.864   3.871
  3.873   3.885   3.902   3.911   3.920   3.928   3.933   3.938
  3.946   3.948   3.956   3.959   3.963   3.969   3.974   3.985
  3.991   3.998   4.003   4.011   4.022   4.033   4.041   4.046
  4.056   4.065   4.081   4.084   4.094   4.103   4.113   4.119
  4.135   4.145   4.153   4.164   4.169   4.174   4.186   4.192
  4.193   4.199   4.206   4.209   4.220   4.230   4.242   4.246
  4.246   4.257   4.271   4.282   4.290   4.304   4.310   4.321
  4.334   4.343   4.360   4.363   4.368   4.376   4.387   4.397
  4.399   4.409   4.421   4.431   4.437   4.448   4.450   4.465
  4.474   4.479   4.483   4.496   4.511   4.524   4.529   4.533
  4.542   4.553   4.559   4.575   4.580   4.597   4.606   4.612
  4.618   4.634   4.636   4.644   4.667   4.672   4.678   4.697
  4.710   4.722   4.739   4.744   4.761   4.781   4.798   4.803
  4.814   4.819   4.830   4.838   4.843   4.851   4.854   4.867
  4.873   4.889   4.895   4.933   4.935   4.943   4.945   4.954
  4.960   4.962   4.968   4.984   4.988   4.990   5.008   5.010
  5.024   5.032   5.043   5.053   5.069   5.077   5.095   5.105
  5.113   5.124   5.143   5.150   5.156   5.173   5.184   5.196
  5.216   5.235   5.239   5.245   5.250   5.260   5.282   5.286
  5.298   5.318   5.340   5.345   5.372   5.397   5.409   5.418
  5.431   5.444   5.460   5.468   5.476   5.502   5.516   5.528
  5.534   5.556   5.560   5.602   5.616   5.658   5.663   5.679
  5.695   5.707   5.714   5.729   5.762   5.787   5.804   5.825
  5.851   5.890   5.918   5.948   5.979   6.002   6.043   6.106
  6.138   6.170   6.173   6.196   6.199   6.217   6.252   6.323
  6.333   6.352   6.402   6.411   6.490   6.849   7.018   7.909
  8.946   9.808  10.197  10.934  11.157  11.238  11.676  12.024
 12.266  12.546  12.619  12.774  12.835  12.947  13.193  13.482
 13.532  13.749  13.867  13.991  14.262  14.662  14.997
 --------------------------------------------------------------
 
          Ground-State Mulliken Net Atomic Charges

     Atom                 Charge (a.u.)
  ----------------------------------------
      1 C                    -0.072182
      2 C                    -0.101129
      3 N                    -0.155197
      4 C                    -0.157439
      5 C                    -0.094530
      6 C                     0.110060
      7 C                     0.032840
      8 C                    -0.100639
      9 C                     0.030767
     10 N                    -0.175071
     11 N                    -0.276176
     12 C                     0.034994
     13 C                     0.062651
     14 S                     0.412574
     15 N                    -0.274681
     16 C                    -0.009553
     17 S                     0.121594
     18 C                    -0.011868
     19 C                    -0.018894
     20 S                     0.093218
     21 C                     0.024468
     22 C                     0.033716
     23 C                    -0.168524
     24 C                    -0.173362
     25 N                    -0.182302
     26 S                     0.101090
     27 C                    -0.075937
     28 C                    -0.202004
     29 H                     0.124061
     30 H                     0.128230
     31 H                     0.131052
     32 H                     0.128124
     33 H                     0.136243
     34 H                     0.128561
     35 H                     0.140803
     36 H                     0.129115
     37 H                     0.145328
  ----------------------------------------
  Sum of atomic charges =     0.000000

 -----------------------------------------------------------------
                    Cartesian Multipole Moments
 -----------------------------------------------------------------
    Charge (ESU x 10^10)
                 0.0000
    Dipole Moment (Debye)
         X      -1.5421      Y       1.0270      Z       1.3441
       Tot       2.2889
    Quadrupole Moments (Debye-Ang)
        XX    -174.3106     XY       3.3111     YY    -166.6516
        XZ       7.2656     YZ       3.0606     ZZ    -189.2943
    Octopole Moments (Debye-Ang^2)
       XXX    -278.4253    XXY     148.2624    XYY       9.3355
       YYY     -28.0129    XXZ      56.6644    XYZ       8.1994
       YYZ      10.3736    XZZ       5.8129    YZZ      -3.8796
       ZZZ       5.8598
    Hexadecapole Moments (Debye-Ang^3)
      XXXX  -17888.9384   XXXY     115.9587   XXYY   -3288.2895
      XYYY       3.9455   YYYY   -3633.2034   XXXZ     390.9471
      XXYZ     103.9796   XYYZ      59.2634   YYYZ      32.2231
      XXZZ   -3452.0078   XYZZ     -24.4394   YYZZ    -735.8323
      XZZZ      11.6954   YZZZ      -9.0450   ZZZZ    -349.1995
 -----------------------------------------------------------------
 Calculating analytic gradient of the SCF energy
 K construction time:  CPU 3003.89 s  wall 189.73 s
 Gradient of SCF Energy
            1           2           3           4           5           6
    1   0.0012424  -0.0023080   0.0002674   0.0017678  -0.0006134  -0.0001948
    2   0.0006561  -0.0006441   0.0001425  -0.0000535   0.0001073   0.0008608
    3   0.0005197  -0.0006611  -0.0000927  -0.0005214  -0.0002751   0.0009947
            7           8           9          10          11          12
    1  -0.0008064   0.0022726  -0.0012533  -0.0038378   0.0002058   0.0011156
    2   0.0011171   0.0000220  -0.0015730  -0.0019042  -0.0008203  -0.0006527
    3  -0.0001043  -0.0014187   0.0008937  -0.0017205   0.0003978   0.0014222
           13          14          15          16          17          18
    1   0.0031235  -0.0012922  -0.0285239   0.0008439  -0.0085633  -0.0015274
    2  -0.0195091   0.0009170  -0.0126528   0.0188956  -0.0012019  -0.0011894
    3   0.0024086  -0.0009089  -0.0074800  -0.0016919   0.0017176  -0.0037153
           19          20          21          22          23          24
    1  -0.0006836   0.0317118   0.0026395  -0.0000079   0.0033887   0.0022334
    2   0.0008948   0.0211666   0.0014013  -0.0003057  -0.0050421  -0.0005390
    3  -0.0001067   0.0031332   0.0010499  -0.0005333   0.0073868  -0.0000461
           25          26          27          28          29          30
    1   0.0006942   0.0001984   0.0002668  -0.0005837  -0.0001737   0.0006201
    2  -0.0000842   0.0007802  -0.0006327  -0.0003588   0.0000347  -0.0004436
    3   0.0003522   0.0005056  -0.0000461  -0.0000063   0.0000122   0.0002329
           31          32          33          34          35          36
    1  -0.0008338  -0.0002581  -0.0007989  -0.0002001   0.0004559  -0.0004775
    2  -0.0001997  -0.0000662  -0.0002284   0.0000107   0.0002705   0.0007604
    3  -0.0001846  -0.0000381   0.0005140  -0.0003261  -0.0013142  -0.0000787
           37
    1  -0.0001097
    2   0.0000636
    3  -0.0002712
 Max gradient component =       3.171E-02
 RMS gradient           =       5.630E-03
 Gradient time:  CPU 3457.09 s  wall 220.05 s
 Geometry Optimization Parameters
   NAtoms,    NIC,     NZ,  NCons,   NDum,   NFix, NCnnct, MaxDiis
       37     280       0       3       0       0       0       0


** CONSTRAINED OPTIMIZATION IN DELOCALIZED INTERNAL COORDINATES **
   Searching for a Minimum

   Optimization Cycle:   1

                       Coordinates (Angstroms)
     ATOM                X               Y               Z
      1  C         7.4103866656    1.6910042817   -0.2240224021
      2  C         6.5660156611    2.5476185981    0.4627789710
      3  N         6.9897601631    0.5817233251   -0.8251793844
      4  C         5.2223628828    2.2376373909    0.5327876595
      5  C         5.6974586710    0.2924901825   -0.7497197218
      6  C         4.7585658715    1.0826530590   -0.0850917404
      7  C         3.3298174969    0.7269743940   -0.0669405860
      8  C         2.3502121377    1.6603570288   -0.2663011244
      9  C         2.8560139604   -0.5979145026    0.1615104670
     10  N         1.0137094645    1.4343452671   -0.2532499388
     11  N         3.5805507671   -1.6945293315    0.3917018711
     12  C         1.4501070013   -0.8492412980    0.1811081532
     13  C         0.5364856621    0.2319818124   -0.0402306463
     14  S         2.5355817117   -2.9020413448    0.5984207736
     15  N         1.1397978018   -2.1204579548    0.4190885675
     16  C        -0.9010972798    0.0941748610   -0.0465831456
     17  S        -2.0418819532    1.3917684817    0.0565684465
     18  C        -1.5783265096   -1.0999409681   -0.1396157255
     19  C        -3.3960346422    0.3328689860   -0.0257171522
     20  S        -1.0725756152   -2.7496784614   -0.2732847876
     21  C        -2.9913127242   -0.9816060396   -0.1299725957
     22  C        -4.7570064717    0.8257968863    0.0050183491
     23  C        -2.7479688687   -3.2566706746   -0.3136954166
     24  C        -3.6450125455   -2.2581183165   -0.2317319974
     25  N        -5.7994500905    0.0491610802   -0.0696533325
     26  S        -5.1480257227    2.5179466286    0.1441171496
     27  C        -6.9546389487    0.7714553009   -0.0247692368
     28  C        -6.8135594420    2.1146574589    0.0884895149
     29  H         8.4706222232    1.9023641433   -0.2960544769
     30  H         6.9656208263    3.4290797352    0.9434012981
     31  H         4.5336541456    2.8695276959    1.0790789415
     32  H         5.3793431106   -0.6154811750   -1.2469535489
     33  H         2.6235019156    2.6890281464   -0.4643978936
     34  H        -2.9687302427   -4.3088186777   -0.4056182780
     35  H        -4.7154689896   -2.3734214977   -0.2453857529
     36  H        -7.9045825221    0.2620358167   -0.0797626382
     37  H        -7.5789234066    2.8689935990    0.1397828117
   Point Group: c1    Number of degrees of freedom:   105


   Energy is  -2595.882809442

              Constraints and their Current Values
                                        Value     Constraint
   Dihedral:        4   6   7   8       42.189       42.246
   Dihedral:       10  13  16  17      -15.000      -15.000
   Dihedral:       17  19  22  25      179.258      179.217

 Attempting to Generate Delocalized Internal Coordinates

   Using Lagrange Multiplier Algorithm


108 Hessian modes will be used to form the next step
  Hessian Eigenvalues:
    -0.977753   -0.977753   -0.977753    0.045000    0.045000    0.045000
     0.045000    0.045000    0.045000    0.045000    0.045000    0.045000
     0.045000    0.045000    0.045000    0.045000    0.045000    0.045000
     0.045000    0.045000    0.045000    0.045000    0.045000    0.045000
     0.045001    0.045001    0.045001    0.045001    0.045001    0.045003
     0.045005    0.045007    0.045009    0.045012    0.159961    0.159984
     0.159995    0.159997    0.159998    0.159999    0.160000    0.160000
     0.160000    0.220002    0.224572    0.225458    0.231978    0.233022
     0.234404    0.247446    0.247715    0.249914    0.249956    0.249989
     0.249992    0.249998    0.249998    0.249998    0.249999    0.249999
     0.249999    0.250000    0.250000    0.297518    0.305112    0.316321
     0.317279    0.326677    0.334467    0.354466    0.355754    0.356364
     0.356781    0.356811    0.359242    0.360770    0.361177    0.363917
     0.365014    0.372838    0.385327    0.386480    0.390167    0.393199
     0.397170    0.410394    0.431175    0.455299    0.463157    0.473302
     0.473331    0.475009    0.483101    0.491318    0.496878    0.499414
     0.517649    0.525704    0.538142    0.558610    0.574891    0.584500
     0.591081    0.623467    0.638967    1.022753    1.022753    1.022753

 Minimum Search - Taking P-RFO Step
 Searching for Lamda that Maximizes Along the Constraint modes Only
 Value Taken    Lamda =   0.00004504
 Searching for Lamda that Minimizes Along All other modes
 Value Taken    Lamda =  -0.13241225
 Calculated Step too Large.  Step scaled by  0.509138
 Step Taken.  Stepsize is  0.300000

                             Maximum     Tolerance    Cnvgd?
         Gradient            0.157214       0.000300      NO
         Displacement        0.205322       0.001200      NO
         Energy change     *********       0.000001      NO


 New Cartesian Coordinates Obtained by Inverse Iteration

 Displacement from previous Coordinates is:  4.663606
 ----------------------------------------------------------------
             Standard Nuclear Orientation (Angstroms)
    I     Atom           X                Y                Z
 ----------------------------------------------------------------
    1      C       7.2687423627     2.0929077906    -0.2455641818
    2      C       6.3291520063     2.8480492565     0.4367489735
    3      N       6.9854568467     0.9328387235    -0.8307637329
    4      C       5.0338536919     2.3755132675     0.5187803088
    5      C       5.7392746805     0.4877068483    -0.7440993041
    6      C       4.7129422571     1.1645480968    -0.0835570058
    7      C       3.3390227013     0.6352661208    -0.0523532367
    8      C       2.2511235849     1.4312824746    -0.2549890508
    9      C       3.0315763003    -0.7306802815     0.1964860098
   10      N       0.9583153479     1.0332816627    -0.2298711443
   11      N       3.9052054705    -1.7088072623     0.4408508983
   12      C       1.6644499091    -1.1681376748     0.2282008485
   13      C       0.6078253135    -0.2133449928    -0.0079243347
   14      S       3.0460617628    -3.0446884609     0.6841856618
   15      N       1.5579052791    -2.4613382247     0.5013559497
   16      C      -0.8432514348    -0.3860103376    -0.0283101789
   17      S      -1.8153752612     1.0420937988     0.0720302411
   18      C      -1.6892100377    -1.4943671638    -0.1414727084
   19      C      -3.2966620172     0.1932424275    -0.0240635308
   20      S      -1.5133698760    -3.2191118095    -0.3088234816
   21      C      -3.0804607733    -1.1581518076    -0.1421322466
   22      C      -4.5743920652     0.8734207061     0.0039395288
   23      C      -3.2460206190    -3.4300037832    -0.3708611129
   24      C      -3.9492640390    -2.2952967041    -0.2688188271
   25      N      -5.7159474407     0.2529539126    -0.0819125856
   26      S      -4.7225920677     2.6022513416     0.1568254139
   27      C      -6.7573207088     1.1310168489    -0.0347625007
   28      C      -6.4279648508     2.4397185040     0.0914895124
   29      H       8.2946468807     2.4320982102    -0.3269675190
   30      H       6.6184653734     3.7782708774     0.9043836985
   31      H       4.2762279366     2.9252634300     1.0623258559
   32      H       5.5337396490    -0.4586954836    -1.2286035083
   33      H       2.3895587278     2.4842090580    -0.4668546650
   34      H      -3.6456279796    -4.4256280245    -0.4856654699
   35      H      -5.0233247664    -2.2185254237    -0.2888448637
   36      H      -7.7689236617     0.7601582300    -0.0978029636
   37      H      -7.0788663181     3.2944197656     0.1473367038
 ----------------------------------------------------------------
 Molecular Point Group                 C1    NOp =  1
 Largest Abelian Subgroup              C1    NOp =  1
 Nuclear Repulsion Energy =  2952.4214953781 hartrees
 There are      111 alpha and      111 beta electrons
 Applying Cartesian multipole field
    Component          Value
    ---------          -----
     (2,0,0)        1.00000E-12
     (0,2,0)        2.00000E-11
     (0,0,2)       -3.00000E-10
 Nucleus-field energy     =     0.0000000449 hartrees
 Requested basis set is cc-pVTZ
 There are 342 shells and 982 basis functions
 A cutoff of  1.0D-11 yielded  29008 shell pairs
 There are    230516 function pairs (    301275 Cartesian)
 Smallest overlap matrix eigenvalue = 2.26E-05
 Guess MOs from SCF MO coefficient file
 Reading MOs from coefficient file
 Reading MOs from coefficient file
 Long-range K will be added via erf
 Coulomb attenuation parameter = 0.2 bohr**(-1)
 A restricted hybrid HF-DFT SCF calculation will be
 performed using Pulay DIIS extrapolation
 Exchange:     0.2220 Hartree-Fock + 1.0000 wB97X-D + LR-HF
 Correlation:  1.0000 wB97X-D
 Using SG-2 standard quadrature grid
 Dispersion:   Grimme D
 SCF converges when DIIS error is below 1.0E-08
 Geometry optimization detected.  Setting ReadMinima to 0
 Setting SaveMinima to 0
 using 16 threads for integral computing 
 using 16 threads for integral computing 
 K construction time:  CPU 1075.28 s  wall 70.25 s
 -------------------------------------------------------
 OpenMP BLAS3 based DFT computing Module                
 Release: version 1.0, May 2013, Q-Chem Inc. Pittsburgh 
 -------------------------------------------------------
 ---------------------------------------
  Cycle       Energy         DIIS Error
 ---------------------------------------
    1   -2595.6902534381      2.38E-03
 K construction time:  CPU 1073.98 s  wall 70.06 s
    2   -2595.8650669815      4.79E-04
 K construction time:  CPU 965.38 s  wall 62.96 s
    3   -2595.8526160088      6.31E-04
 K construction time:  CPU 929.95 s  wall 60.66 s
    4   -2595.8966708761      1.06E-04
 K construction time:  CPU 855.93 s  wall 55.79 s
    5   -2595.8977566320      4.74E-05
 K construction time:  CPU 810.38 s  wall 52.84 s
    6   -2595.8980223842      1.82E-05
 K construction time:  CPU 748.67 s  wall 48.89 s
    7   -2595.8980643467      4.35E-06
 K construction time:  CPU 685.98 s  wall 44.75 s
    8   -2595.8980674014      1.95E-06
 K construction time:  CPU 641.57 s  wall 41.75 s
    9   -2595.8980680843      8.46E-07
 K construction time:  CPU 591.76 s  wall 38.54 s
   10   -2595.8980682149      3.22E-07
 K construction time:  CPU 542.14 s  wall 35.22 s
   11   -2595.8980682424      1.45E-07
 K construction time:  CPU 489.95 s  wall 31.81 s
   12   -2595.8980682485      6.82E-08
 K construction time:  CPU 454.73 s  wall 29.47 s
   13   -2595.8980682497      2.84E-08
 K construction time:  CPU 403.18 s  wall 26.16 s
   14   -2595.8980682494      1.28E-08
 K construction time:  CPU 345.98 s  wall 22.41 s
   15   -2595.8980682498      5.14E-09 Convergence criterion met
 ---------------------------------------
 SCF time:  CPU 14171.21 s  wall 944.54 s
 SCF   energy in the final basis set = -2595.8980682498
 Total energy in the final basis set = -2595.8980682498
 
 --------------------------------------------------------------
 
                    Orbital Energies (a.u.)
 --------------------------------------------------------------
 
 Alpha MOs
 -- Occupied --
-89.156 -89.092 -89.090 -89.077 -14.493 -14.487 -14.451 -14.445
-14.436 -10.376 -10.374 -10.365 -10.364 -10.347 -10.342 -10.342
-10.339 -10.328 -10.327 -10.327 -10.326 -10.326 -10.324 -10.319
-10.315 -10.313 -10.303 -10.295  -8.166  -8.108  -8.105  -8.091
 -6.116  -6.110  -6.110  -6.057  -6.054  -6.053  -6.051  -6.050
 -6.048  -6.041  -6.037  -6.033  -1.153  -1.083  -1.074  -1.055
 -1.021  -1.015  -0.959  -0.946  -0.912  -0.910  -0.906  -0.884
 -0.862  -0.845  -0.828  -0.807  -0.776  -0.752  -0.744  -0.730
 -0.721  -0.695  -0.688  -0.679  -0.650  -0.640  -0.625  -0.619
 -0.610  -0.601  -0.583  -0.575  -0.569  -0.568  -0.542  -0.536
 -0.527  -0.523  -0.517  -0.513  -0.512  -0.503  -0.497  -0.493
 -0.486  -0.481  -0.476  -0.465  -0.457  -0.446  -0.435  -0.435
 -0.426  -0.424  -0.402  -0.396  -0.383  -0.372  -0.371  -0.369
 -0.364  -0.358  -0.343  -0.337  -0.324  -0.321  -0.267
 -- Virtual --
 -0.056  -0.011   0.025   0.038   0.046   0.061   0.062   0.065
  0.074   0.096   0.108   0.111   0.120   0.121   0.130   0.136
  0.140   0.146   0.150   0.166   0.169   0.170   0.172   0.176
  0.191   0.193   0.199   0.212   0.215   0.226   0.229   0.244
  0.254   0.255   0.263   0.264   0.270   0.273   0.285   0.289
  0.294   0.300   0.304   0.308   0.309   0.313   0.322   0.324
  0.331   0.334   0.335   0.339   0.342   0.349   0.354   0.358
  0.363   0.364   0.365   0.371   0.375   0.378   0.383   0.386
  0.391   0.392   0.397   0.399   0.404   0.405   0.408   0.411
  0.417   0.418   0.426   0.431   0.434   0.436   0.442   0.445
  0.446   0.453   0.456   0.457   0.460   0.461   0.464   0.468
  0.469   0.473   0.477   0.480   0.481   0.485   0.488   0.491
  0.494   0.498   0.501   0.504   0.507   0.513   0.516   0.522
  0.523   0.526   0.530   0.542   0.542   0.546   0.549   0.553
  0.561   0.565   0.573   0.580   0.582   0.590   0.596   0.600
  0.602   0.608   0.616   0.621   0.631   0.632   0.638   0.646
  0.651   0.660   0.661   0.667   0.673   0.679   0.680   0.684
  0.686   0.694   0.696   0.711   0.715   0.720   0.723   0.728
  0.731   0.733   0.741   0.745   0.746   0.751   0.760   0.763
  0.769   0.770   0.771   0.778   0.784   0.791   0.797   0.799
  0.802   0.809   0.812   0.819   0.821   0.827   0.830   0.832
  0.837   0.843   0.850   0.853   0.855   0.857   0.863   0.867
  0.879   0.880   0.888   0.893   0.901   0.907   0.909   0.916
  0.918   0.922   0.928   0.931   0.935   0.941   0.947   0.950
  0.956   0.961   0.968   0.972   0.978   0.979   0.984   0.987
  0.991   0.993   1.008   1.014   1.014   1.028   1.030   1.035
  1.042   1.050   1.058   1.061   1.065   1.068   1.069   1.077
  1.078   1.089   1.094   1.098   1.102   1.106   1.117   1.122
  1.130   1.140   1.145   1.149   1.162   1.165   1.171   1.176
  1.180   1.191   1.198   1.201   1.208   1.211   1.218   1.221
  1.230   1.236   1.241   1.250   1.262   1.269   1.272   1.275
  1.287   1.290   1.295   1.301   1.306   1.317   1.318   1.335
  1.340   1.347   1.354   1.359   1.365   1.372   1.378   1.380
  1.382   1.387   1.401   1.405   1.412   1.419   1.432   1.436
  1.443   1.444   1.449   1.456   1.463   1.470   1.480   1.487
  1.495   1.500   1.504   1.514   1.531   1.536   1.539   1.545
  1.551   1.553   1.562   1.568   1.578   1.581   1.591   1.594
  1.606   1.610   1.619   1.627   1.631   1.637   1.641   1.649
  1.654   1.656   1.660   1.667   1.672   1.675   1.677   1.682
  1.689   1.695   1.702   1.709   1.716   1.721   1.723   1.743
  1.747   1.751   1.753   1.762   1.775   1.779   1.788   1.789
  1.800   1.815   1.818   1.827   1.840   1.844   1.865   1.875
  1.879   1.884   1.888   1.894   1.903   1.914   1.922   1.925
  1.928   1.938   1.941   1.954   1.956   1.966   1.974   1.981
  1.986   1.998   1.999   2.004   2.021   2.023   2.031   2.035
  2.056   2.062   2.068   2.074   2.081   2.086   2.092   2.100
  2.117   2.124   2.129   2.139   2.147   2.164   2.170   2.174
  2.177   2.185   2.188   2.194   2.200   2.219   2.225   2.233
  2.241   2.247   2.252   2.259   2.266   2.272   2.283   2.284
  2.303   2.308   2.331   2.347   2.350   2.354   2.366   2.367
  2.374   2.380   2.383   2.393   2.400   2.401   2.404   2.406
  2.422   2.426   2.430   2.440   2.445   2.452   2.460   2.467
  2.474   2.476   2.484   2.496   2.498   2.509   2.511   2.520
  2.524   2.529   2.544   2.547   2.555   2.566   2.571   2.581
  2.589   2.596   2.603   2.614   2.616   2.621   2.624   2.631
  2.642   2.647   2.652   2.665   2.666   2.671   2.684   2.698
  2.712   2.722   2.728   2.742   2.758   2.759   2.772   2.775
  2.782   2.786   2.788   2.793   2.798   2.802   2.808   2.811
  2.826   2.828   2.841   2.848   2.862   2.864   2.870   2.876
  2.885   2.894   2.905   2.909   2.916   2.923   2.936   2.938
  2.948   2.951   2.952   2.955   2.959   2.964   2.971   2.974
  2.979   2.987   2.989   2.995   3.008   3.013   3.016   3.027
  3.032   3.035   3.043   3.044   3.056   3.064   3.069   3.070
  3.077   3.079   3.082   3.088   3.095   3.097   3.101   3.104
  3.108   3.113   3.120   3.121   3.126   3.131   3.133   3.136
  3.148   3.152   3.161   3.167   3.170   3.178   3.179   3.181
  3.184   3.188   3.195   3.200   3.203   3.207   3.211   3.213
  3.215   3.221   3.226   3.230   3.233   3.241   3.247   3.250
  3.256   3.259   3.262   3.266   3.269   3.275   3.283   3.287
  3.293   3.295   3.298   3.299   3.307   3.317   3.323   3.325
  3.327   3.331   3.336   3.346   3.351   3.355   3.358   3.364
  3.366   3.381   3.386   3.392   3.393   3.403   3.413   3.419
  3.428   3.434   3.439   3.447   3.452   3.463   3.466   3.471
  3.475   3.477   3.484   3.489   3.497   3.502   3.509   3.511
  3.517   3.524   3.526   3.540   3.542   3.551   3.555   3.568
  3.578   3.581   3.592   3.594   3.609   3.611   3.616   3.632
  3.643   3.652   3.657   3.661   3.677   3.680   3.687   3.692
  3.704   3.711   3.715   3.728   3.733   3.745   3.746   3.755
  3.768   3.773   3.778   3.792   3.797   3.804   3.810   3.813
  3.828   3.830   3.832   3.837   3.852   3.854   3.863   3.868
  3.871   3.877   3.895   3.900   3.915   3.920   3.928   3.933
  3.938   3.947   3.950   3.955   3.962   3.963   3.968   3.976
  3.979   3.986   3.992   3.997   4.014   4.026   4.034   4.035
  4.048   4.055   4.069   4.077   4.080   4.087   4.106   4.112
  4.129   4.144   4.152   4.154   4.162   4.165   4.179   4.182
  4.187   4.195   4.199   4.208   4.216   4.218   4.231   4.233
  4.243   4.248   4.261   4.277   4.287   4.298   4.309   4.316
  4.329   4.335   4.340   4.342   4.348   4.371   4.377   4.390
  4.396   4.400   4.417   4.430   4.439   4.447   4.462   4.464
  4.467   4.478   4.485   4.488   4.505   4.510   4.524   4.530
  4.536   4.553   4.557   4.559   4.570   4.592   4.599   4.608
  4.616   4.638   4.639   4.654   4.659   4.666   4.679   4.693
  4.704   4.718   4.721   4.742   4.752   4.774   4.792   4.805
  4.814   4.815   4.831   4.840   4.846   4.850   4.852   4.863
  4.866   4.874   4.889   4.934   4.934   4.936   4.946   4.950
  4.957   4.965   4.967   4.973   4.985   4.987   5.002   5.005
  5.024   5.029   5.033   5.055   5.069   5.078   5.090   5.096
  5.108   5.112   5.131   5.150   5.155   5.174   5.181   5.195
  5.208   5.235   5.241   5.243   5.250   5.262   5.281   5.284
  5.291   5.319   5.323   5.339   5.354   5.386   5.413   5.414
  5.426   5.433   5.460   5.463   5.479   5.491   5.516   5.524
  5.534   5.536   5.558   5.600   5.620   5.659   5.666   5.675
  5.696   5.699   5.718   5.721   5.753   5.777   5.805   5.816
  5.852   5.882   5.909   5.942   5.949   5.964   6.029   6.068
  6.146   6.152   6.164   6.178   6.195   6.200   6.241   6.326
  6.332   6.354   6.403   6.425   6.499   6.837   7.018   7.928
  8.847   9.741  10.166  10.862  11.089  11.327  11.416  11.973
 12.232  12.427  12.561  12.666  12.847  12.909  13.168  13.390
 13.544  13.609  13.888  13.948  14.343  14.634  14.993
 --------------------------------------------------------------
 
          Ground-State Mulliken Net Atomic Charges

     Atom                 Charge (a.u.)
  ----------------------------------------
      1 C                    -0.071784
      2 C                    -0.102694
      3 N                    -0.155238
      4 C                    -0.158492
      5 C                    -0.094379
      6 C                     0.110396
      7 C                     0.049010
      8 C                    -0.119722
      9 C                     0.029128
     10 N                    -0.168156
     11 N                    -0.279641
     12 C                     0.013126
     13 C                     0.064260
     14 S                     0.419009
     15 N                    -0.268278
     16 C                    -0.002189
     17 S                     0.125949
     18 C                    -0.052720
     19 C                    -0.013404
     20 S                     0.080254
     21 C                     0.042731
     22 C                     0.033968
     23 C                    -0.158476
     24 C                    -0.164253
     25 N                    -0.186045
     26 S                     0.103765
     27 C                    -0.077280
     28 C                    -0.201430
     29 H                     0.124191
     30 H                     0.129500
     31 H                     0.131578
     32 H                     0.129347
     33 H                     0.133605
     34 H                     0.132696
     35 H                     0.146939
     36 H                     0.129803
     37 H                     0.144927
  ----------------------------------------
  Sum of atomic charges =     0.000000

 -----------------------------------------------------------------
                    Cartesian Multipole Moments
 -----------------------------------------------------------------
    Charge (ESU x 10^10)
                 0.0000
    Dipole Moment (Debye)
         X      -1.9297      Y       1.4124      Z       1.1616
       Tot       2.6586
    Quadrupole Moments (Debye-Ang)
        XX    -176.4484     XY       2.1080     YY    -163.8536
        XZ       7.4831     YZ       3.7182     ZZ    -189.3511
    Octopole Moments (Debye-Ang^2)
       XXX    -318.5729    XXY     134.9137    XYY      -6.9993
       YYY      32.1016    XXZ      50.0998    XYZ       6.7810
       YYZ       7.8044    XZZ      -5.1954    YZZ      10.6273
       ZZZ       1.4370
    Hexadecapole Moments (Debye-Ang^3)
      XXXX  -18169.4579   XXXY     -95.7218   XXYY   -3162.6916
      XYYY     -94.7098   YYYY   -4158.3375   XXXZ     336.5463
      XXYZ     116.6238   XYYZ      58.8330   YYYZ      53.2414
      XXZZ   -3388.6425   XYZZ     -76.3619   YYZZ    -841.5343
      XZZZ     -34.5677   YZZZ      -2.1668   ZZZZ    -364.7397
 -----------------------------------------------------------------
 Calculating analytic gradient of the SCF energy
 K construction time:  CPU 2844.62 s  wall 179.64 s
 Gradient of SCF Energy
            1           2           3           4           5           6
    1   0.0008463  -0.0016785   0.0001671   0.0015855  -0.0003017  -0.0003543
    2   0.0004594  -0.0005910   0.0000143   0.0005125   0.0000953   0.0006329
    3   0.0002953  -0.0002883  -0.0000463  -0.0005367  -0.0001093   0.0010633
            7           8           9          10          11          12
    1  -0.0026166   0.0036122  -0.0010162  -0.0052580  -0.0003234   0.0028117
    2   0.0010611  -0.0019315  -0.0013619  -0.0013549  -0.0025733   0.0010155
    3  -0.0001138  -0.0013247   0.0006367  -0.0004487   0.0002975   0.0010138
           13          14          15          16          17          18
    1   0.0005116   0.0053035   0.0078987   0.0085930  -0.0053859  -0.0014388
    2  -0.0142571  -0.0019238   0.0070566   0.0276033  -0.0038363  -0.0087488
    3   0.0034016   0.0003967  -0.0002809  -0.0015144   0.0009545  -0.0026251
           19          20          21          22          23          24
    1  -0.0010209  -0.0055795  -0.0019135   0.0005004  -0.0013737  -0.0016774
    2  -0.0025219   0.0003698   0.0021169  -0.0000829   0.0027368  -0.0038955
    3  -0.0004555  -0.0010640  -0.0001557  -0.0006090   0.0009164   0.0005078
           25          26          27          28          29          30
    1   0.0009114   0.0000746   0.0003877  -0.0004347  -0.0000961   0.0004410
    2  -0.0006898   0.0008526  -0.0007037  -0.0001475  -0.0000657  -0.0002297
    3   0.0003312   0.0005291  -0.0002128  -0.0002048  -0.0001271   0.0001422
           31          32          33          34          35          36
    1  -0.0004699  -0.0004140  -0.0004216  -0.0013602  -0.0001751  -0.0002313
    2  -0.0002987  -0.0000486  -0.0002973   0.0000584   0.0002046   0.0007325
    3  -0.0000365   0.0000039   0.0002748  -0.0003837  -0.0002221   0.0000402
           37
    1  -0.0001035
    2   0.0000372
    3  -0.0000454
 Max gradient component =       2.760E-02
 RMS gradient           =       3.673E-03
 Gradient time:  CPU 3283.82 s  wall 209.04 s
 Geometry Optimization Parameters
   NAtoms,    NIC,     NZ,  NCons,   NDum,   NFix, NCnnct, MaxDiis
       37     280       0       3       0       0       0       0

 Cartesian Hessian Update
 Hessian Updated using BFGS Update


** CONSTRAINED OPTIMIZATION IN DELOCALIZED INTERNAL COORDINATES **
   Searching for a Minimum

   Optimization Cycle:   2

                       Coordinates (Angstroms)
     ATOM                X               Y               Z
      1  C         7.2687423627    2.0929077906   -0.2455641818
      2  C         6.3291520063    2.8480492565    0.4367489735
      3  N         6.9854568467    0.9328387235   -0.8307637329
      4  C         5.0338536919    2.3755132675    0.5187803088
      5  C         5.7392746805    0.4877068483   -0.7440993041
      6  C         4.7129422571    1.1645480968   -0.0835570058
      7  C         3.3390227013    0.6352661208   -0.0523532367
      8  C         2.2511235849    1.4312824746   -0.2549890508
      9  C         3.0315763003   -0.7306802815    0.1964860098
     10  N         0.9583153479    1.0332816627   -0.2298711443
     11  N         3.9052054705   -1.7088072623    0.4408508983
     12  C         1.6644499091   -1.1681376748    0.2282008485
     13  C         0.6078253135   -0.2133449928   -0.0079243347
     14  S         3.0460617628   -3.0446884609    0.6841856618
     15  N         1.5579052791   -2.4613382247    0.5013559497
     16  C        -0.8432514348   -0.3860103376   -0.0283101789
     17  S        -1.8153752612    1.0420937988    0.0720302411
     18  C        -1.6892100377   -1.4943671638   -0.1414727084
     19  C        -3.2966620172    0.1932424275   -0.0240635308
     20  S        -1.5133698760   -3.2191118095   -0.3088234816
     21  C        -3.0804607733   -1.1581518076   -0.1421322466
     22  C        -4.5743920652    0.8734207061    0.0039395288
     23  C        -3.2460206190   -3.4300037832   -0.3708611129
     24  C        -3.9492640390   -2.2952967041   -0.2688188271
     25  N        -5.7159474407    0.2529539126   -0.0819125856
     26  S        -4.7225920677    2.6022513416    0.1568254139
     27  C        -6.7573207088    1.1310168489   -0.0347625007
     28  C        -6.4279648508    2.4397185040    0.0914895124
     29  H         8.2946468807    2.4320982102   -0.3269675190
     30  H         6.6184653734    3.7782708774    0.9043836985
     31  H         4.2762279366    2.9252634300    1.0623258559
     32  H         5.5337396490   -0.4586954836   -1.2286035083
     33  H         2.3895587278    2.4842090580   -0.4668546650
     34  H        -3.6456279796   -4.4256280245   -0.4856654699
     35  H        -5.0233247664   -2.2185254237   -0.2888448637
     36  H        -7.7689236617    0.7601582300   -0.0978029636
     37  H        -7.0788663181    3.2944197656    0.1473367038
   Point Group: c1    Number of degrees of freedom:   105


   Energy is  -2595.898068250

              Constraints and their Current Values
                                        Value     Constraint
   Dihedral:        4   6   7   8       42.220       42.246
   Dihedral:       10  13  16  17      -14.985      -15.000
   Dihedral:       17  19  22  25      179.242      179.217
 Hessian Updated using BFGS Update

   Using Lagrange Multiplier Algorithm


108 Hessian modes will be used to form the next step
  Hessian Eigenvalues:
    -0.977753   -0.977753   -0.977094    0.044994    0.045000    0.045000
     0.045000    0.045000    0.045000    0.045000    0.045000    0.045000
     0.045000    0.045000    0.045000    0.045000    0.045000    0.045000
     0.045000    0.045000    0.045000    0.045000    0.045000    0.045001
     0.045001    0.045001    0.045001    0.045001    0.045002    0.045005
     0.045007    0.045009    0.045012    0.046382    0.159956    0.159971
     0.159988    0.159996    0.159998    0.159999    0.160000    0.160000
     0.160001    0.219999    0.224572    0.225478    0.231978    0.233058
     0.234404    0.244943    0.247449    0.247919    0.249915    0.249957
     0.249989    0.249992    0.249998    0.249998    0.249998    0.249999
     0.249999    0.250000    0.297139    0.305108    0.314882    0.317240
     0.325185    0.334466    0.354465    0.355753    0.356364    0.356779
     0.356811    0.359242    0.360770    0.361174    0.363914    0.365014
     0.368328    0.381921    0.385327    0.387151    0.392101    0.395977
     0.410323    0.431175    0.448824    0.455290    0.473274    0.473330
     0.474839    0.483098    0.486602    0.496691    0.499413    0.517648
     0.525691    0.537199    0.557908    0.574890    0.583674    0.591080
     0.623232    0.638964    0.951247    1.022753    1.022753    1.041280

 Minimum Search - Taking P-RFO Step
 Searching for Lamda that Maximizes Along the Constraint modes Only
 Value Taken    Lamda =   0.00008531
 Searching for Lamda that Minimizes Along All other modes
 Value Taken    Lamda =  -0.00547944
 Step Taken.  Stepsize is  0.126422

                             Maximum     Tolerance    Cnvgd?
         Gradient            0.030192       0.000300      NO
         Displacement        0.036725       0.001200      NO
         Energy change     -0.015259       0.000001      NO


 New Cartesian Coordinates Obtained by Inverse Iteration

 Displacement from previous Coordinates is:  0.728348
 ----------------------------------------------------------------
             Standard Nuclear Orientation (Angstroms)
    I     Atom           X                Y                Z
 ----------------------------------------------------------------
    1      C       7.2910515919     2.0351220477    -0.2221138986
    2      C       6.3596881546     2.8135593521     0.4447943934
    3      N       6.9928666815     0.8768088513    -0.8030261835
    4      C       5.0538926657     2.3659881529     0.5138546185
    5      C       5.7375585315     0.4565512454    -0.7301183812
    6      C       4.7161956165     1.1585771100    -0.0877456220
    7      C       3.3300042991     0.6612201758    -0.0677202630
    8      C       2.2598591791     1.4827588238    -0.2859105157
    9      C       2.9864534166    -0.6954896792     0.1881336491
   10      N       0.9589840994     1.1116498451    -0.2738772796
   11      N       3.8244263677    -1.6962747831     0.4555850268
   12      C       1.6101441504    -1.1009500515     0.2085099245
   13      C       0.5868963871    -0.1292868235    -0.0445510664
   14      S       2.9147566718    -3.0007176930     0.7058280993
   15      N       1.4461339813    -2.3857954985     0.4979153230
   16      C      -0.8514902722    -0.3594051600    -0.0522940774
   17      S      -1.8235305264     1.0657169005     0.0457911445
   18      C      -1.6683409888    -1.4762648739    -0.1483541521
   19      C      -3.2941956101     0.1940553635    -0.0309852996
   20      S      -1.4528539429    -3.1986932779    -0.3074370120
   21      C      -3.0597527132    -1.1582005956    -0.1481721230
   22      C      -4.5811269094     0.8585672149     0.0069186239
   23      C      -3.1797907366    -3.4358602363    -0.3785837682
   24      C      -3.9042249351    -2.3111719990    -0.2740149971
   25      N      -5.7187221553     0.2284802672    -0.0640976373
   26      S      -4.7437719151     2.5855715042     0.1523692499
   27      C      -6.7675909032     1.0964755760    -0.0041069923
   28      C      -6.4481401349     2.4083975349     0.1143970856
   29      H       8.3244833885     2.3537230078    -0.2928307662
   30      H       6.6588386884     3.7424350963     0.9089767676
   31      H       4.3030672913     2.9360386200     1.0453067013
   32      H       5.5221343227    -0.4890097997    -1.2115627853
   33      H       2.4263097161     2.5304417908    -0.5063771823
   34      H      -3.5558208918    -4.4404365679    -0.4892720266
   35      H      -4.9794943305    -2.2559126207    -0.2911453606
   36      H      -7.7747320751     0.7113742983    -0.0520157883
   37      H      -7.1051939956     3.2576807984     0.1778540224
 ----------------------------------------------------------------
 Molecular Point Group                 C1    NOp =  1
 Largest Abelian Subgroup              C1    NOp =  1
 Nuclear Repulsion Energy =  2960.6523545366 hartrees
 There are      111 alpha and      111 beta electrons
 Applying Cartesian multipole field
    Component          Value
    ---------          -----
     (2,0,0)        1.00000E-12
     (0,2,0)        2.00000E-11
     (0,0,2)       -3.00000E-10
 Nucleus-field energy     =     0.0000000436 hartrees
 Requested basis set is cc-pVTZ
 There are 342 shells and 982 basis functions
 A cutoff of  1.0D-11 yielded  29122 shell pairs
 There are    231532 function pairs (    302602 Cartesian)
 Smallest overlap matrix eigenvalue = 2.18E-05
 Guess MOs from SCF MO coefficient file
 Reading MOs from coefficient file
 Reading MOs from coefficient file
 Long-range K will be added via erf
 Coulomb attenuation parameter = 0.2 bohr**(-1)
 A restricted hybrid HF-DFT SCF calculation will be
 performed using Pulay DIIS extrapolation
 Exchange:     0.2220 Hartree-Fock + 1.0000 wB97X-D + LR-HF
 Correlation:  1.0000 wB97X-D
 Using SG-2 standard quadrature grid
 Dispersion:   Grimme D
 SCF converges when DIIS error is below 1.0E-08
 Geometry optimization detected.  Setting ReadMinima to 0
 Setting SaveMinima to 0
 using 16 threads for integral computing 
 using 16 threads for integral computing 
 K construction time:  CPU 1080.49 s  wall 70.65 s
 -------------------------------------------------------
 OpenMP BLAS3 based DFT computing Module                
 Release: version 1.0, May 2013, Q-Chem Inc. Pittsburgh 
 -------------------------------------------------------
 ---------------------------------------
  Cycle       Energy         DIIS Error
 ---------------------------------------
    1   -2595.8990541254      4.28E-04
 K construction time:  CPU 1082.01 s  wall 70.70 s
    2   -2595.9010959489      5.28E-05
 K construction time:  CPU 852.64 s  wall 55.62 s
    3   -2595.9012247885      5.81E-05
 K construction time:  CPU 799.39 s  wall 52.24 s
    4   -2595.9015736190      1.34E-05
 K construction time:  CPU 734.62 s  wall 47.90 s
    5   -2595.9015918006      7.99E-06
 K construction time:  CPU 698.42 s  wall 45.58 s
    6   -2595.9015993911      2.50E-06
 K construction time:  CPU 639.24 s  wall 41.69 s
    7   -2595.9016002837      8.19E-07
 K construction time:  CPU 577.92 s  wall 37.68 s
    8   -2595.9016003993      3.90E-07
 K construction time:  CPU 537.46 s  wall 34.98 s
    9   -2595.9016004305      1.58E-07
 K construction time:  CPU 481.27 s  wall 31.25 s
   10   -2595.9016004367      6.01E-08
 K construction time:  CPU 428.30 s  wall 27.80 s
   11   -2595.9016004376      2.72E-08
 K construction time:  CPU 384.34 s  wall 24.96 s
   12   -2595.9016004358      1.22E-08
 K construction time:  CPU 335.03 s  wall 21.66 s
   13   -2595.9016004355      3.84E-09 Convergence criterion met
 ---------------------------------------
 SCF time:  CPU 11594.84 s  wall 774.49 s
 SCF   energy in the final basis set = -2595.9016004355
 Total energy in the final basis set = -2595.9016004355
 
 --------------------------------------------------------------
 
                    Orbital Energies (a.u.)
 --------------------------------------------------------------
 
 Alpha MOs
 -- Occupied --
-89.155 -89.092 -89.090 -89.077 -14.494 -14.488 -14.452 -14.445
-14.436 -10.374 -10.373 -10.364 -10.363 -10.345 -10.342 -10.342
-10.340 -10.328 -10.327 -10.327 -10.327 -10.326 -10.324 -10.319
-10.315 -10.314 -10.303 -10.295  -8.166  -8.108  -8.105  -8.091
 -6.116  -6.110  -6.109  -6.057  -6.054  -6.053  -6.051  -6.050
 -6.048  -6.041  -6.037  -6.033  -1.154  -1.083  -1.073  -1.055
 -1.023  -1.016  -0.959  -0.945  -0.912  -0.910  -0.906  -0.884
 -0.862  -0.845  -0.829  -0.807  -0.775  -0.753  -0.745  -0.730
 -0.720  -0.696  -0.689  -0.679  -0.650  -0.641  -0.625  -0.620
 -0.610  -0.601  -0.583  -0.575  -0.569  -0.567  -0.541  -0.536
 -0.527  -0.524  -0.517  -0.513  -0.511  -0.503  -0.497  -0.493
 -0.486  -0.480  -0.477  -0.464  -0.457  -0.447  -0.438  -0.435
 -0.427  -0.423  -0.403  -0.395  -0.383  -0.372  -0.371  -0.369
 -0.364  -0.358  -0.343  -0.337  -0.325  -0.322  -0.267
 -- Virtual --
 -0.056  -0.011   0.025   0.037   0.045   0.061   0.062   0.065
  0.076   0.096   0.108   0.112   0.120   0.122   0.130   0.137
  0.141   0.147   0.151   0.166   0.169   0.170   0.173   0.176
  0.192   0.194   0.201   0.213   0.214   0.226   0.230   0.244
  0.254   0.256   0.263   0.264   0.270   0.275   0.284   0.288
  0.294   0.300   0.304   0.308   0.312   0.313   0.321   0.325
  0.332   0.334   0.337   0.339   0.342   0.349   0.354   0.359
  0.363   0.366   0.367   0.371   0.375   0.380   0.384   0.385
  0.391   0.392   0.396   0.400   0.403   0.406   0.408   0.411
  0.418   0.419   0.426   0.431   0.434   0.437   0.441   0.445
  0.446   0.454   0.456   0.457   0.460   0.461   0.465   0.467
  0.470   0.473   0.479   0.480   0.481   0.485   0.488   0.491
  0.493   0.499   0.503   0.504   0.507   0.514   0.516   0.522
  0.523   0.527   0.531   0.542   0.543   0.546   0.549   0.556
  0.562   0.564   0.577   0.578   0.581   0.590   0.597   0.602
  0.603   0.608   0.616   0.621   0.632   0.633   0.639   0.648
  0.650   0.660   0.662   0.668   0.673   0.680   0.682   0.685
  0.688   0.693   0.696   0.710   0.715   0.720   0.722   0.728
  0.731   0.736   0.741   0.746   0.746   0.752   0.761   0.765
  0.768   0.771   0.773   0.778   0.785   0.792   0.796   0.798
  0.803   0.809   0.813   0.821   0.822   0.826   0.831   0.834
  0.838   0.846   0.850   0.853   0.857   0.857   0.863   0.868
  0.877   0.882   0.888   0.896   0.900   0.907   0.910   0.916
  0.921   0.922   0.929   0.930   0.934   0.941   0.947   0.950
  0.957   0.962   0.967   0.972   0.978   0.980   0.985   0.990
  0.993   0.995   1.009   1.015   1.018   1.027   1.030   1.038
  1.043   1.052   1.058   1.061   1.065   1.070   1.070   1.077
  1.078   1.089   1.092   1.096   1.102   1.105   1.118   1.123
  1.130   1.140   1.146   1.152   1.162   1.169   1.172   1.176
  1.181   1.189   1.197   1.202   1.210   1.213   1.217   1.222
  1.232   1.235   1.241   1.250   1.261   1.268   1.272   1.276
  1.285   1.291   1.295   1.301   1.308   1.315   1.320   1.337
  1.340   1.348   1.353   1.359   1.367   1.372   1.379   1.381
  1.383   1.387   1.401   1.406   1.413   1.419   1.433   1.438
  1.444   1.446   1.451   1.456   1.462   1.471   1.480   1.486
  1.494   1.500   1.504   1.514   1.532   1.537   1.538   1.547
  1.552   1.558   1.561   1.568   1.577   1.580   1.592   1.595
  1.606   1.610   1.619   1.628   1.630   1.635   1.644   1.651
  1.654   1.657   1.659   1.667   1.672   1.675   1.681   1.683
  1.689   1.700   1.705   1.710   1.719   1.725   1.733   1.743
  1.750   1.753   1.754   1.767   1.777   1.785   1.791   1.792
  1.801   1.817   1.818   1.827   1.839   1.845   1.866   1.875
  1.879   1.885   1.890   1.894   1.905   1.919   1.923   1.926
  1.930   1.940   1.944   1.955   1.958   1.965   1.975   1.982
  1.986   1.998   2.001   2.004   2.021   2.025   2.031   2.034
  2.055   2.061   2.067   2.073   2.081   2.084   2.090   2.103
  2.115   2.123   2.130   2.138   2.148   2.163   2.170   2.176
  2.177   2.185   2.192   2.197   2.203   2.220   2.225   2.234
  2.243   2.250   2.253   2.262   2.266   2.272   2.282   2.284
  2.302   2.307   2.331   2.347   2.352   2.355   2.362   2.366
  2.375   2.380   2.383   2.395   2.400   2.401   2.406   2.408
  2.421   2.426   2.430   2.440   2.445   2.454   2.460   2.468
  2.474   2.476   2.484   2.495   2.497   2.509   2.512   2.521
  2.525   2.534   2.543   2.545   2.555   2.566   2.570   2.583
  2.589   2.595   2.604   2.615   2.617   2.619   2.627   2.632
  2.642   2.649   2.656   2.665   2.666   2.671   2.688   2.702
  2.714   2.721   2.730   2.743   2.757   2.760   2.774   2.776
  2.782   2.786   2.788   2.797   2.798   2.803   2.807   2.812
  2.826   2.829   2.844   2.847   2.864   2.866   2.873   2.877
  2.887   2.893   2.904   2.909   2.917   2.924   2.936   2.938
  2.947   2.951   2.953   2.955   2.957   2.964   2.972   2.975
  2.979   2.987   2.991   2.996   3.009   3.015   3.018   3.028
  3.033   3.036   3.042   3.048   3.055   3.064   3.068   3.071
  3.078   3.080   3.082   3.086   3.096   3.097   3.102   3.106
  3.109   3.114   3.121   3.122   3.125   3.130   3.132   3.138
  3.147   3.154   3.160   3.167   3.171   3.179   3.180   3.183
  3.184   3.189   3.196   3.200   3.202   3.207   3.212   3.214
  3.218   3.221   3.227   3.230   3.234   3.242   3.248   3.250
  3.255   3.258   3.264   3.267   3.269   3.275   3.284   3.292
  3.293   3.297   3.298   3.301   3.309   3.315   3.324   3.327
  3.329   3.335   3.336   3.347   3.353   3.355   3.359   3.364
  3.366   3.382   3.387   3.393   3.393   3.405   3.416   3.420
  3.428   3.433   3.440   3.449   3.453   3.463   3.466   3.471
  3.476   3.479   3.485   3.491   3.499   3.504   3.509   3.513
  3.519   3.524   3.528   3.542   3.543   3.557   3.558   3.572
  3.580   3.584   3.594   3.596   3.612   3.614   3.617   3.631
  3.644   3.651   3.657   3.662   3.677   3.680   3.690   3.692
  3.704   3.709   3.716   3.728   3.736   3.746   3.754   3.757
  3.770   3.775   3.783   3.792   3.799   3.804   3.808   3.809
  3.829   3.833   3.839   3.841   3.851   3.855   3.863   3.868
  3.869   3.875   3.897   3.905   3.917   3.924   3.927   3.935
  3.941   3.946   3.949   3.957   3.960   3.963   3.968   3.975
  3.978   3.987   3.995   4.001   4.015   4.030   4.035   4.040
  4.048   4.055   4.075   4.077   4.081   4.093   4.104   4.115
  4.130   4.146   4.153   4.157   4.162   4.169   4.178   4.181
  4.189   4.194   4.199   4.209   4.216   4.222   4.229   4.235
  4.241   4.247   4.258   4.275   4.287   4.299   4.309   4.319
  4.328   4.339   4.341   4.344   4.350   4.372   4.377   4.392
  4.399   4.404   4.421   4.431   4.440   4.447   4.465   4.468
  4.470   4.479   4.482   4.490   4.509   4.512   4.530   4.535
  4.541   4.553   4.558   4.567   4.571   4.591   4.602   4.608
  4.617   4.640   4.643   4.651   4.662   4.666   4.680   4.693
  4.703   4.715   4.724   4.743   4.753   4.778   4.792   4.807
  4.813   4.818   4.833   4.840   4.845   4.850   4.852   4.864
  4.869   4.881   4.888   4.934   4.935   4.937   4.948   4.952
  4.959   4.966   4.967   4.973   4.988   4.990   5.000   5.010
  5.027   5.032   5.034   5.055   5.067   5.079   5.091   5.099
  5.108   5.113   5.136   5.151   5.160   5.174   5.185   5.194
  5.210   5.236   5.240   5.244   5.248   5.263   5.282   5.284
  5.293   5.317   5.326   5.338   5.361   5.391   5.408   5.414
  5.426   5.435   5.460   5.464   5.477   5.484   5.516   5.523
  5.534   5.538   5.558   5.600   5.614   5.659   5.665   5.675
  5.696   5.704   5.717   5.724   5.755   5.784   5.806   5.822
  5.854   5.880   5.917   5.947   5.952   5.978   6.035   6.071
  6.149   6.158   6.166   6.183   6.195   6.202   6.245   6.326
  6.331   6.356   6.403   6.416   6.492   6.848   7.019   7.952
  8.874   9.748  10.167  10.887  11.158  11.327  11.476  12.014
 12.274  12.504  12.583  12.716  12.829  12.924  13.169  13.453
 13.527  13.647  13.851  13.946  14.309  14.617  14.986
 --------------------------------------------------------------
 
          Ground-State Mulliken Net Atomic Charges

     Atom                 Charge (a.u.)
  ----------------------------------------
      1 C                    -0.071700
      2 C                    -0.102985
      3 N                    -0.154956
      4 C                    -0.158568
      5 C                    -0.094931
      6 C                     0.110037
      7 C                     0.043483
      8 C                    -0.113556
      9 C                     0.024513
     10 N                    -0.175248
     11 N                    -0.276909
     12 C                     0.024605
     13 C                     0.071853
     14 S                     0.416232
     15 N                    -0.273439
     16 C                    -0.013413
     17 S                     0.126572
     18 C                    -0.041053
     19 C                    -0.015923
     20 S                     0.084015
     21 C                     0.040154
     22 C                     0.034741
     23 C                    -0.160404
     24 C                    -0.165145
     25 N                    -0.186124
     26 S                     0.103304
     27 C                    -0.076809
     28 C                    -0.201764
     29 H                     0.124108
     30 H                     0.129566
     31 H                     0.131894
     32 H                     0.129663
     33 H                     0.134475
     34 H                     0.132922
     35 H                     0.145979
     36 H                     0.129853
     37 H                     0.144958
  ----------------------------------------
  Sum of atomic charges =     0.000000

 -----------------------------------------------------------------
                    Cartesian Multipole Moments
 -----------------------------------------------------------------
    Charge (ESU x 10^10)
                 0.0000
    Dipole Moment (Debye)
         X      -1.9038      Y       1.3639      Z       1.1760
       Tot       2.6206
    Quadrupole Moments (Debye-Ang)
        XX    -176.8957     XY       2.7982     YY    -163.9110
        XZ       7.1123     YZ       3.6877     ZZ    -189.2751
    Octopole Moments (Debye-Ang^2)
       XXX    -309.8513    XXY     138.9338    XYY      -6.1277
       YYY      25.0423    XXZ      50.9511    XYZ       6.5111
       YYZ       8.4373    XZZ      -3.2532    YZZ       9.0463
       ZZZ       2.4953
    Hexadecapole Moments (Debye-Ang^3)
      XXXX  -18059.9571   XXXY     -85.8154   XXYY   -3163.8317
      XYYY    -103.5332   YYYY   -4089.0614   XXXZ     321.7228
      XXYZ     119.5090   XYYZ      57.4026   YYYZ      51.5578
      XXZZ   -3372.9836   XYZZ     -80.3194   YYZZ    -829.4116
      XZZZ     -31.7020   YZZZ      -3.8695   ZZZZ    -365.5258
 -----------------------------------------------------------------
 Calculating analytic gradient of the SCF energy
 K construction time:  CPU 2881.95 s  wall 182.05 s
 Gradient of SCF Energy
            1           2           3           4           5           6
    1   0.0001214  -0.0005319   0.0000228   0.0004865   0.0001052   0.0000518
    2   0.0000296  -0.0000224  -0.0001267   0.0001995  -0.0000762   0.0003069
    3   0.0000963  -0.0000961  -0.0001228   0.0000616  -0.0002256   0.0001659
            7           8           9          10          11          12
    1  -0.0001645   0.0018340   0.0008552   0.0013230  -0.0002670   0.0012783
    2   0.0007267   0.0002299   0.0000876   0.0017129   0.0009707  -0.0022687
    3   0.0002724  -0.0008132   0.0004443  -0.0009760  -0.0004958   0.0012855
           13          14          15          16          17          18
    1  -0.0021150  -0.0003847   0.0023203  -0.0004157  -0.0000421  -0.0012647
    2  -0.0077462   0.0018133   0.0024829   0.0084988  -0.0014381  -0.0039420
    3   0.0026585  -0.0004435   0.0004274  -0.0010601   0.0008847  -0.0013658
           19          20          21          22          23          24
    1   0.0007180  -0.0037638   0.0001173   0.0004505   0.0001039  -0.0004848
    2  -0.0010789  -0.0013512  -0.0000330   0.0005865   0.0004848  -0.0006943
    3   0.0004433  -0.0007039  -0.0008350  -0.0000711   0.0000867   0.0008256
           25          26          27          28          29          30
    1   0.0000409   0.0000086   0.0001476  -0.0002323  -0.0000705   0.0001346
    2   0.0001504   0.0001384  -0.0002227  -0.0000944   0.0000260  -0.0000634
    3  -0.0000980   0.0000481  -0.0000610   0.0000533  -0.0000419   0.0001545
           31          32          33          34          35          36
    1  -0.0001198   0.0000495  -0.0000706  -0.0002716   0.0001703  -0.0001166
    2  -0.0000074   0.0001227   0.0000694   0.0000434   0.0002404   0.0002529
    3  -0.0000856  -0.0000299  -0.0000109  -0.0001942  -0.0001529   0.0000004
           37
    1  -0.0000242
    2  -0.0000081
    3  -0.0000254
 Max gradient component =       8.499E-03
 RMS gradient           =       1.427E-03
 Gradient time:  CPU 3324.44 s  wall 211.69 s
 Geometry Optimization Parameters
   NAtoms,    NIC,     NZ,  NCons,   NDum,   NFix, NCnnct, MaxDiis
       37     280       0       3       0       0       0       0

 Cartesian Hessian Update
 Hessian Updated using BFGS Update


** CONSTRAINED OPTIMIZATION IN DELOCALIZED INTERNAL COORDINATES **
   Searching for a Minimum

   Optimization Cycle:   3

                       Coordinates (Angstroms)
     ATOM                X               Y               Z
      1  C         7.2910515919    2.0351220477   -0.2221138986
      2  C         6.3596881546    2.8135593521    0.4447943934
      3  N         6.9928666815    0.8768088513   -0.8030261835
      4  C         5.0538926657    2.3659881529    0.5138546185
      5  C         5.7375585315    0.4565512454   -0.7301183812
      6  C         4.7161956165    1.1585771100   -0.0877456220
      7  C         3.3300042991    0.6612201758   -0.0677202630
      8  C         2.2598591791    1.4827588238   -0.2859105157
      9  C         2.9864534166   -0.6954896792    0.1881336491
     10  N         0.9589840994    1.1116498451   -0.2738772796
     11  N         3.8244263677   -1.6962747831    0.4555850268
     12  C         1.6101441504   -1.1009500515    0.2085099245
     13  C         0.5868963871   -0.1292868235   -0.0445510664
     14  S         2.9147566718   -3.0007176930    0.7058280993
     15  N         1.4461339813   -2.3857954985    0.4979153230
     16  C        -0.8514902722   -0.3594051600   -0.0522940774
     17  S        -1.8235305264    1.0657169005    0.0457911445
     18  C        -1.6683409888   -1.4762648739   -0.1483541521
     19  C        -3.2941956101    0.1940553635   -0.0309852996
     20  S        -1.4528539429   -3.1986932779   -0.3074370120
     21  C        -3.0597527132   -1.1582005956   -0.1481721230
     22  C        -4.5811269094    0.8585672149    0.0069186239
     23  C        -3.1797907366   -3.4358602363   -0.3785837682
     24  C        -3.9042249351   -2.3111719990   -0.2740149971
     25  N        -5.7187221553    0.2284802672   -0.0640976373
     26  S        -4.7437719151    2.5855715042    0.1523692499
     27  C        -6.7675909032    1.0964755760   -0.0041069923
     28  C        -6.4481401349    2.4083975349    0.1143970856
     29  H         8.3244833885    2.3537230078   -0.2928307662
     30  H         6.6588386884    3.7424350963    0.9089767676
     31  H         4.3030672913    2.9360386200    1.0453067013
     32  H         5.5221343227   -0.4890097997   -1.2115627853
     33  H         2.4263097161    2.5304417908   -0.5063771823
     34  H        -3.5558208918   -4.4404365679   -0.4892720266
     35  H        -4.9794943305   -2.2559126207   -0.2911453606
     36  H        -7.7747320751    0.7113742983   -0.0520157883
     37  H        -7.1051939956    3.2576807984    0.1778540224
   Point Group: c1    Number of degrees of freedom:   105


   Energy is  -2595.901600435

              Constraints and their Current Values
                                        Value     Constraint
   Dihedral:        4   6   7   8       42.245       42.246
   Dihedral:       10  13  16  17      -15.002      -15.000
   Dihedral:       17  19  22  25      179.217      179.217
 Hessian Updated using BFGS Update

   Using Lagrange Multiplier Algorithm


108 Hessian modes will be used to form the next step
  Hessian Eigenvalues:
    -0.977753   -0.977749   -0.977234    0.044130    0.045000    0.045000
     0.045000    0.045000    0.045000    0.045000    0.045000    0.045000
     0.045000    0.045000    0.045000    0.045000    0.045000    0.045000
[...]
     27  C        -6.8078794808    1.0238321743    0.0017287032
     28  C        -6.5256678530    2.3458290187    0.1023131590
     29  H         8.3661871859    2.2472306078   -0.2611141801
     30  H         6.7283418804    3.6735477022    0.9375949265
     31  H         4.3545082629    2.9252327476    1.0604027425
     32  H         5.4942438272   -0.5118081904   -1.2195399260
     33  H         2.4749793301    2.5790045746   -0.5013668397
     34  H        -3.4460321605   -4.4248963737   -0.4286728844
     35  H        -4.9315978222   -2.2815942777   -0.2615658977
     36  H        -7.8024675393    0.6063415674   -0.0337144865
     37  H        -7.2067526338    3.1761066192    0.1635652627
   Point Group: c1    Number of degrees of freedom:   105


   Energy is  -2595.902589606

              Constraints and their Current Values
                                        Value     Constraint
   Dihedral:        4   6   7   8       42.246       42.246
   Dihedral:       10  13  16  17      -15.000      -15.000
   Dihedral:       17  19  22  25      179.217      179.217
 Hessian Updated using BFGS Update

 98 Hessian modes will be used to form the next step
  Hessian Eigenvalues:
     0.009009    0.026807    0.044112    0.044972    0.045000    0.045000
     0.045000    0.045000    0.045000    0.045000    0.045000    0.045000
     0.045000    0.045001    0.045001    0.045001    0.045002    0.045003
     0.045005    0.045007    0.045008    0.045010    0.045020    0.045045
     0.045139    0.045443    0.046313    0.157850    0.159681    0.159859
     0.159975    0.159992    0.160002    0.160021    0.160083    0.160389
     0.213453    0.220048    0.224649    0.225849    0.231991    0.234414
     0.234523    0.245349    0.248267    0.248660    0.249488    0.249921
     0.249984    0.249994    0.250232    0.250459    0.261417    0.281498
     0.297552    0.305260    0.309561    0.313624    0.324921    0.334513
     0.346430    0.354771    0.355752    0.356587    0.356809    0.357087
     0.359244    0.360775    0.361192    0.364147    0.365015    0.372549
     0.385536    0.387691    0.391073    0.396966    0.407056    0.431432
     0.445176    0.450952    0.455344    0.471661    0.473458    0.476245
     0.483080    0.493698    0.497164    0.499601    0.517268    0.519584
     0.539090    0.562084    0.574858    0.590958    0.631108    0.639229
     0.673762    0.689973

 Minimum Search - Taking Simple RFO Step
 Searching for Lamda that Minimizes Along All modes
 Value Taken    Lamda =   0.00000000
 Step Taken.  Stepsize is  0.001767

                             Maximum     Tolerance    Cnvgd?
         Gradient           0.000029      0.000300     YES
         Displacement       0.000956      0.001200     YES
         Energy change      0.000000      0.000001     YES

 Final energy is   -2595.90258960614     


 ******************************
 **  OPTIMIZATION CONVERGED  **
 ******************************

                       Coordinates (Angstroms)
     ATOM                X               Y               Z
      1  C         7.3238158449    1.9566415589   -0.1997744853
      2  C         6.4093110751    2.7545265701    0.4672472035
      3  N         6.9985214753    0.8108383812   -0.7905430331
      4  C         5.0914947373    2.3403256657    0.5258670967
      5  C         5.7319547142    0.4240971506   -0.7296720188
      6  C         4.7251810969    1.1481482032   -0.0891704279
      7  C         3.3278181480    0.6837373640   -0.0780940946
      8  C         2.2775647306    1.5348374169   -0.2904706982
      9  C         2.9569666241   -0.6696801308    0.1592876645
     10  N         0.9655443333    1.2008844543   -0.2898213986
     11  N         3.7664962249   -1.6988253265    0.4141113683
     12  C         1.5732975501   -1.0329213929    0.1724478594
     13  C         0.5769552973   -0.0303150426   -0.0631420647
     14  S         2.8198107726   -2.9821199625    0.6405193147
     15  N         1.3702008174   -2.3193214776    0.4395072585
     16  C        -0.8544044697   -0.2782644697   -0.0746791082
     17  S        -1.8568493952    1.1315725165    0.0173626604
     18  C        -1.6448923119   -1.4077576705   -0.1360230199
     19  C        -3.3100244062    0.2237856946   -0.0391677958
     20  S        -1.3776180612   -3.1247119224   -0.2643656833
     21  C        -3.0433832470   -1.1245345646   -0.1355090365
     22  C        -4.6155928278    0.8499944116    0.0004648204
     23  C        -3.0984827445   -3.4082066901   -0.3373223773
     24  C        -3.8548893275   -2.3025607484   -0.2491770894
     25  N        -5.7344816914    0.1859963137   -0.0557289170
     26  S        -4.8272057915    2.5727314446    0.1261368743
     27  C        -6.8078794808    1.0238321743    0.0017287032
     28  C        -6.5256678530    2.3458290187    0.1023131590
     29  H         8.3661871859    2.2472306078   -0.2611141801
     30  H         6.7283418804    3.6735477022    0.9375949265
     31  H         4.3545082629    2.9252327476    1.0604027425
     32  H         5.4942438272   -0.5118081904   -1.2195399260
     33  H         2.4749793301    2.5790045746   -0.5013668397
     34  H        -3.4460321605   -4.4248963737   -0.4286728844
     35  H        -4.9315978222   -2.2815942777   -0.2615658977
     36  H        -7.8024675393    0.6063415674   -0.0337144865
     37  H        -7.2067526338    3.1761066192    0.1635652627

Z-matrix Print:
$molecule
0 1
S 
C  1 1.714348
C  2 1.377805 1 110.882570
C  3 1.426882 2 112.578187 1 -1.152899 0
C  4 1.379996 3 113.512265 2 1.546822 0
C  3 1.434994 2 134.383482 1 178.058806 0
H  6 1.076984 3 123.387372 2 1.041561 0
C  6 1.342525 3 111.263662 2 -178.889485 0
H  8 1.078329 6 126.902164 3 -179.838413 0
C  2 1.448522 1 122.288339 3 179.479892 0
N  10 1.302292 2 123.557727 1 -179.216964 0
C  11 1.362884 10 111.187020 2 -179.972147 0
H  12 1.079240 11 119.118846 10 179.911295 0
C  12 1.355521 11 116.021251 10 -0.036027 0
H  14 1.075634 12 128.697164 11 179.837265 0
C  5 1.452723 4 134.784739 3 179.242812 0
N  16 1.310815 5 116.809662 4 -165.454542 0
C  17 1.353855 16 121.269027 5 -179.522477 0
H  18 1.083390 17 114.482787 16 -179.317641 0
C  18 1.368396 17 126.178047 16 -0.549548 0
C  20 1.423243 18 114.667588 17 -0.107008 0
N  21 1.333946 20 127.400658 18 178.903828 0
C  21 1.430614 20 119.669804 18 0.569179 0
N  23 1.329434 21 113.284126 20 178.361145 0
C  20 1.472557 18 122.072583 17 179.535303 0
C  25 1.390591 20 121.132779 18 -42.245752 0
H  26 1.082125 25 120.163152 20 -2.595135 0
C  26 1.382620 25 119.285165 20 178.603044 0
H  28 1.080559 26 121.181082 25 179.758052 0
C  28 1.384867 26 118.504352 25 0.392237 0
H  30 1.083855 28 120.522101 26 179.666063 0
N  30 1.329545 28 123.296539 26 -0.131338 0
C  32 1.325694 30 117.694830 28 0.045906 0
H  33 1.082772 32 116.176094 30 -179.948781 0
S  24 1.606573 23 106.647948 21 0.346581 0
S  14 1.713717 12 109.663883 11 -0.061154 0
S  4 1.742366 3 110.240874 2 179.839247 0
$end

 
 --------------------------------------------------------------
 
                    Orbital Energies (a.u.)
 --------------------------------------------------------------
 
 Alpha MOs
 -- Occupied --
-89.156 -89.092 -89.090 -89.076 -14.494 -14.488 -14.452 -14.445
-14.436 -10.374 -10.372 -10.363 -10.362 -10.344 -10.343 -10.341
-10.340 -10.328 -10.327 -10.327 -10.327 -10.326 -10.323 -10.319
-10.315 -10.314 -10.303 -10.295  -8.166  -8.108  -8.105  -8.090
 -6.116  -6.111  -6.110  -6.057  -6.054  -6.053  -6.051  -6.050
 -6.048  -6.040  -6.036  -6.032  -1.153  -1.083  -1.074  -1.055
 -1.023  -1.015  -0.958  -0.945  -0.912  -0.911  -0.906  -0.884
 -0.862  -0.845  -0.829  -0.807  -0.775  -0.753  -0.745  -0.731
 -0.720  -0.696  -0.689  -0.678  -0.650  -0.642  -0.624  -0.620
 -0.610  -0.602  -0.583  -0.575  -0.569  -0.566  -0.541  -0.536
 -0.527  -0.524  -0.518  -0.514  -0.511  -0.503  -0.497  -0.493
 -0.487  -0.481  -0.478  -0.464  -0.457  -0.447  -0.441  -0.435
 -0.427  -0.422  -0.400  -0.395  -0.383  -0.372  -0.372  -0.369
 -0.366  -0.358  -0.343  -0.337  -0.325  -0.321  -0.267
 -- Virtual --
 -0.057  -0.011   0.025   0.038   0.045   0.060   0.062   0.065
  0.074   0.097   0.108   0.113   0.120   0.122   0.130   0.137
  0.141   0.147   0.151   0.166   0.169   0.170   0.173   0.177
  0.192   0.195   0.201   0.213   0.214   0.227   0.231   0.244
  0.254   0.256   0.263   0.264   0.270   0.275   0.284   0.289
  0.294   0.299   0.306   0.308   0.313   0.313   0.321   0.325
  0.333   0.335   0.337   0.341   0.343   0.350   0.355   0.360
  0.363   0.366   0.368   0.372   0.376   0.381   0.383   0.385
  0.391   0.392   0.396   0.400   0.403   0.407   0.408   0.412
  0.418   0.419   0.426   0.431   0.434   0.437   0.440   0.444
  0.447   0.454   0.456   0.457   0.460   0.461   0.465   0.468
  0.471   0.474   0.479   0.480   0.481   0.484   0.488   0.492
  0.494   0.498   0.503   0.505   0.507   0.514   0.516   0.522
  0.523   0.527   0.532   0.542   0.544   0.547   0.549   0.559
  0.564   0.566   0.577   0.581   0.582   0.590   0.597   0.603
  0.605   0.608   0.616   0.621   0.632   0.633   0.641   0.650
  0.650   0.659   0.662   0.670   0.674   0.681   0.684   0.685
  0.689   0.693   0.697   0.711   0.715   0.720   0.723   0.730
  0.732   0.738   0.742   0.746   0.748   0.753   0.762   0.767
  0.769   0.772   0.774   0.779   0.785   0.791   0.796   0.799
  0.803   0.809   0.814   0.822   0.823   0.825   0.831   0.834
  0.839   0.849   0.851   0.854   0.857   0.859   0.862   0.868
  0.876   0.884   0.888   0.898   0.899   0.904   0.911   0.915
  0.921   0.923   0.931   0.933   0.934   0.941   0.947   0.952
  0.959   0.962   0.967   0.972   0.979   0.981   0.985   0.991
  0.993   1.000   1.010   1.018   1.019   1.029   1.030   1.040
  1.048   1.052   1.057   1.062   1.065   1.071   1.072   1.076
  1.081   1.089   1.092   1.096   1.102   1.108   1.120   1.126
  1.131   1.140   1.148   1.155   1.162   1.169   1.172   1.176
  1.182   1.189   1.197   1.202   1.210   1.214   1.221   1.224
  1.233   1.234   1.243   1.250   1.261   1.269   1.271   1.278
  1.285   1.292   1.297   1.302   1.310   1.316   1.320   1.340
  1.341   1.349   1.353   1.359   1.368   1.371   1.380   1.381
  1.386   1.387   1.401   1.408   1.414   1.420   1.434   1.440
  1.444   1.447   1.453   1.457   1.464   1.472   1.481   1.485
  1.492   1.499   1.505   1.514   1.532   1.536   1.538   1.548
  1.553   1.559   1.561   1.570   1.579   1.581   1.593   1.596
  1.606   1.610   1.618   1.626   1.628   1.636   1.647   1.649
  1.654   1.659   1.660   1.666   1.673   1.674   1.682   1.685
  1.689   1.702   1.707   1.713   1.720   1.726   1.741   1.746
  1.752   1.754   1.757   1.772   1.780   1.788   1.793   1.800
  1.806   1.817   1.823   1.831   1.838   1.849   1.866   1.875
  1.881   1.884   1.890   1.897   1.902   1.923   1.924   1.928
  1.931   1.944   1.945   1.956   1.963   1.969   1.976   1.983
  1.985   1.997   2.003   2.005   2.023   2.025   2.031   2.035
  2.055   2.062   2.067   2.072   2.080   2.085   2.091   2.106
  2.116   2.123   2.130   2.139   2.148   2.160   2.169   2.175
  2.178   2.186   2.192   2.198   2.205   2.220   2.226   2.233
  2.244   2.250   2.255   2.263   2.268   2.274   2.281   2.284
  2.303   2.307   2.332   2.347   2.351   2.356   2.357   2.367
  2.376   2.379   2.383   2.396   2.400   2.401   2.408   2.412
  2.421   2.424   2.428   2.440   2.446   2.456   2.461   2.468
  2.473   2.477   2.483   2.494   2.497   2.508   2.511   2.520
  2.525   2.534   2.542   2.544   2.550   2.564   2.571   2.585
  2.590   2.595   2.606   2.615   2.617   2.620   2.627   2.634
  2.643   2.650   2.658   2.667   2.668   2.672   2.692   2.706
  2.713   2.721   2.731   2.745   2.758   2.762   2.773   2.778
  2.784   2.787   2.788   2.797   2.798   2.803   2.807   2.814
  2.827   2.830   2.845   2.846   2.865   2.866   2.874   2.881
  2.889   2.894   2.903   2.909   2.919   2.927   2.936   2.937
  2.948   2.951   2.955   2.956   2.959   2.965   2.973   2.976
  2.980   2.988   2.990   2.999   3.009   3.016   3.022   3.029
  3.032   3.036   3.041   3.048   3.056   3.063   3.068   3.071
  3.078   3.080   3.082   3.086   3.094   3.098   3.103   3.109
  3.110   3.113   3.121   3.121   3.124   3.131   3.134   3.139
  3.147   3.155   3.162   3.167   3.171   3.179   3.180   3.185
  3.185   3.191   3.196   3.199   3.203   3.206   3.212   3.215
  3.216   3.220   3.226   3.229   3.233   3.242   3.248   3.252
  3.255   3.257   3.263   3.267   3.271   3.274   3.283   3.291
  3.294   3.297   3.300   3.302   3.309   3.315   3.324   3.326
  3.331   3.335   3.338   3.347   3.353   3.356   3.360   3.365
  3.367   3.382   3.386   3.392   3.394   3.406   3.416   3.420
  3.428   3.434   3.441   3.448   3.454   3.463   3.466   3.472
  3.476   3.480   3.486   3.490   3.501   3.505   3.510   3.514
  3.520   3.525   3.529   3.543   3.545   3.559   3.561   3.575
  3.580   3.588   3.595   3.596   3.612   3.614   3.619   3.633
  3.645   3.650   3.658   3.662   3.678   3.681   3.691   3.696
  3.702   3.712   3.720   3.730   3.739   3.746   3.754   3.759
  3.774   3.776   3.786   3.792   3.801   3.804   3.809   3.812
  3.829   3.835   3.841   3.843   3.854   3.856   3.864   3.868
  3.868   3.878   3.898   3.910   3.918   3.926   3.928   3.936
  3.942   3.945   3.949   3.958   3.962   3.965   3.968   3.975
  3.979   3.988   3.998   4.002   4.015   4.030   4.040   4.048
  4.049   4.057   4.076   4.078   4.082   4.095   4.106   4.116
  4.133   4.146   4.155   4.160   4.164   4.170   4.177   4.181
  4.190   4.196   4.200   4.208   4.216   4.224   4.229   4.238
  4.244   4.248   4.259   4.274   4.287   4.300   4.309   4.322
  4.326   4.341   4.345   4.346   4.352   4.375   4.378   4.393
  4.400   4.408   4.423   4.432   4.440   4.446   4.465   4.468
  4.473   4.480   4.482   4.493   4.509   4.514   4.531   4.539
  4.543   4.553   4.559   4.569   4.577   4.592   4.607   4.609
  4.619   4.640   4.645   4.653   4.662   4.666   4.681   4.695
  4.706   4.717   4.727   4.744   4.757   4.782   4.794   4.807
  4.812   4.819   4.835   4.838   4.844   4.851   4.853   4.867
  4.868   4.883   4.889   4.934   4.934   4.938   4.949   4.953
  4.961   4.964   4.970   4.974   4.988   4.992   5.001   5.010
  5.029   5.033   5.036   5.053   5.067   5.081   5.092   5.101
  5.109   5.115   5.137   5.151   5.162   5.174   5.185   5.194
  5.211   5.235   5.238   5.243   5.248   5.261   5.283   5.284
  5.294   5.318   5.329   5.338   5.366   5.393   5.406   5.416
  5.427   5.441   5.461   5.468   5.473   5.486   5.515   5.525
  5.535   5.541   5.556   5.599   5.614   5.659   5.665   5.675
  5.696   5.710   5.719   5.723   5.757   5.793   5.808   5.825
  5.852   5.880   5.921   5.948   5.960   5.989   6.031   6.076
  6.149   6.162   6.168   6.189   6.195   6.206   6.246   6.327
  6.331   6.356   6.403   6.413   6.490   6.855   7.020   7.954
  8.896   9.770  10.176  10.903  11.156  11.314  11.519  12.013
 12.292  12.524  12.615  12.753  12.828  12.930  13.185  13.479
 13.525  13.685  13.859  13.971  14.295  14.661  14.986
 --------------------------------------------------------------
 
          Ground-State Mulliken Net Atomic Charges

     Atom                 Charge (a.u.)
  ----------------------------------------
      1 C                    -0.071875
      2 C                    -0.102894
      3 N                    -0.154889
      4 C                    -0.158164
      5 C                    -0.095440
      6 C                     0.109810
      7 C                     0.037601
      8 C                    -0.107527
      9 C                     0.024586
     10 N                    -0.175979
     11 N                    -0.277571
     12 C                     0.032379
     13 C                     0.073366
     14 S                     0.416212
     15 N                    -0.280804
     16 C                    -0.010306
     17 S                     0.123162
     18 C                    -0.036406
     19 C                    -0.017292
     20 S                     0.086459
     21 C                     0.036369
     22 C                     0.035339
     23 C                    -0.162120
     24 C                    -0.166374
     25 N                    -0.185479
     26 S                     0.103554
     27 C                    -0.076443
     28 C                    -0.201702
     29 H                     0.124023
     30 H                     0.129305
     31 H                     0.131762
     32 H                     0.129516
     33 H                     0.134926
     34 H                     0.132704
     35 H                     0.145577
     36 H                     0.129576
     37 H                     0.145040
  ----------------------------------------
  Sum of atomic charges =     0.000000

 -----------------------------------------------------------------
                    Cartesian Multipole Moments
 -----------------------------------------------------------------
    Charge (ESU x 10^10)
                 0.0000
    Dipole Moment (Debye)
         X      -1.9019      Y       1.2581      Z       1.2201
       Tot       2.5863
    Quadrupole Moments (Debye-Ang)
        XX    -176.3842     XY       3.0591     YY    -164.3336
        XZ       7.0259     YZ       3.5382     ZZ    -189.2720
    Octopole Moments (Debye-Ang^2)
       XXX    -305.3444    XXY     141.1414    XYY      -3.5226
       YYY      12.7031    XXZ      54.0112    XYZ       7.8326
       YYZ      10.4501    XZZ      -0.9761    YZZ       6.6865
       ZZZ       6.2290
    Hexadecapole Moments (Debye-Ang^3)
      XXXX  -18022.8450   XXXY     -49.8625   XXYY   -3188.6278
      XYYY     -89.5052   YYYY   -3990.0829   XXXZ     335.6070
      XXYZ     118.3583   XYYZ      57.6539   YYYZ      46.6734
      XXZZ   -3384.1894   XYZZ     -71.2019   YYZZ    -809.2618
      XZZZ     -21.2792   YZZZ      -2.7819   ZZZZ    -351.5197
 -----------------------------------------------------------------
Archival summary:
1\1\mn250\OPT\ProcedureUnspecified\BasisUnspecified\45199\afmv_a\ThuJun117:24:282017ThuJun117:24:282017\0\\#,OPT,ProcedureUnspecified,BasisUnspecified,\\0,1\S\C,1,1.71435\C,2,1.37781,1,110.883\C,3,1.42688,2,112.578,1,-1.1529,0\C,4,1.38,3,113.512,2,1.54682,0\C,3,1.43499,2,134.383,1,178.059,0\H,6,1.07698,3,123.387,2,1.04156,0\C,6,1.34253,3,111.264,2,-178.889,0\H,8,1.07833,6,126.902,3,-179.838,0\C,2,1.44852,1,122.288,3,179.48,0\N,10,1.30229,2,123.558,1,-179.217,0\C,11,1.36288,10,111.187,2,-179.972,0\H,12,1.07924,11,119.119,10,179.911,0\C,12,1.35552,11,116.021,10,-0.0360269,0\H,14,1.07563,12,128.697,11,179.837,0\C,5,1.45272,4,134.785,3,179.243,0\N,16,1.31082,5,116.81,4,-165.455,0\C,17,1.35385,16,121.269,5,-179.522,0\H,18,1.08339,17,114.483,16,-179.318,0\C,18,1.3684,17,126.178,16,-0.549548,0\C,20,1.42324,18,114.668,17,-0.107008,0\N,21,1.33395,20,127.401,18,178.904,0\C,21,1.43061,20,119.67,18,0.569179,0\N,23,1.32943,21,113.284,20,178.361,0\C,20,1.47256,18,122.073,17,179.535,0\C,25,1.39059,20,121.133,18,-42.2458,0\H,26,1.08212,25,120.163,20,-2.59513,0\C,26,1.38262,25,119.285,20,178.603,0\H,28,1.08056,26,121.181,25,179.758,0\C,28,1.38487,26,118.504,25,0.392237,0\H,30,1.08386,28,120.522,26,179.666,0\N,30,1.32954,28,123.297,26,-0.131338,0\C,32,1.32569,30,117.695,28,0.0459065,0\H,33,1.08277,32,116.176,30,-179.949,0\S,24,1.60657,23,106.648,21,0.346581,0\S,14,1.71372,12,109.664,11,-0.0611539,0\S,4,1.74237,3,110.241,2,179.839,0\\\@

 Total job time:  9049.83s(wall), 136956.73s(cpu) 
 Thu Jun  1 17:24:28 2017

        *************************************************************
        *                                                           *
        *  Thank you very much for using Q-Chem.  Have a nice day.  *
        *                                                           *
        *************************************************************


0 sent ACK to 0 
now end server 0 ... 
cleanup process ... done
