
Running Job 1 of 1 C271_2/C271_150.qcin
qchem C271_2/C271_150.qcin_11234.0 /tmpu/cab_g/afmv_a/scratch_qchem/qchem11234/ 1
/tmpu/appuserlic/qchem4.4/parallel-MPICH/bin/mpi/mpirun_qchem -machinefile /tmpu/appuserlic/qchem4.4/parallel-MPICH/bin/mpi/machines -np 1 /tmpu/appuserlic/qchem4.4/parallel-MPICH/exe/qcprog.exe C271_2/C271_150.qcin_11234.0 /tmpu/cab_g/afmv_a/scratch_qchem/qchem11234/

Process 0 of 1 is on mn250 - thread support 0
initial socket setup ...start
initial socket setup ...done 
now start server 0 ... 
Check license passed

                  Welcome to Q-Chem
     A Quantum Leap Into The Future Of Chemistry


 Q-Chem 4.4, Q-Chem, Inc., Pleasanton, CA (2016)

 Y. Shao,  Z. Gan,  E. Epifanovsky,  A. T. B. Gilbert,  M. Wormit,  
 J. Kussmann,  A. W. Lange,  A. Behn,  J. Deng,  X. Feng,  D. Ghosh,  
 M. Goldey,  P. R. Horn,  L. D. Jacobson,  I. Kaliman,  F. Rob,  
 R. Z. Khaliullin,  T. Kus,  A. Landau,  J. Liu,  E. I. Proynov,  Y. M. Rhee,  
 R. M. Richard,  M. A. Rohrdanz,  R. P. Steele,  E. J. Sundstrom,  
 H. L. Woodcock III,  P. M. Zimmerman,  D. Zuev,  B. Albrecht,  E. Alguire,  
 B. Austin,  S. A. Baeppler,  G. J. O. Beran,  Y. A. Bernard,  E. Berquist,  
 K. Brandhorst,  K. B. Bravaya,  S. T. Brown,  D. Casanova,  C.-M. Chang,  
 Y. Chen,  S. H. Chien,  K. D. Closser,  M. P. Coons,  D. L. Crittenden,  
 S. Dasgupta,  M. Diedenhofen,  R. A. DiStasio Jr.,  H. Do,  A. D. Dutoi,  
 R. G. Edgar,  P.-T. Fang,  S. Fatehi,  Q. Feng,  L. Fusti-Molnar,  
 A. Ghysels,  A. Golubeva-Zadorozhnaya,  J. Gomes,  A. Gunina,  
 M. W. D. Hanson-Heine,  P. H. P. Harbach,  A. W. Hauser,  J. E. Herr,  
 E. G. Hohenstein,  Z. C. Holden,  K. Hui,  T.-C. Jagau,  H. Ji,  B. Kaduk,  
 K. Khistyaev,  Jaehoon Kim,  Jihan Kim,  R. A. King,  P. Klunzinger,  
 K. Koh,  D. Kosenkov,  T. Kowalczyk,  C. M. Krauter,  A. Kunitsa,  
 K. U. Lao,  A. Laurent,  K. V. Lawler,  J. Lee,  D. Lefrancois,  S. Lehtola,  
 S. V. Levchenko,  C. Y. Lin,  Y.-S. Lin,  F. Liu,  E. Livshits,  
 R. C. Lochan,  A. Luenser,  P. Manohar,  S. F. Manzer,  S.-P. Mao,  Y. Mao,  
 N. Mardirossian,  A. V. Marenich,  L. A. Martinez-Martinez,  S. A. Maurer,  
 N. J. Mayhall,  J.-M. Mewes,  A. F. Morrison,  K. Nanda,  T. S. Nguyen-Beck,  
 C. M. Oana,  R. Olivares-Amaya,  D. P. O'Neill,  J. A. Parkhill,  
 T. M. Perrine,  R. Peverati,  P. A. Pieniazek,  F. Plasser,  A. Prociuk,  
 D. R. Rehn,  E. Rosta,  N. J. Russ,  N. Sergueev,  S. M. Sharada,  
 S. Sharma,  D. W. Small,  A. Sodt,  T. Stauch,  T. Stein,  D. Stuck,  
 Y.-C. Su,  A. J. W. Thom,  T. Tsuchimochi,  L. Vogt,  O. Vydrov,  T. Wang,  
 M. A. Watson,  J. Wenzel,  A. White,  C. F. Williams,  V. Vanovschi,  
 K. Yao,  S. Yeganeh,  S. R. Yost,  Z.-Q. You,  I. Y. Zhang,  X. Zhang,  
 Y. Zhao,  B. R. Brooks,  G. K. L. Chan,  D. M. Chipman,  C. J. Cramer,  
 W. A. Goddard III,  M. S. Gordon,  W. J. Hehre,  A. Klamt,  
 H. F. Schaefer III,  M. W. Schmidt,  C. D. Sherrill,  D. G. Truhlar,  
 A. Warshel,  X. Xu,  A. Aspuru-Guzik,  R. Baer,  A. T. Bell,  N. A. Besley,  
 J.-D. Chai,  A. Dreuw,  B. D. Dunietz,  T. R. Furlani,  S. R. Gwaltney,  
 C.-P. Hsu,  Y. Jung,  J. Kong,  D. S. Lambrecht,  W. Liang,  C. Ochsenfeld,  
 V. A. Rassolov,  L. V. Slipchenko,  J. E. Subotnik,  T. Van Voorhis,  
 J. M. Herbert,  A. I. Krylov,  P. M. W. Gill,  M. Head-Gordon

 Contributors to earlier versions of Q-Chem not listed above: 
 R. D. Adamson,  J. Baker,  E. F. C. Byrd,  A. K. Chakraborty,  C.-L. Cheng,  
 H. Dachsel,  R. J. Doerksen,  G. Hawkins,  A. Heyden,  S. Hirata,  
 G. Kedziora,  F. J. Keil,  C. Kelley,  P. P. Korambath,  W. Kurlancheek,  
 A. M. Lee,  M. S. Lee,  D. Liotard,  I. Lotan,  P. E. Maslen,  N. Nair,  
 D. Neuhauser,  R. Olson,  B. Peters,  J. Ritchie,  N. E. Schultz,  
 N. Shenvi,  A. C. Simmonett,  K. S. Thanthiriwatte,  Q. Wu,  W. Zhang

 Please cite Q-Chem as follows:
 Y. Shao et al., Mol. Phys. 113, 184-215 (2015)
 DOI: 10.1080/00268976.2014.952696

 Q-Chem 4.4.2 for Intel X86 Linux

 Parts of Q-Chem use Armadillo 5.200.1 (Boston Tea Smuggler).
 http://arma.sourceforge.net/

 Q-Chem begins on Fri Jun  2 07:52:07 2017  

Host: 
0

     Scratch files written to /tmpu/cab_g/afmv_a/scratch_qchem/qchem11234//
 Dec716 11556_ 22328  22283 4050   
 Parallel job on  1  processors
Processing $rem in /tmpu/appuserlic/qchem4.4/parallel-MPICH/config/preferences.
 MEM_TOTAL  2000 
FILE_GEOM_ORG=        593

Checking the input file for inconsistencies... 	...done.

--------------------------------------------------------------
User input:
--------------------------------------------------------------
$comment
OPTIMIZATION
$end

$rem
JOBTYPE OPT
EXCHANGE omegaB97X-D
BASIS cc-pVTZ
$end

$molecule
0 1
C          0.00000        0.00000        0.00000
C          1.38508        0.00000        0.00000
N         -0.72771       -1.11322        0.00000
C          2.04720       -1.21160       -0.00386
C         -0.08136       -2.27149       -0.00595
C          1.30925       -2.38901       -0.00649
C          1.96927       -3.70493        0.02329
C          3.04486       -3.95576        0.82999
C          1.55200       -4.80802       -0.77739
N          3.72631       -5.12438        0.91627
N          0.54624       -4.84522       -1.65350
C          2.26335       -6.04410       -0.69858
C          3.37925       -6.16090        0.19241
S          0.53898       -6.32692       -2.28381
N          1.78433       -6.98642       -1.50573
C          4.16725       -7.35995        0.35676
S          3.59390       -8.98145        0.16239
C          5.50151       -7.38685        0.69180
C          5.12923       -9.66813        0.52707
S          6.67275       -6.15595        1.02096
C          6.06094       -8.68598        0.79131
C          5.34760      -11.09939        0.52814
C          7.88819       -7.38795        1.28641
C          7.45513       -8.65279        1.14100
N          6.50112      -11.64537        0.78643
S          4.08593      -12.24972        0.18099
C          6.42898      -13.00463        0.71285
C          5.21558      -13.52087        0.39963
H         -0.55134        0.93273        0.00000
H          1.92494        0.93597       -0.01293
H          3.12873       -1.25416       -0.02668
H         -0.69553       -3.16348       -0.00579
H          3.41622       -3.17720        1.48423
H          8.89118       -7.08031        1.53857
H          8.05517       -9.53904        1.25878
H          7.31187      -13.59645        0.90036
H          4.93272      -14.55279        0.28755
$end

$opt
CONSTRAINT
tors 4 6 7 8 42.24575
tors 10 13 16 17 150.00000
tors 17 19 22 25 179.21698
ENDCONSTRAINT
$end
--------------------------------------------------------------
 ----------------------------------------------------------------
             Standard Nuclear Orientation (Angstroms)
    I     Atom           X                Y                Z
 ----------------------------------------------------------------
    1      C       7.5945438650     0.3437155110    -0.5008615701
    2      C       6.9415116561     1.4394517280     0.0389140159
    3      N       6.9608146896    -0.7495346189    -0.9156049826
    4      C       5.5665239957     1.3984222682     0.1577326641
    5      C       5.6402420436    -0.7790762822    -0.7947402048
    6      C       4.8815287580     0.2661825793    -0.2661614720
    7      C       3.4130328587     0.1883633460    -0.1911771006
    8      C       2.6148441575     1.2433133060    -0.5383799320
    9      C       2.7122734387    -0.9728624211     0.2475725051
   10      N       1.2605261505     1.2733891876    -0.4892961012
   11      N       3.2309055787    -2.1340718298     0.6514526386
   12      C       1.2853207959    -0.9534655757     0.3071839371
   13      C       0.5783193334     0.2291926232    -0.0855077317
   14      S       1.9896243116    -3.0792395770     1.0497704003
   15      N       0.7553165649    -2.0913682943     0.7467191272
   16      C      -0.8598049492     0.3604458374    -0.0697925664
   17      S      -1.9952149879    -0.9242630975    -0.3067296171
   18      C      -1.5419586325     1.5366520546     0.1409927420
   19      C      -3.3537192398     0.1160461640    -0.1223876205
   20      S      -1.0430419325     3.1663331753     0.4418013596
   21      C      -2.9544309037     1.4147801508     0.1150650704
   22      C      -4.7126701280    -0.3761985249    -0.2068828231
   23      C      -2.7205019654     3.6606026069     0.5278691413
   24      C      -3.6134013906     2.6721574997     0.3429038910
   25      N      -5.7583383039     0.3851848005    -0.0575852254
   26      S      -5.0966699527    -2.0471112321    -0.5170090552
   27      C      -6.9105742623    -0.3330816799    -0.1786286184
   28      C      -6.7639168772    -1.6575190858    -0.4262315974
   29      H       8.6729384590     0.3411961717    -0.6058368108
   30      H       7.5094121045     2.2965468633     0.3713788338
   31      H       5.0212706380     2.2251621170     0.5950417600
   32      H       5.1470920511    -1.6795869523    -1.1393190675
   33      H       3.0653649911     2.1591283477    -0.8994999795
   34      H      -2.9456259343     4.6973306350     0.7246689628
   35      H      -4.6843342506     2.7816310338     0.3647567427
   36      H      -7.8626430649     0.1647589997    -0.0755494379
   37      H      -7.5261820918    -2.4056028607    -0.5556649804
 ----------------------------------------------------------------
 Molecular Point Group                 C1    NOp =  1
 Largest Abelian Subgroup              C1    NOp =  1
 Nuclear Repulsion Energy =  2963.5997920502 hartrees
 There are      111 alpha and      111 beta electrons
 Requested basis set is cc-pVTZ
 There are 342 shells and 982 basis functions

 Total QAlloc Memory Limit   2000 MB
 Mega-Array Size        61 MB
 MEM_STATIC part        62 MB
 A cutoff of  1.0D-11 yielded  29212 shell pairs
 There are    231714 function pairs (    302722 Cartesian)
 
 -------------------------------------------------------
 OpenMP Integral Computing Module                       
 Release: version 1.0, May 2013, Q-Chem Inc. Pittsburgh 
 -------------------------------------------------------
 Integral Job Info:
 Integral job number is                      11
 Integral operator is                         1
 short-range coefficients              22203600
 long-range coefficients              100000000
 Omega coefficients                         200
 if combine SR and LR in K                    1
 Integral screening is                        0
 Integral computing path is                   2
 max size of driver memory is            800000
 size of driver memory is                776718
 size of scratch memory is             26248924
 max col of scratch BK array              10000
 max len of scratch array in speh3          662
 max len of scratch index in speh4           32
 max int batch size is                      520
 min int batch size is                       52
 fixed nKL is                                52
 max L of basis functions is                  3
 order of int derivative is                   0
 number of shells is                        342
 number of basis is                        1131
 number of cartesian basis is              1131
 number of contracted shell pairs         29212
 number of primitive shell pairs          92277
 maxK2 (contraction) of shell pair          121
 max number of K2 of shell pair               1
 max number of CS2 of shell pair           3971
 max number of PS2 of shell pair          11697
 mem total for path MDJ                  809088
 -------------------------------------------------------
 Smallest overlap matrix eigenvalue = 2.66E-05

 Scale SEOQF with 1.000000e-02/1.000000e-01/1.000000e-01

 Standard Electronic Orientation quadrupole field applied
 Nucleus-field energy     =     0.0000000606 hartrees
 Guess from superposition of atomic densities
 Warning:  Energy on first SCF cycle will be non-variational
 Long-range K will be added via erf
 Coulomb attenuation parameter = 0.2 bohr**(-1)
 A restricted hybrid HF-DFT SCF calculation will be
 performed using Pulay DIIS extrapolation
 Exchange:     0.2220 Hartree-Fock + 1.0000 wB97X-D + LR-HF
 Correlation:  1.0000 wB97X-D
 Using SG-2 standard quadrature grid
 Dispersion:   Grimme D
 SCF converges when DIIS error is below 1.0E-08
 using 16 threads for integral computing 
 using 16 threads for integral computing 
 K construction time:  CPU 71.07 s  wall 4.67 s
 -------------------------------------------------------
 OpenMP BLAS3 based DFT computing Module                
 Release: version 1.0, May 2013, Q-Chem Inc. Pittsburgh 
 -------------------------------------------------------
 ---------------------------------------
  Cycle       Energy         DIIS Error
 ---------------------------------------
    1   -2605.8805349619      1.87E-02
 K construction time:  CPU 1084.96 s  wall 70.80 s
    2   -2595.6547912028      1.38E-03
 K construction time:  CPU 1027.40 s  wall 67.15 s
    3   -2595.6485639912      1.52E-03
 K construction time:  CPU 981.74 s  wall 64.07 s
    4   -2595.8936129778      2.50E-04
 K construction time:  CPU 911.52 s  wall 59.46 s
    5   -2595.8994792974      1.39E-04
 K construction time:  CPU 861.90 s  wall 56.30 s
    6   -2595.9015610229      4.37E-05
 K construction time:  CPU 810.34 s  wall 52.87 s
    7   -2595.9017719667      2.06E-05
 K construction time:  CPU 765.62 s  wall 50.05 s
    8   -2595.9018308131      6.35E-06
 K construction time:  CPU 729.09 s  wall 47.62 s
    9   -2595.9018430164      3.33E-06
 K construction time:  CPU 700.80 s  wall 45.77 s
   10   -2595.9018465533      1.05E-06
 K construction time:  CPU 631.51 s  wall 41.16 s
   11   -2595.9018469451      6.73E-07
 K construction time:  CPU 584.19 s  wall 37.99 s
   12   -2595.9018470541      2.20E-07
 K construction time:  CPU 522.03 s  wall 33.95 s
   13   -2595.9018470676      1.02E-07
 K construction time:  CPU 463.97 s  wall 30.13 s
   14   -2595.9018470702      3.00E-08
 K construction time:  CPU 383.78 s  wall 24.91 s
   15   -2595.9018470708      1.32E-08
 K construction time:  CPU 1077.84 s  wall 70.47 s
   16   -2595.9018470666      4.62E-09 Convergence criterion met
 ---------------------------------------
 SCF time:  CPU 15456.79 s  wall 1031.81 s
 SCF   energy in the final basis set = -2595.9018470666
 Total energy in the final basis set = -2595.9018470666
 
 --------------------------------------------------------------
 
                    Orbital Energies (a.u.)
 --------------------------------------------------------------
 
 Alpha MOs
 -- Occupied --
-89.157 -89.095 -89.092 -89.075 -14.495 -14.489 -14.453 -14.444
-14.437 -10.374 -10.370 -10.364 -10.361 -10.345 -10.341 -10.340
-10.334 -10.329 -10.328 -10.328 -10.327 -10.327 -10.324 -10.319
-10.316 -10.314 -10.303 -10.296  -8.167  -8.110  -8.107  -8.090
 -6.117  -6.111  -6.110  -6.059  -6.056  -6.055  -6.053  -6.053
 -6.050  -6.039  -6.035  -6.032  -1.153  -1.083  -1.074  -1.055
 -1.024  -1.016  -0.957  -0.947  -0.912  -0.911  -0.907  -0.885
 -0.862  -0.845  -0.830  -0.808  -0.776  -0.753  -0.745  -0.729
 -0.724  -0.694  -0.688  -0.679  -0.648  -0.641  -0.624  -0.622
 -0.609  -0.598  -0.584  -0.578  -0.571  -0.568  -0.541  -0.535
 -0.527  -0.523  -0.518  -0.514  -0.511  -0.504  -0.498  -0.494
 -0.488  -0.481  -0.475  -0.465  -0.457  -0.446  -0.437  -0.434
 -0.429  -0.425  -0.405  -0.395  -0.383  -0.372  -0.372  -0.369
 -0.366  -0.358  -0.344  -0.336  -0.326  -0.320  -0.269
 -- Virtual --
 -0.055  -0.013   0.025   0.037   0.044   0.056   0.064   0.065
  0.074   0.098   0.106   0.108   0.116   0.120   0.131   0.133
  0.142   0.146   0.150   0.165   0.168   0.169   0.171   0.177
  0.190   0.196   0.199   0.212   0.214   0.226   0.231   0.245
  0.253   0.254   0.260   0.267   0.272   0.274   0.288   0.290
  0.296   0.297   0.301   0.307   0.311   0.316   0.316   0.328
  0.329   0.333   0.334   0.339   0.344   0.346   0.351   0.357
  0.362   0.366   0.369   0.373   0.378   0.383   0.385   0.386
  0.390   0.393   0.399   0.402   0.404   0.406   0.410   0.411
  0.418   0.421   0.426   0.429   0.434   0.435   0.438   0.443
  0.447   0.451   0.454   0.457   0.459   0.462   0.465   0.467
  0.469   0.471   0.474   0.477   0.482   0.485   0.489   0.490
  0.492   0.499   0.501   0.504   0.507   0.514   0.516   0.522
  0.523   0.527   0.534   0.541   0.546   0.547   0.549   0.551
  0.553   0.563   0.579   0.582   0.585   0.589   0.592   0.594
  0.603   0.611   0.619   0.628   0.631   0.636   0.643   0.650
  0.654   0.655   0.662   0.664   0.666   0.675   0.681   0.682
  0.684   0.692   0.695   0.699   0.708   0.716   0.720   0.727
  0.731   0.736   0.737   0.739   0.745   0.750   0.761   0.764
  0.768   0.773   0.775   0.778   0.779   0.787   0.791   0.792
  0.799   0.803   0.809   0.816   0.818   0.824   0.826   0.831
  0.832   0.843   0.846   0.852   0.855   0.862   0.867   0.870
  0.874   0.879   0.885   0.890   0.895   0.897   0.909   0.912
  0.918   0.920   0.930   0.932   0.937   0.941   0.943   0.951
  0.955   0.959   0.967   0.971   0.976   0.979   0.984   0.988
  0.993   1.000   1.010   1.014   1.022   1.024   1.030   1.036
  1.040   1.052   1.055   1.058   1.063   1.064   1.068   1.072
  1.084   1.088   1.095   1.101   1.105   1.110   1.119   1.121
  1.138   1.139   1.142   1.152   1.156   1.166   1.167   1.175
  1.180   1.188   1.191   1.193   1.205   1.211   1.219   1.224
  1.227   1.238   1.240   1.254   1.259   1.265   1.270   1.272
  1.279   1.290   1.296   1.301   1.308   1.314   1.323   1.328
  1.348   1.351   1.353   1.357   1.364   1.374   1.378   1.383
  1.388   1.397   1.402   1.415   1.419   1.424   1.431   1.438
  1.439   1.446   1.449   1.453   1.459   1.473   1.483   1.486
  1.492   1.502   1.513   1.518   1.526   1.532   1.534   1.541
  1.551   1.559   1.562   1.570   1.580   1.587   1.591   1.594
  1.598   1.609   1.616   1.622   1.624   1.630   1.638   1.648
  1.655   1.658   1.659   1.666   1.670   1.678   1.680   1.686
  1.694   1.698   1.703   1.703   1.715   1.718   1.725   1.734
  1.744   1.748   1.757   1.771   1.774   1.777   1.778   1.789
  1.798   1.807   1.818   1.820   1.829   1.832   1.859   1.870
  1.878   1.881   1.883   1.890   1.900   1.907   1.918   1.923
  1.929   1.940   1.947   1.954   1.960   1.970   1.977   1.979
  1.990   1.998   2.003   2.010   2.013   2.021   2.028   2.034
  2.048   2.061   2.068   2.073   2.075   2.084   2.088   2.106
  2.114   2.118   2.129   2.136   2.147   2.160   2.162   2.173
  2.177   2.187   2.189   2.196   2.204   2.223   2.230   2.234
  2.239   2.245   2.256   2.257   2.268   2.270   2.282   2.285
  2.298   2.304   2.316   2.343   2.349   2.354   2.360   2.365
  2.369   2.378   2.383   2.390   2.393   2.398   2.404   2.409
  2.423   2.432   2.432   2.439   2.443   2.451   2.455   2.462
  2.469   2.476   2.484   2.493   2.501   2.508   2.511   2.520
  2.525   2.529   2.536   2.542   2.552   2.561   2.568   2.581
  2.589   2.596   2.603   2.613   2.616   2.616   2.622   2.631
  2.634   2.649   2.657   2.660   2.668   2.674   2.679   2.697
  2.709   2.716   2.735   2.751   2.754   2.764   2.770   2.775
  2.779   2.781   2.790   2.793   2.795   2.797   2.804   2.812
  2.819   2.826   2.841   2.848   2.852   2.862   2.874   2.876
  2.884   2.891   2.901   2.912   2.915   2.928   2.935   2.939
  2.944   2.947   2.950   2.954   2.957   2.966   2.974   2.976
  2.980   2.988   2.997   3.002   3.010   3.014   3.022   3.025
  3.031   3.034   3.041   3.054   3.059   3.061   3.065   3.071
  3.076   3.078   3.087   3.089   3.092   3.099   3.100   3.106
  3.113   3.116   3.122   3.127   3.128   3.133   3.135   3.141
  3.148   3.159   3.162   3.167   3.171   3.179   3.181   3.183
  3.187   3.190   3.193   3.198   3.200   3.204   3.206   3.209
  3.218   3.221   3.224   3.228   3.236   3.241   3.244   3.250
  3.255   3.258   3.263   3.269   3.270   3.274   3.279   3.281
  3.291   3.296   3.299   3.301   3.311   3.320   3.325   3.331
  3.333   3.342   3.346   3.349   3.352   3.365   3.368   3.373
  3.376   3.382   3.389   3.395   3.404   3.409   3.415   3.419
  3.420   3.430   3.443   3.450   3.455   3.459   3.464   3.477
  3.480   3.481   3.485   3.490   3.496   3.500   3.506   3.514
  3.518   3.524   3.534   3.539   3.547   3.555   3.564   3.570
  3.583   3.586   3.591   3.594   3.601   3.613   3.624   3.634
  3.638   3.648   3.654   3.661   3.676   3.680   3.684   3.691
  3.694   3.710   3.712   3.731   3.740   3.749   3.758   3.764
  3.771   3.777   3.785   3.788   3.800   3.805   3.806   3.816
  3.824   3.831   3.839   3.843   3.852   3.854   3.862   3.865
  3.874   3.879   3.885   3.900   3.918   3.922   3.928   3.934
  3.945   3.946   3.948   3.954   3.963   3.967   3.970   3.980
  3.986   3.991   3.998   4.006   4.014   4.029   4.037   4.045
  4.055   4.067   4.073   4.081   4.089   4.095   4.106   4.117
  4.127   4.138   4.139   4.152   4.171   4.174   4.181   4.187
  4.190   4.193   4.202   4.206   4.218   4.226   4.236   4.242
  4.259   4.271   4.275   4.282   4.283   4.292   4.311   4.315
  4.326   4.336   4.346   4.356   4.362   4.374   4.384   4.386
  4.398   4.402   4.415   4.423   4.431   4.443   4.450   4.457
  4.468   4.471   4.479   4.493   4.501   4.517   4.527   4.533
  4.547   4.553   4.562   4.572   4.575   4.586   4.596   4.606
  4.618   4.633   4.638   4.645   4.658   4.672   4.678   4.690
  4.694   4.713   4.723   4.745   4.751   4.775   4.789   4.794
  4.815   4.818   4.836   4.839   4.847   4.849   4.850   4.863
  4.878   4.882   4.906   4.933   4.935   4.939   4.942   4.950
  4.955   4.964   4.968   4.973   4.978   4.988   5.001   5.010
  5.015   5.033   5.039   5.050   5.063   5.071   5.091   5.096
  5.108   5.126   5.129   5.139   5.164   5.170   5.172   5.196
  5.202   5.228   5.235   5.241   5.251   5.260   5.280   5.283
  5.310   5.315   5.334   5.339   5.343   5.369   5.402   5.413
  5.420   5.441   5.455   5.460   5.471   5.486   5.509   5.529
  5.531   5.540   5.563   5.587   5.606   5.652   5.658   5.663
  5.692   5.701   5.712   5.725   5.756   5.767   5.784   5.817
  5.850   5.881   5.889   5.931   5.942   5.982   6.008   6.091
  6.126   6.134   6.159   6.183   6.193   6.217   6.245   6.310
  6.339   6.348   6.393   6.402   6.483   6.844   7.017   7.940
  8.834   9.749  10.150  10.914  11.140  11.198  11.658  11.978
 12.229  12.505  12.573  12.800  12.870  13.086  13.159  13.337
 13.533  13.548  13.824  13.871  14.255  14.672  14.997
 --------------------------------------------------------------
 
          Ground-State Mulliken Net Atomic Charges

     Atom                 Charge (a.u.)
  ----------------------------------------
      1 C                    -0.072735
      2 C                    -0.101723
      3 N                    -0.155218
      4 C                    -0.157976
      5 C                    -0.093542
      6 C                     0.110821
      7 C                     0.034580
      8 C                    -0.097629
      9 C                     0.032409
     10 N                    -0.174005
     11 N                    -0.278720
     12 C                     0.005068
     13 C                     0.067624
     14 S                     0.417442
     15 N                    -0.269613
     16 C                    -0.011867
     17 S                     0.132745
     18 C                    -0.018934
     19 C                    -0.027545
     20 S                     0.080576
     21 C                     0.031369
     22 C                     0.034809
     23 C                    -0.154730
     24 C                    -0.165833
     25 N                    -0.184511
     26 S                     0.098712
     27 C                    -0.076406
     28 C                    -0.202179
     29 H                     0.124636
     30 H                     0.129572
     31 H                     0.132170
     32 H                     0.128242
     33 H                     0.134141
     34 H                     0.130884
     35 H                     0.143607
     36 H                     0.129284
     37 H                     0.144476
  ----------------------------------------
  Sum of atomic charges =     0.000000

 -----------------------------------------------------------------
                    Cartesian Multipole Moments
 -----------------------------------------------------------------
    Charge (ESU x 10^10)
                 0.0000
    Dipole Moment (Debye)
         X      -1.5728      Y       0.4461      Z       0.9669
       Tot       1.8994
    Quadrupole Moments (Debye-Ang)
        XX    -168.7186     XY      18.6932     YY    -170.9767
        XZ       6.7360     YZ       2.2132     ZZ    -189.5089
    Octopole Moments (Debye-Ang^2)
       XXX    -212.1969    XXY      66.3212    XYY     -26.2680
       YYY       4.6379    XXZ      29.0835    XYZ     -14.9803
       YYZ      16.9534    XZZ      -0.0852    YZZ     -11.6975
       ZZZ       7.0457
    Hexadecapole Moments (Debye-Ang^3)
      XXXX  -17305.0603   XXXY    1286.5458   XXYY   -3561.3904
      XYYY     -56.1845   YYYY   -3415.2588   XXXZ     385.2157
      XXYZ      41.0471   XYYZ      30.5774   YYYZ      29.5249
      XXZZ   -3486.2223   XYZZ      -2.4773   YYZZ    -717.6111
      XZZZ      25.5287   YZZZ     -23.7788   ZZZZ    -495.6106
 -----------------------------------------------------------------
 Calculating analytic gradient of the SCF energy
 K construction time:  CPU 2817.08 s  wall 177.98 s
 Gradient of SCF Energy
            1           2           3           4           5           6
    1   0.0014122  -0.0025260   0.0003786   0.0018628  -0.0002210  -0.0001745
    2   0.0004961  -0.0002032   0.0000910  -0.0004017   0.0001891   0.0010033
    3   0.0004771  -0.0003767  -0.0000829  -0.0006976  -0.0005190   0.0012572
            7           8           9          10          11          12
    1   0.0000133  -0.0000895  -0.0004274   0.0013129  -0.0008360   0.0007857
    2   0.0007719  -0.0007585   0.0000708   0.0007405  -0.0002288   0.0004437
    3  -0.0001040  -0.0028012  -0.0000541  -0.0033533   0.0001758   0.0025948
           13          14          15          16          17          18
    1  -0.0068370   0.0009144   0.0008265   0.0077662  -0.0030094  -0.0016199
    2   0.0001886  -0.0017661   0.0018723  -0.0024500  -0.0020658   0.0029430
    3   0.0062895   0.0002657  -0.0005188  -0.0051302  -0.0036425   0.0040393
           19          20          21          22          23          24
    1   0.0007072   0.0013587   0.0007242   0.0002457   0.0008068  -0.0012459
    2   0.0006898  -0.0021182   0.0005780   0.0002182  -0.0005115   0.0019118
    3   0.0009981   0.0020944  -0.0000180   0.0007219  -0.0024114  -0.0001397
           25          26          27          28          29          30
    1   0.0001916   0.0000633   0.0004843  -0.0002097  -0.0001806   0.0006452
    2  -0.0000281  -0.0008292   0.0010531   0.0000746  -0.0000045  -0.0005375
    3  -0.0003306  -0.0005487   0.0000821  -0.0000038  -0.0000840   0.0000960
           31          32          33          34          35          36
    1  -0.0008770  -0.0006198  -0.0006020  -0.0006338   0.0001489  -0.0004017
    2  -0.0002022   0.0000431   0.0000905   0.0002679  -0.0008424  -0.0007284
    3   0.0000096   0.0002136   0.0006195   0.0002855   0.0002185   0.0000601
           37
    1  -0.0001376
    2  -0.0000612
    3   0.0003177
 Max gradient component =       7.766E-03
 RMS gradient           =       1.705E-03
 Gradient time:  CPU 3258.28 s  wall 207.54 s
 Geometry Optimization Parameters
   NAtoms,    NIC,     NZ,  NCons,   NDum,   NFix, NCnnct, MaxDiis
       37     280       0       3       0       0       0       0


** CONSTRAINED OPTIMIZATION IN DELOCALIZED INTERNAL COORDINATES **
   Searching for a Minimum

   Optimization Cycle:   1

                       Coordinates (Angstroms)
     ATOM                X               Y               Z
      1  C         7.5945438650    0.3437155110   -0.5008615701
      2  C         6.9415116561    1.4394517280    0.0389140159
      3  N         6.9608146896   -0.7495346189   -0.9156049826
      4  C         5.5665239957    1.3984222682    0.1577326641
      5  C         5.6402420436   -0.7790762822   -0.7947402048
      6  C         4.8815287580    0.2661825793   -0.2661614720
      7  C         3.4130328587    0.1883633460   -0.1911771006
      8  C         2.6148441575    1.2433133060   -0.5383799320
      9  C         2.7122734387   -0.9728624211    0.2475725051
     10  N         1.2605261505    1.2733891876   -0.4892961012
     11  N         3.2309055787   -2.1340718298    0.6514526386
     12  C         1.2853207959   -0.9534655757    0.3071839371
     13  C         0.5783193334    0.2291926232   -0.0855077317
     14  S         1.9896243116   -3.0792395770    1.0497704003
     15  N         0.7553165649   -2.0913682943    0.7467191272
     16  C        -0.8598049492    0.3604458374   -0.0697925664
     17  S        -1.9952149879   -0.9242630975   -0.3067296171
     18  C        -1.5419586325    1.5366520546    0.1409927420
     19  C        -3.3537192398    0.1160461640   -0.1223876205
     20  S        -1.0430419325    3.1663331753    0.4418013596
     21  C        -2.9544309037    1.4147801508    0.1150650704
     22  C        -4.7126701280   -0.3761985249   -0.2068828231
     23  C        -2.7205019654    3.6606026069    0.5278691413
     24  C        -3.6134013906    2.6721574997    0.3429038910
     25  N        -5.7583383039    0.3851848005   -0.0575852254
     26  S        -5.0966699527   -2.0471112321   -0.5170090552
     27  C        -6.9105742623   -0.3330816799   -0.1786286184
     28  C        -6.7639168772   -1.6575190858   -0.4262315974
     29  H         8.6729384590    0.3411961717   -0.6058368108
     30  H         7.5094121045    2.2965468633    0.3713788338
     31  H         5.0212706380    2.2251621170    0.5950417600
     32  H         5.1470920511   -1.6795869523   -1.1393190675
     33  H         3.0653649911    2.1591283477   -0.8994999795
     34  H        -2.9456259343    4.6973306350    0.7246689628
     35  H        -4.6843342506    2.7816310338    0.3647567427
     36  H        -7.8626430649    0.1647589997   -0.0755494379
     37  H        -7.5261820918   -2.4056028607   -0.5556649804
   Point Group: c1    Number of degrees of freedom:   105


   Energy is  -2595.901847067

              Constraints and their Current Values
                                        Value     Constraint
   Dihedral:        4   6   7   8       42.189       42.246
   Dihedral:       10  13  16  17      150.000      150.000
   Dihedral:       17  19  22  25      179.258      179.217

 Attempting to Generate Delocalized Internal Coordinates

   Using Lagrange Multiplier Algorithm


108 Hessian modes will be used to form the next step
  Hessian Eigenvalues:
    -0.977753   -0.977753   -0.977753    0.045000    0.045000    0.045000
     0.045000    0.045000    0.045000    0.045000    0.045000    0.045000
     0.045000    0.045000    0.045000    0.045000    0.045000    0.045000
     0.045000    0.045000    0.045000    0.045000    0.045000    0.045000
     0.045001    0.045001    0.045001    0.045001    0.045001    0.045003
     0.045005    0.045007    0.045009    0.045012    0.159961    0.159984
     0.159995    0.159997    0.159998    0.159999    0.160000    0.160000
     0.160000    0.220002    0.224572    0.225458    0.231978    0.233022
     0.234404    0.247446    0.247715    0.249914    0.249956    0.249989
     0.249992    0.249998    0.249998    0.249998    0.249999    0.249999
     0.249999    0.250000    0.250000    0.297526    0.305120    0.316326
     0.317281    0.326680    0.334469    0.354466    0.355754    0.356364
     0.356781    0.356811    0.359242    0.360781    0.361168    0.363917
     0.365017    0.372838    0.385315    0.386486    0.390167    0.393199
     0.397179    0.410394    0.431175    0.455299    0.463149    0.473302
     0.473331    0.475009    0.483101    0.491308    0.496878    0.499399
     0.517632    0.525704    0.538147    0.558610    0.574891    0.584500
     0.591081    0.623467    0.638977    1.022753    1.022753    1.022753

 Minimum Search - Taking P-RFO Step
 Searching for Lamda that Maximizes Along the Constraint modes Only
 Value Taken    Lamda =   0.00004619
 Searching for Lamda that Minimizes Along All other modes
 Value Taken    Lamda =  -0.00146551
 Step Taken.  Stepsize is  0.132701

                             Maximum     Tolerance    Cnvgd?
         Gradient            0.009457       0.000300      NO
         Displacement        0.045136       0.001200      NO
         Energy change     *********       0.000001      NO


 New Cartesian Coordinates Obtained by Inverse Iteration

 Displacement from previous Coordinates is:  0.755365
 ----------------------------------------------------------------
             Standard Nuclear Orientation (Angstroms)
    I     Atom           X                Y                Z
 ----------------------------------------------------------------
    1      C       7.6005248360     0.2802604373    -0.5271431790
    2      C       6.9761770048     1.3826315492     0.0327913942
    3      N       6.9428465424    -0.7961895565    -0.9475498400
    4      C       5.6006411379     1.3659569813     0.1641781683
    5      C       5.6237447145    -0.8021157603    -0.8154646268
    6      C       4.8896931177     0.2521908802    -0.2695802005
    7      C       3.4202050664     0.2036891528    -0.1819693869
    8      C       2.6388215365     1.2787615538    -0.5081773187
    9      C       2.7014505197    -0.9492532010     0.2450945047
   10      N       1.2837898531     1.3325907842    -0.4572532268
   11      N       3.2013323619    -2.1245642282     0.6296842580
   12      C       1.2754087748    -0.9029587607     0.3136219107
   13      C       0.5886000131     0.2983610056    -0.0548450586
   14      S       1.9420965043    -3.0467556068     1.0260378575
   15      N       0.7236156347    -2.0356464680     0.7425748115
   16      C      -0.8564547789     0.4296603789    -0.0163114093
   17      S      -1.9607446637    -0.8760606015    -0.2506300224
   18      C      -1.5629166013     1.5951291374     0.1602009559
   19      C      -3.3454438875     0.1316294207    -0.0943635048
   20      S      -1.1087266427     3.2484130453     0.4129964804
   21      C      -2.9740319606     1.4394678319     0.1351022990
   22      C      -4.6930106154    -0.3890243716    -0.1928838392
   23      C      -2.7961888736     3.6965719738     0.5234668214
   24      C      -3.6622642899     2.6827190780     0.3501645089
   25      N      -5.7564527351     0.3510346530    -0.0634416559
   26      S      -5.0379125759    -2.0684547615    -0.4957460984
   27      C      -6.8917530050    -0.3904159027    -0.2035239577
   28      C      -6.7139992877    -1.7124280572    -0.4431808136
   29      H       8.6778705497     0.2578880700    -0.6426333763
   30      H       7.5596852134     2.2279920036     0.3685224742
   31      H       5.0803162572     2.2002368384     0.6162179685
   32      H       5.1141735506    -1.6898310024    -1.1684320105
   33      H       3.1073305702     2.1860384494    -0.8696454216
   34      H      -3.0440662059     4.7304885060     0.7034706898
   35      H      -4.7355257924     2.7708465674     0.3705531200
   36      H      -7.8527574097     0.0941770892    -0.1230612298
   37      H      -7.4576968594    -2.4760321347    -0.5878647489
 ----------------------------------------------------------------
 Molecular Point Group                 C1    NOp =  1
 Largest Abelian Subgroup              C1    NOp =  1
 Nuclear Repulsion Energy =  2963.9318173072 hartrees
 There are      111 alpha and      111 beta electrons
 Applying Cartesian multipole field
    Component          Value
    ---------          -----
     (2,0,0)        1.00000E-12
     (0,2,0)        2.00000E-11
     (0,0,2)       -3.00000E-11
 Nucleus-field energy     =     0.0000000613 hartrees
 Requested basis set is cc-pVTZ
 There are 342 shells and 982 basis functions
 A cutoff of  1.0D-11 yielded  29209 shell pairs
 There are    231597 function pairs (    302525 Cartesian)
 Smallest overlap matrix eigenvalue = 2.49E-05
 Guess MOs from SCF MO coefficient file
 Reading MOs from coefficient file
 Reading MOs from coefficient file
 Long-range K will be added via erf
 Coulomb attenuation parameter = 0.2 bohr**(-1)
 A restricted hybrid HF-DFT SCF calculation will be
 performed using Pulay DIIS extrapolation
 Exchange:     0.2220 Hartree-Fock + 1.0000 wB97X-D + LR-HF
 Correlation:  1.0000 wB97X-D
 Using SG-2 standard quadrature grid
 Dispersion:   Grimme D
 SCF converges when DIIS error is below 1.0E-08
 Geometry optimization detected.  Setting ReadMinima to 0
 Setting SaveMinima to 0
 using 16 threads for integral computing 
 using 16 threads for integral computing 
 K construction time:  CPU 1078.73 s  wall 70.38 s
 -------------------------------------------------------
 OpenMP BLAS3 based DFT computing Module                
 Release: version 1.0, May 2013, Q-Chem Inc. Pittsburgh 
 -------------------------------------------------------
 ---------------------------------------
  Cycle       Energy         DIIS Error
 ---------------------------------------
    1   -2595.8997890723      4.19E-04
 K construction time:  CPU 1078.45 s  wall 70.41 s
    2   -2595.9022496374      4.51E-05
 K construction time:  CPU 837.09 s  wall 54.65 s
    3   -2595.9024643514      4.50E-05
 K construction time:  CPU 790.93 s  wall 51.57 s
    4   -2595.9026705400      1.45E-05
 K construction time:  CPU 739.66 s  wall 48.25 s
    5   -2595.9026949322      7.11E-06
 K construction time:  CPU 687.49 s  wall 44.83 s
    6   -2595.9027010524      2.17E-06
 K construction time:  CPU 626.42 s  wall 40.84 s
    7   -2595.9027017547      8.03E-07
 K construction time:  CPU 574.58 s  wall 37.37 s
    8   -2595.9027018664      3.94E-07
 K construction time:  CPU 529.98 s  wall 34.58 s
    9   -2595.9027018988      1.32E-07
 K construction time:  CPU 463.64 s  wall 30.04 s
   10   -2595.9027019036      5.47E-08
 K construction time:  CPU 411.77 s  wall 26.77 s
   11   -2595.9027019063      2.34E-08
 K construction time:  CPU 364.40 s  wall 23.60 s
   12   -2595.9027019074      1.02E-08
 K construction time:  CPU 296.32 s  wall 19.26 s
   13   -2595.9027019139      3.35E-09 Convergence criterion met
 ---------------------------------------
 SCF time:  CPU 11425.79 s  wall 762.43 s
 SCF   energy in the final basis set = -2595.9027019139
 Total energy in the final basis set = -2595.9027019139
 
 --------------------------------------------------------------
 
                    Orbital Energies (a.u.)
 --------------------------------------------------------------
 
 Alpha MOs
 -- Occupied --
-89.157 -89.094 -89.092 -89.075 -14.495 -14.489 -14.454 -14.444
-14.437 -10.374 -10.371 -10.364 -10.361 -10.344 -10.341 -10.341
-10.335 -10.329 -10.328 -10.328 -10.327 -10.327 -10.324 -10.320
-10.316 -10.314 -10.304 -10.296  -8.167  -8.109  -8.107  -8.090
 -6.117  -6.111  -6.111  -6.058  -6.056  -6.055  -6.053  -6.052
 -6.050  -6.039  -6.035  -6.032  -1.154  -1.083  -1.073  -1.056
 -1.024  -1.017  -0.957  -0.947  -0.912  -0.911  -0.907  -0.885
 -0.862  -0.845  -0.830  -0.807  -0.776  -0.753  -0.745  -0.729
 -0.724  -0.695  -0.689  -0.679  -0.648  -0.641  -0.624  -0.622
 -0.609  -0.598  -0.584  -0.578  -0.571  -0.568  -0.541  -0.535
 -0.527  -0.523  -0.518  -0.514  -0.512  -0.504  -0.498  -0.494
 -0.488  -0.481  -0.475  -0.465  -0.457  -0.447  -0.437  -0.434
 -0.429  -0.424  -0.405  -0.395  -0.384  -0.372  -0.371  -0.369
 -0.366  -0.359  -0.344  -0.336  -0.325  -0.320  -0.269
 -- Virtual --
 -0.055  -0.012   0.025   0.037   0.044   0.057   0.064   0.065
  0.075   0.098   0.106   0.109   0.117   0.120   0.131   0.133
  0.142   0.146   0.150   0.165   0.168   0.169   0.171   0.177
  0.190   0.196   0.199   0.211   0.214   0.226   0.232   0.246
  0.253   0.254   0.260   0.267   0.272   0.274   0.287   0.290
  0.296   0.298   0.300   0.307   0.312   0.315   0.317   0.328
  0.329   0.333   0.334   0.339   0.343   0.347   0.351   0.357
  0.362   0.366   0.369   0.374   0.378   0.382   0.385   0.386
  0.391   0.394   0.399   0.401   0.404   0.407   0.410   0.411
  0.417   0.422   0.426   0.428   0.434   0.435   0.439   0.442
  0.448   0.451   0.454   0.457   0.459   0.461   0.465   0.468
  0.468   0.471   0.474   0.478   0.482   0.485   0.489   0.490
  0.492   0.499   0.501   0.504   0.506   0.514   0.517   0.522
  0.523   0.527   0.533   0.541   0.546   0.547   0.549   0.552
  0.553   0.561   0.578   0.581   0.585   0.589   0.592   0.594
  0.604   0.610   0.620   0.627   0.630   0.637   0.644   0.651
  0.654   0.655   0.661   0.665   0.668   0.676   0.680   0.683
  0.685   0.692   0.696   0.700   0.708   0.716   0.720   0.728
  0.730   0.736   0.738   0.740   0.746   0.750   0.762   0.765
  0.768   0.774   0.775   0.777   0.779   0.789   0.791   0.792
  0.800   0.805   0.810   0.817   0.819   0.824   0.825   0.831
  0.832   0.842   0.847   0.852   0.855   0.863   0.868   0.871
  0.873   0.880   0.885   0.894   0.895   0.896   0.908   0.911
  0.918   0.919   0.928   0.932   0.937   0.940   0.943   0.950
  0.954   0.958   0.969   0.972   0.976   0.982   0.984   0.988
  0.993   1.000   1.006   1.013   1.022   1.025   1.030   1.035
  1.041   1.051   1.055   1.058   1.062   1.065   1.068   1.072
  1.085   1.088   1.095   1.101   1.104   1.109   1.118   1.123
  1.137   1.139   1.143   1.151   1.156   1.166   1.170   1.174
  1.179   1.188   1.191   1.193   1.205   1.213   1.217   1.225
  1.228   1.238   1.241   1.252   1.261   1.264   1.269   1.273
  1.279   1.290   1.297   1.301   1.308   1.313   1.322   1.331
  1.345   1.349   1.353   1.356   1.364   1.374   1.378   1.383
  1.389   1.397   1.402   1.415   1.419   1.424   1.432   1.437
  1.440   1.446   1.449   1.453   1.459   1.472   1.485   1.487
  1.492   1.501   1.512   1.521   1.525   1.532   1.533   1.541
  1.552   1.560   1.562   1.570   1.580   1.588   1.590   1.594
  1.597   1.609   1.616   1.622   1.626   1.632   1.639   1.649
  1.655   1.657   1.660   1.667   1.669   1.678   1.681   1.684
  1.694   1.698   1.701   1.703   1.712   1.716   1.724   1.734
  1.746   1.748   1.758   1.770   1.773   1.775   1.782   1.790
  1.801   1.805   1.817   1.819   1.831   1.834   1.859   1.871
  1.878   1.882   1.883   1.890   1.902   1.907   1.919   1.923
  1.930   1.938   1.946   1.955   1.959   1.971   1.976   1.979
  1.990   2.000   2.004   2.011   2.012   2.021   2.029   2.034
  2.049   2.061   2.067   2.074   2.075   2.083   2.087   2.107
  2.113   2.119   2.129   2.136   2.148   2.157   2.162   2.173
  2.176   2.188   2.191   2.194   2.205   2.222   2.231   2.236
  2.238   2.245   2.256   2.257   2.266   2.270   2.282   2.285
  2.297   2.304   2.318   2.344   2.349   2.356   2.359   2.363
  2.369   2.379   2.383   2.388   2.393   2.399   2.404   2.410
  2.422   2.429   2.434   2.439   2.444   2.451   2.456   2.461
  2.468   2.477   2.484   2.493   2.500   2.509   2.513   2.520
  2.527   2.531   2.536   2.542   2.551   2.563   2.568   2.578
  2.588   2.595   2.603   2.615   2.616   2.617   2.623   2.631
  2.632   2.650   2.656   2.661   2.668   2.673   2.680   2.696
  2.707   2.715   2.735   2.750   2.752   2.763   2.770   2.776
  2.779   2.780   2.791   2.793   2.794   2.798   2.804   2.811
  2.819   2.826   2.842   2.848   2.853   2.863   2.874   2.876
  2.884   2.890   2.901   2.912   2.914   2.926   2.935   2.938
  2.943   2.947   2.951   2.955   2.957   2.964   2.974   2.976
  2.980   2.988   2.997   3.000   3.011   3.014   3.022   3.027
  3.028   3.032   3.041   3.055   3.060   3.062   3.064   3.070
  3.075   3.078   3.086   3.088   3.092   3.099   3.100   3.107
  3.113   3.117   3.121   3.127   3.128   3.131   3.135   3.140
  3.148   3.159   3.163   3.168   3.171   3.179   3.180   3.182
  3.185   3.190   3.193   3.197   3.201   3.204   3.205   3.210
  3.219   3.221   3.224   3.227   3.235   3.242   3.244   3.250
  3.256   3.258   3.262   3.268   3.270   3.274   3.277   3.280
  3.290   3.296   3.298   3.302   3.309   3.317   3.324   3.331
  3.333   3.341   3.346   3.349   3.354   3.364   3.367   3.373
  3.376   3.381   3.388   3.393   3.404   3.409   3.414   3.419
  3.420   3.430   3.443   3.449   3.454   3.460   3.464   3.476
  3.480   3.481   3.484   3.491   3.497   3.500   3.507   3.514
  3.519   3.522   3.534   3.542   3.547   3.558   3.566   3.568
  3.583   3.585   3.592   3.594   3.601   3.612   3.620   3.634
  3.636   3.647   3.654   3.661   3.674   3.681   3.686   3.692
  3.693   3.710   3.714   3.733   3.739   3.749   3.757   3.763
  3.771   3.777   3.782   3.788   3.802   3.804   3.806   3.815
  3.823   3.830   3.837   3.843   3.852   3.854   3.862   3.865
  3.873   3.879   3.886   3.900   3.918   3.920   3.927   3.934
  3.943   3.947   3.949   3.953   3.962   3.968   3.969   3.980
  3.986   3.990   3.998   4.005   4.016   4.027   4.035   4.046
  4.056   4.066   4.072   4.081   4.087   4.093   4.107   4.116
  4.128   4.137   4.139   4.152   4.170   4.174   4.181   4.188
  4.191   4.192   4.202   4.206   4.220   4.224   4.235   4.242
  4.258   4.270   4.274   4.281   4.284   4.288   4.308   4.314
  4.323   4.335   4.344   4.355   4.359   4.374   4.383   4.386
  4.397   4.402   4.415   4.423   4.430   4.442   4.450   4.455
  4.468   4.471   4.480   4.493   4.502   4.517   4.527   4.532
  4.545   4.552   4.563   4.570   4.573   4.586   4.597   4.605
  4.618   4.635   4.641   4.645   4.658   4.673   4.682   4.690
  4.694   4.713   4.723   4.746   4.750   4.775   4.787   4.792
  4.813   4.818   4.836   4.839   4.846   4.849   4.851   4.863
  4.879   4.882   4.905   4.931   4.934   4.939   4.942   4.951
  4.954   4.964   4.967   4.976   4.977   4.989   5.000   5.009
  5.015   5.031   5.040   5.051   5.060   5.072   5.092   5.095
  5.108   5.124   5.129   5.140   5.163   5.170   5.173   5.194
  5.202   5.231   5.235   5.240   5.250   5.259   5.281   5.284
  5.309   5.314   5.333   5.337   5.343   5.370   5.399   5.412
  5.420   5.441   5.456   5.461   5.471   5.487   5.510   5.529
  5.532   5.542   5.559   5.584   5.608   5.652   5.658   5.664
  5.692   5.701   5.712   5.727   5.753   5.769   5.787   5.817
  5.848   5.877   5.888   5.933   5.943   5.984   6.012   6.091
  6.130   6.138   6.158   6.181   6.191   6.218   6.253   6.308
  6.340   6.350   6.396   6.401   6.480   6.843   7.018   7.955
  8.832   9.750  10.144  10.905  11.145  11.205  11.637  11.975
 12.213  12.499  12.565  12.802  12.872  13.068  13.149  13.350
 13.531  13.539  13.831  13.865  14.262  14.674  14.987
 --------------------------------------------------------------
 
          Ground-State Mulliken Net Atomic Charges

     Atom                 Charge (a.u.)
  ----------------------------------------
      1 C                    -0.072602
      2 C                    -0.102108
      3 N                    -0.154803
      4 C                    -0.157896
      5 C                    -0.094186
      6 C                     0.109225
      7 C                     0.034655
      8 C                    -0.095105
      9 C                     0.032205
     10 N                    -0.174477
     11 N                    -0.277948
     12 C                     0.009312
     13 C                     0.073411
     14 S                     0.416139
     15 N                    -0.271475
     16 C                    -0.016799
     17 S                     0.133507
     18 C                    -0.026304
     19 C                    -0.029459
     20 S                     0.080374
     21 C                     0.034961
     22 C                     0.035349
     23 C                    -0.155913
     24 C                    -0.165420
     25 N                    -0.184479
     26 S                     0.099179
     27 C                    -0.075953
     28 C                    -0.202208
     29 H                     0.124514
     30 H                     0.129899
     31 H                     0.132155
     32 H                     0.128673
     33 H                     0.134741
     34 H                     0.131412
     35 H                     0.143883
     36 H                     0.129252
     37 H                     0.144288
  ----------------------------------------
  Sum of atomic charges =     0.000000

 -----------------------------------------------------------------
                    Cartesian Multipole Moments
 -----------------------------------------------------------------
    Charge (ESU x 10^10)
                 0.0000
    Dipole Moment (Debye)
         X      -1.5223      Y       0.3882      Z       0.9443
       Tot       1.8330
    Quadrupole Moments (Debye-Ang)
        XX    -168.2366     XY      18.8426     YY    -171.2651
        XZ       7.0949     YZ       2.1033     ZZ    -189.5447
    Octopole Moments (Debye-Ang^2)
       XXX    -199.0083    XXY      64.5596    XYY     -30.5350
       YYY      -2.4622    XXZ      27.5103    XYZ     -15.4352
       YYZ      15.5034    XZZ      -0.1116    YZZ     -13.9761
       ZZZ       4.8789
    Hexadecapole Moments (Debye-Ang^3)
      XXXX  -17235.2181   XXXY    1303.1608   XXYY   -3560.3977
      XYYY     -34.6251   YYYY   -3455.7084   XXXZ     424.3394
      XXYZ      39.7854   XYYZ      39.5609   YYYZ      23.2099
      XXZZ   -3477.7796   XYZZ       7.6083   YYZZ    -725.8904
      XZZZ      49.0439   YZZZ     -29.8012   ZZZZ    -488.0577
 -----------------------------------------------------------------
 Calculating analytic gradient of the SCF energy
 K construction time:  CPU 2821.80 s  wall 178.25 s
 Gradient of SCF Energy
            1           2           3           4           5           6
    1   0.0000255  -0.0006990  -0.0000646   0.0006696   0.0002791  -0.0001469
    2  -0.0000557   0.0002530  -0.0002114   0.0001992  -0.0000406  -0.0000300
    3   0.0001154  -0.0001093  -0.0001368   0.0000469  -0.0001785   0.0002431
            7           8           9          10          11          12
    1   0.0002274  -0.0003876   0.0004883   0.0014326   0.0003089   0.0001960
    2  -0.0002099  -0.0002089  -0.0002844  -0.0007375   0.0002380   0.0000949
    3   0.0001636  -0.0005548   0.0002242  -0.0046118  -0.0003818   0.0015721
           13          14          15          16          17          18
    1  -0.0013691   0.0003298  -0.0012736   0.0013825  -0.0002387  -0.0006373
    2   0.0008276   0.0008524   0.0007103  -0.0025805   0.0009612   0.0004834
    3   0.0052540  -0.0000765  -0.0004761  -0.0011616  -0.0032581   0.0027312
           19          20          21          22          23          24
    1  -0.0001995   0.0000194   0.0002012   0.0000485   0.0001505  -0.0003412
    2   0.0005538  -0.0003843  -0.0008823   0.0003774  -0.0000914   0.0009949
    3   0.0004948  -0.0000210   0.0003293  -0.0001527   0.0000912  -0.0005980
           25          26          27          28          29          30
    1  -0.0000320  -0.0000746   0.0002897  -0.0001801  -0.0000717   0.0002177
    2  -0.0002636  -0.0003075   0.0003712  -0.0000183   0.0000393  -0.0001195
    3   0.0001852   0.0001300   0.0001412  -0.0002742  -0.0000430   0.0001648
           31          32          33          34          35          36
    1  -0.0001289  -0.0000238  -0.0000216  -0.0002752   0.0000440  -0.0001489
    2  -0.0000522   0.0000188   0.0000535  -0.0000148  -0.0002279  -0.0002574
    3  -0.0000181  -0.0000174   0.0000252   0.0000930  -0.0000585  -0.0000014
           37
    1   0.0000034
    2  -0.0000507
    3   0.0001243
 Max gradient component =       5.254E-03
 RMS gradient           =       9.312E-04
 Gradient time:  CPU 3261.89 s  wall 207.80 s
 Geometry Optimization Parameters
   NAtoms,    NIC,     NZ,  NCons,   NDum,   NFix, NCnnct, MaxDiis
       37     280       0       3       0       0       0       0

 Cartesian Hessian Update
 Hessian Updated using BFGS Update


** CONSTRAINED OPTIMIZATION IN DELOCALIZED INTERNAL COORDINATES **
   Searching for a Minimum

   Optimization Cycle:   2

                       Coordinates (Angstroms)
     ATOM                X               Y               Z
      1  C         7.6005248360    0.2802604373   -0.5271431790
      2  C         6.9761770048    1.3826315492    0.0327913942
      3  N         6.9428465424   -0.7961895565   -0.9475498400
      4  C         5.6006411379    1.3659569813    0.1641781683
      5  C         5.6237447145   -0.8021157603   -0.8154646268
      6  C         4.8896931177    0.2521908802   -0.2695802005
      7  C         3.4202050664    0.2036891528   -0.1819693869
      8  C         2.6388215365    1.2787615538   -0.5081773187
      9  C         2.7014505197   -0.9492532010    0.2450945047
     10  N         1.2837898531    1.3325907842   -0.4572532268
     11  N         3.2013323619   -2.1245642282    0.6296842580
     12  C         1.2754087748   -0.9029587607    0.3136219107
     13  C         0.5886000131    0.2983610056   -0.0548450586
     14  S         1.9420965043   -3.0467556068    1.0260378575
     15  N         0.7236156347   -2.0356464680    0.7425748115
     16  C        -0.8564547789    0.4296603789   -0.0163114093
     17  S        -1.9607446637   -0.8760606015   -0.2506300224
     18  C        -1.5629166013    1.5951291374    0.1602009559
     19  C        -3.3454438875    0.1316294207   -0.0943635048
     20  S        -1.1087266427    3.2484130453    0.4129964804
     21  C        -2.9740319606    1.4394678319    0.1351022990
     22  C        -4.6930106154   -0.3890243716   -0.1928838392
     23  C        -2.7961888736    3.6965719738    0.5234668214
     24  C        -3.6622642899    2.6827190780    0.3501645089
     25  N        -5.7564527351    0.3510346530   -0.0634416559
     26  S        -5.0379125759   -2.0684547615   -0.4957460984
     27  C        -6.8917530050   -0.3904159027   -0.2035239577
     28  C        -6.7139992877   -1.7124280572   -0.4431808136
     29  H         8.6778705497    0.2578880700   -0.6426333763
     30  H         7.5596852134    2.2279920036    0.3685224742
     31  H         5.0803162572    2.2002368384    0.6162179685
     32  H         5.1141735506   -1.6898310024   -1.1684320105
     33  H         3.1073305702    2.1860384494   -0.8696454216
     34  H        -3.0440662059    4.7304885060    0.7034706898
     35  H        -4.7355257924    2.7708465674    0.3705531200
     36  H        -7.8527574097    0.0941770892   -0.1230612298
     37  H        -7.4576968594   -2.4760321347   -0.5878647489
   Point Group: c1    Number of degrees of freedom:   105


   Energy is  -2595.902701914

              Constraints and their Current Values
                                        Value     Constraint
   Dihedral:        4   6   7   8       42.246       42.246
   Dihedral:       10  13  16  17      150.000      150.000
   Dihedral:       17  19  22  25      179.217      179.217
 Hessian Updated using BFGS Update

   Using Lagrange Multiplier Algorithm


104 Hessian modes will be used to form the next step
  Hessian Eigenvalues:
    -0.977752    0.027361    0.045000    0.045000    0.045000    0.045000
     0.045000    0.045000    0.045000    0.045000    0.045000    0.045000
     0.045000    0.045000    0.045000    0.045000    0.045000    0.045000
     0.045000    0.045000    0.045000    0.045001    0.045001    0.045001
     0.045001    0.045001    0.045002    0.045005    0.045007    0.045009
     0.045012    0.047958    0.158413    0.159965    0.159989    0.159997
     0.159998    0.159999    0.160000    0.160000    0.160193    0.220044
     0.224571    0.225496    0.231965    0.233102    0.234414    0.241990
     0.247451    0.247760    0.249915    0.249956    0.249989    0.249992
     0.249998    0.249998    0.249999    0.249999    0.250000    0.250000
     0.295250    0.302398    0.304922    0.316447    0.323576    0.328630
     0.334517    0.354539    0.355743    0.356372    0.356801    0.356889
     0.359265    0.360780    0.361167    0.363904    0.365017    0.372822
     0.385307    0.386072    0.391540    0.396301    0.399785    0.417363
     0.431548    0.455293    0.465505    0.473132    0.473651    0.474871
     0.483147    0.490451    0.497435    0.499398    0.517629    0.526015
     0.538183    0.559356    0.574942    0.585378    0.591565    0.621812
     0.638980    1.022754

 Minimum Search - Taking P-RFO Step
 Searching for Lamda that Maximizes Along the Constraint modes Only
 Value Taken    Lamda =   0.00000000
 Searching for Lamda that Minimizes Along All other modes
 Value Taken    Lamda =  -0.00044889
 Step Taken.  Stepsize is  0.120462

                             Maximum     Tolerance    Cnvgd?
         Gradient            0.001466       0.000300      NO
         Displacement        0.044762       0.001200      NO
         Energy change     -0.000855       0.000001      NO


 New Cartesian Coordinates Obtained by Inverse Iteration

 Displacement from previous Coordinates is:  0.430194
 ----------------------------------------------------------------
             Standard Nuclear Orientation (Angstroms)
    I     Atom           X                Y                Z
 ----------------------------------------------------------------
    1      C       7.5925202106     0.2810515034    -0.5671589910
    2      C       6.9772359482     1.3772521829     0.0140323667
    3      N       6.9279434004    -0.7904950855    -0.9887006430
    4      C       5.6028559583     1.3590486835     0.1651598127
    5      C       5.6107400255    -0.7975896659    -0.8389400000
    6      C       4.8849429492     0.2512832058    -0.2725761248
    7      C       3.4168115655     0.2033557061    -0.1642136189
    8      C       2.6331905281     1.2840918291    -0.4656271608
    9      C       2.7028741195    -0.9554857487     0.2552307547
   10      N       1.2782278474     1.3381267157    -0.4003730326
   11      N       3.2063696054    -2.1370441981     0.6178002014
   12      C       1.2787006537    -0.9088813119     0.3414232666
   13      C       0.5903352147     0.3010657593     0.0006978754
   14      S       1.9531746543    -3.0672608162     1.0151188693
   15      N       0.7343337509    -2.0491683039     0.7632401510
   16      C      -0.8561606035     0.4331500070     0.0581855056
   17      S      -1.9519532131    -0.8781611694    -0.1764700226
   18      C      -1.5642777949     1.6008170049     0.1926336834
   19      C      -3.3405541392     0.1291126492    -0.0633680775
   20      S      -1.1169793456     3.2629562062     0.4030330499
   21      C      -2.9747341163     1.4411933140     0.1534734538
   22      C      -4.6860313512    -0.3920583009    -0.1828567591
   23      C      -2.8058289117     3.7062333481     0.4986175079
   24      C      -3.6671594382     2.6854737562     0.3414062125
   25      N      -5.7505434944     0.3513960745    -0.0854846786
   26      S      -5.0266886433    -2.0732482860    -0.4748166645
   27      C      -6.8838687371    -0.3892874883    -0.2444820887
   28      C      -6.7028643643    -1.7141033015    -0.4651145568
   29      H       8.6682638624     0.2590938063    -0.6983883659
   30      H       7.5630467096     2.2212969169     0.3486779944
   31      H       5.0916831819     2.1897761450     0.6335639365
   32      H       5.0971649289    -1.6818173632    -1.1946354351
   33      H       3.0995276931     2.1936723279    -0.8243794370
   34      H      -3.0553468737     4.7438058331     0.6515948657
   35      H      -4.7407246646     2.7743188920     0.3497924910
   36      H      -7.8436521332     0.1015670834    -0.1932683985
   37      H      -7.4441974092    -2.4775329368    -0.6218506458
 ----------------------------------------------------------------
 Molecular Point Group                 C1    NOp =  1
 Largest Abelian Subgroup              C1    NOp =  1
 Nuclear Repulsion Energy =  2964.0232412693 hartrees
 There are      111 alpha and      111 beta electrons
 Applying Cartesian multipole field
    Component          Value
    ---------          -----
     (2,0,0)        1.00000E-12
     (0,2,0)        2.00000E-11
     (0,0,2)       -3.00000E-11
 Nucleus-field energy     =     0.0000000618 hartrees
 Requested basis set is cc-pVTZ
 There are 342 shells and 982 basis functions
 A cutoff of  1.0D-11 yielded  29209 shell pairs
 There are    231589 function pairs (    302482 Cartesian)
 Smallest overlap matrix eigenvalue = 2.37E-05
 Guess MOs from SCF MO coefficient file
 Reading MOs from coefficient file
 Reading MOs from coefficient file
 Long-range K will be added via erf
 Coulomb attenuation parameter = 0.2 bohr**(-1)
 A restricted hybrid HF-DFT SCF calculation will be
 performed using Pulay DIIS extrapolation
 Exchange:     0.2220 Hartree-Fock + 1.0000 wB97X-D + LR-HF
 Correlation:  1.0000 wB97X-D
 Using SG-2 standard quadrature grid
 Dispersion:   Grimme D
 SCF converges when DIIS error is below 1.0E-08
 Geometry optimization detected.  Setting ReadMinima to 0
 Setting SaveMinima to 0
 using 16 threads for integral computing 
 using 16 threads for integral computing 
 K construction time:  CPU 1077.38 s  wall 70.42 s
 -------------------------------------------------------
 OpenMP BLAS3 based DFT computing Module                
 Release: version 1.0, May 2013, Q-Chem Inc. Pittsburgh 
 -------------------------------------------------------
 ---------------------------------------
  Cycle       Energy         DIIS Error
 ---------------------------------------
    1   -2595.8991891329      3.25E-04
 K construction time:  CPU 1082.72 s  wall 70.72 s
    2   -2595.9026730299      3.00E-05
 K construction time:  CPU 810.50 s  wall 52.85 s
    3   -2595.9029297550      1.95E-05
 K construction time:  CPU 762.09 s  wall 49.74 s
    4   -2595.9029693750      1.28E-05
 K construction time:  CPU 736.11 s  wall 48.07 s
    5   -2595.9029917892      4.94E-06
 K construction time:  CPU 670.11 s  wall 43.68 s
    6   -2595.9029950389      1.89E-06
 K construction time:  CPU 607.78 s  wall 39.60 s
    7   -2595.9029955453      5.17E-07
 K construction time:  CPU 569.84 s  wall 37.09 s
    8   -2595.9029956148      3.31E-07
 K construction time:  CPU 515.68 s  wall 33.55 s
    9   -2595.9029956340      9.26E-08
 K construction time:  CPU 462.81 s  wall 30.09 s
   10   -2595.9029956370      4.65E-08
 K construction time:  CPU 402.19 s  wall 26.06 s
   11   -2595.9029956377      2.16E-08
 K construction time:  CPU 361.97 s  wall 23.43 s
   12   -2595.9029956379      7.22E-09 Convergence criterion met
 ---------------------------------------
 SCF time:  CPU 10826.90 s  wall 722.01 s
 SCF   energy in the final basis set = -2595.9029956379
 Total energy in the final basis set = -2595.9029956379
 
 --------------------------------------------------------------
 
                    Orbital Energies (a.u.)
 --------------------------------------------------------------
 
 Alpha MOs
 -- Occupied --
-89.157 -89.094 -89.092 -89.075 -14.495 -14.489 -14.454 -14.444
-14.437 -10.374 -10.371 -10.364 -10.361 -10.344 -10.341 -10.341
-10.334 -10.329 -10.328 -10.328 -10.327 -10.327 -10.324 -10.320
-10.316 -10.314 -10.304 -10.296  -8.167  -8.109  -8.107  -8.089
 -6.117  -6.112  -6.111  -6.058  -6.056  -6.054  -6.053  -6.052
 -6.051  -6.039  -6.035  -6.031  -1.153  -1.083  -1.074  -1.056
 -1.024  -1.016  -0.957  -0.947  -0.912  -0.911  -0.907  -0.885
 -0.862  -0.845  -0.830  -0.807  -0.776  -0.753  -0.745  -0.729
 -0.724  -0.695  -0.689  -0.679  -0.648  -0.641  -0.624  -0.622
 -0.609  -0.598  -0.584  -0.578  -0.571  -0.567  -0.541  -0.535
 -0.527  -0.523  -0.518  -0.514  -0.512  -0.504  -0.497  -0.494
 -0.488  -0.481  -0.476  -0.464  -0.457  -0.447  -0.437  -0.434
 -0.429  -0.424  -0.405  -0.396  -0.383  -0.372  -0.371  -0.369
 -0.366  -0.359  -0.344  -0.336  -0.325  -0.320  -0.269
 -- Virtual --
 -0.055  -0.012   0.025   0.037   0.044   0.058   0.064   0.065
  0.074   0.098   0.106   0.109   0.117   0.120   0.131   0.134
  0.142   0.146   0.151   0.165   0.169   0.169   0.171   0.177
  0.190   0.197   0.199   0.212   0.214   0.226   0.232   0.246
  0.252   0.254   0.260   0.267   0.272   0.274   0.287   0.291
  0.296   0.297   0.301   0.307   0.312   0.315   0.317   0.328
  0.329   0.333   0.334   0.339   0.343   0.348   0.352   0.357
  0.363   0.366   0.369   0.374   0.378   0.381   0.385   0.387
  0.391   0.394   0.399   0.401   0.404   0.407   0.409   0.412
  0.418   0.423   0.426   0.428   0.434   0.435   0.439   0.443
  0.449   0.451   0.454   0.457   0.459   0.461   0.465   0.468
  0.468   0.471   0.475   0.478   0.483   0.485   0.490   0.490
  0.491   0.499   0.501   0.504   0.506   0.514   0.517   0.523
  0.523   0.527   0.533   0.541   0.546   0.547   0.549   0.552
  0.554   0.561   0.577   0.581   0.586   0.588   0.593   0.594
  0.604   0.610   0.620   0.626   0.630   0.637   0.645   0.651
  0.654   0.655   0.661   0.666   0.668   0.678   0.681   0.683
  0.685   0.692   0.697   0.701   0.708   0.716   0.721   0.728
  0.730   0.736   0.739   0.740   0.747   0.751   0.762   0.766
  0.769   0.774   0.775   0.776   0.780   0.790   0.791   0.792
  0.800   0.806   0.810   0.818   0.819   0.825   0.826   0.831
  0.832   0.842   0.848   0.851   0.855   0.863   0.868   0.871
  0.874   0.880   0.885   0.895   0.896   0.898   0.907   0.911
  0.917   0.919   0.929   0.932   0.938   0.940   0.943   0.951
  0.953   0.959   0.969   0.973   0.976   0.984   0.985   0.988
  0.993   1.000   1.006   1.012   1.023   1.025   1.030   1.034
  1.042   1.052   1.056   1.056   1.062   1.066   1.069   1.072
  1.085   1.089   1.095   1.101   1.105   1.109   1.118   1.124
  1.136   1.140   1.145   1.151   1.158   1.166   1.171   1.173
  1.179   1.188   1.191   1.194   1.205   1.213   1.218   1.225
  1.229   1.239   1.241   1.251   1.262   1.265   1.269   1.273
  1.279   1.290   1.297   1.301   1.308   1.313   1.322   1.333
  1.343   1.348   1.353   1.356   1.363   1.374   1.378   1.383
  1.389   1.398   1.402   1.415   1.418   1.425   1.432   1.436
  1.441   1.447   1.449   1.454   1.458   1.472   1.485   1.487
  1.492   1.500   1.511   1.523   1.525   1.533   1.533   1.541
  1.552   1.560   1.563   1.570   1.582   1.588   1.591   1.594
  1.598   1.610   1.617   1.622   1.626   1.631   1.639   1.649
  1.654   1.657   1.660   1.665   1.668   1.679   1.682   1.685
  1.694   1.698   1.700   1.704   1.711   1.717   1.724   1.733
  1.746   1.749   1.759   1.771   1.772   1.775   1.784   1.789
  1.801   1.805   1.818   1.819   1.831   1.835   1.859   1.871
  1.878   1.881   1.883   1.889   1.902   1.907   1.920   1.923
  1.930   1.937   1.947   1.956   1.958   1.972   1.976   1.980
  1.990   2.001   2.005   2.010   2.012   2.021   2.030   2.033
  2.050   2.061   2.067   2.074   2.076   2.084   2.088   2.108
  2.112   2.119   2.128   2.136   2.148   2.156   2.163   2.173
  2.175   2.187   2.191   2.194   2.205   2.222   2.230   2.236
  2.238   2.247   2.256   2.258   2.266   2.271   2.282   2.285
  2.296   2.304   2.320   2.344   2.348   2.356   2.358   2.364
  2.369   2.380   2.383   2.388   2.393   2.399   2.404   2.411
  2.422   2.430   2.434   2.439   2.445   2.452   2.459   2.461
  2.468   2.478   2.483   2.493   2.500   2.509   2.514   2.518
  2.528   2.533   2.536   2.542   2.551   2.564   2.567   2.577
  2.588   2.595   2.603   2.615   2.616   2.620   2.624   2.631
  2.632   2.650   2.657   2.662   2.669   2.674   2.680   2.696
  2.705   2.714   2.735   2.749   2.752   2.763   2.770   2.776
  2.779   2.781   2.790   2.793   2.794   2.798   2.804   2.810
  2.820   2.827   2.843   2.848   2.855   2.865   2.873   2.876
  2.883   2.889   2.901   2.911   2.916   2.925   2.935   2.938
  2.942   2.947   2.952   2.954   2.957   2.964   2.973   2.976
  2.980   2.988   2.997   3.000   3.011   3.014   3.021   3.025
  3.028   3.031   3.041   3.055   3.061   3.062   3.063   3.070
  3.075   3.080   3.085   3.088   3.092   3.098   3.100   3.107
  3.112   3.118   3.121   3.127   3.128   3.131   3.134   3.140
  3.149   3.160   3.163   3.169   3.172   3.178   3.180   3.182
  3.186   3.190   3.193   3.195   3.201   3.204   3.205   3.211
  3.220   3.221   3.225   3.227   3.236   3.243   3.244   3.249
  3.256   3.258   3.261   3.267   3.273   3.274   3.275   3.281
  3.290   3.296   3.299   3.302   3.308   3.316   3.324   3.331
  3.333   3.341   3.346   3.349   3.355   3.363   3.367   3.373
  3.375   3.381   3.388   3.393   3.404   3.409   3.416   3.418
  3.421   3.432   3.443   3.448   3.454   3.461   3.464   3.476
  3.480   3.481   3.484   3.491   3.499   3.501   3.508   3.515
  3.519   3.521   3.534   3.544   3.546   3.561   3.564   3.569
  3.583   3.584   3.592   3.596   3.601   3.612   3.620   3.635
  3.636   3.647   3.655   3.661   3.673   3.681   3.687   3.692
  3.695   3.710   3.715   3.733   3.738   3.750   3.757   3.763
  3.771   3.777   3.779   3.790   3.802   3.804   3.807   3.814
  3.823   3.830   3.836   3.842   3.851   3.854   3.862   3.865
  3.873   3.878   3.887   3.901   3.919   3.920   3.926   3.935
  3.943   3.948   3.949   3.952   3.962   3.968   3.969   3.980
  3.987   3.989   3.997   4.005   4.017   4.030   4.035   4.045
  4.057   4.067   4.072   4.081   4.087   4.093   4.108   4.116
  4.131   4.137   4.139   4.153   4.170   4.175   4.182   4.189
  4.191   4.194   4.201   4.206   4.221   4.225   4.236   4.243
  4.259   4.269   4.274   4.281   4.286   4.289   4.309   4.314
  4.321   4.336   4.344   4.353   4.359   4.375   4.383   4.387
  4.397   4.403   4.416   4.423   4.429   4.440   4.451   4.456
  4.468   4.471   4.479   4.494   4.501   4.517   4.528   4.533
  4.545   4.551   4.565   4.570   4.573   4.586   4.598   4.604
  4.617   4.635   4.643   4.646   4.659   4.672   4.684   4.690
  4.695   4.713   4.723   4.747   4.748   4.776   4.787   4.792
  4.812   4.819   4.836   4.838   4.846   4.848   4.851   4.864
  4.880   4.882   4.905   4.931   4.934   4.939   4.941   4.950
  4.954   4.965   4.966   4.976   4.978   4.989   5.001   5.010
  5.015   5.031   5.041   5.051   5.061   5.074   5.093   5.095
  5.109   5.124   5.130   5.140   5.164   5.171   5.173   5.193
  5.203   5.232   5.235   5.241   5.249   5.258   5.282   5.284
  5.309   5.314   5.334   5.336   5.344   5.370   5.399   5.412
  5.421   5.441   5.457   5.461   5.471   5.489   5.510   5.530
  5.533   5.543   5.557   5.584   5.608   5.652   5.658   5.665
  5.692   5.702   5.713   5.730   5.753   5.770   5.790   5.818
  5.847   5.878   5.887   5.934   5.945   5.985   6.013   6.091
  6.133   6.140   6.160   6.181   6.192   6.220   6.255   6.308
  6.341   6.350   6.397   6.402   6.480   6.844   7.019   7.968
  8.839   9.757  10.146  10.906  11.134  11.207  11.636  11.962
 12.206  12.499  12.564  12.797  12.863  13.058  13.152  13.388
 13.532  13.543  13.830  13.875  14.260  14.697  14.984
 --------------------------------------------------------------
 
          Ground-State Mulliken Net Atomic Charges

     Atom                 Charge (a.u.)
  ----------------------------------------
      1 C                    -0.072756
      2 C                    -0.102222
      3 N                    -0.154754
      4 C                    -0.158168
      5 C                    -0.094595
      6 C                     0.109025
      7 C                     0.034917
      8 C                    -0.094162
      9 C                     0.032246
     10 N                    -0.174081
     11 N                    -0.278773
     12 C                     0.011434
     13 C                     0.077906
     14 S                     0.417277
     15 N                    -0.273352
     16 C                    -0.021710
     17 S                     0.132988
     18 C                    -0.028197
     19 C                    -0.030594
     20 S                     0.080825
     21 C                     0.037467
     22 C                     0.035943
     23 C                    -0.156878
     24 C                    -0.165236
     25 N                    -0.184379
     26 S                     0.099607
     27 C                    -0.075814
     28 C                    -0.202151
     29 H                     0.124395
     30 H                     0.129968
     31 H                     0.132012
     32 H                     0.128726
     33 H                     0.134644
     34 H                     0.131513
     35 H                     0.143699
     36 H                     0.129109
     37 H                     0.144123
  ----------------------------------------
  Sum of atomic charges =     0.000000

 -----------------------------------------------------------------
                    Cartesian Multipole Moments
 -----------------------------------------------------------------
    Charge (ESU x 10^10)
                 0.0000
    Dipole Moment (Debye)
         X      -1.5161      Y       0.3754      Z       0.8918
       Tot       1.7985
    Quadrupole Moments (Debye-Ang)
        XX    -168.2373     XY      18.6987     YY    -171.0866
        XZ       7.5908     YZ       1.8392     ZZ    -189.6186
    Octopole Moments (Debye-Ang^2)
       XXX    -197.8257    XXY      64.8255    XYY     -30.7684
       YYY      -2.2107    XXZ      24.0461    XYZ     -15.6556
       YYZ      12.8613    XZZ      -0.8082    YZZ     -13.8483
       ZZZ       0.2559
    Hexadecapole Moments (Debye-Ang^3)
      XXXX  -17203.4568   XXXY    1300.4370   XXYY   -3556.8101
      XYYY     -31.1039   YYYY   -3473.7048   XXXZ     456.1177
      XXYZ      37.5614   XYYZ      47.7327   YYYZ      20.4793
      XXZZ   -3473.3000   XYZZ      12.3256   YYZZ    -731.6147
      XZZZ      62.3228   YZZZ     -27.1966   ZZZZ    -486.3858
 -----------------------------------------------------------------
 Calculating analytic gradient of the SCF energy
 K construction time:  CPU 2832.64 s  wall 178.98 s
 Gradient of SCF Energy
            1           2           3           4           5           6
    1  -0.0003021   0.0004462  -0.0000753  -0.0003372   0.0000075  -0.0000430
    2  -0.0001533   0.0001736  -0.0000304   0.0000910   0.0000295  -0.0003024
    3  -0.0000747  -0.0000068   0.0000110   0.0003798   0.0000412  -0.0004700
            7           8           9          10          11          12
    1   0.0000138  -0.0005258   0.0001896  -0.0005229  -0.0004282  -0.0001174
    2  -0.0003426   0.0001088   0.0006008  -0.0017930  -0.0000549   0.0010654
    3   0.0003030   0.0004000  -0.0001009  -0.0051001   0.0001304   0.0001889
           13          14          15          16          17          18
    1   0.0020916   0.0000701   0.0003293  -0.0019844   0.0007085   0.0001363
    2   0.0024287  -0.0010316  -0.0004572  -0.0009490   0.0015051  -0.0010002
    3   0.0041892   0.0002630   0.0001676   0.0018201  -0.0033660   0.0015776
           19          20          21          22          23          24
    1  -0.0002536  -0.0003402   0.0001077  -0.0001140  -0.0000336   0.0003784
    2   0.0000157   0.0005722  -0.0005094   0.0001326   0.0000944  -0.0001836
    3  -0.0000155  -0.0005907   0.0002267  -0.0005129   0.0006020  -0.0001442
           25          26          27          28          29          30
    1  -0.0000185  -0.0000270   0.0000441   0.0000939   0.0000568  -0.0000701
    2  -0.0001628   0.0000053  -0.0001043   0.0000262   0.0000325   0.0000279
    3   0.0002960   0.0002206   0.0001126  -0.0001188  -0.0000215   0.0000715
           31          32          33          34          35          36
    1   0.0001760   0.0001202   0.0001113   0.0001234  -0.0000753   0.0000282
    2   0.0000241  -0.0000074   0.0000183  -0.0000886   0.0000898   0.0001171
    3  -0.0000273  -0.0000792  -0.0001489  -0.0000472  -0.0001202  -0.0000494
           37
    1   0.0000357
    2   0.0000120
    3  -0.0000067
 Max gradient component =       5.100E-03
 RMS gradient           =       9.024E-04
 Gradient time:  CPU 3274.77 s  wall 208.53 s
 Geometry Optimization Parameters
   NAtoms,    NIC,     NZ,  NCons,   NDum,   NFix, NCnnct, MaxDiis
       37     280       0       3       0       0       0       0

 Cartesian Hessian Update
 Hessian Updated using BFGS Update


** CONSTRAINED OPTIMIZATION IN DELOCALIZED INTERNAL COORDINATES **
   Searching for a Minimum

   Optimization Cycle:   3

                       Coordinates (Angstroms)
     ATOM                X               Y               Z
      1  C         7.5925202106    0.2810515034   -0.5671589910
      2  C         6.9772359482    1.3772521829    0.0140323667
      3  N         6.9279434004   -0.7904950855   -0.9887006430
      4  C         5.6028559583    1.3590486835    0.1651598127
      5  C         5.6107400255   -0.7975896659   -0.8389400000
      6  C         4.8849429492    0.2512832058   -0.2725761248
      7  C         3.4168115655    0.2033557061   -0.1642136189
      8  C         2.6331905281    1.2840918291   -0.4656271608
      9  C         2.7028741195   -0.9554857487    0.2552307547
     10  N         1.2782278474    1.3381267157   -0.4003730326
     11  N         3.2063696054   -2.1370441981    0.6178002014
     12  C         1.2787006537   -0.9088813119    0.3414232666
     13  C         0.5903352147    0.3010657593    0.0006978754
     14  S         1.9531746543   -3.0672608162    1.0151188693
     15  N         0.7343337509   -2.0491683039    0.7632401510
     16  C        -0.8561606035    0.4331500070    0.0581855056
     17  S        -1.9519532131   -0.8781611694   -0.1764700226
     18  C        -1.5642777949    1.6008170049    0.1926336834
     19  C        -3.3405541392    0.1291126492   -0.0633680775
     20  S        -1.1169793456    3.2629562062    0.4030330499
     21  C        -2.9747341163    1.4411933140    0.1534734538
     22  C        -4.6860313512   -0.3920583009   -0.1828567591
     23  C        -2.8058289117    3.7062333481    0.4986175079
     24  C        -3.6671594382    2.6854737562    0.3414062125
     25  N        -5.7505434944    0.3513960745   -0.0854846786
     26  S        -5.0266886433   -2.0732482860   -0.4748166645
     27  C        -6.8838687371   -0.3892874883   -0.2444820887
     28  C        -6.7028643643   -1.7141033015   -0.4651145568
     29  H         8.6682638624    0.2590938063   -0.6983883659
     30  H         7.5630467096    2.2212969169    0.3486779944
     31  H         5.0916831819    2.1897761450    0.6335639365
     32  H         5.0971649289   -1.6818173632   -1.1946354351
     33  H         3.0995276931    2.1936723279   -0.8243794370
     34  H        -3.0553468737    4.7438058331    0.6515948657
     35  H        -4.7407246646    2.7743188920    0.3497924910
     36  H        -7.8436521332    0.1015670834   -0.1932683985
     37  H        -7.4441974092   -2.4775329368   -0.6218506458
   Point Group: c1    Number of degrees of freedom:   105


   Energy is  -2595.902995638

              Constraints and their Current Values
                                        Value     Constraint
   Dihedral:        4   6   7   8       42.246       42.246
   Dihedral:       10  13  16  17      150.000      150.000
   Dihedral:       17  19  22  25      179.217      179.217
 Hessian Updated using BFGS Update

 81 Hessian modes will be used to form the next step
  Hessian Eigenvalues:
     0.014604    0.045000    0.045001    0.045001    0.045002    0.045005
     0.045007    0.045009    0.045012    0.045751    0.048999    0.159873
     0.159974    0.159989    0.159998    0.160000    0.160000    0.160087
     0.160901    0.220086    0.224595    0.225691    0.231979    0.233121
     0.234406    0.247447    0.247728    0.248283    0.249915    0.249961
     0.249989    0.249993    0.249998    0.249998    0.249999    0.249999
     0.250000    0.277755    0.299105    0.302164    0.305764    0.316561
     0.325158    0.328060    0.334529    0.354545    0.355787    0.356372
[...]
     26  S        -5.0256700680   -2.0773603758   -0.4392298470
     27  C        -6.8778600930   -0.3784227947   -0.2934174890
     28  C        -6.6993361922   -1.7087818839   -0.4806889770
     29  H         8.6524724419    0.2772618715   -0.7740013949
     30  H         7.5658573436    2.2157889197    0.3328115848
     31  H         5.0988905404    2.1739964795    0.6664481166
     32  H         5.0732389339   -1.6576891056   -1.2406149702
     33  H         3.0783083716    2.2075771860   -0.7424680638
     34  H        -3.0453124515    4.7554999509    0.5632195576
     35  H        -4.7339575053    2.7867628870    0.2738815476
     36  H        -7.8360796304    0.1176650957   -0.2756819447
     37  H        -7.4411828731   -2.4711710002   -0.6403803215
   Point Group: c1    Number of degrees of freedom:   105


   Energy is  -2595.903179663

              Constraints and their Current Values
                                        Value     Constraint
   Dihedral:        4   6   7   8       42.246       42.246
   Dihedral:       10  13  16  17      150.000      150.000
   Dihedral:       17  19  22  25      179.217      179.217
 Hessian Updated using BFGS Update

 95 Hessian modes will be used to form the next step
  Hessian Eigenvalues:
     0.012421    0.022602    0.044338    0.045000    0.045000    0.045000
     0.045000    0.045000    0.045000    0.045000    0.045000    0.045000
     0.045000    0.045001    0.045001    0.045001    0.045002    0.045005
     0.045006    0.045008    0.045010    0.045016    0.045248    0.046170
     0.049470    0.158459    0.159489    0.159965    0.159989    0.159994
     0.160000    0.160002    0.160137    0.160241    0.220051    0.224652
     0.225623    0.231919    0.232759    0.234402    0.245508    0.247772
     0.248091    0.249347    0.249838    0.249935    0.249982    0.249993
     0.249999    0.250642    0.258543    0.294576    0.297889    0.305001
     0.315093    0.317023    0.326983    0.334563    0.351616    0.354528
     0.355762    0.356370    0.356807    0.356865    0.359271    0.360792
     0.361188    0.363954    0.365030    0.384711    0.386007    0.388920
     0.393465    0.396095    0.407342    0.431502    0.439535    0.455327
     0.464390    0.470500    0.473651    0.475816    0.483027    0.490095
     0.497653    0.499708    0.517525    0.524495    0.538290    0.559575
     0.574925    0.591513    0.628747    0.639037    0.657674

 Minimum Search - Taking Simple RFO Step
 Searching for Lamda that Minimizes Along All modes
 Value Taken    Lamda =   0.00000000
 Step Taken.  Stepsize is  0.003139

                             Maximum     Tolerance    Cnvgd?
         Gradient           0.000048      0.000300     YES
         Displacement       0.001608      0.001200      NO
         Energy change     -0.000001      0.000001     YES

 Final energy is   -2595.90317966306     


 ******************************
 **  OPTIMIZATION CONVERGED  **
 ******************************

                       Coordinates (Angstroms)
     ATOM                X               Y               Z
      1  C         7.5794870865    0.2952598448   -0.6222344291
      2  C         6.9738884154    1.3780582032   -0.0068793388
      3  N         6.9077364682   -0.7681491241   -1.0533261647
      4  C         5.6031803184    1.3547515142    0.1708252467
      5  C         5.5935397875   -0.7800115662   -0.8784682374
      6  C         4.8778164845    0.2559577314   -0.2762898791
      7  C         3.4125084812    0.2025284967   -0.1372011005
      8  C         2.6214386690    1.2883046939   -0.3968797399
      9  C         2.7078312649   -0.9682873723    0.2665080071
     10  N         1.2684661426    1.3392316370   -0.2990784323
     11  N         3.2189657429   -2.1589558352    0.5845915413
     12  C         1.2857455519   -0.9253826226    0.3843243160
     13  C         0.5886340055    0.2919593175    0.0914029644
     14  S         1.9734822774   -3.0994961514    0.9824547766
     15  N         0.7489674383   -2.0756840514    0.7850782096
     16  C        -0.8548920741    0.4166554392    0.1654147460
     17  S        -1.9534356529   -0.8942092513   -0.0801310364
     18  C        -1.5615070117    1.5923441720    0.2409492390
     19  C        -3.3373708570    0.1242354996   -0.0281525022
     20  S        -1.1088631322    3.2553672086    0.4176292190
     21  C        -2.9709283603    1.4400422912    0.1652170827
     22  C        -4.6824456329   -0.3927593138   -0.1705203525
     23  C        -2.7974115989    3.7124971352    0.4476204930
     24  C        -3.6612232906    2.6926851359    0.2976716127
     25  N        -5.7446017672    0.3589347120   -0.1194267423
     26  S        -5.0256700680   -2.0773603758   -0.4392298470
     27  C        -6.8778600930   -0.3784227947   -0.2934174890
     28  C        -6.6993361922   -1.7087818839   -0.4806889770
     29  H         8.6524724419    0.2772618715   -0.7740013949
     30  H         7.5658573436    2.2157889197    0.3328115848
     31  H         5.0988905404    2.1739964795    0.6664481166
     32  H         5.0732389339   -1.6576891056   -1.2406149702
     33  H         3.0783083716    2.2075771860   -0.7424680638
     34  H        -3.0453124515    4.7554999509    0.5632195576
     35  H        -4.7339575053    2.7867628870    0.2738815476
     36  H        -7.8360796304    0.1176650957   -0.2756819447
     37  H        -7.4411828731   -2.4711710002   -0.6403803215

Z-matrix Print:
$molecule
0 1
S 
C  1 1.719072
C  2 1.379500 1 110.822571
C  3 1.419648 2 111.933282 1 -1.151460 0
C  4 1.373774 3 114.576618 2 2.584106 0
C  3 1.436372 2 135.814713 1 179.476295 0
H  6 1.077114 3 123.556663 2 -1.073633 0
C  6 1.344869 3 111.278758 2 178.699388 0
H  8 1.078273 6 126.711015 3 -179.714385 0
C  2 1.448026 1 122.229868 3 179.816035 0
N  10 1.302240 2 123.209287 1 -179.216988 0
C  11 1.363174 10 111.151245 2 -179.487409 0
H  12 1.079167 11 119.170707 10 179.919843 0
C  12 1.355285 11 116.046047 10 -0.001892 0
H  14 1.075674 12 128.710717 11 179.711261 0
C  5 1.450791 4 126.025624 3 -173.860069 0
N  16 1.308215 5 117.612049 4 19.865801 0
C  17 1.357458 16 120.625097 5 179.663455 0
H  18 1.083154 17 114.302167 16 -179.194054 0
C  18 1.368260 17 126.323549 16 -0.943585 0
C  20 1.424907 18 114.827452 17 -0.275040 0
N  21 1.334214 20 127.688146 18 179.739544 0
C  21 1.427603 20 119.427298 18 0.776833 0
N  23 1.331138 21 113.613452 20 179.174513 0
C  20 1.472864 18 121.903002 17 -179.974389 0
C  25 1.390472 20 121.150742 18 -42.245713 0
H  26 1.082180 25 120.159203 20 -2.455840 0
C  26 1.382376 25 119.291389 20 178.518795 0
H  28 1.080560 26 121.055672 25 179.769890 0
C  28 1.384870 26 118.525080 25 0.318626 0
H  30 1.083815 28 120.539502 26 179.719022 0
N  30 1.329634 28 123.261529 26 -0.070104 0
C  32 1.325831 30 117.721685 28 0.040166 0
H  33 1.082673 32 116.071453 30 -179.913120 0
S  24 1.608286 23 106.261904 21 0.091735 0
S  14 1.714272 12 109.652459 11 -0.028651 0
S  4 1.732555 3 111.579506 2 -177.629351 0
$end

 
 --------------------------------------------------------------
 
                    Orbital Energies (a.u.)
 --------------------------------------------------------------
 
 Alpha MOs
 -- Occupied --
-89.157 -89.094 -89.092 -89.075 -14.495 -14.489 -14.453 -14.444
-14.437 -10.374 -10.370 -10.364 -10.361 -10.345 -10.341 -10.341
-10.334 -10.328 -10.328 -10.327 -10.327 -10.327 -10.324 -10.319
-10.316 -10.314 -10.303 -10.296  -8.167  -8.109  -8.108  -8.089
 -6.117  -6.111  -6.110  -6.058  -6.057  -6.055  -6.053  -6.052
 -6.051  -6.039  -6.035  -6.031  -1.154  -1.083  -1.074  -1.055
 -1.024  -1.016  -0.957  -0.947  -0.912  -0.911  -0.907  -0.884
 -0.862  -0.845  -0.829  -0.807  -0.776  -0.753  -0.745  -0.729
 -0.724  -0.695  -0.689  -0.679  -0.648  -0.641  -0.624  -0.622
 -0.609  -0.597  -0.584  -0.578  -0.571  -0.567  -0.541  -0.536
 -0.527  -0.523  -0.518  -0.514  -0.512  -0.503  -0.497  -0.493
 -0.488  -0.481  -0.476  -0.464  -0.458  -0.448  -0.436  -0.434
 -0.429  -0.424  -0.405  -0.396  -0.383  -0.373  -0.371  -0.369
 -0.366  -0.358  -0.343  -0.336  -0.325  -0.320  -0.269
 -- Virtual --
 -0.056  -0.012   0.025   0.038   0.044   0.057   0.064   0.065
  0.075   0.099   0.107   0.109   0.117   0.121   0.131   0.134
  0.142   0.146   0.151   0.165   0.169   0.169   0.171   0.178
  0.190   0.197   0.199   0.212   0.214   0.227   0.232   0.245
  0.252   0.254   0.260   0.266   0.271   0.274   0.287   0.291
  0.297   0.298   0.301   0.308   0.312   0.316   0.317   0.327
  0.329   0.333   0.334   0.339   0.344   0.349   0.352   0.357
  0.363   0.366   0.369   0.374   0.378   0.381   0.386   0.387
  0.391   0.393   0.399   0.401   0.404   0.407   0.408   0.411
  0.418   0.424   0.426   0.428   0.434   0.436   0.439   0.443
  0.449   0.450   0.455   0.457   0.459   0.461   0.466   0.468
  0.469   0.471   0.475   0.479   0.482   0.486   0.490   0.490
  0.491   0.499   0.501   0.505   0.506   0.514   0.517   0.523
  0.523   0.527   0.533   0.541   0.546   0.547   0.549   0.552
  0.555   0.560   0.577   0.580   0.586   0.588   0.593   0.594
  0.604   0.610   0.621   0.626   0.630   0.637   0.646   0.651
  0.655   0.656   0.662   0.666   0.667   0.678   0.683   0.683
  0.686   0.693   0.698   0.702   0.708   0.717   0.723   0.728
  0.730   0.736   0.739   0.741   0.746   0.750   0.762   0.768
  0.769   0.773   0.774   0.776   0.780   0.790   0.791   0.792
  0.801   0.807   0.810   0.818   0.819   0.825   0.828   0.831
  0.833   0.842   0.851   0.851   0.855   0.862   0.868   0.871
  0.874   0.880   0.885   0.894   0.898   0.901   0.907   0.911
  0.916   0.919   0.931   0.933   0.938   0.943   0.944   0.951
  0.954   0.960   0.969   0.973   0.977   0.984   0.984   0.989
  0.992   1.001   1.005   1.013   1.022   1.026   1.030   1.033
  1.042   1.051   1.055   1.056   1.063   1.067   1.070   1.072
  1.085   1.089   1.096   1.100   1.105   1.109   1.117   1.126
  1.135   1.142   1.145   1.150   1.162   1.165   1.169   1.173
  1.179   1.187   1.191   1.196   1.208   1.213   1.218   1.226
  1.230   1.239   1.242   1.250   1.262   1.266   1.270   1.273
  1.278   1.289   1.298   1.300   1.309   1.313   1.321   1.331
  1.341   1.350   1.353   1.357   1.362   1.373   1.378   1.383
  1.389   1.399   1.402   1.415   1.417   1.426   1.432   1.436
  1.442   1.447   1.449   1.456   1.457   1.472   1.486   1.486
  1.493   1.500   1.509   1.524   1.526   1.533   1.534   1.541
  1.553   1.561   1.565   1.570   1.585   1.589   1.591   1.597
  1.599   1.611   1.617   1.619   1.627   1.631   1.639   1.649
  1.652   1.657   1.661   1.662   1.669   1.679   1.683   1.687
  1.694   1.697   1.700   1.706   1.711   1.719   1.726   1.734
  1.745   1.750   1.760   1.771   1.773   1.777   1.787   1.789
  1.800   1.805   1.815   1.820   1.832   1.838   1.859   1.871
  1.878   1.881   1.883   1.888   1.903   1.907   1.921   1.923
  1.930   1.937   1.947   1.957   1.957   1.972   1.977   1.980
  1.991   2.002   2.005   2.009   2.012   2.021   2.031   2.032
  2.051   2.061   2.067   2.075   2.077   2.085   2.088   2.110
  2.111   2.119   2.129   2.135   2.147   2.153   2.162   2.172
  2.174   2.186   2.190   2.194   2.204   2.221   2.230   2.236
  2.237   2.248   2.255   2.258   2.265   2.272   2.283   2.285
  2.293   2.304   2.321   2.344   2.348   2.356   2.357   2.366
  2.369   2.381   2.383   2.388   2.395   2.398   2.404   2.412
  2.422   2.432   2.434   2.436   2.446   2.451   2.459   2.465
  2.468   2.480   2.481   2.493   2.499   2.509   2.514   2.516
  2.528   2.534   2.537   2.545   2.550   2.564   2.568   2.575
  2.589   2.596   2.602   2.613   2.616   2.621   2.626   2.631
  2.632   2.649   2.658   2.662   2.670   2.674   2.681   2.696
  2.704   2.713   2.735   2.745   2.752   2.764   2.771   2.776
  2.779   2.783   2.790   2.792   2.794   2.799   2.805   2.810
  2.821   2.828   2.844   2.849   2.857   2.866   2.874   2.877
  2.884   2.889   2.902   2.908   2.918   2.925   2.933   2.939
  2.940   2.947   2.951   2.953   2.958   2.965   2.973   2.976
  2.980   2.988   2.996   3.000   3.011   3.014   3.019   3.026
  3.028   3.031   3.040   3.055   3.060   3.062   3.063   3.069
  3.073   3.082   3.084   3.089   3.092   3.097   3.101   3.106
  3.112   3.118   3.121   3.125   3.127   3.131   3.135   3.141
  3.148   3.160   3.163   3.169   3.174   3.175   3.180   3.183
  3.185   3.191   3.193   3.195   3.202   3.203   3.207   3.212
  3.219   3.222   3.226   3.226   3.237   3.242   3.247   3.250
  3.256   3.258   3.261   3.267   3.272   3.275   3.276   3.284
  3.290   3.296   3.300   3.304   3.308   3.316   3.324   3.331
  3.333   3.341   3.346   3.349   3.356   3.362   3.367   3.372
  3.375   3.382   3.387   3.393   3.403   3.409   3.417   3.418
  3.422   3.434   3.443   3.446   3.454   3.462   3.463   3.475
  3.479   3.481   3.484   3.490   3.499   3.500   3.509   3.515
  3.517   3.522   3.534   3.542   3.545   3.558   3.562   3.572
  3.581   3.583   3.592   3.595   3.601   3.610   3.623   3.634
  3.637   3.646   3.654   3.662   3.673   3.681   3.688   3.691
  3.700   3.710   3.716   3.732   3.737   3.750   3.757   3.763
  3.771   3.773   3.780   3.792   3.801   3.804   3.808   3.812
  3.823   3.832   3.835   3.843   3.850   3.855   3.862   3.866
  3.873   3.876   3.889   3.901   3.920   3.921   3.927   3.935
  3.944   3.948   3.949   3.952   3.962   3.968   3.969   3.981
  3.986   3.988   3.997   4.006   4.017   4.035   4.035   4.044
  4.058   4.068   4.073   4.081   4.086   4.092   4.110   4.118
  4.134   4.136   4.138   4.153   4.169   4.176   4.182   4.189
  4.191   4.195   4.201   4.207   4.221   4.227   4.236   4.245
  4.259   4.268   4.273   4.280   4.288   4.291   4.309   4.314
  4.320   4.337   4.345   4.352   4.359   4.378   4.383   4.388
  4.398   4.406   4.416   4.421   4.430   4.439   4.451   4.456
  4.468   4.472   4.478   4.493   4.502   4.518   4.527   4.534
  4.546   4.552   4.565   4.570   4.572   4.587   4.598   4.601
  4.616   4.634   4.642   4.648   4.660   4.673   4.684   4.690
  4.695   4.713   4.723   4.741   4.748   4.776   4.787   4.792
  4.812   4.818   4.836   4.841   4.846   4.850   4.850   4.864
  4.880   4.883   4.905   4.931   4.934   4.938   4.942   4.950
  4.955   4.965   4.967   4.977   4.979   4.988   5.001   5.009
  5.018   5.032   5.042   5.052   5.062   5.076   5.094   5.096
  5.110   5.124   5.130   5.140   5.163   5.171   5.173   5.195
  5.205   5.231   5.235   5.241   5.248   5.259   5.282   5.284
  5.311   5.315   5.333   5.336   5.346   5.371   5.399   5.411
  5.422   5.442   5.458   5.461   5.472   5.489   5.510   5.530
  5.532   5.542   5.556   5.585   5.606   5.653   5.659   5.665
  5.693   5.703   5.715   5.732   5.756   5.769   5.797   5.818
  5.847   5.881   5.887   5.933   5.946   5.988   6.015   6.090
  6.135   6.141   6.161   6.182   6.193   6.222   6.257   6.308
  6.343   6.350   6.397   6.403   6.482   6.846   7.020   7.975
  8.850   9.765  10.153  10.907  11.147  11.207  11.634  11.969
 12.219  12.501  12.555  12.793  12.860  13.076  13.149  13.395
 13.529  13.548  13.824  13.884  14.255  14.710  14.986
 --------------------------------------------------------------
 
          Ground-State Mulliken Net Atomic Charges

     Atom                 Charge (a.u.)
  ----------------------------------------
      1 C                    -0.072930
      2 C                    -0.102229
      3 N                    -0.154850
      4 C                    -0.157993
      5 C                    -0.094904
      6 C                     0.108847
      7 C                     0.035504
      8 C                    -0.095537
      9 C                     0.029494
     10 N                    -0.174979
     11 N                    -0.278367
     12 C                     0.016155
     13 C                     0.086692
     14 S                     0.415775
     15 N                    -0.274515
     16 C                    -0.032533
     17 S                     0.131798
     18 C                    -0.025840
     19 C                    -0.030202
     20 S                     0.082678
     21 C                     0.037124
     22 C                     0.037358
     23 C                    -0.158537
     24 C                    -0.163684
     25 N                    -0.184302
     26 S                     0.100157
     27 C                    -0.075600
     28 C                    -0.201815
     29 H                     0.124426
     30 H                     0.129828
     31 H                     0.131702
     32 H                     0.128808
     33 H                     0.134224
     34 H                     0.131454
     35 H                     0.143513
     36 H                     0.129083
     37 H                     0.144200
  ----------------------------------------
  Sum of atomic charges =     0.000000

 -----------------------------------------------------------------
                    Cartesian Multipole Moments
 -----------------------------------------------------------------
    Charge (ESU x 10^10)
                 0.0000
    Dipole Moment (Debye)
         X      -1.5704      Y       0.3850      Z       0.8350
       Tot       1.8198
    Quadrupole Moments (Debye-Ang)
        XX    -168.0067     XY      18.5565     YY    -170.9955
        XZ       8.3219     YZ       1.4857     ZZ    -189.7684
    Octopole Moments (Debye-Ang^2)
       XXX    -198.9092    XXY      64.5652    XYY     -30.9846
       YYY       0.4094    XXZ      21.1470    XYZ     -15.1354
       YYZ       8.8709    XZZ      -1.7606    YZZ     -12.8460
       ZZZ      -6.1962
    Hexadecapole Moments (Debye-Ang^3)
      XXXX  -17150.5686   XXXY    1290.5272   XXYY   -3552.5218
      XYYY     -34.1264   YYYY   -3489.8634   XXXZ     499.4118
      XXYZ      30.6841   XYYZ      59.1188   YYYZ      15.1533
      XXZZ   -3471.1641   XYZZ      15.2832   YYZZ    -737.7424
      XZZZ      81.2780   YZZZ     -25.0850   ZZZZ    -485.0305
 -----------------------------------------------------------------
Archival summary:
1\1\mn250\OPT\ProcedureUnspecified\BasisUnspecified\45199\afmv_a\FriJun209:39:432017FriJun209:39:432017\0\\#,OPT,ProcedureUnspecified,BasisUnspecified,\\0,1\S\C,1,1.71907\C,2,1.3795,1,110.823\C,3,1.41965,2,111.933,1,-1.15146,0\C,4,1.37377,3,114.577,2,2.58411,0\C,3,1.43637,2,135.815,1,179.476,0\H,6,1.07711,3,123.557,2,-1.07363,0\C,6,1.34487,3,111.279,2,178.699,0\H,8,1.07827,6,126.711,3,-179.714,0\C,2,1.44803,1,122.23,3,179.816,0\N,10,1.30224,2,123.209,1,-179.217,0\C,11,1.36317,10,111.151,2,-179.487,0\H,12,1.07917,11,119.171,10,179.92,0\C,12,1.35528,11,116.046,10,-0.00189249,0\H,14,1.07567,12,128.711,11,179.711,0\C,5,1.45079,4,126.026,3,-173.86,0\N,16,1.30822,5,117.612,4,19.8658,0\C,17,1.35746,16,120.625,5,179.663,0\H,18,1.08315,17,114.302,16,-179.194,0\C,18,1.36826,17,126.324,16,-0.943585,0\C,20,1.42491,18,114.827,17,-0.27504,0\N,21,1.33421,20,127.688,18,179.74,0\C,21,1.4276,20,119.427,18,0.776833,0\N,23,1.33114,21,113.613,20,179.175,0\C,20,1.47286,18,121.903,17,-179.974,0\C,25,1.39047,20,121.151,18,-42.2457,0\H,26,1.08218,25,120.159,20,-2.45584,0\C,26,1.38238,25,119.291,20,178.519,0\H,28,1.08056,26,121.056,25,179.77,0\C,28,1.38487,26,118.525,25,0.318626,0\H,30,1.08381,28,120.54,26,179.719,0\N,30,1.32963,28,123.262,26,-0.0701039,0\C,32,1.32583,30,117.722,28,0.0401662,0\H,33,1.08267,32,116.071,30,-179.913,0\S,24,1.60829,23,106.262,21,0.0917349,0\S,14,1.71427,12,109.652,11,-0.0286514,0\S,4,1.73256,3,111.58,2,-177.629,0\\\@

 Total job time:  6455.68s(wall), 97641.33s(cpu) 
 Fri Jun  2 09:39:43 2017

        *************************************************************
        *                                                           *
        *  Thank you very much for using Q-Chem.  Have a nice day.  *
        *                                                           *
        *************************************************************


0 sent ACK to 0 
now end server 0 ... 
cleanup process ... done
