
Running Job 1 of 1 C271_2/C271_270.qcin
qchem C271_2/C271_270.qcin_22723.0 /tmpu/cab_g/afmv_a/scratch_qchem/qchem22723/ 1
/tmpu/appuserlic/qchem4.4/parallel-MPICH/bin/mpi/mpirun_qchem -machinefile /tmpu/appuserlic/qchem4.4/parallel-MPICH/bin/mpi/machines -np 1 /tmpu/appuserlic/qchem4.4/parallel-MPICH/exe/qcprog.exe C271_2/C271_270.qcin_22723.0 /tmpu/cab_g/afmv_a/scratch_qchem/qchem22723/

Process 0 of 1 is on mn250 - thread support 0
initial socket setup ...start
initial socket setup ...done 
now start server 0 ... 
Check license passed

                  Welcome to Q-Chem
     A Quantum Leap Into The Future Of Chemistry


 Q-Chem 4.4, Q-Chem, Inc., Pleasanton, CA (2016)

 Y. Shao,  Z. Gan,  E. Epifanovsky,  A. T. B. Gilbert,  M. Wormit,  
 J. Kussmann,  A. W. Lange,  A. Behn,  J. Deng,  X. Feng,  D. Ghosh,  
 M. Goldey,  P. R. Horn,  L. D. Jacobson,  I. Kaliman,  F. Rob,  
 R. Z. Khaliullin,  T. Kus,  A. Landau,  J. Liu,  E. I. Proynov,  Y. M. Rhee,  
 R. M. Richard,  M. A. Rohrdanz,  R. P. Steele,  E. J. Sundstrom,  
 H. L. Woodcock III,  P. M. Zimmerman,  D. Zuev,  B. Albrecht,  E. Alguire,  
 B. Austin,  S. A. Baeppler,  G. J. O. Beran,  Y. A. Bernard,  E. Berquist,  
 K. Brandhorst,  K. B. Bravaya,  S. T. Brown,  D. Casanova,  C.-M. Chang,  
 Y. Chen,  S. H. Chien,  K. D. Closser,  M. P. Coons,  D. L. Crittenden,  
 S. Dasgupta,  M. Diedenhofen,  R. A. DiStasio Jr.,  H. Do,  A. D. Dutoi,  
 R. G. Edgar,  P.-T. Fang,  S. Fatehi,  Q. Feng,  L. Fusti-Molnar,  
 A. Ghysels,  A. Golubeva-Zadorozhnaya,  J. Gomes,  A. Gunina,  
 M. W. D. Hanson-Heine,  P. H. P. Harbach,  A. W. Hauser,  J. E. Herr,  
 E. G. Hohenstein,  Z. C. Holden,  K. Hui,  T.-C. Jagau,  H. Ji,  B. Kaduk,  
 K. Khistyaev,  Jaehoon Kim,  Jihan Kim,  R. A. King,  P. Klunzinger,  
 K. Koh,  D. Kosenkov,  T. Kowalczyk,  C. M. Krauter,  A. Kunitsa,  
 K. U. Lao,  A. Laurent,  K. V. Lawler,  J. Lee,  D. Lefrancois,  S. Lehtola,  
 S. V. Levchenko,  C. Y. Lin,  Y.-S. Lin,  F. Liu,  E. Livshits,  
 R. C. Lochan,  A. Luenser,  P. Manohar,  S. F. Manzer,  S.-P. Mao,  Y. Mao,  
 N. Mardirossian,  A. V. Marenich,  L. A. Martinez-Martinez,  S. A. Maurer,  
 N. J. Mayhall,  J.-M. Mewes,  A. F. Morrison,  K. Nanda,  T. S. Nguyen-Beck,  
 C. M. Oana,  R. Olivares-Amaya,  D. P. O'Neill,  J. A. Parkhill,  
 T. M. Perrine,  R. Peverati,  P. A. Pieniazek,  F. Plasser,  A. Prociuk,  
 D. R. Rehn,  E. Rosta,  N. J. Russ,  N. Sergueev,  S. M. Sharada,  
 S. Sharma,  D. W. Small,  A. Sodt,  T. Stauch,  T. Stein,  D. Stuck,  
 Y.-C. Su,  A. J. W. Thom,  T. Tsuchimochi,  L. Vogt,  O. Vydrov,  T. Wang,  
 M. A. Watson,  J. Wenzel,  A. White,  C. F. Williams,  V. Vanovschi,  
 K. Yao,  S. Yeganeh,  S. R. Yost,  Z.-Q. You,  I. Y. Zhang,  X. Zhang,  
 Y. Zhao,  B. R. Brooks,  G. K. L. Chan,  D. M. Chipman,  C. J. Cramer,  
 W. A. Goddard III,  M. S. Gordon,  W. J. Hehre,  A. Klamt,  
 H. F. Schaefer III,  M. W. Schmidt,  C. D. Sherrill,  D. G. Truhlar,  
 A. Warshel,  X. Xu,  A. Aspuru-Guzik,  R. Baer,  A. T. Bell,  N. A. Besley,  
 J.-D. Chai,  A. Dreuw,  B. D. Dunietz,  T. R. Furlani,  S. R. Gwaltney,  
 C.-P. Hsu,  Y. Jung,  J. Kong,  D. S. Lambrecht,  W. Liang,  C. Ochsenfeld,  
 V. A. Rassolov,  L. V. Slipchenko,  J. E. Subotnik,  T. Van Voorhis,  
 J. M. Herbert,  A. I. Krylov,  P. M. W. Gill,  M. Head-Gordon

 Contributors to earlier versions of Q-Chem not listed above: 
 R. D. Adamson,  J. Baker,  E. F. C. Byrd,  A. K. Chakraborty,  C.-L. Cheng,  
 H. Dachsel,  R. J. Doerksen,  G. Hawkins,  A. Heyden,  S. Hirata,  
 G. Kedziora,  F. J. Keil,  C. Kelley,  P. P. Korambath,  W. Kurlancheek,  
 A. M. Lee,  M. S. Lee,  D. Liotard,  I. Lotan,  P. E. Maslen,  N. Nair,  
 D. Neuhauser,  R. Olson,  B. Peters,  J. Ritchie,  N. E. Schultz,  
 N. Shenvi,  A. C. Simmonett,  K. S. Thanthiriwatte,  Q. Wu,  W. Zhang

 Please cite Q-Chem as follows:
 Y. Shao et al., Mol. Phys. 113, 184-215 (2015)
 DOI: 10.1080/00268976.2014.952696

 Q-Chem 4.4.2 for Intel X86 Linux

 Parts of Q-Chem use Armadillo 5.200.1 (Boston Tea Smuggler).
 http://arma.sourceforge.net/

 Q-Chem begins on Fri Jun  2 20:37:58 2017  

Host: 
0

     Scratch files written to /tmpu/cab_g/afmv_a/scratch_qchem/qchem22723//
 Dec716 11556_ 22328  22283 4050   
 Parallel job on  1  processors
Processing $rem in /tmpu/appuserlic/qchem4.4/parallel-MPICH/config/preferences.
 MEM_TOTAL  2000 
FILE_GEOM_ORG=        593

Checking the input file for inconsistencies... 	...done.

--------------------------------------------------------------
User input:
--------------------------------------------------------------
$comment
OPTIMIZATION
$end

$rem
JOBTYPE OPT
EXCHANGE omegaB97X-D
BASIS cc-pVTZ
$end

$molecule
0 1
C          0.00000        0.00000        0.00000
C          1.38508        0.00000        0.00000
N         -0.72771       -1.11322        0.00000
C          2.04720       -1.21160       -0.00386
C         -0.08136       -2.27149       -0.00595
C          1.30925       -2.38901       -0.00649
C          1.96927       -3.70493        0.02329
C          3.04486       -3.95576        0.82999
C          1.55200       -4.80802       -0.77739
N          3.72631       -5.12438        0.91627
N          0.54624       -4.84522       -1.65350
C          2.26335       -6.04410       -0.69858
C          3.37925       -6.16090        0.19241
S          0.53898       -6.32692       -2.28381
N          1.78433       -6.98642       -1.50573
C          4.16725       -7.35995        0.35676
S          5.58120       -7.77332       -0.55190
C          3.90722       -8.35529        1.27048
C          5.80523       -9.25600        0.29262
S          2.68089       -8.58065        2.47073
C          4.82589       -9.43516        1.24724
C          6.90654      -10.14781       -0.00401
C          3.40842      -10.10773        2.92275
C          4.50672      -10.44223        2.22249
N          7.10809      -11.26818        0.62809
S          8.08627       -9.81583       -1.24241
C          8.21561      -11.90690        0.15520
C          8.87815      -11.28521       -0.85052
H         -0.55134        0.93273        0.00000
H          1.92494        0.93597       -0.01293
H          3.12873       -1.25416       -0.02668
H         -0.69553       -3.16348       -0.00579
H          3.41622       -3.17720        1.48423
H          2.95765      -10.68107        3.71793
H          5.09054      -11.33643        2.36003
H          8.51158      -12.85105        0.58636
H          9.76633      -11.60307       -1.36777
$end

$opt
CONSTRAINT
tors 4 6 7 8 42.24575
tors 10 13 16 17 -90.00000
tors 17 19 22 25 179.21698
ENDCONSTRAINT
$end
--------------------------------------------------------------
 ----------------------------------------------------------------
             Standard Nuclear Orientation (Angstroms)
    I     Atom           X                Y                Z
 ----------------------------------------------------------------
    1      C       7.5149125206     0.7116385506    -0.9757649949
    2      C       6.6853064741     1.6167130192    -1.6168894918
    3      N       7.0612707640    -0.2644323352    -0.1945381424
    4      C       5.3208072992     1.5069351333    -1.4366586082
    5      C       5.7489402918    -0.3592628569    -0.0266422763
    6      C       4.8221469876     0.4969119169    -0.6229864239
    7      C       3.3737760789     0.3183696587    -0.4267644373
    8      C       2.4865905316     0.4171788957    -1.4629656564
    9      C       2.7844979053     0.0372896975     0.8404196664
   10      N       1.1401043467     0.2844663237    -1.3801805590
   11      N       3.4033690626    -0.1031324403     2.0142109015
   12      C       1.3665932386    -0.1016688754     0.9422060911
   13      C       0.5579157476     0.0324173950    -0.2328682971
   14      S       2.2570046956    -0.3902807786     3.1079077808
   15      N       0.9431039370    -0.3468699856     2.1789160378
   16      C      -0.8808200568    -0.0918945325    -0.2490440465
   17      S      -2.0101157099     1.1995114867    -0.0193612730
   18      C      -1.5685611076    -1.2657749829    -0.4545154314
   19      C      -3.3735461564     0.1649486203    -0.1995848756
   20      S      -1.0773865745    -2.8993482515    -0.7468481450
   21      C      -2.9804436497    -1.1368782717    -0.4302830509
   22      C      -4.7301420925     0.6642335576    -0.1185900205
   23      C      -2.7571785967    -3.3858494505    -0.8317637088
   24      C      -3.6453787650    -2.3921469899    -0.6523951259
   25      N      -5.7794085131    -0.0927536567    -0.2649187106
   26      S      -5.1062000363     2.3385289760     0.1829450987
   27      C      -6.9282022603     0.6317243250    -0.1483283107
   28      C      -6.7752603883     1.9566380602     0.0927998798
   29      H       8.5904335146     0.7707636796    -1.0928967972
   30      H       7.1105140136     2.3982086855    -2.2301748391
   31      H       4.6402110072     2.2084157792    -1.9022258296
   32      H       5.4040564895    -1.1617643614     0.6135900820
   33      H       2.8517736219     0.6115122008    -2.4634504278
   34      H      -2.9872290876    -4.4224327622    -1.0235849551
   35      H      -4.7168176425    -2.4964795104    -0.6745342502
   36      H      -7.8826219864     0.1380355896    -0.2496734038
   37      H      -7.5339591222     2.7090752136     0.2179430615
 ----------------------------------------------------------------
 Molecular Point Group                 C1    NOp =  1
 Largest Abelian Subgroup              C1    NOp =  1
 Nuclear Repulsion Energy =  2957.5865584787 hartrees
 There are      111 alpha and      111 beta electrons
 Requested basis set is cc-pVTZ
 There are 342 shells and 982 basis functions

 Total QAlloc Memory Limit   2000 MB
 Mega-Array Size        61 MB
 MEM_STATIC part        62 MB
 A cutoff of  1.0D-11 yielded  29216 shell pairs
 There are    232016 function pairs (    303139 Cartesian)
 
 -------------------------------------------------------
 OpenMP Integral Computing Module                       
 Release: version 1.0, May 2013, Q-Chem Inc. Pittsburgh 
 -------------------------------------------------------
 Integral Job Info:
 Integral job number is                      11
 Integral operator is                         1
 short-range coefficients              22203600
 long-range coefficients              100000000
 Omega coefficients                         200
 if combine SR and LR in K                    1
 Integral screening is                        0
 Integral computing path is                   2
 max size of driver memory is            800000
 size of driver memory is                776718
 size of scratch memory is             26248924
 max col of scratch BK array              10000
 max len of scratch array in speh3          662
 max len of scratch index in speh4           32
 max int batch size is                      520
 min int batch size is                       52
 fixed nKL is                                52
 max L of basis functions is                  3
 order of int derivative is                   0
 number of shells is                        342
 number of basis is                        1131
 number of cartesian basis is              1131
 number of contracted shell pairs         29216
 number of primitive shell pairs          92130
 maxK2 (contraction) of shell pair          121
 max number of K2 of shell pair               1
 max number of CS2 of shell pair           3965
 max number of PS2 of shell pair          11739
 mem total for path MDJ                  811160
 -------------------------------------------------------
 Smallest overlap matrix eigenvalue = 3.19E-05

 Scale SEOQF with 1.000000e-02/1.000000e-01/1.000000e-01

 Standard Electronic Orientation quadrupole field applied
 Nucleus-field energy     =     0.0000000130 hartrees
 Guess from superposition of atomic densities
 Warning:  Energy on first SCF cycle will be non-variational
 Long-range K will be added via erf
 Coulomb attenuation parameter = 0.2 bohr**(-1)
 A restricted hybrid HF-DFT SCF calculation will be
 performed using Pulay DIIS extrapolation
 Exchange:     0.2220 Hartree-Fock + 1.0000 wB97X-D + LR-HF
 Correlation:  1.0000 wB97X-D
 Using SG-2 standard quadrature grid
 Dispersion:   Grimme D
 SCF converges when DIIS error is below 1.0E-08
 using 16 threads for integral computing 
 using 16 threads for integral computing 
 K construction time:  CPU 69.81 s  wall 4.64 s
 -------------------------------------------------------
 OpenMP BLAS3 based DFT computing Module                
 Release: version 1.0, May 2013, Q-Chem Inc. Pittsburgh 
 -------------------------------------------------------
 ---------------------------------------
  Cycle       Energy         DIIS Error
 ---------------------------------------
    1   -2605.7500123603      1.87E-02
 K construction time:  CPU 1069.22 s  wall 69.81 s
    2   -2595.6389405069      1.40E-03
 K construction time:  CPU 1017.83 s  wall 66.44 s
    3   -2595.6359936652      1.53E-03
 K construction time:  CPU 972.21 s  wall 63.43 s
    4   -2595.8829929888      2.42E-04
 K construction time:  CPU 898.71 s  wall 58.71 s
    5   -2595.8885364662      1.32E-04
 K construction time:  CPU 846.99 s  wall 55.28 s
    6   -2595.8904610619      3.97E-05
 K construction time:  CPU 796.05 s  wall 51.98 s
    7   -2595.8906410181      1.98E-05
 K construction time:  CPU 746.97 s  wall 48.74 s
    8   -2595.8906948741      6.54E-06
 K construction time:  CPU 709.47 s  wall 46.24 s
    9   -2595.8907063030      3.32E-06
 K construction time:  CPU 669.31 s  wall 43.76 s
   10   -2595.8907097406      9.61E-07
 K construction time:  CPU 603.55 s  wall 39.31 s
   11   -2595.8907101379      5.70E-07
 K construction time:  CPU 554.16 s  wall 36.18 s
   12   -2595.8907102274      1.98E-07
 K construction time:  CPU 500.66 s  wall 32.56 s
   13   -2595.8907102395      1.08E-07
 K construction time:  CPU 435.86 s  wall 28.28 s
   14   -2595.8907102425      3.51E-08
 K construction time:  CPU 374.05 s  wall 24.19 s
   15   -2595.8907102435      1.45E-08
 K construction time:  CPU 1072.30 s  wall 70.03 s
   16   -2595.8907102391      5.42E-09 Convergence criterion met
 ---------------------------------------
 SCF time:  CPU 15155.89 s  wall 1012.33 s
 SCF   energy in the final basis set = -2595.8907102391
 Total energy in the final basis set = -2595.8907102391
 
 --------------------------------------------------------------
 
                    Orbital Energies (a.u.)
 --------------------------------------------------------------
 
 Alpha MOs
 -- Occupied --
-89.159 -89.095 -89.089 -89.075 -14.495 -14.491 -14.459 -14.440
-14.440 -10.371 -10.370 -10.366 -10.362 -10.342 -10.340 -10.339
-10.336 -10.332 -10.331 -10.330 -10.327 -10.324 -10.323 -10.323
-10.319 -10.312 -10.306 -10.297  -8.169  -8.110  -8.104  -8.091
 -6.119  -6.113  -6.113  -6.059  -6.055  -6.053  -6.052  -6.050
 -6.047  -6.040  -6.037  -6.032  -1.154  -1.080  -1.076  -1.058
 -1.023  -1.016  -0.958  -0.950  -0.914  -0.910  -0.906  -0.886
 -0.863  -0.845  -0.829  -0.809  -0.776  -0.755  -0.747  -0.732
 -0.723  -0.694  -0.686  -0.679  -0.648  -0.641  -0.627  -0.625
 -0.610  -0.601  -0.587  -0.578  -0.571  -0.570  -0.542  -0.530
 -0.528  -0.522  -0.519  -0.513  -0.510  -0.506  -0.501  -0.498
 -0.484  -0.483  -0.474  -0.466  -0.455  -0.441  -0.435  -0.435
 -0.432  -0.425  -0.408  -0.388  -0.386  -0.374  -0.369  -0.367
 -0.366  -0.363  -0.346  -0.336  -0.324  -0.321  -0.272
 -- Virtual --
 -0.051  -0.013   0.021   0.034   0.043   0.055   0.065   0.072
  0.074   0.078   0.089   0.110   0.114   0.118   0.129   0.133
  0.142   0.145   0.150   0.165   0.167   0.169   0.171   0.172
  0.186   0.192   0.197   0.210   0.216   0.227   0.229   0.245
  0.248   0.253   0.260   0.261   0.271   0.277   0.282   0.290
  0.296   0.297   0.299   0.303   0.308   0.311   0.322   0.324
  0.326   0.334   0.334   0.339   0.343   0.344   0.347   0.354
  0.362   0.363   0.368   0.371   0.374   0.377   0.383   0.385
  0.390   0.391   0.396   0.400   0.402   0.404   0.406   0.410
  0.412   0.418   0.422   0.423   0.430   0.431   0.439   0.443
  0.450   0.453   0.455   0.457   0.460   0.461   0.462   0.465
  0.470   0.470   0.473   0.479   0.481   0.483   0.490   0.492
  0.495   0.501   0.502   0.504   0.509   0.510   0.518   0.522
  0.523   0.530   0.531   0.535   0.539   0.543   0.547   0.551
  0.556   0.566   0.570   0.574   0.582   0.584   0.588   0.598
  0.601   0.604   0.611   0.615   0.622   0.627   0.632   0.638
  0.651   0.652   0.658   0.661   0.666   0.670   0.675   0.680
  0.685   0.687   0.693   0.695   0.704   0.712   0.715   0.726
  0.727   0.729   0.734   0.737   0.741   0.747   0.753   0.760
  0.761   0.769   0.771   0.775   0.778   0.779   0.786   0.794
  0.796   0.799   0.804   0.812   0.818   0.821   0.829   0.832
  0.836   0.844   0.846   0.848   0.852   0.856   0.860   0.862
  0.870   0.878   0.884   0.886   0.892   0.900   0.903   0.913
  0.918   0.920   0.923   0.925   0.930   0.939   0.946   0.950
  0.951   0.959   0.963   0.967   0.973   0.977   0.984   0.986
  0.991   0.995   1.000   1.006   1.012   1.027   1.030   1.036
  1.040   1.044   1.056   1.060   1.063   1.067   1.073   1.077
  1.083   1.085   1.093   1.103   1.107   1.109   1.117   1.124
  1.130   1.136   1.143   1.145   1.154   1.157   1.170   1.174
  1.180   1.182   1.197   1.198   1.206   1.212   1.220   1.221
  1.225   1.229   1.245   1.248   1.262   1.268   1.273   1.279
  1.287   1.289   1.298   1.303   1.310   1.314   1.326   1.336
  1.348   1.351   1.354   1.360   1.368   1.370   1.380   1.386
  1.390   1.393   1.399   1.410   1.413   1.421   1.425   1.436
  1.437   1.445   1.451   1.454   1.461   1.472   1.481   1.489
  1.491   1.503   1.509   1.522   1.523   1.528   1.533   1.550
  1.552   1.556   1.559   1.564   1.577   1.581   1.589   1.598
  1.604   1.605   1.616   1.626   1.630   1.631   1.640   1.647
  1.651   1.654   1.659   1.667   1.672   1.677   1.681   1.689
  1.690   1.694   1.702   1.704   1.709   1.718   1.729   1.737
  1.741   1.753   1.757   1.770   1.771   1.779   1.782   1.791
  1.797   1.805   1.816   1.829   1.842   1.849   1.856   1.864
  1.871   1.880   1.883   1.888   1.899   1.907   1.908   1.920
  1.928   1.931   1.942   1.947   1.963   1.969   1.975   1.981
  1.988   1.998   2.000   2.004   2.009   2.016   2.033   2.041
  2.045   2.060   2.063   2.074   2.075   2.079   2.087   2.095
  2.115   2.124   2.127   2.139   2.154   2.160   2.163   2.174
  2.177   2.188   2.189   2.192   2.206   2.219   2.225   2.229
  2.236   2.250   2.257   2.259   2.267   2.273   2.278   2.281
  2.299   2.305   2.317   2.333   2.340   2.345   2.359   2.365
  2.370   2.374   2.385   2.387   2.391   2.401   2.402   2.406
  2.424   2.427   2.430   2.436   2.439   2.451   2.454   2.468
  2.471   2.472   2.482   2.490   2.499   2.500   2.509   2.516
  2.525   2.527   2.530   2.540   2.553   2.557   2.562   2.571
  2.583   2.595   2.601   2.607   2.617   2.620   2.621   2.626
  2.643   2.646   2.659   2.663   2.668   2.674   2.676   2.685
  2.710   2.720   2.729   2.736   2.750   2.763   2.769   2.771
  2.780   2.786   2.790   2.791   2.796   2.802   2.810   2.813
  2.821   2.831   2.840   2.845   2.859   2.863   2.872   2.883
  2.888   2.895   2.902   2.915   2.922   2.933   2.938   2.941
  2.946   2.947   2.948   2.954   2.960   2.963   2.973   2.979
  2.984   2.988   2.997   2.999   3.010   3.017   3.018   3.023
  3.033   3.034   3.043   3.047   3.053   3.055   3.062   3.065
  3.069   3.074   3.084   3.090   3.095   3.097   3.102   3.105
  3.110   3.120   3.123   3.126   3.131   3.135   3.141   3.142
  3.151   3.158   3.163   3.168   3.171   3.174   3.178   3.181
  3.184   3.191   3.193   3.197   3.202   3.204   3.208   3.212
  3.222   3.223   3.227   3.230   3.236   3.239   3.245   3.250
  3.260   3.261   3.265   3.268   3.273   3.276   3.280   3.283
  3.294   3.298   3.303   3.304   3.310   3.318   3.322   3.324
  3.335   3.340   3.352   3.353   3.355   3.364   3.365   3.370
  3.376   3.383   3.385   3.390   3.403   3.413   3.417   3.427
  3.434   3.438   3.445   3.450   3.454   3.464   3.466   3.469
  3.479   3.482   3.486   3.487   3.495   3.502   3.508   3.517
  3.521   3.525   3.526   3.539   3.549   3.554   3.561   3.565
  3.577   3.583   3.586   3.594   3.595   3.612   3.620   3.635
  3.645   3.648   3.656   3.662   3.677   3.679   3.682   3.693
  3.701   3.710   3.722   3.730   3.736   3.744   3.750   3.758
  3.769   3.776   3.792   3.794   3.797   3.803   3.807   3.811
  3.824   3.829   3.838   3.840   3.853   3.856   3.865   3.870
  3.872   3.882   3.890   3.893   3.907   3.921   3.927   3.930
  3.940   3.944   3.946   3.950   3.958   3.969   3.971   3.974
  3.982   3.988   4.000   4.009   4.023   4.028   4.036   4.048
  4.052   4.061   4.065   4.066   4.089   4.091   4.107   4.116
  4.120   4.138   4.146   4.147   4.156   4.171   4.173   4.176
  4.189   4.191   4.196   4.198   4.205   4.221   4.227   4.239
  4.251   4.262   4.265   4.277   4.292   4.302   4.315   4.317
  4.324   4.326   4.334   4.342   4.359   4.368   4.382   4.392
  4.399   4.404   4.415   4.430   4.434   4.442   4.452   4.459
  4.467   4.479   4.485   4.500   4.503   4.508   4.535   4.543
  4.550   4.554   4.562   4.569   4.581   4.595   4.604   4.606
  4.620   4.630   4.638   4.648   4.656   4.667   4.671   4.682
  4.694   4.719   4.727   4.740   4.754   4.782   4.794   4.808
  4.816   4.818   4.832   4.836   4.845   4.846   4.851   4.860
  4.873   4.886   4.917   4.933   4.938   4.938   4.940   4.949
  4.953   4.961   4.968   4.971   4.988   4.992   4.999   5.006
  5.016   5.028   5.038   5.044   5.055   5.070   5.080   5.089
  5.107   5.111   5.135   5.143   5.157   5.164   5.171   5.195
  5.200   5.226   5.237   5.238   5.246   5.263   5.281   5.286
  5.293   5.313   5.321   5.334   5.342   5.359   5.404   5.409
  5.425   5.431   5.458   5.463   5.466   5.483   5.506   5.521
  5.534   5.546   5.565   5.602   5.608   5.647   5.659   5.664
  5.688   5.699   5.711   5.716   5.739   5.765   5.773   5.817
  5.853   5.862   5.903   5.922   5.934   5.958   6.005   6.089
  6.103   6.132   6.138   6.179   6.187   6.209   6.221   6.300
  6.326   6.346   6.389   6.393   6.474   6.829   7.013   7.857
  8.654   9.695  10.151  10.978  11.096  11.193  11.822  12.001
 12.208  12.519  12.630  12.715  12.808  12.907  13.182  13.228
 13.521  13.579  13.815  13.876  14.252  14.641  14.993
 --------------------------------------------------------------
 
          Ground-State Mulliken Net Atomic Charges

     Atom                 Charge (a.u.)
  ----------------------------------------
      1 C                    -0.069554
      2 C                    -0.101309
      3 N                    -0.154919
      4 C                    -0.156308
      5 C                    -0.091837
      6 C                     0.110488
      7 C                     0.045463
      8 C                    -0.116155
      9 C                     0.028122
     10 N                    -0.134147
     11 N                    -0.280452
     12 C                     0.025307
     13 C                    -0.046943
     14 S                     0.422774
     15 N                    -0.243321
     16 C                     0.045658
     17 S                     0.133823
     18 C                    -0.018417
     19 C                    -0.036970
     20 S                     0.059478
     21 C                     0.030103
     22 C                     0.037792
     23 C                    -0.149808
     24 C                    -0.164692
     25 N                    -0.188122
     26 S                     0.093008
     27 C                    -0.077889
     28 C                    -0.204639
     29 H                     0.125257
     30 H                     0.129979
     31 H                     0.132653
     32 H                     0.129518
     33 H                     0.137505
     34 H                     0.132309
     35 H                     0.144357
     36 H                     0.128383
     37 H                     0.143506
  ----------------------------------------
  Sum of atomic charges =     0.000000

 -----------------------------------------------------------------
                    Cartesian Multipole Moments
 -----------------------------------------------------------------
    Charge (ESU x 10^10)
                 0.0000
    Dipole Moment (Debye)
         X      -0.8027      Y       1.8005      Z      -0.1258
       Tot       1.9754
    Quadrupole Moments (Debye-Ang)
        XX    -172.5863     XY       6.7046     YY    -172.5453
        XZ      -8.6715     YZ      -2.1796     ZZ    -183.5940
    Octopole Moments (Debye-Ang^2)
       XXX    -231.6688    XXY     134.2168    XYY     -32.7682
       YYY     -20.3896    XXZ     -69.3531    XYZ     -38.2677
       YYZ      -9.7486    XZZ      41.2604    YZZ       5.4722
       ZZZ      37.8960
    Hexadecapole Moments (Debye-Ang^3)
      XXXX  -17808.1754   XXXY     201.0250   XXYY   -3291.6562
      XYYY      43.8611   YYYY   -2307.5238   XXXZ    -578.9813
      XXYZ    -115.8286   XYYZ     -15.3115   YYYZ      37.8587
      XXZZ   -3493.4699   XYZZ      37.8685   YYZZ    -706.9517
      XZZZ      50.4593   YZZZ     -42.8174   ZZZZ   -1664.0216
 -----------------------------------------------------------------
 Calculating analytic gradient of the SCF energy
 K construction time:  CPU 2714.80 s  wall 171.46 s
 Gradient of SCF Energy
            1           2           3           4           5           6
    1   0.0013483  -0.0022463   0.0005315   0.0019630  -0.0000637  -0.0010794
    2   0.0009360  -0.0007919   0.0000317  -0.0007395   0.0000472   0.0009850
    3  -0.0003868   0.0002002  -0.0000022   0.0000357  -0.0002860  -0.0005740
            7           8           9          10          11          12
    1   0.0009685  -0.0031739  -0.0005703   0.0048928  -0.0018129   0.0033011
    2   0.0003760  -0.0000557   0.0001473   0.0004132   0.0000628   0.0002616
    3  -0.0011784   0.0004072   0.0000743  -0.0053849  -0.0006299   0.0034513
           13          14          15          16          17          18
    1  -0.0253022   0.0015799   0.0022029   0.0268041  -0.0077526  -0.0050016
    2  -0.0119054  -0.0008156   0.0010006   0.0163802   0.0060378  -0.0144012
    3   0.0097292   0.0045373  -0.0046803  -0.0043269   0.0007044  -0.0030938
           19          20          21          22          23          24
    1   0.0027447  -0.0001210   0.0035237   0.0002746   0.0017424  -0.0026217
    2   0.0013742   0.0045172  -0.0044750   0.0001616   0.0017022  -0.0019253
    3   0.0002213   0.0010673  -0.0008548  -0.0000824   0.0001073   0.0000821
           25          26          27          28          29          30
    1  -0.0004981  -0.0002579   0.0007240   0.0007524  -0.0001513   0.0007285
    2   0.0001787   0.0008116  -0.0020640   0.0003416  -0.0002111  -0.0000562
    3   0.0003918   0.0003876  -0.0003286   0.0001834  -0.0000286   0.0004139
           31          32          33          34          35          36
    1  -0.0007044  -0.0005534  -0.0008228  -0.0009939   0.0001495  -0.0003639
    2  -0.0000907  -0.0000505   0.0003585  -0.0003306   0.0009693   0.0007232
    3   0.0002534  -0.0001530   0.0002293  -0.0002305   0.0001315  -0.0000915
           37
    1  -0.0001405
    2   0.0000950
    3  -0.0002960
 Max gradient component =       2.680E-02
 RMS gradient           =       4.721E-03
 Gradient time:  CPU 3152.06 s  wall 200.78 s
 Geometry Optimization Parameters
   NAtoms,    NIC,     NZ,  NCons,   NDum,   NFix, NCnnct, MaxDiis
       37     280       0       3       0       0       0       0


** CONSTRAINED OPTIMIZATION IN DELOCALIZED INTERNAL COORDINATES **
   Searching for a Minimum

   Optimization Cycle:   1

                       Coordinates (Angstroms)
     ATOM                X               Y               Z
      1  C         7.5149125206    0.7116385506   -0.9757649949
      2  C         6.6853064741    1.6167130192   -1.6168894918
      3  N         7.0612707640   -0.2644323352   -0.1945381424
      4  C         5.3208072992    1.5069351333   -1.4366586082
      5  C         5.7489402918   -0.3592628569   -0.0266422763
      6  C         4.8221469876    0.4969119169   -0.6229864239
      7  C         3.3737760789    0.3183696587   -0.4267644373
      8  C         2.4865905316    0.4171788957   -1.4629656564
      9  C         2.7844979053    0.0372896975    0.8404196664
     10  N         1.1401043467    0.2844663237   -1.3801805590
     11  N         3.4033690626   -0.1031324403    2.0142109015
     12  C         1.3665932386   -0.1016688754    0.9422060911
     13  C         0.5579157476    0.0324173950   -0.2328682971
     14  S         2.2570046956   -0.3902807786    3.1079077808
     15  N         0.9431039370   -0.3468699856    2.1789160378
     16  C        -0.8808200568   -0.0918945325   -0.2490440465
     17  S        -2.0101157099    1.1995114867   -0.0193612730
     18  C        -1.5685611076   -1.2657749829   -0.4545154314
     19  C        -3.3735461564    0.1649486203   -0.1995848756
     20  S        -1.0773865745   -2.8993482515   -0.7468481450
     21  C        -2.9804436497   -1.1368782717   -0.4302830509
     22  C        -4.7301420925    0.6642335576   -0.1185900205
     23  C        -2.7571785967   -3.3858494505   -0.8317637088
     24  C        -3.6453787650   -2.3921469899   -0.6523951259
     25  N        -5.7794085131   -0.0927536567   -0.2649187106
     26  S        -5.1062000363    2.3385289760    0.1829450987
     27  C        -6.9282022603    0.6317243250   -0.1483283107
     28  C        -6.7752603883    1.9566380602    0.0927998798
     29  H         8.5904335146    0.7707636796   -1.0928967972
     30  H         7.1105140136    2.3982086855   -2.2301748391
     31  H         4.6402110072    2.2084157792   -1.9022258296
     32  H         5.4040564895   -1.1617643614    0.6135900820
     33  H         2.8517736219    0.6115122008   -2.4634504278
     34  H        -2.9872290876   -4.4224327622   -1.0235849551
     35  H        -4.7168176425   -2.4964795104   -0.6745342502
     36  H        -7.8826219864    0.1380355896   -0.2496734038
     37  H        -7.5339591222    2.7090752136    0.2179430615
   Point Group: c1    Number of degrees of freedom:   105


   Energy is  -2595.890710239

              Constraints and their Current Values
                                        Value     Constraint
   Dihedral:        4   6   7   8       42.189       42.246
   Dihedral:       10  13  16  17      -90.000      -90.000
   Dihedral:       17  19  22  25      179.258      179.217

 Attempting to Generate Delocalized Internal Coordinates

   Using Lagrange Multiplier Algorithm


108 Hessian modes will be used to form the next step
  Hessian Eigenvalues:
    -0.977753   -0.977753   -0.977753    0.045000    0.045000    0.045000
     0.045000    0.045000    0.045000    0.045000    0.045000    0.045000
     0.045000    0.045000    0.045000    0.045000    0.045000    0.045000
     0.045000    0.045000    0.045000    0.045000    0.045000    0.045000
     0.045001    0.045001    0.045001    0.045001    0.045001    0.045003
     0.045005    0.045007    0.045009    0.045012    0.159961    0.159984
     0.159995    0.159997    0.159998    0.159999    0.160000    0.160000
     0.160000    0.220002    0.224572    0.225458    0.231978    0.233022
     0.234404    0.247446    0.247715    0.249914    0.249956    0.249989
     0.249992    0.249998    0.249998    0.249998    0.249999    0.249999
     0.249999    0.250000    0.250000    0.297523    0.305113    0.316324
     0.317276    0.326684    0.334470    0.354466    0.355754    0.356364
     0.356781    0.356811    0.359242    0.360775    0.361164    0.363918
     0.365008    0.372838    0.385313    0.386478    0.390167    0.393199
     0.397173    0.410394    0.431175    0.455299    0.463161    0.473302
     0.473331    0.475009    0.483101    0.491322    0.496878    0.499411
     0.517645    0.525704    0.538138    0.558610    0.574891    0.584500
     0.591081    0.623467    0.638992    1.022753    1.022753    1.022753

 Minimum Search - Taking P-RFO Step
 Searching for Lamda that Maximizes Along the Constraint modes Only
 Value Taken    Lamda =   0.00000256
 Searching for Lamda that Minimizes Along All other modes
 Value Taken    Lamda =  -0.00348825
 Step Taken.  Stepsize is  0.112305

                             Maximum     Tolerance    Cnvgd?
         Gradient            0.013376       0.000300      NO
         Displacement        0.050220       0.001200      NO
         Energy change     *********       0.000001      NO


 New Cartesian Coordinates Obtained by Inverse Iteration

 Displacement from previous Coordinates is:  0.795636
 ----------------------------------------------------------------
             Standard Nuclear Orientation (Angstroms)
    I     Atom           X                Y                Z
 ----------------------------------------------------------------
    1      C       7.5351847557     0.7410803038    -0.9013299565
    2      C       6.7183971336     1.6354154554    -1.5735554672
    3      N       7.0695418986    -0.2309771306    -0.1225265264
    4      C       5.3496811918     1.5158737560    -1.4284448116
    5      C       5.7549022592    -0.3358742766     0.0112054100
    6      C       4.8385653194     0.5066197520    -0.6199584718
    7      C       3.3862993580     0.3210346589    -0.4610161064
    8      C       2.5240339782     0.4062495402    -1.5203454390
    9      C       2.7706374663     0.0463100917     0.7923824194
   10      N       1.1718435042     0.2700125963    -1.4677429232
   11      N       3.3634928551    -0.0818202481     1.9804071709
   12      C       1.3514579606    -0.1015692324     0.8582771159
   13      C       0.5745561411     0.0201043135    -0.3323370416
   14      S       2.1848460711    -0.3680712401     3.0385726348
   15      N       0.8911715331    -0.3438054664     2.0849564701
   16      C      -0.8873603894    -0.1396136066    -0.3204081052
   17      S      -1.9923635955     1.1565613684    -0.0838980754
   18      C      -1.5862782770    -1.2993152332    -0.4928687500
   19      C      -3.3805901182     0.1467123530    -0.2170878047
   20      S      -1.1189898497    -2.9490838359    -0.7769099589
   21      C      -3.0006855721    -1.1571362504    -0.4393976057
   22      C      -4.7299216293     0.6619239511    -0.1098299596
   23      C      -2.8037402187    -3.4195633401    -0.8146183924
   24      C      -3.6756418032    -2.4121402785    -0.6310018698
   25      N      -5.7912745918    -0.0835325508    -0.2225019757
   26      S      -5.0810605172     2.3421062620     0.1836120721
   27      C      -6.9293484383     0.6542649171    -0.0779404163
   28      C      -6.7568901037     1.9787446518     0.1481576922
   29      H       8.6132180300     0.8086058269    -0.9893724997
   30      H       7.1499080695     2.4146501229    -2.1852669778
   31      H       4.6795428903     2.2085888230    -1.9205879787
   32      H       5.4027472781    -1.1343165661     0.6522656789
   33      H       2.9172480901     0.5912534781    -2.5126120226
   34      H      -3.0434127745    -4.4569055663    -0.9846663762
   35      H      -4.7478882681    -2.5141181757    -0.6284355727
   36      H      -7.8887093751     0.1643755145    -0.1454183332
   37      H      -7.5030634800     2.7399019843     0.2927492639
 ----------------------------------------------------------------
 Molecular Point Group                 C1    NOp =  1
 Largest Abelian Subgroup              C1    NOp =  1
 Nuclear Repulsion Energy =  2957.7088310098 hartrees
 There are      111 alpha and      111 beta electrons
 Applying Cartesian multipole field
    Component          Value
    ---------          -----
     (2,0,0)        1.00000E-12
     (0,2,0)        2.00000E-11
     (0,0,2)       -3.00000E-11
 Nucleus-field energy     =     0.0000000146 hartrees
 Requested basis set is cc-pVTZ
 There are 342 shells and 982 basis functions
 A cutoff of  1.0D-11 yielded  29201 shell pairs
 There are    231983 function pairs (    303132 Cartesian)
 Smallest overlap matrix eigenvalue = 3.13E-05
 Guess MOs from SCF MO coefficient file
 Reading MOs from coefficient file
 Reading MOs from coefficient file
 Long-range K will be added via erf
 Coulomb attenuation parameter = 0.2 bohr**(-1)
 A restricted hybrid HF-DFT SCF calculation will be
 performed using Pulay DIIS extrapolation
 Exchange:     0.2220 Hartree-Fock + 1.0000 wB97X-D + LR-HF
 Correlation:  1.0000 wB97X-D
 Using SG-2 standard quadrature grid
 Dispersion:   Grimme D
 SCF converges when DIIS error is below 1.0E-08
 Geometry optimization detected.  Setting ReadMinima to 0
 Setting SaveMinima to 0
 using 16 threads for integral computing 
 using 16 threads for integral computing 
 K construction time:  CPU 1065.13 s  wall 69.57 s
 -------------------------------------------------------
 OpenMP BLAS3 based DFT computing Module                
 Release: version 1.0, May 2013, Q-Chem Inc. Pittsburgh 
 -------------------------------------------------------
 ---------------------------------------
  Cycle       Energy         DIIS Error
 ---------------------------------------
    1   -2595.8858960916      4.74E-04
 K construction time:  CPU 1072.22 s  wall 70.00 s
    2   -2595.8920663919      5.81E-05
 K construction time:  CPU 837.90 s  wall 54.74 s
    3   -2595.8923197884      6.41E-05
 K construction time:  CPU 790.10 s  wall 51.53 s
    4   -2595.8927385287      1.63E-05
 K construction time:  CPU 735.21 s  wall 48.04 s
    5   -2595.8927707614      8.86E-06
 K construction time:  CPU 699.24 s  wall 45.73 s
    6   -2595.8927808640      3.38E-06
 K construction time:  CPU 643.12 s  wall 42.02 s
    7   -2595.8927825361      1.07E-06
 K construction time:  CPU 582.48 s  wall 38.03 s
    8   -2595.8927827298      4.94E-07
 K construction time:  CPU 540.85 s  wall 35.21 s
    9   -2595.8927827816      1.98E-07
 K construction time:  CPU 473.18 s  wall 30.84 s
   10   -2595.8927827902      7.17E-08
 K construction time:  CPU 423.27 s  wall 27.49 s
   11   -2595.8927827919      3.12E-08
 K construction time:  CPU 371.39 s  wall 24.15 s
   12   -2595.8927827913      1.31E-08
 K construction time:  CPU 310.38 s  wall 20.05 s
   13   -2595.8927827897      4.07E-09 Convergence criterion met
 ---------------------------------------
 SCF time:  CPU 11520.66 s  wall 768.86 s
 SCF   energy in the final basis set = -2595.8927827897
 Total energy in the final basis set = -2595.8927827897
 
 --------------------------------------------------------------
 
                    Orbital Energies (a.u.)
 --------------------------------------------------------------
 
 Alpha MOs
 -- Occupied --
-89.159 -89.093 -89.089 -89.075 -14.496 -14.492 -14.461 -14.440
-14.440 -10.372 -10.372 -10.366 -10.362 -10.343 -10.341 -10.339
-10.336 -10.332 -10.331 -10.330 -10.327 -10.324 -10.324 -10.323
-10.320 -10.313 -10.307 -10.297  -8.169  -8.108  -8.104  -8.090
 -6.119  -6.114  -6.113  -6.057  -6.054  -6.053  -6.051  -6.050
 -6.047  -6.040  -6.036  -6.032  -1.156  -1.079  -1.076  -1.059
 -1.024  -1.018  -0.957  -0.950  -0.914  -0.909  -0.906  -0.886
 -0.863  -0.845  -0.828  -0.807  -0.777  -0.756  -0.748  -0.732
 -0.723  -0.695  -0.687  -0.679  -0.648  -0.642  -0.627  -0.625
 -0.610  -0.601  -0.588  -0.579  -0.571  -0.569  -0.542  -0.531
 -0.528  -0.523  -0.519  -0.513  -0.510  -0.506  -0.501  -0.499
 -0.484  -0.482  -0.475  -0.467  -0.454  -0.443  -0.435  -0.435
 -0.432  -0.423  -0.410  -0.389  -0.387  -0.374  -0.369  -0.367
 -0.366  -0.363  -0.347  -0.336  -0.324  -0.322  -0.273
 -- Virtual --
 -0.051  -0.012   0.021   0.034   0.042   0.057   0.066   0.073
  0.075   0.080   0.089   0.110   0.113   0.118   0.128   0.133
  0.142   0.144   0.150   0.165   0.167   0.169   0.171   0.172
  0.186   0.192   0.197   0.209   0.215   0.227   0.230   0.243
  0.248   0.253   0.260   0.261   0.272   0.275   0.282   0.289
  0.296   0.296   0.299   0.304   0.308   0.310   0.322   0.323
  0.327   0.331   0.334   0.339   0.342   0.344   0.347   0.353
  0.360   0.363   0.368   0.372   0.373   0.377   0.384   0.385
  0.391   0.392   0.395   0.400   0.402   0.405   0.406   0.409
  0.412   0.418   0.421   0.422   0.430   0.431   0.439   0.443
  0.449   0.453   0.455   0.457   0.459   0.461   0.462   0.465
  0.469   0.471   0.473   0.479   0.482   0.485   0.489   0.491
  0.495   0.501   0.501   0.504   0.508   0.509   0.517   0.522
  0.523   0.529   0.531   0.534   0.539   0.543   0.547   0.550
  0.555   0.565   0.572   0.573   0.582   0.583   0.589   0.597
  0.601   0.604   0.611   0.614   0.622   0.626   0.632   0.638
  0.650   0.652   0.658   0.661   0.666   0.671   0.675   0.681
  0.684   0.687   0.694   0.695   0.703   0.712   0.715   0.726
  0.727   0.728   0.734   0.738   0.741   0.747   0.752   0.760
  0.760   0.765   0.771   0.775   0.776   0.780   0.785   0.795
  0.796   0.799   0.804   0.812   0.819   0.820   0.828   0.832
  0.836   0.843   0.845   0.848   0.852   0.856   0.860   0.861
  0.869   0.877   0.884   0.886   0.892   0.899   0.903   0.913
  0.917   0.919   0.923   0.925   0.931   0.939   0.946   0.950
  0.953   0.959   0.962   0.969   0.973   0.977   0.985   0.986
  0.990   0.996   1.001   1.007   1.011   1.026   1.030   1.036
  1.040   1.043   1.054   1.060   1.062   1.069   1.072   1.076
  1.082   1.085   1.092   1.103   1.106   1.109   1.118   1.125
  1.130   1.134   1.142   1.146   1.153   1.158   1.168   1.174
  1.180   1.182   1.196   1.199   1.207   1.215   1.217   1.220
  1.226   1.230   1.245   1.247   1.262   1.267   1.272   1.279
  1.285   1.289   1.297   1.304   1.309   1.314   1.325   1.336
  1.348   1.350   1.353   1.359   1.366   1.369   1.378   1.385
  1.389   1.393   1.399   1.409   1.413   1.421   1.423   1.435
  1.439   1.444   1.452   1.455   1.459   1.470   1.482   1.488
  1.492   1.503   1.509   1.521   1.525   1.529   1.534   1.549
  1.554   1.556   1.560   1.564   1.577   1.582   1.590   1.598
  1.603   1.606   1.616   1.627   1.630   1.632   1.641   1.646
  1.650   1.654   1.660   1.667   1.671   1.677   1.681   1.689
  1.690   1.693   1.696   1.702   1.710   1.718   1.728   1.737
  1.742   1.753   1.759   1.769   1.773   1.779   1.781   1.789
  1.798   1.806   1.816   1.830   1.838   1.848   1.855   1.864
  1.870   1.880   1.881   1.888   1.897   1.902   1.907   1.921
  1.925   1.932   1.942   1.945   1.963   1.968   1.975   1.980
  1.987   1.997   2.001   2.006   2.008   2.017   2.033   2.041
  2.046   2.060   2.063   2.072   2.075   2.079   2.085   2.094
  2.114   2.125   2.128   2.137   2.154   2.160   2.167   2.172
  2.177   2.185   2.189   2.192   2.207   2.218   2.226   2.227
  2.236   2.248   2.256   2.259   2.268   2.272   2.278   2.280
  2.297   2.302   2.313   2.330   2.342   2.345   2.357   2.361
  2.370   2.371   2.385   2.386   2.388   2.400   2.401   2.406
  2.422   2.426   2.430   2.437   2.442   2.451   2.454   2.467
  2.470   2.472   2.484   2.490   2.499   2.501   2.506   2.517
  2.525   2.529   2.531   2.541   2.553   2.557   2.564   2.569
  2.583   2.594   2.600   2.609   2.615   2.619   2.620   2.626
  2.643   2.649   2.655   2.663   2.667   2.674   2.681   2.684
  2.710   2.717   2.729   2.738   2.751   2.763   2.768   2.771
  2.779   2.786   2.789   2.792   2.795   2.800   2.810   2.814
  2.820   2.830   2.840   2.844   2.857   2.864   2.872   2.882
  2.890   2.895   2.900   2.913   2.921   2.933   2.938   2.940
  2.945   2.946   2.949   2.954   2.959   2.963   2.973   2.980
  2.983   2.987   2.998   2.999   3.009   3.016   3.018   3.022
  3.031   3.035   3.043   3.046   3.054   3.056   3.061   3.065
  3.068   3.074   3.084   3.089   3.094   3.096   3.102   3.106
  3.110   3.120   3.122   3.126   3.131   3.135   3.139   3.144
  3.150   3.158   3.161   3.168   3.171   3.174   3.178   3.183
  3.186   3.189   3.195   3.197   3.203   3.203   3.209   3.212
  3.220   3.222   3.228   3.231   3.236   3.239   3.245   3.249
  3.258   3.263   3.263   3.266   3.272   3.274   3.280   3.284
  3.294   3.297   3.303   3.305   3.312   3.316   3.321   3.324
  3.335   3.339   3.351   3.354   3.355   3.361   3.364   3.370
  3.374   3.382   3.386   3.389   3.400   3.411   3.417   3.426
  3.431   3.436   3.447   3.448   3.454   3.464   3.466   3.469
  3.476   3.481   3.484   3.486   3.494   3.504   3.505   3.515
  3.521   3.523   3.524   3.538   3.548   3.553   3.560   3.565
  3.576   3.583   3.586   3.592   3.597   3.609   3.616   3.633
  3.643   3.646   3.654   3.660   3.673   3.678   3.680   3.689
  3.700   3.710   3.717   3.730   3.734   3.743   3.749   3.757
  3.768   3.777   3.790   3.794   3.800   3.805   3.808   3.811
  3.824   3.829   3.835   3.841   3.852   3.855   3.865   3.869
  3.870   3.885   3.887   3.895   3.908   3.920   3.926   3.927
  3.936   3.943   3.944   3.952   3.957   3.969   3.970   3.974
  3.982   3.988   3.998   4.013   4.023   4.027   4.036   4.044
  4.050   4.053   4.063   4.065   4.089   4.090   4.101   4.116
  4.121   4.134   4.142   4.149   4.156   4.170   4.171   4.176
  4.189   4.192   4.196   4.197   4.204   4.222   4.227   4.238
  4.248   4.261   4.263   4.278   4.290   4.299   4.313   4.315
  4.325   4.328   4.330   4.340   4.357   4.368   4.381   4.392
  4.398   4.403   4.416   4.429   4.433   4.439   4.454   4.459
  4.466   4.479   4.485   4.500   4.504   4.506   4.535   4.543
  4.547   4.554   4.562   4.565   4.579   4.596   4.602   4.603
  4.620   4.633   4.640   4.648   4.656   4.668   4.671   4.683
  4.693   4.719   4.729   4.740   4.756   4.784   4.792   4.807
  4.816   4.817   4.830   4.837   4.845   4.848   4.850   4.859
  4.876   4.885   4.915   4.933   4.936   4.937   4.940   4.949
  4.954   4.960   4.969   4.970   4.989   4.992   4.999   5.006
  5.015   5.025   5.038   5.046   5.052   5.069   5.079   5.089
  5.106   5.110   5.134   5.143   5.155   5.164   5.171   5.193
  5.196   5.222   5.237   5.242   5.247   5.260   5.281   5.286
  5.288   5.312   5.318   5.335   5.341   5.362   5.396   5.409
  5.418   5.432   5.460   5.464   5.466   5.480   5.506   5.520
  5.534   5.545   5.561   5.600   5.605   5.648   5.655   5.664
  5.686   5.699   5.708   5.717   5.729   5.765   5.774   5.817
  5.849   5.857   5.898   5.922   5.936   5.960   6.006   6.097
  6.098   6.131   6.144   6.177   6.185   6.214   6.224   6.297
  6.325   6.348   6.389   6.393   6.470   6.827   7.013   7.858
  8.622   9.691  10.132  10.961  11.116  11.193  11.783  12.003
 12.135  12.522  12.609  12.708  12.822  12.914  13.185  13.227
 13.530  13.580  13.825  13.862  14.273  14.618  14.988
 --------------------------------------------------------------
 
          Ground-State Mulliken Net Atomic Charges

     Atom                 Charge (a.u.)
  ----------------------------------------
      1 C                    -0.069299
      2 C                    -0.101879
      3 N                    -0.154425
      4 C                    -0.155991
      5 C                    -0.092555
      6 C                     0.109347
      7 C                     0.045893
      8 C                    -0.109394
      9 C                     0.027876
     10 N                    -0.135316
     11 N                    -0.279785
     12 C                     0.025551
     13 C                    -0.039455
     14 S                     0.421399
     15 N                    -0.241847
     16 C                     0.031026
     17 S                     0.132258
     18 C                    -0.014472
     19 C                    -0.038801
     20 S                     0.056207
     21 C                     0.030326
     22 C                     0.039155
     23 C                    -0.149860
     24 C                    -0.165163
     25 N                    -0.187901
     26 S                     0.093436
     27 C                    -0.077117
     28 C                    -0.203903
     29 H                     0.125204
     30 H                     0.130365
     31 H                     0.132992
     32 H                     0.130049
     33 H                     0.137447
     34 H                     0.132794
     35 H                     0.144038
     36 H                     0.128382
     37 H                     0.143417
  ----------------------------------------
  Sum of atomic charges =     0.000000

 -----------------------------------------------------------------
                    Cartesian Multipole Moments
 -----------------------------------------------------------------
    Charge (ESU x 10^10)
                 0.0000
    Dipole Moment (Debye)
         X      -0.7261      Y       1.8188      Z      -0.0800
       Tot       1.9600
    Quadrupole Moments (Debye-Ang)
        XX    -172.1533     XY       6.6723     YY    -172.5232
        XZ      -9.6743     YZ      -2.2143     ZZ    -184.0723
    Octopole Moments (Debye-Ang^2)
       XXX    -222.3638    XXY     135.5279    XYY     -32.2185
       YYY     -18.1856    XXZ     -65.0926    XYZ     -38.0843
       YYZ      -6.0858    XZZ      40.2695    YZZ       6.9587
       ZZZ      46.2026
    Hexadecapole Moments (Debye-Ang^3)
      XXXX  -17810.1003   XXXY     166.3012   XXYY   -3287.9352
      XYYY       8.7699   YYYY   -2338.5027   XXXZ    -603.2046
      XXYZ    -112.5876   XYYZ     -13.8607   YYYZ      26.0340
      XXZZ   -3501.3502   XYZZ      23.5136   YYZZ    -707.6018
      XZZZ      62.0501   YZZZ     -52.3096   ZZZZ   -1627.4369
 -----------------------------------------------------------------
 Calculating analytic gradient of the SCF energy
 K construction time:  CPU 2690.81 s  wall 170.07 s
 Gradient of SCF Energy
            1           2           3           4           5           6
    1   0.0001109  -0.0007953  -0.0000935   0.0007606   0.0002718  -0.0004350
    2   0.0001800  -0.0000956  -0.0002516   0.0001660  -0.0002052   0.0001080
    3  -0.0000741  -0.0001390   0.0002403  -0.0001862  -0.0000466   0.0000164
            7           8           9          10          11          12
    1   0.0011001  -0.0010038   0.0008338   0.0039337   0.0008323   0.0009687
    2   0.0004066  -0.0005737  -0.0000763   0.0007724   0.0001631   0.0004367
    3   0.0003112  -0.0001384   0.0010730  -0.0031310  -0.0012854   0.0020929
           13          14          15          16          17          18
    1  -0.0071408   0.0003551  -0.0014198   0.0055475  -0.0028917  -0.0015487
    2  -0.0054368   0.0004460  -0.0000473   0.0059016  -0.0017374  -0.0024477
    3   0.0056750  -0.0015765  -0.0021863  -0.0002996  -0.0002575  -0.0004479
           19          20          21          22          23          24
    1   0.0005511  -0.0002430   0.0009359   0.0003746   0.0007950  -0.0007818
    2   0.0001842   0.0015326   0.0004603  -0.0004062  -0.0002859  -0.0005136
    3   0.0001963   0.0002387  -0.0001566   0.0000217  -0.0000427   0.0000849
           25          26          27          28          29          30
    1  -0.0003588  -0.0004648   0.0003330  -0.0001020  -0.0000773   0.0001831
    2   0.0004349   0.0000843  -0.0005124   0.0002861  -0.0000673   0.0000963
    3  -0.0000309  -0.0001354  -0.0001560   0.0002696   0.0000137   0.0001439
           31          32          33          34          35          36
    1  -0.0001485  -0.0000778   0.0000857  -0.0002595   0.0001076  -0.0001864
    2   0.0000475  -0.0000522   0.0003248  -0.0000161   0.0003601   0.0003071
    3   0.0001276   0.0000338  -0.0000612  -0.0000539  -0.0000283   0.0000102
           37
    1  -0.0000523
    2   0.0000268
    3  -0.0001158
 Max gradient component =       7.141E-03
 RMS gradient           =       1.518E-03
 Gradient time:  CPU 3127.09 s  wall 199.35 s
 Geometry Optimization Parameters
   NAtoms,    NIC,     NZ,  NCons,   NDum,   NFix, NCnnct, MaxDiis
       37     280       0       3       0       0       0       0

 Cartesian Hessian Update
 Hessian Updated using BFGS Update


** CONSTRAINED OPTIMIZATION IN DELOCALIZED INTERNAL COORDINATES **
   Searching for a Minimum

   Optimization Cycle:   2

                       Coordinates (Angstroms)
     ATOM                X               Y               Z
      1  C         7.5351847557    0.7410803038   -0.9013299565
      2  C         6.7183971336    1.6354154554   -1.5735554672
      3  N         7.0695418986   -0.2309771306   -0.1225265264
      4  C         5.3496811918    1.5158737560   -1.4284448116
      5  C         5.7549022592   -0.3358742766    0.0112054100
      6  C         4.8385653194    0.5066197520   -0.6199584718
      7  C         3.3862993580    0.3210346589   -0.4610161064
      8  C         2.5240339782    0.4062495402   -1.5203454390
      9  C         2.7706374663    0.0463100917    0.7923824194
     10  N         1.1718435042    0.2700125963   -1.4677429232
     11  N         3.3634928551   -0.0818202481    1.9804071709
     12  C         1.3514579606   -0.1015692324    0.8582771159
     13  C         0.5745561411    0.0201043135   -0.3323370416
     14  S         2.1848460711   -0.3680712401    3.0385726348
     15  N         0.8911715331   -0.3438054664    2.0849564701
     16  C        -0.8873603894   -0.1396136066   -0.3204081052
     17  S        -1.9923635955    1.1565613684   -0.0838980754
     18  C        -1.5862782770   -1.2993152332   -0.4928687500
     19  C        -3.3805901182    0.1467123530   -0.2170878047
     20  S        -1.1189898497   -2.9490838359   -0.7769099589
     21  C        -3.0006855721   -1.1571362504   -0.4393976057
     22  C        -4.7299216293    0.6619239511   -0.1098299596
     23  C        -2.8037402187   -3.4195633401   -0.8146183924
     24  C        -3.6756418032   -2.4121402785   -0.6310018698
     25  N        -5.7912745918   -0.0835325508   -0.2225019757
     26  S        -5.0810605172    2.3421062620    0.1836120721
     27  C        -6.9293484383    0.6542649171   -0.0779404163
     28  C        -6.7568901037    1.9787446518    0.1481576922
     29  H         8.6132180300    0.8086058269   -0.9893724997
     30  H         7.1499080695    2.4146501229   -2.1852669778
     31  H         4.6795428903    2.2085888230   -1.9205879787
     32  H         5.4027472781   -1.1343165661    0.6522656789
     33  H         2.9172480901    0.5912534781   -2.5126120226
     34  H        -3.0434127745   -4.4569055663   -0.9846663762
     35  H        -4.7478882681   -2.5141181757   -0.6284355727
     36  H        -7.8887093751    0.1643755145   -0.1454183332
     37  H        -7.5030634800    2.7399019843    0.2927492639
   Point Group: c1    Number of degrees of freedom:   105


   Energy is  -2595.892782790

              Constraints and their Current Values
                                        Value     Constraint
   Dihedral:        4   6   7   8       42.246       42.246
   Dihedral:       10  13  16  17      -90.000      -90.000
   Dihedral:       17  19  22  25      179.217      179.217
 Hessian Updated using BFGS Update

   Using Lagrange Multiplier Algorithm


104 Hessian modes will be used to form the next step
  Hessian Eigenvalues:
    -0.977709    0.044229    0.045000    0.045000    0.045000    0.045000
     0.045000    0.045000    0.045000    0.045000    0.045000    0.045000
     0.045000    0.045000    0.045000    0.045000    0.045000    0.045000
     0.045000    0.045000    0.045000    0.045001    0.045001    0.045001
     0.045001    0.045001    0.045002    0.045005    0.045007    0.045009
     0.045011    0.045233    0.156164    0.159962    0.159987    0.159997
     0.159998    0.159999    0.160000    0.160000    0.160125    0.182935
     0.220052    0.224627    0.225824    0.232000    0.233070    0.234466
     0.247490    0.247722    0.249915    0.249956    0.249989    0.249992
     0.249998    0.249998    0.249999    0.249999    0.250000    0.250000
     0.277607    0.298160    0.305016    0.315298    0.318577    0.326534
     0.334457    0.354422    0.355748    0.356359    0.356796    0.356825
     0.359240    0.360774    0.361163    0.363895    0.365006    0.370447
     0.384851    0.386445    0.393049    0.396903    0.397458    0.418529
     0.431251    0.455233    0.461438    0.472825    0.473362    0.474900
     0.482998    0.491127    0.496771    0.499439    0.517723    0.526283
     0.538367    0.558883    0.574876    0.588332    0.591842    0.624145
     0.638976    1.022839

 Minimum Search - Taking P-RFO Step
 Searching for Lamda that Maximizes Along the Constraint modes Only
 Value Taken    Lamda =   0.00000017
 Searching for Lamda that Minimizes Along All other modes
 Value Taken    Lamda =  -0.00059579
 Step Taken.  Stepsize is  0.061080

                             Maximum     Tolerance    Cnvgd?
         Gradient            0.003427       0.000300      NO
         Displacement        0.025925       0.001200      NO
         Energy change     -0.002073       0.000001      NO


 New Cartesian Coordinates Obtained by Inverse Iteration

 Displacement from previous Coordinates is:  0.428653
 ----------------------------------------------------------------
             Standard Nuclear Orientation (Angstroms)
    I     Atom           X                Y                Z
 ----------------------------------------------------------------
    1      C       7.5348588706     0.7631779514    -0.8666721155
    2      C       6.7210385995     1.6486527291    -1.5536483181
    3      N       7.0653090842    -0.2067588245    -0.0880444062
    4      C       5.3506775227     1.5213141488    -1.4238350626
    5      C       5.7497853854    -0.3196252989     0.0304986632
    6      C       4.8359583136     0.5126805526    -0.6169812929
    7      C       3.3820874149     0.3217148601    -0.4741999124
    8      C       2.5337556079     0.3998152754    -1.5459181316
    9      C       2.7543147733     0.0481960340     0.7737972508
   10      N       1.1798683075     0.2591999574    -1.5115556159
   11      N       3.3288980729    -0.0748725244     1.9735652667
   12      C       1.3381076284    -0.1071464736     0.8190319104
   13      C       0.5807982815     0.0094918621    -0.3833172173
   14      S       2.1407909960    -0.3674022407     3.0196976031
   15      N       0.8645069628    -0.3491012662     2.0440132141
   16      C      -0.8855474255    -0.1705321906    -0.3633620323
   17      S      -1.9686242552     1.1397787111    -0.1272797021
   18      C      -1.5891626533    -1.3251576538    -0.5186156037
   19      C      -3.3682122886     0.1391103406    -0.2325650378
   20      S      -1.1397540107    -2.9852226272    -0.7931487246
   21      C      -3.0026399478    -1.1700403447    -0.4489025264
   22      C      -4.7115256402     0.6641542116    -0.1091183970
   23      C      -2.8296112793    -3.4383209478    -0.8053628111
   24      C      -3.6891309469    -2.4210049022    -0.6207996504
   25      N      -5.7776540879    -0.0768423674    -0.2011664139
   26      S      -5.0463465331     2.3473139674     0.1811352808
   27      C      -6.9090308080     0.6682947987    -0.0418912749
   28      C      -6.7248462577     1.9927882163     0.1737917029
   29      H       8.6136086869     0.8369985369    -0.9422112762
   30      H       7.1531709736     2.4262096312    -2.1668301663
   31      H       4.6836998965     2.2068865163    -1.9296861565
   32      H       5.3960005943    -1.1162639411     0.6726315924
   33      H       2.9403114204     0.5784842568    -2.5337498804
   34      H      -3.0789708034    -4.4753213071    -0.9614063921
   35      H      -4.7620570928    -2.5173708638    -0.6033457923
   36      H      -7.8705187375     0.1804413800    -0.0904015582
   37      H      -7.4638578426     2.7588265593     0.3283594947
 ----------------------------------------------------------------
 Molecular Point Group                 C1    NOp =  1
 Largest Abelian Subgroup              C1    NOp =  1
 Nuclear Repulsion Energy =  2959.1271431236 hartrees
 There are      111 alpha and      111 beta electrons
 Applying Cartesian multipole field
    Component          Value
    ---------          -----
     (2,0,0)        1.00000E-12
     (0,2,0)        2.00000E-11
     (0,0,2)       -3.00000E-11
 Nucleus-field energy     =     0.0000000152 hartrees
 Requested basis set is cc-pVTZ
 There are 342 shells and 982 basis functions
 A cutoff of  1.0D-11 yielded  29240 shell pairs
 There are    232188 function pairs (    303367 Cartesian)
 Smallest overlap matrix eigenvalue = 3.06E-05
 Guess MOs from SCF MO coefficient file
 Reading MOs from coefficient file
 Reading MOs from coefficient file
 Long-range K will be added via erf
 Coulomb attenuation parameter = 0.2 bohr**(-1)
 A restricted hybrid HF-DFT SCF calculation will be
 performed using Pulay DIIS extrapolation
 Exchange:     0.2220 Hartree-Fock + 1.0000 wB97X-D + LR-HF
 Correlation:  1.0000 wB97X-D
 Using SG-2 standard quadrature grid
 Dispersion:   Grimme D
 SCF converges when DIIS error is below 1.0E-08
 Geometry optimization detected.  Setting ReadMinima to 0
 Setting SaveMinima to 0
 using 16 threads for integral computing 
 using 16 threads for integral computing 
 K construction time:  CPU 1065.82 s  wall 69.60 s
 -------------------------------------------------------
 OpenMP BLAS3 based DFT computing Module                
 Release: version 1.0, May 2013, Q-Chem Inc. Pittsburgh 
 -------------------------------------------------------
 ---------------------------------------
  Cycle       Energy         DIIS Error
 ---------------------------------------
    1   -2595.8871100844      2.56E-04
 K construction time:  CPU 1064.15 s  wall 69.56 s
    2   -2595.8928250948      3.24E-05
 K construction time:  CPU 804.63 s  wall 52.51 s
    3   -2595.8928899725      3.76E-05
 K construction time:  CPU 752.64 s  wall 49.15 s
    4   -2595.8930361328      8.09E-06
 K construction time:  CPU 701.21 s  wall 45.77 s
    5   -2595.8930446034      5.09E-06
 K construction time:  CPU 656.05 s  wall 42.84 s
    6   -2595.8930477927      1.85E-06
 K construction time:  CPU 602.52 s  wall 39.34 s
    7   -2595.8930483009      5.66E-07
 K construction time:  CPU 539.70 s  wall 35.13 s
    8   -2595.8930483587      2.76E-07
 K construction time:  CPU 504.62 s  wall 32.92 s
    9   -2595.8930483758      1.09E-07
 K construction time:  CPU 440.46 s  wall 28.67 s
   10   -2595.8930483787      4.24E-08
 K construction time:  CPU 389.95 s  wall 25.27 s
   11   -2595.8930483798      1.90E-08
 K construction time:  CPU 343.26 s  wall 22.18 s
   12   -2595.8930483799      6.57E-09 Convergence criterion met
 ---------------------------------------
 SCF time:  CPU 10606.79 s  wall 708.86 s
 SCF   energy in the final basis set = -2595.8930483799
 Total energy in the final basis set = -2595.8930483799
 
 --------------------------------------------------------------
 
                    Orbital Energies (a.u.)
 --------------------------------------------------------------
 
 Alpha MOs
 -- Occupied --
-89.160 -89.093 -89.088 -89.075 -14.496 -14.491 -14.461 -14.440
-14.440 -10.372 -10.371 -10.366 -10.361 -10.344 -10.340 -10.338
-10.336 -10.332 -10.331 -10.330 -10.327 -10.324 -10.323 -10.323
-10.319 -10.313 -10.307 -10.297  -8.170  -8.108  -8.104  -8.090
 -6.120  -6.114  -6.114  -6.057  -6.053  -6.053  -6.050  -6.049
 -6.047  -6.040  -6.036  -6.032  -1.155  -1.079  -1.077  -1.059
 -1.024  -1.016  -0.957  -0.950  -0.915  -0.909  -0.906  -0.886
 -0.863  -0.845  -0.828  -0.807  -0.777  -0.757  -0.748  -0.733
 -0.722  -0.695  -0.687  -0.679  -0.648  -0.642  -0.627  -0.625
 -0.610  -0.601  -0.587  -0.579  -0.571  -0.568  -0.542  -0.530
 -0.528  -0.523  -0.519  -0.513  -0.510  -0.506  -0.501  -0.499
 -0.484  -0.484  -0.474  -0.466  -0.455  -0.442  -0.435  -0.434
 -0.432  -0.423  -0.409  -0.389  -0.387  -0.374  -0.370  -0.367
 -0.366  -0.363  -0.347  -0.336  -0.324  -0.322  -0.273
 -- Virtual --
 -0.051  -0.012   0.021   0.034   0.042   0.056   0.066   0.072
  0.074   0.080   0.089   0.111   0.113   0.118   0.129   0.133
  0.142   0.144   0.151   0.165   0.166   0.169   0.171   0.172
  0.187   0.193   0.197   0.209   0.215   0.227   0.229   0.243
  0.248   0.253   0.260   0.261   0.271   0.275   0.282   0.289
  0.296   0.297   0.299   0.305   0.308   0.311   0.322   0.323
  0.327   0.331   0.334   0.339   0.342   0.344   0.347   0.353
  0.359   0.363   0.369   0.372   0.373   0.377   0.383   0.385
  0.391   0.392   0.395   0.401   0.402   0.405   0.406   0.410
  0.412   0.418   0.420   0.422   0.429   0.431   0.439   0.443
  0.449   0.453   0.455   0.457   0.459   0.461   0.462   0.465
  0.469   0.470   0.473   0.479   0.482   0.485   0.489   0.490
  0.495   0.500   0.501   0.505   0.508   0.509   0.517   0.522
  0.523   0.529   0.531   0.534   0.539   0.543   0.547   0.550
  0.555   0.564   0.572   0.575   0.582   0.583   0.589   0.597
  0.601   0.604   0.611   0.614   0.622   0.625   0.632   0.638
  0.651   0.652   0.659   0.660   0.667   0.672   0.676   0.681
  0.684   0.687   0.694   0.697   0.702   0.712   0.716   0.726
  0.727   0.728   0.734   0.738   0.741   0.747   0.752   0.759
  0.761   0.765   0.772   0.775   0.777   0.781   0.785   0.795
  0.796   0.799   0.804   0.812   0.819   0.820   0.828   0.833
  0.837   0.843   0.846   0.848   0.851   0.856   0.860   0.861
  0.869   0.876   0.883   0.886   0.892   0.898   0.903   0.913
  0.917   0.919   0.922   0.925   0.932   0.939   0.947   0.950
  0.954   0.959   0.962   0.971   0.974   0.977   0.984   0.987
  0.990   0.996   1.002   1.007   1.011   1.026   1.029   1.036
  1.039   1.043   1.053   1.059   1.062   1.069   1.072   1.076
  1.083   1.085   1.092   1.103   1.106   1.109   1.118   1.125
  1.130   1.134   1.142   1.147   1.154   1.158   1.168   1.174
  1.180   1.182   1.196   1.199   1.208   1.214   1.217   1.219
  1.227   1.230   1.246   1.247   1.262   1.267   1.272   1.279
  1.286   1.290   1.297   1.304   1.310   1.313   1.326   1.335
  1.348   1.350   1.353   1.359   1.365   1.369   1.378   1.385
  1.389   1.393   1.399   1.409   1.414   1.421   1.422   1.435
  1.441   1.444   1.454   1.456   1.460   1.470   1.482   1.488
  1.493   1.503   1.508   1.521   1.525   1.529   1.535   1.549
  1.555   1.557   1.560   1.564   1.577   1.583   1.590   1.597
  1.604   1.606   1.616   1.627   1.631   1.633   1.641   1.646
  1.648   1.655   1.660   1.667   1.671   1.678   1.681   1.687
  1.689   1.692   1.695   1.701   1.710   1.718   1.728   1.736
  1.742   1.754   1.760   1.768   1.773   1.779   1.781   1.789
  1.798   1.806   1.817   1.831   1.837   1.847   1.855   1.864
  1.870   1.879   1.882   1.888   1.896   1.901   1.907   1.920
  1.925   1.933   1.942   1.946   1.962   1.967   1.975   1.981
  1.987   1.997   2.002   2.008   2.008   2.018   2.033   2.041
  2.047   2.061   2.063   2.072   2.074   2.078   2.084   2.095
  2.114   2.126   2.128   2.137   2.154   2.161   2.168   2.172
  2.177   2.186   2.189   2.192   2.207   2.218   2.226   2.228
  2.236   2.248   2.256   2.259   2.268   2.271   2.278   2.280
  2.297   2.299   2.311   2.329   2.343   2.343   2.357   2.360
  2.371   2.372   2.385   2.386   2.388   2.400   2.401   2.406
  2.422   2.426   2.430   2.438   2.443   2.450   2.454   2.467
  2.469   2.471   2.483   2.490   2.500   2.501   2.505   2.517
  2.526   2.530   2.532   2.542   2.554   2.558   2.563   2.567
  2.583   2.594   2.600   2.609   2.615   2.619   2.620   2.626
  2.643   2.649   2.654   2.663   2.667   2.674   2.682   2.684
  2.710   2.717   2.729   2.738   2.751   2.763   2.768   2.771
  2.779   2.786   2.789   2.792   2.795   2.799   2.810   2.815
  2.820   2.830   2.840   2.843   2.857   2.865   2.871   2.881
  2.890   2.895   2.898   2.913   2.920   2.932   2.939   2.940
  2.944   2.947   2.949   2.953   2.959   2.964   2.973   2.981
  2.983   2.988   2.998   3.001   3.009   3.015   3.018   3.023
  3.030   3.036   3.043   3.046   3.055   3.056   3.061   3.065
  3.069   3.075   3.084   3.089   3.095   3.095   3.102   3.107
  3.110   3.120   3.122   3.126   3.131   3.135   3.138   3.145
  3.150   3.159   3.161   3.169   3.171   3.176   3.178   3.183
  3.187   3.189   3.197   3.198   3.203   3.203   3.210   3.213
  3.221   3.222   3.229   3.231   3.237   3.238   3.246   3.250
  3.257   3.262   3.263   3.267   3.271   3.274   3.281   3.283
  3.293   3.297   3.303   3.305   3.313   3.315   3.320   3.325
  3.334   3.339   3.351   3.354   3.356   3.359   3.363   3.370
  3.375   3.381   3.386   3.389   3.399   3.410   3.417   3.426
  3.432   3.436   3.447   3.448   3.454   3.463   3.466   3.470
  3.475   3.481   3.485   3.487   3.494   3.504   3.507   3.515
  3.522   3.524   3.525   3.539   3.547   3.553   3.560   3.566
  3.577   3.585   3.586   3.592   3.599   3.607   3.617   3.633
  3.642   3.646   3.653   3.661   3.672   3.678   3.680   3.689
  3.700   3.709   3.716   3.729   3.733   3.744   3.750   3.758
  3.768   3.777   3.789   3.795   3.800   3.806   3.809   3.810
  3.824   3.829   3.835   3.841   3.851   3.855   3.865   3.869
  3.871   3.886   3.888   3.895   3.909   3.920   3.926   3.927
  3.933   3.943   3.944   3.954   3.957   3.969   3.970   3.975
  3.983   3.988   3.997   4.014   4.025   4.028   4.035   4.043
  4.049   4.053   4.062   4.065   4.089   4.090   4.099   4.115
  4.122   4.133   4.142   4.150   4.157   4.169   4.171   4.177
  4.190   4.193   4.197   4.197   4.205   4.221   4.227   4.238
  4.248   4.260   4.265   4.279   4.291   4.299   4.311   4.316
  4.324   4.330   4.331   4.340   4.357   4.368   4.381   4.392
  4.398   4.402   4.418   4.429   4.434   4.439   4.455   4.458
  4.465   4.479   4.487   4.502   4.505   4.506   4.536   4.543
  4.547   4.555   4.561   4.566   4.579   4.596   4.602   4.604
  4.620   4.635   4.641   4.649   4.656   4.667   4.671   4.684
  4.693   4.720   4.731   4.741   4.758   4.785   4.792   4.810
  4.816   4.818   4.828   4.835   4.844   4.849   4.850   4.860
  4.878   4.885   4.913   4.932   4.936   4.937   4.942   4.948
  4.955   4.960   4.968   4.971   4.990   4.992   4.998   5.007
  5.016   5.025   5.037   5.046   5.052   5.070   5.079   5.090
  5.105   5.110   5.134   5.144   5.155   5.164   5.171   5.193
  5.196   5.221   5.237   5.244   5.247   5.257   5.281   5.287
  5.287   5.312   5.317   5.336   5.341   5.364   5.396   5.410
  5.416   5.433   5.464   5.465   5.466   5.482   5.506   5.521
  5.535   5.546   5.560   5.601   5.605   5.647   5.655   5.666
  5.687   5.701   5.709   5.719   5.726   5.766   5.776   5.817
  5.847   5.857   5.897   5.924   5.938   5.961   6.002   6.095
  6.100   6.132   6.146   6.177   6.184   6.216   6.228   6.296
  6.324   6.348   6.389   6.393   6.471   6.830   7.014   7.861
  8.623   9.690  10.136  10.970  11.094  11.193  11.776  11.985
 12.116  12.520  12.626  12.689  12.827  12.911  13.193  13.257
 13.532  13.585  13.830  13.866  14.273  14.649  14.986
 --------------------------------------------------------------
 
          Ground-State Mulliken Net Atomic Charges

     Atom                 Charge (a.u.)
  ----------------------------------------
      1 C                    -0.069401
      2 C                    -0.102019
      3 N                    -0.154335
      4 C                    -0.156055
      5 C                    -0.092905
      6 C                     0.109507
      7 C                     0.043694
      8 C                    -0.106721
      9 C                     0.029344
     10 N                    -0.134069
     11 N                    -0.282084
     12 C                     0.025564
     13 C                    -0.038424
     14 S                     0.424595
     15 N                    -0.243801
     16 C                     0.028099
     17 S                     0.131623
     18 C                    -0.014145
     19 C                    -0.038878
     20 S                     0.054926
     21 C                     0.032314
     22 C                     0.039211
     23 C                    -0.149638
     24 C                    -0.165347
     25 N                    -0.188005
     26 S                     0.093372
     27 C                    -0.077251
     28 C                    -0.204134
     29 H                     0.125106
     30 H                     0.130435
     31 H                     0.132919
     32 H                     0.130082
     33 H                     0.137731
     34 H                     0.132957
     35 H                     0.144362
     36 H                     0.128233
     37 H                     0.143139
  ----------------------------------------
  Sum of atomic charges =     0.000000

 -----------------------------------------------------------------
                    Cartesian Multipole Moments
 -----------------------------------------------------------------
    Charge (ESU x 10^10)
                 0.0000
    Dipole Moment (Debye)
         X      -0.6985      Y       1.8057      Z      -0.0312
       Tot       1.9363
    Quadrupole Moments (Debye-Ang)
        XX    -172.4849     XY       6.6575     YY    -172.4276
        XZ     -10.0852     YZ      -2.3034     ZZ    -184.0351
    Octopole Moments (Debye-Ang^2)
       XXX    -217.5556    XXY     134.5229    XYY     -32.4530
       YYY     -16.4607    XXZ     -62.6207    XYZ     -38.0694
       YYZ      -4.0874    XZZ      39.9841    YZZ       7.6583
       ZZZ      51.7785
    Hexadecapole Moments (Debye-Ang^3)
      XXXX  -17752.0697   XXXY     151.5358   XXYY   -3272.1363
      XYYY     -11.5106   YYYY   -2364.3584   XXXZ    -616.5072
      XXYZ    -110.5737   XYYZ     -14.5583   YYYZ      21.4844
      XXZZ   -3489.0752   XYZZ      14.4552   YYZZ    -711.8045
      XZZZ      66.0724   YZZZ     -56.5482   ZZZZ   -1615.1480
 -----------------------------------------------------------------
 Calculating analytic gradient of the SCF energy
 K construction time:  CPU 2704.53 s  wall 170.98 s
 Gradient of SCF Energy
            1           2           3           4           5           6
    1  -0.0000777   0.0001414  -0.0000666  -0.0001408   0.0000325  -0.0000523
    2  -0.0000585   0.0000226  -0.0000176   0.0002410  -0.0001349  -0.0003558
    3   0.0000433  -0.0000745   0.0000275   0.0001056  -0.0000754   0.0000452
            7           8           9          10          11          12
    1   0.0002446  -0.0012522   0.0001632   0.0007193  -0.0013706  -0.0004569
    2   0.0003801  -0.0007175   0.0002044   0.0003873  -0.0000572   0.0006212
    3   0.0007413  -0.0003330  -0.0015533  -0.0007055  -0.0000063  -0.0021689
           13          14          15          16          17          18
    1   0.0017399   0.0002853   0.0008600  -0.0017610   0.0001024  -0.0003084
    2  -0.0007533  -0.0004938   0.0001127   0.0009148  -0.0009288   0.0006637
    3   0.0003190   0.0028993   0.0000608   0.0012188  -0.0002832  -0.0000328
           19          20          21          22          23          24
    1   0.0003376  -0.0000434   0.0002024  -0.0002712   0.0000945   0.0002826
    2   0.0000281  -0.0002341   0.0000719   0.0000444  -0.0002976   0.0000780
    3   0.0002797  -0.0001066  -0.0001993   0.0000620  -0.0000412   0.0000370
           25          26          27          28          29          30
    1  -0.0000527   0.0000190   0.0002219   0.0002445   0.0000256  -0.0000143
    2   0.0000716   0.0001717  -0.0001559  -0.0000099   0.0000102   0.0000257
    3  -0.0001124  -0.0000867  -0.0001107   0.0000539  -0.0000129   0.0000568
           31          32          33          34          35          36
    1   0.0000244   0.0000549   0.0000000   0.0000416  -0.0000277   0.0000111
    2   0.0000195   0.0000166   0.0001075   0.0000757  -0.0000123  -0.0000450
    3   0.0000668   0.0000030  -0.0000823   0.0000151  -0.0000588   0.0000323
           37
    1   0.0000471
    2   0.0000035
    3  -0.0000235
 Max gradient component =       2.899E-03
 RMS gradient           =       5.618E-04
 Gradient time:  CPU 3140.60 s  wall 201.27 s
 Geometry Optimization Parameters
   NAtoms,    NIC,     NZ,  NCons,   NDum,   NFix, NCnnct, MaxDiis
       37     280       0       3       0       0       0       0

 Cartesian Hessian Update
 Hessian Updated using BFGS Update


** CONSTRAINED OPTIMIZATION IN DELOCALIZED INTERNAL COORDINATES **
   Searching for a Minimum

   Optimization Cycle:   3

                       Coordinates (Angstroms)
     ATOM                X               Y               Z
      1  C         7.5348588706    0.7631779514   -0.8666721155
      2  C         6.7210385995    1.6486527291   -1.5536483181
      3  N         7.0653090842   -0.2067588245   -0.0880444062
      4  C         5.3506775227    1.5213141488   -1.4238350626
      5  C         5.7497853854   -0.3196252989    0.0304986632
      6  C         4.8359583136    0.5126805526   -0.6169812929
      7  C         3.3820874149    0.3217148601   -0.4741999124
      8  C         2.5337556079    0.3998152754   -1.5459181316
      9  C         2.7543147733    0.0481960340    0.7737972508
     10  N         1.1798683075    0.2591999574   -1.5115556159
     11  N         3.3288980729   -0.0748725244    1.9735652667
     12  C         1.3381076284   -0.1071464736    0.8190319104
     13  C         0.5807982815    0.0094918621   -0.3833172173
     14  S         2.1407909960   -0.3674022407    3.0196976031
     15  N         0.8645069628   -0.3491012662    2.0440132141
     16  C        -0.8855474255   -0.1705321906   -0.3633620323
     17  S        -1.9686242552    1.1397787111   -0.1272797021
     18  C        -1.5891626533   -1.3251576538   -0.5186156037
     19  C        -3.3682122886    0.1391103406   -0.2325650378
     20  S        -1.1397540107   -2.9852226272   -0.7931487246
     21  C        -3.0026399478   -1.1700403447   -0.4489025264
     22  C        -4.7115256402    0.6641542116   -0.1091183970
     23  C        -2.8296112793   -3.4383209478   -0.8053628111
     24  C        -3.6891309469   -2.4210049022   -0.6207996504
     25  N        -5.7776540879   -0.0768423674   -0.2011664139
     26  S        -5.0463465331    2.3473139674    0.1811352808
     27  C        -6.9090308080    0.6682947987   -0.0418912749
     28  C        -6.7248462577    1.9927882163    0.1737917029
     29  H         8.6136086869    0.8369985369   -0.9422112762
     30  H         7.1531709736    2.4262096312   -2.1668301663
     31  H         4.6836998965    2.2068865163   -1.9296861565
     32  H         5.3960005943   -1.1162639411    0.6726315924
     33  H         2.9403114204    0.5784842568   -2.5337498804
     34  H        -3.0789708034   -4.4753213071   -0.9614063921
     35  H        -4.7620570928   -2.5173708638   -0.6033457923
     36  H        -7.8705187375    0.1804413800   -0.0904015582
     37  H        -7.4638578426    2.7588265593    0.3283594947
   Point Group: c1    Number of degrees of freedom:   105


   Energy is  -2595.893048380

              Constraints and their Current Values
                                        Value     Constraint
   Dihedral:        4   6   7   8       42.246       42.246
   Dihedral:       10  13  16  17      -90.000      -90.000
   Dihedral:       17  19  22  25      179.217      179.217
 Hessian Updated using BFGS Update

 88 Hessian modes will be used to form the next step
  Hessian Eigenvalues:
     0.042159    0.045000    0.045000    0.045000    0.045000    0.045000
     0.045000    0.045000    0.045000    0.045001    0.045001    0.045001
     0.045001    0.045005    0.045007    0.045009    0.045011    0.045119
     0.045312    0.149173    0.159962    0.159987    0.159997    0.159998
     0.160000    0.160000    0.160017    0.160121    0.167451    0.220042
     0.224635    0.225803    0.232006    0.233120    0.234482    0.247495
     0.247730    0.249915    0.249959    0.249989    0.249992    0.249998
     0.249999    0.249999    0.257878    0.297807    0.304905    0.314739
[...]
     26  S        -5.0359147268    2.3504803719    0.1758547087
     27  C        -6.9038931809    0.6746519383   -0.0231272145
     28  C        -6.7153183525    1.9992433574    0.1876553511
     29  H         8.6173371184    0.8548804464   -0.9114642139
     30  H         7.1615349309    2.4361013168   -2.1519809697
     31  H         4.6912182542    2.2096514671   -1.9340195877
     32  H         5.3927955620   -1.1063072278    0.6800302137
     33  H         2.9532939392    0.5833442648   -2.5435649510
     34  H        -3.1005688384   -4.4849786336   -0.9238915145
     35  H        -4.7724374113   -2.5144490647   -0.5795906973
     36  H        -7.8666579632    0.1884495334   -0.0611254026
     37  H        -7.4515065247    2.7666407300    0.3490050939
   Point Group: c1    Number of degrees of freedom:   105


   Energy is  -2595.893099745

              Constraints and their Current Values
                                        Value     Constraint
   Dihedral:        4   6   7   8       42.246       42.246
   Dihedral:       10  13  16  17      -90.000      -90.000
   Dihedral:       17  19  22  25      179.217      179.217
 Hessian Updated using BFGS Update

 97 Hessian modes will be used to form the next step
  Hessian Eigenvalues:
     0.007507    0.041594    0.044224    0.045000    0.045000    0.045000
     0.045000    0.045000    0.045000    0.045000    0.045000    0.045000
     0.045001    0.045001    0.045001    0.045001    0.045001    0.045004
     0.045005    0.045006    0.045008    0.045011    0.045024    0.045140
     0.045337    0.045799    0.153284    0.159480    0.159959    0.159992
     0.160001    0.160025    0.160044    0.160183    0.160326    0.168064
     0.219971    0.224867    0.225212    0.226522    0.232029    0.234277
     0.234529    0.247885    0.249642    0.249874    0.249931    0.249968
     0.249992    0.249997    0.251381    0.253557    0.261318    0.281813
     0.297906    0.304865    0.307200    0.316188    0.325890    0.334627
     0.350901    0.355048    0.355777    0.356422    0.356789    0.356834
     0.359246    0.360789    0.361308    0.363958    0.365040    0.381140
     0.386403    0.388851    0.395305    0.405142    0.409268    0.431254
     0.454905    0.457047    0.464330    0.473354    0.473963    0.475231
     0.483603    0.493024    0.497086    0.501244    0.521478    0.526391
     0.538607    0.558880    0.574934    0.591320    0.625142    0.639421
     0.677588

 Minimum Search - Taking Simple RFO Step
 Searching for Lamda that Minimizes Along All modes
 Value Taken    Lamda =   0.00000000
 Step Taken.  Stepsize is  0.004905

                             Maximum     Tolerance    Cnvgd?
         Gradient           0.000070      0.000300     YES
         Displacement       0.002368      0.001200      NO
         Energy change     -0.000001      0.000001     YES

 Final energy is   -2595.89309974478     


 ******************************
 **  OPTIMIZATION CONVERGED  **
 ******************************

                       Coordinates (Angstroms)
     ATOM                X               Y               Z
      1  C         7.5382901381    0.7775545018   -0.8448837810
      2  C         6.7269493392    1.6588591304   -1.5400893972
      3  N         7.0655781117   -0.1926106940   -0.0684704665
      4  C         5.3561331152    1.5274986729   -1.4207949693
      5  C         5.7494309870   -0.3096628381    0.0394647773
      6  C         4.8380306514    0.5179577210   -0.6173926057
      7  C         3.3834450665    0.3248493373   -0.4823771243
      8  C         2.5421881443    0.4024532857   -1.5582315819
      9  C         2.7492577089    0.0424454052    0.7614475722
     10  N         1.1876150958    0.2554964031   -1.5321428231
     11  N         3.3198287349   -0.0843038890    1.9621323060
     12  C         1.3329955480   -0.1206561214    0.7980433671
     13  C         0.5812097351    0.0008784528   -0.4096154072
     14  S         2.1250313539   -0.3883880163    2.9971494979
     15  N         0.8525311223   -0.3716413410    2.0173636783
     16  C        -0.8830899385   -0.1823429960   -0.4006326275
     17  S        -1.9614454208    1.1358878645   -0.1665004572
     18  C        -1.5924501266   -1.3361141002   -0.5358421109
     19  C        -3.3655843830    0.1385572372   -0.2522405384
     20  S        -1.1531704678   -3.0016645387   -0.7887842345
     21  C        -3.0055673552   -1.1737936234   -0.4570615799
     22  C        -4.7067388089    0.6666873599   -0.1166050346
     23  C        -2.8455878040   -3.4469345538   -0.7838688173
     24  C        -3.6993094038   -2.4235368108   -0.6073222253
     25  N        -5.7753971681   -0.0726376262   -0.1940197229
     26  S        -5.0359147268    2.3504803719    0.1758547087
     27  C        -6.9038931809    0.6746519383   -0.0231272145
     28  C        -6.7153183525    1.9992433574    0.1876553511
     29  H         8.6173371184    0.8548804464   -0.9114642139
     30  H         7.1615349309    2.4361013168   -2.1519809697
     31  H         4.6912182542    2.2096514671   -1.9340195877
     32  H         5.3927955620   -1.1063072278    0.6800302137
     33  H         2.9532939392    0.5833442648   -2.5435649510
     34  H        -3.1005688384   -4.4849786336   -0.9238915145
     35  H        -4.7724374113   -2.5144490647   -0.5795906973
     36  H        -7.8666579632    0.1884495334   -0.0611254026
     37  H        -7.4515065247    2.7666407300    0.3490050939

Z-matrix Print:
$molecule
0 1
S 
C  1 1.719128
C  2 1.361125 1 109.670502
C  3 1.424589 2 114.511953 1 -0.176608 0
C  4 1.376164 3 112.110331 2 0.219535 0
C  4 1.437259 3 111.958771 2 -179.963566 0
H  6 1.077329 4 123.469129 3 179.895551 0
C  6 1.344378 4 111.662275 3 -0.115896 0
H  8 1.078034 6 126.859946 4 179.794431 0
C  5 1.447762 4 127.168723 3 179.681182 0
N  10 1.301778 5 123.211022 4 0.966633 0
C  11 1.364239 10 111.132019 5 -179.629713 0
H  12 1.079237 11 119.126667 10 179.879768 0
C  12 1.354449 11 116.105254 10 -0.014668 0
H  14 1.075595 12 128.739980 11 179.754323 0
C  2 1.475745 1 121.872474 3 178.799689 0
N  16 1.301009 2 119.474672 1 90.000014 0
C  17 1.362771 16 120.061012 2 178.791717 0
H  18 1.082872 17 114.380444 16 -178.298958 0
C  18 1.367918 17 126.165319 16 0.852890 0
C  20 1.424446 18 115.100411 17 -1.010759 0
N  21 1.335388 20 127.858075 18 179.785736 0
C  21 1.426093 20 119.158681 18 0.577213 0
N  23 1.334384 21 113.737257 20 179.530543 0
C  20 1.473546 18 121.842072 17 179.156186 0
C  25 1.390345 20 121.061001 18 -42.245712 0
H  26 1.082055 25 120.188313 20 -2.083673 0
C  26 1.382253 25 119.237769 20 178.788667 0
H  28 1.080454 26 121.073506 25 179.657535 0
C  28 1.385021 26 118.500003 25 0.301440 0
H  30 1.083861 28 120.461853 26 179.688427 0
N  30 1.329472 28 123.311413 26 -0.130508 0
C  32 1.325743 30 117.708049 28 0.153385 0
H  33 1.082661 32 116.114008 30 179.844232 0
S  24 1.606088 23 105.909795 21 -0.031774 0
S  14 1.715781 12 109.596937 11 0.031037 0
S  3 1.740978 2 133.937263 1 179.821556 0
$end

 
 --------------------------------------------------------------
 
                    Orbital Energies (a.u.)
 --------------------------------------------------------------
 
 Alpha MOs
 -- Occupied --
-89.159 -89.093 -89.088 -89.075 -14.496 -14.492 -14.461 -14.440
-14.440 -10.371 -10.371 -10.366 -10.362 -10.343 -10.340 -10.339
-10.336 -10.332 -10.331 -10.330 -10.327 -10.324 -10.323 -10.323
-10.319 -10.313 -10.307 -10.297  -8.169  -8.108  -8.104  -8.090
 -6.119  -6.114  -6.113  -6.057  -6.053  -6.053  -6.050  -6.050
 -6.047  -6.040  -6.036  -6.032  -1.155  -1.079  -1.077  -1.059
 -1.024  -1.017  -0.957  -0.950  -0.915  -0.909  -0.906  -0.886
 -0.863  -0.845  -0.828  -0.807  -0.777  -0.757  -0.748  -0.733
 -0.722  -0.696  -0.687  -0.679  -0.648  -0.642  -0.627  -0.625
 -0.610  -0.601  -0.587  -0.579  -0.571  -0.568  -0.542  -0.530
 -0.528  -0.523  -0.519  -0.513  -0.510  -0.506  -0.501  -0.499
 -0.484  -0.483  -0.474  -0.467  -0.455  -0.442  -0.435  -0.434
 -0.432  -0.423  -0.410  -0.389  -0.387  -0.374  -0.370  -0.367
 -0.366  -0.363  -0.346  -0.336  -0.324  -0.322  -0.273
 -- Virtual --
 -0.051  -0.012   0.021   0.034   0.042   0.056   0.066   0.073
  0.075   0.080   0.089   0.110   0.113   0.118   0.129   0.133
  0.142   0.144   0.151   0.165   0.166   0.169   0.171   0.172
  0.186   0.193   0.198   0.209   0.215   0.227   0.229   0.243
  0.248   0.253   0.260   0.261   0.271   0.275   0.282   0.289
  0.296   0.296   0.299   0.305   0.308   0.310   0.322   0.323
  0.327   0.330   0.334   0.339   0.342   0.344   0.347   0.353
  0.359   0.363   0.368   0.372   0.373   0.377   0.383   0.385
  0.391   0.392   0.395   0.401   0.402   0.404   0.406   0.410
  0.412   0.418   0.419   0.422   0.429   0.431   0.439   0.443
  0.449   0.453   0.455   0.457   0.459   0.461   0.462   0.465
  0.469   0.470   0.474   0.478   0.482   0.485   0.489   0.490
  0.495   0.500   0.501   0.505   0.508   0.509   0.517   0.521
  0.523   0.529   0.530   0.534   0.539   0.543   0.547   0.550
  0.555   0.564   0.572   0.575   0.582   0.583   0.589   0.597
  0.601   0.604   0.610   0.614   0.622   0.625   0.632   0.638
  0.651   0.652   0.658   0.660   0.667   0.672   0.675   0.681
  0.684   0.687   0.694   0.698   0.702   0.712   0.716   0.726
  0.727   0.728   0.734   0.738   0.741   0.746   0.752   0.759
  0.761   0.765   0.772   0.775   0.777   0.780   0.785   0.795
  0.796   0.799   0.805   0.812   0.818   0.820   0.828   0.833
  0.837   0.843   0.846   0.848   0.851   0.855   0.860   0.861
  0.869   0.876   0.883   0.886   0.892   0.898   0.903   0.912
  0.915   0.919   0.922   0.925   0.933   0.939   0.947   0.950
  0.954   0.959   0.961   0.970   0.974   0.977   0.984   0.987
  0.989   0.996   1.001   1.007   1.011   1.026   1.030   1.035
  1.039   1.043   1.053   1.059   1.062   1.069   1.072   1.076
  1.083   1.086   1.092   1.103   1.105   1.110   1.118   1.125
  1.130   1.134   1.142   1.147   1.154   1.158   1.167   1.174
  1.179   1.182   1.195   1.199   1.208   1.214   1.217   1.219
  1.227   1.231   1.246   1.247   1.262   1.267   1.272   1.279
  1.286   1.289   1.296   1.304   1.309   1.313   1.326   1.335
  1.348   1.349   1.353   1.359   1.365   1.369   1.378   1.385
  1.389   1.392   1.399   1.409   1.413   1.421   1.422   1.435
  1.441   1.444   1.454   1.456   1.459   1.470   1.482   1.488
  1.492   1.502   1.508   1.521   1.525   1.529   1.535   1.548
  1.555   1.557   1.559   1.563   1.577   1.583   1.588   1.598
  1.603   1.607   1.616   1.627   1.631   1.633   1.640   1.646
  1.648   1.655   1.660   1.667   1.671   1.677   1.681   1.686
  1.689   1.691   1.694   1.701   1.710   1.717   1.727   1.737
  1.742   1.754   1.760   1.768   1.773   1.779   1.781   1.789
  1.799   1.806   1.817   1.832   1.836   1.848   1.854   1.864
  1.870   1.879   1.881   1.889   1.897   1.900   1.908   1.920
  1.925   1.933   1.941   1.945   1.962   1.966   1.976   1.981
  1.987   1.997   2.001   2.007   2.009   2.018   2.033   2.041
  2.047   2.061   2.063   2.072   2.073   2.078   2.083   2.095
  2.114   2.126   2.128   2.138   2.154   2.160   2.168   2.172
  2.177   2.185   2.190   2.193   2.206   2.218   2.226   2.228
  2.236   2.247   2.256   2.259   2.267   2.271   2.278   2.279
  2.296   2.299   2.310   2.328   2.343   2.344   2.356   2.360
  2.371   2.372   2.385   2.386   2.388   2.400   2.401   2.407
  2.421   2.426   2.430   2.438   2.443   2.450   2.454   2.467
  2.469   2.470   2.483   2.489   2.499   2.501   2.504   2.517
  2.525   2.530   2.532   2.542   2.554   2.558   2.564   2.566
  2.583   2.594   2.600   2.609   2.615   2.620   2.620   2.626
  2.642   2.649   2.653   2.663   2.667   2.674   2.681   2.682
  2.710   2.718   2.728   2.739   2.752   2.763   2.768   2.770
  2.779   2.786   2.788   2.792   2.795   2.799   2.810   2.815
  2.819   2.829   2.840   2.843   2.856   2.865   2.872   2.881
  2.890   2.895   2.898   2.913   2.920   2.932   2.938   2.939
  2.945   2.947   2.949   2.952   2.959   2.965   2.973   2.980
  2.983   2.988   2.998   3.002   3.009   3.015   3.018   3.023
  3.029   3.036   3.044   3.046   3.055   3.056   3.061   3.065
  3.068   3.075   3.084   3.088   3.094   3.095   3.102   3.106
  3.110   3.120   3.121   3.126   3.131   3.135   3.138   3.145
  3.151   3.158   3.161   3.168   3.171   3.176   3.178   3.184
  3.187   3.189   3.197   3.198   3.202   3.203   3.210   3.213
  3.221   3.222   3.229   3.231   3.237   3.238   3.246   3.250
  3.257   3.262   3.264   3.267   3.271   3.274   3.282   3.283
  3.293   3.297   3.303   3.305   3.312   3.315   3.320   3.324
  3.334   3.339   3.350   3.353   3.356   3.359   3.362   3.370
  3.375   3.381   3.386   3.389   3.398   3.410   3.417   3.425
  3.432   3.436   3.446   3.447   3.453   3.463   3.465   3.470
  3.475   3.481   3.484   3.487   3.494   3.503   3.505   3.516
  3.522   3.524   3.525   3.538   3.547   3.552   3.560   3.566
  3.576   3.585   3.587   3.591   3.598   3.607   3.616   3.634
  3.642   3.645   3.653   3.660   3.673   3.678   3.680   3.688
  3.699   3.709   3.716   3.728   3.732   3.744   3.749   3.758
  3.768   3.777   3.789   3.795   3.800   3.806   3.809   3.810
  3.824   3.829   3.835   3.842   3.852   3.855   3.864   3.869
  3.871   3.887   3.887   3.895   3.908   3.919   3.926   3.927
  3.933   3.943   3.944   3.955   3.957   3.969   3.970   3.975
  3.983   3.988   3.997   4.014   4.025   4.028   4.034   4.042
  4.049   4.054   4.062   4.065   4.089   4.090   4.099   4.115
  4.122   4.133   4.142   4.150   4.157   4.169   4.171   4.177
  4.190   4.193   4.197   4.197   4.205   4.221   4.227   4.237
  4.247   4.260   4.265   4.278   4.291   4.299   4.310   4.316
  4.325   4.330   4.331   4.340   4.357   4.368   4.380   4.391
  4.398   4.403   4.418   4.428   4.434   4.439   4.454   4.458
  4.466   4.479   4.487   4.502   4.504   4.507   4.535   4.542
  4.546   4.555   4.561   4.567   4.579   4.596   4.601   4.604
  4.620   4.636   4.640   4.649   4.656   4.667   4.671   4.683
  4.693   4.719   4.731   4.741   4.759   4.785   4.791   4.809
  4.816   4.817   4.829   4.836   4.844   4.849   4.850   4.860
  4.877   4.885   4.913   4.932   4.935   4.937   4.941   4.948
  4.954   4.960   4.968   4.971   4.990   4.992   4.998   5.008
  5.015   5.024   5.037   5.047   5.051   5.070   5.079   5.090
  5.105   5.109   5.135   5.144   5.157   5.165   5.172   5.193
  5.195   5.221   5.237   5.243   5.247   5.258   5.281   5.287
  5.287   5.312   5.317   5.337   5.340   5.363   5.395   5.409
  5.416   5.433   5.464   5.465   5.466   5.482   5.506   5.520
  5.534   5.545   5.560   5.601   5.605   5.647   5.655   5.666
  5.686   5.700   5.708   5.719   5.726   5.764   5.776   5.817
  5.846   5.857   5.898   5.923   5.939   5.961   6.004   6.095
  6.100   6.132   6.145   6.177   6.184   6.215   6.228   6.295
  6.324   6.347   6.389   6.392   6.470   6.830   7.014   7.860
  8.624   9.691  10.136  10.967  11.098  11.196  11.767  11.982
 12.112  12.519  12.623  12.689  12.824  12.910  13.194  13.252
 13.533  13.585  13.831  13.873  14.272  14.644  14.987
 --------------------------------------------------------------
 
          Ground-State Mulliken Net Atomic Charges

     Atom                 Charge (a.u.)
  ----------------------------------------
      1 C                    -0.069394
      2 C                    -0.102058
      3 N                    -0.154362
      4 C                    -0.155592
      5 C                    -0.093172
      6 C                     0.109134
      7 C                     0.045527
      8 C                    -0.107157
      9 C                     0.029305
     10 N                    -0.134577
     11 N                    -0.281520
     12 C                     0.023868
     13 C                    -0.038934
     14 S                     0.422992
     15 N                    -0.242214
     16 C                     0.030362
     17 S                     0.130084
     18 C                    -0.015430
     19 C                    -0.038604
     20 S                     0.054968
     21 C                     0.032998
     22 C                     0.039509
     23 C                    -0.149843
     24 C                    -0.164998
     25 N                    -0.188248
     26 S                     0.093481
     27 C                    -0.077270
     28 C                    -0.203873
     29 H                     0.125145
     30 H                     0.130408
     31 H                     0.132617
     32 H                     0.130124
     33 H                     0.137731
     34 H                     0.132993
     35 H                     0.144619
     36 H                     0.128246
     37 H                     0.143133
  ----------------------------------------
  Sum of atomic charges =     0.000000

 -----------------------------------------------------------------
                    Cartesian Multipole Moments
 -----------------------------------------------------------------
    Charge (ESU x 10^10)
                 0.0000
    Dipole Moment (Debye)
         X      -0.7180      Y       1.7966      Z      -0.0116
       Tot       1.9347
    Quadrupole Moments (Debye-Ang)
        XX    -172.3449     XY       6.6627     YY    -172.3632
        XZ     -10.4120     YZ      -2.3942     ZZ    -184.2904
    Octopole Moments (Debye-Ang^2)
       XXX    -216.0971    XXY     134.9240    XYY     -32.4158
       YYY     -15.0355    XXZ     -60.5195    XYZ     -37.8598
       YYZ      -2.3074    XZZ      39.4252    YZZ       8.3965
       ZZZ      54.7986
    Hexadecapole Moments (Debye-Ang^3)
      XXXX  -17735.7561   XXXY     145.8990   XXYY   -3268.4420
      XYYY     -19.0613   YYYY   -2379.5895   XXXZ    -627.4778
      XXYZ    -107.4314   XYYZ     -17.1036   YYYZ      25.0518
      XXZZ   -3488.7418   XYZZ      10.0890   YYZZ    -713.5143
      XZZZ      64.1264   YZZZ     -50.7943   ZZZZ   -1604.3862
 -----------------------------------------------------------------
Archival summary:
1\1\mn250\OPT\ProcedureUnspecified\BasisUnspecified\45199\afmv_a\FriJun222:32:182017FriJun222:32:182017\0\\#,OPT,ProcedureUnspecified,BasisUnspecified,\\0,1\S\C,1,1.71913\C,2,1.36112,1,109.671\C,3,1.42459,2,114.512,1,-0.176608,0\C,4,1.37616,3,112.11,2,0.219535,0\C,4,1.43726,3,111.959,2,-179.964,0\H,6,1.07733,4,123.469,3,179.896,0\C,6,1.34438,4,111.662,3,-0.115896,0\H,8,1.07803,6,126.86,4,179.794,0\C,5,1.44776,4,127.169,3,179.681,0\N,10,1.30178,5,123.211,4,0.966633,0\C,11,1.36424,10,111.132,5,-179.63,0\H,12,1.07924,11,119.127,10,179.88,0\C,12,1.35445,11,116.105,10,-0.014668,0\H,14,1.0756,12,128.74,11,179.754,0\C,2,1.47575,1,121.872,3,178.8,0\N,16,1.30101,2,119.475,1,90,0\C,17,1.36277,16,120.061,2,178.792,0\H,18,1.08287,17,114.38,16,-178.299,0\C,18,1.36792,17,126.165,16,0.85289,0\C,20,1.42445,18,115.1,17,-1.01076,0\N,21,1.33539,20,127.858,18,179.786,0\C,21,1.42609,20,119.159,18,0.577213,0\N,23,1.33438,21,113.737,20,179.531,0\C,20,1.47355,18,121.842,17,179.156,0\C,25,1.39034,20,121.061,18,-42.2457,0\H,26,1.08206,25,120.188,20,-2.08367,0\C,26,1.38225,25,119.238,20,178.789,0\H,28,1.08045,26,121.074,25,179.658,0\C,28,1.38502,26,118.5,25,0.30144,0\H,30,1.08386,28,120.462,26,179.688,0\N,30,1.32947,28,123.311,26,-0.130508,0\C,32,1.32574,30,117.708,28,0.153385,0\H,33,1.08266,32,116.114,30,179.844,0\S,24,1.60609,23,105.91,21,-0.031774,0\S,14,1.71578,12,109.597,11,0.0310368,0\S,3,1.74098,2,133.937,1,179.822,0\\\@

 Total job time:  6859.53s(wall), 103623.40s(cpu) 
 Fri Jun  2 22:32:18 2017

        *************************************************************
        *                                                           *
        *  Thank you very much for using Q-Chem.  Have a nice day.  *
        *                                                           *
        *************************************************************


0 sent ACK to 0 
now end server 0 ... 
cleanup process ... done
