
Running Job 1 of 1 C271_2/C271_90.qcin
qchem C271_2/C271_90.qcin_4170.0 /tmpu/cab_g/afmv_a/scratch_qchem/qchem4170/ 1
/tmpu/appuserlic/qchem4.4/parallel-MPICH/bin/mpi/mpirun_qchem -machinefile /tmpu/appuserlic/qchem4.4/parallel-MPICH/bin/mpi/machines -np 1 /tmpu/appuserlic/qchem4.4/parallel-MPICH/exe/qcprog.exe C271_2/C271_90.qcin_4170.0 /tmpu/cab_g/afmv_a/scratch_qchem/qchem4170/

Process 0 of 1 is on mn250 - thread support 0
initial socket setup ...start
initial socket setup ...done 
now start server 0 ... 
Check license passed

                  Welcome to Q-Chem
     A Quantum Leap Into The Future Of Chemistry


 Q-Chem 4.4, Q-Chem, Inc., Pleasanton, CA (2016)

 Y. Shao,  Z. Gan,  E. Epifanovsky,  A. T. B. Gilbert,  M. Wormit,  
 J. Kussmann,  A. W. Lange,  A. Behn,  J. Deng,  X. Feng,  D. Ghosh,  
 M. Goldey,  P. R. Horn,  L. D. Jacobson,  I. Kaliman,  F. Rob,  
 R. Z. Khaliullin,  T. Kus,  A. Landau,  J. Liu,  E. I. Proynov,  Y. M. Rhee,  
 R. M. Richard,  M. A. Rohrdanz,  R. P. Steele,  E. J. Sundstrom,  
 H. L. Woodcock III,  P. M. Zimmerman,  D. Zuev,  B. Albrecht,  E. Alguire,  
 B. Austin,  S. A. Baeppler,  G. J. O. Beran,  Y. A. Bernard,  E. Berquist,  
 K. Brandhorst,  K. B. Bravaya,  S. T. Brown,  D. Casanova,  C.-M. Chang,  
 Y. Chen,  S. H. Chien,  K. D. Closser,  M. P. Coons,  D. L. Crittenden,  
 S. Dasgupta,  M. Diedenhofen,  R. A. DiStasio Jr.,  H. Do,  A. D. Dutoi,  
 R. G. Edgar,  P.-T. Fang,  S. Fatehi,  Q. Feng,  L. Fusti-Molnar,  
 A. Ghysels,  A. Golubeva-Zadorozhnaya,  J. Gomes,  A. Gunina,  
 M. W. D. Hanson-Heine,  P. H. P. Harbach,  A. W. Hauser,  J. E. Herr,  
 E. G. Hohenstein,  Z. C. Holden,  K. Hui,  T.-C. Jagau,  H. Ji,  B. Kaduk,  
 K. Khistyaev,  Jaehoon Kim,  Jihan Kim,  R. A. King,  P. Klunzinger,  
 K. Koh,  D. Kosenkov,  T. Kowalczyk,  C. M. Krauter,  A. Kunitsa,  
 K. U. Lao,  A. Laurent,  K. V. Lawler,  J. Lee,  D. Lefrancois,  S. Lehtola,  
 S. V. Levchenko,  C. Y. Lin,  Y.-S. Lin,  F. Liu,  E. Livshits,  
 R. C. Lochan,  A. Luenser,  P. Manohar,  S. F. Manzer,  S.-P. Mao,  Y. Mao,  
 N. Mardirossian,  A. V. Marenich,  L. A. Martinez-Martinez,  S. A. Maurer,  
 N. J. Mayhall,  J.-M. Mewes,  A. F. Morrison,  K. Nanda,  T. S. Nguyen-Beck,  
 C. M. Oana,  R. Olivares-Amaya,  D. P. O'Neill,  J. A. Parkhill,  
 T. M. Perrine,  R. Peverati,  P. A. Pieniazek,  F. Plasser,  A. Prociuk,  
 D. R. Rehn,  E. Rosta,  N. J. Russ,  N. Sergueev,  S. M. Sharada,  
 S. Sharma,  D. W. Small,  A. Sodt,  T. Stauch,  T. Stein,  D. Stuck,  
 Y.-C. Su,  A. J. W. Thom,  T. Tsuchimochi,  L. Vogt,  O. Vydrov,  T. Wang,  
 M. A. Watson,  J. Wenzel,  A. White,  C. F. Williams,  V. Vanovschi,  
 K. Yao,  S. Yeganeh,  S. R. Yost,  Z.-Q. You,  I. Y. Zhang,  X. Zhang,  
 Y. Zhao,  B. R. Brooks,  G. K. L. Chan,  D. M. Chipman,  C. J. Cramer,  
 W. A. Goddard III,  M. S. Gordon,  W. J. Hehre,  A. Klamt,  
 H. F. Schaefer III,  M. W. Schmidt,  C. D. Sherrill,  D. G. Truhlar,  
 A. Warshel,  X. Xu,  A. Aspuru-Guzik,  R. Baer,  A. T. Bell,  N. A. Besley,  
 J.-D. Chai,  A. Dreuw,  B. D. Dunietz,  T. R. Furlani,  S. R. Gwaltney,  
 C.-P. Hsu,  Y. Jung,  J. Kong,  D. S. Lambrecht,  W. Liang,  C. Ochsenfeld,  
 V. A. Rassolov,  L. V. Slipchenko,  J. E. Subotnik,  T. Van Voorhis,  
 J. M. Herbert,  A. I. Krylov,  P. M. W. Gill,  M. Head-Gordon

 Contributors to earlier versions of Q-Chem not listed above: 
 R. D. Adamson,  J. Baker,  E. F. C. Byrd,  A. K. Chakraborty,  C.-L. Cheng,  
 H. Dachsel,  R. J. Doerksen,  G. Hawkins,  A. Heyden,  S. Hirata,  
 G. Kedziora,  F. J. Keil,  C. Kelley,  P. P. Korambath,  W. Kurlancheek,  
 A. M. Lee,  M. S. Lee,  D. Liotard,  I. Lotan,  P. E. Maslen,  N. Nair,  
 D. Neuhauser,  R. Olson,  B. Peters,  J. Ritchie,  N. E. Schultz,  
 N. Shenvi,  A. C. Simmonett,  K. S. Thanthiriwatte,  Q. Wu,  W. Zhang

 Please cite Q-Chem as follows:
 Y. Shao et al., Mol. Phys. 113, 184-215 (2015)
 DOI: 10.1080/00268976.2014.952696

 Q-Chem 4.4.2 for Intel X86 Linux

 Parts of Q-Chem use Armadillo 5.200.1 (Boston Tea Smuggler).
 http://arma.sourceforge.net/

 Q-Chem begins on Thu Jun  1 23:33:08 2017  

Host: 
0

     Scratch files written to /tmpu/cab_g/afmv_a/scratch_qchem/qchem4170//
 Dec716 11556_ 22328  22283 4050   
 Parallel job on  1  processors
Processing $rem in /tmpu/appuserlic/qchem4.4/parallel-MPICH/config/preferences.
 MEM_TOTAL  2000 
FILE_GEOM_ORG=        593

Checking the input file for inconsistencies... 	...done.

--------------------------------------------------------------
User input:
--------------------------------------------------------------
$comment
OPTIMIZATION
$end

$rem
JOBTYPE OPT
EXCHANGE omegaB97X-D
BASIS cc-pVTZ
$end

$molecule
0 1
C          0.00000        0.00000        0.00000
C          1.38508        0.00000        0.00000
N         -0.72771       -1.11322        0.00000
C          2.04720       -1.21160       -0.00386
C         -0.08136       -2.27149       -0.00595
C          1.30925       -2.38901       -0.00649
C          1.96927       -3.70493        0.02329
C          3.04486       -3.95576        0.82999
C          1.55200       -4.80802       -0.77739
N          3.72631       -5.12438        0.91627
N          0.54624       -4.84522       -1.65350
C          2.26335       -6.04410       -0.69858
C          3.37925       -6.16090        0.19241
S          0.53898       -6.32692       -2.28381
N          1.78433       -6.98642       -1.50573
C          4.16725       -7.35995        0.35676
S          3.85692       -8.62586        1.49560
C          5.28774       -7.67390       -0.37751
C          5.21454       -9.54986        0.98094
S          6.13711       -6.87494       -1.65638
C          5.89161       -8.91076       -0.03672
C          5.54017      -10.82932        1.57519
C          7.28251       -8.19777       -1.71777
C          7.05430       -9.18720       -0.83604
N          6.55224      -11.55561        1.19620
S          4.60833      -11.53848        2.86529
C          6.62416      -12.71156        1.91508
C          5.66795      -12.88640        2.85956
H         -0.55134        0.93273        0.00000
H          1.92494        0.93597       -0.01293
H          3.12873       -1.25416       -0.02668
H         -0.69553       -3.16348       -0.00579
H          3.41622       -3.17720        1.48423
H          8.08309       -8.15672       -2.43999
H          7.64537      -10.08075       -0.72854
H          7.41341      -13.41871        1.71026
H          5.53239      -13.71374        3.53378
$end

$opt
CONSTRAINT
tors 4 6 7 8 42.24575
tors 10 13 16 17 90.00000
tors 17 19 22 25 179.21698
ENDCONSTRAINT
$end
--------------------------------------------------------------
 ----------------------------------------------------------------
             Standard Nuclear Orientation (Angstroms)
    I     Atom           X                Y                Z
 ----------------------------------------------------------------
    1      C       7.5108900741    -0.4994700681    -1.1332583536
    2      C       6.8315129826     0.5112297976    -1.7930910259
    3      N       6.9172387775    -1.3570489740    -0.3080570626
    4      C       5.4728183327     0.6413409704    -1.5847348765
    5      C       5.6121818239    -1.2215099300    -0.1135098108
    6      C       4.8298346043    -0.2409159915    -0.7250453944
    7      C       3.3772392373    -0.1637169747    -0.4966472623
    8      C       2.4951755043     0.0493174235    -1.5199528584
    9      C       2.7792252559    -0.2972651787     0.7904247709
   10      N       1.1480231875     0.1504682825    -1.4084172837
   11      N       3.3931576954    -0.5009682644     1.9575142115
   12      C       1.3611014729    -0.1894719141     0.9224442887
   13      C       0.5590554859     0.0402342514    -0.2423284541
   14      S       2.2411046801    -0.5516228575     3.0813408244
   15      N       0.9317841870    -0.3169211034     2.1747867489
   16      C      -0.8799219535     0.1619895806    -0.2283501188
   17      S      -2.0067512922    -1.1392064044    -0.4098274800
   18      C      -1.5698971171     1.3410311005    -0.0640021848
   19      C      -3.3721615389    -0.1017284898    -0.2646468523
   20      S      -1.0818442576     2.9850742829     0.1688097057
   21      C      -2.9815328199     1.2083583702    -0.0813817610
   22      C      -4.7277806781    -0.6064773615    -0.3255662808
   23      C      -2.7625608143     3.4707404178     0.2388765473
   24      C      -3.6488630306     2.4693743465     0.0966313554
   25      N      -5.7784692860     0.1530548053    -0.2048161009
   26      S      -5.1006542469    -2.2912923758    -0.5663054977
   27      C      -6.9258540673    -0.5775717068    -0.2935539555
   28      C      -6.7704011998    -1.9099582027    -0.4872797712
   29      H       8.5777887382    -0.6281674934    -1.2715524673
   30      H       7.3681972093     1.1877230227    -2.4426930599
   31      H       4.9099579844     1.4321482819    -2.0641629434
   32      H       5.1517224025    -1.9314386972     0.5623816312
   33      H       2.8640578470     0.1446100929    -2.5333328588
   34      H      -2.9945786303     4.5130394119     0.3937820260
   35      H      -4.7204896641     2.5721605292     0.1167051277
   36      H      -7.8811985959    -0.0825914592    -0.2084698587
   37      H      -7.5276466825    -2.6680018785    -0.5841800395
 ----------------------------------------------------------------
 Molecular Point Group                 C1    NOp =  1
 Largest Abelian Subgroup              C1    NOp =  1
 Nuclear Repulsion Energy =  2957.9341119312 hartrees
 There are      111 alpha and      111 beta electrons
 Requested basis set is cc-pVTZ
 There are 342 shells and 982 basis functions

 Total QAlloc Memory Limit   2000 MB
 Mega-Array Size        61 MB
 MEM_STATIC part        62 MB
 A cutoff of  1.0D-11 yielded  29221 shell pairs
 There are    232027 function pairs (    303147 Cartesian)
 
 -------------------------------------------------------
 OpenMP Integral Computing Module                       
 Release: version 1.0, May 2013, Q-Chem Inc. Pittsburgh 
 -------------------------------------------------------
 Integral Job Info:
 Integral job number is                      11
 Integral operator is                         1
 short-range coefficients              22203600
 long-range coefficients              100000000
 Omega coefficients                         200
 if combine SR and LR in K                    1
 Integral screening is                        0
 Integral computing path is                   2
 max size of driver memory is            800000
 size of driver memory is                776718
 size of scratch memory is             26248924
 max col of scratch BK array              10000
 max len of scratch array in speh3          662
 max len of scratch index in speh4           32
 max int batch size is                      520
 min int batch size is                       52
 fixed nKL is                                52
 max L of basis functions is                  3
 order of int derivative is                   0
 number of shells is                        342
 number of basis is                        1131
 number of cartesian basis is              1131
 number of contracted shell pairs         29221
 number of primitive shell pairs          92169
 maxK2 (contraction) of shell pair          121
 max number of K2 of shell pair               1
 max number of CS2 of shell pair           3959
 max number of PS2 of shell pair          11746
 mem total for path MDJ                  811160
 -------------------------------------------------------
 Smallest overlap matrix eigenvalue = 3.20E-05

 Scale SEOQF with 1.000000e-02/1.000000e-01/1.000000e-01

 Standard Electronic Orientation quadrupole field applied
 Nucleus-field energy     =     0.0000000129 hartrees
 Guess from superposition of atomic densities
 Warning:  Energy on first SCF cycle will be non-variational
 Long-range K will be added via erf
 Coulomb attenuation parameter = 0.2 bohr**(-1)
 A restricted hybrid HF-DFT SCF calculation will be
 performed using Pulay DIIS extrapolation
 Exchange:     0.2220 Hartree-Fock + 1.0000 wB97X-D + LR-HF
 Correlation:  1.0000 wB97X-D
 Using SG-2 standard quadrature grid
 Dispersion:   Grimme D
 SCF converges when DIIS error is below 1.0E-08
 using 16 threads for integral computing 
 using 16 threads for integral computing 
 K construction time:  CPU 70.78 s  wall 4.65 s
 -------------------------------------------------------
 OpenMP BLAS3 based DFT computing Module                
 Release: version 1.0, May 2013, Q-Chem Inc. Pittsburgh 
 -------------------------------------------------------
 ---------------------------------------
  Cycle       Energy         DIIS Error
 ---------------------------------------
    1   -2605.7491192436      1.87E-02
 K construction time:  CPU 1071.02 s  wall 69.91 s
    2   -2595.6395518382      1.40E-03
 K construction time:  CPU 1014.89 s  wall 66.35 s
    3   -2595.6379503005      1.52E-03
 K construction time:  CPU 974.66 s  wall 63.63 s
    4   -2595.8829132603      2.42E-04
 K construction time:  CPU 897.48 s  wall 58.50 s
    5   -2595.8884623307      1.31E-04
 K construction time:  CPU 849.54 s  wall 55.47 s
    6   -2595.8903682140      3.94E-05
 K construction time:  CPU 793.81 s  wall 51.90 s
    7   -2595.8905464399      1.96E-05
 K construction time:  CPU 745.70 s  wall 48.67 s
    8   -2595.8905991175      6.58E-06
 K construction time:  CPU 705.38 s  wall 46.05 s
    9   -2595.8906105659      3.36E-06
 K construction time:  CPU 672.25 s  wall 43.87 s
   10   -2595.8906140282      9.69E-07
 K construction time:  CPU 603.31 s  wall 39.31 s
   11   -2595.8906144305      5.67E-07
 K construction time:  CPU 557.27 s  wall 36.24 s
   12   -2595.8906145199      2.02E-07
 K construction time:  CPU 501.39 s  wall 32.62 s
   13   -2595.8906145324      1.09E-07
 K construction time:  CPU 437.09 s  wall 28.38 s
   14   -2595.8906145359      3.51E-08
 K construction time:  CPU 375.88 s  wall 24.35 s
   15   -2595.8906145365      1.44E-08
 K construction time:  CPU 1068.21 s  wall 69.81 s
   16   -2595.8906145317      5.50E-09 Convergence criterion met
 ---------------------------------------
 SCF time:  CPU 15176.33 s  wall 1012.69 s
 SCF   energy in the final basis set = -2595.8906145317
 Total energy in the final basis set = -2595.8906145317
 
 --------------------------------------------------------------
 
                    Orbital Energies (a.u.)
 --------------------------------------------------------------
 
 Alpha MOs
 -- Occupied --
-89.159 -89.095 -89.088 -89.076 -14.494 -14.491 -14.459 -14.440
-14.440 -10.371 -10.370 -10.366 -10.362 -10.342 -10.340 -10.339
-10.336 -10.332 -10.331 -10.330 -10.327 -10.324 -10.323 -10.323
-10.319 -10.313 -10.306 -10.297  -8.169  -8.110  -8.104  -8.091
 -6.119  -6.113  -6.113  -6.059  -6.055  -6.053  -6.052  -6.050
 -6.047  -6.041  -6.037  -6.033  -1.154  -1.079  -1.076  -1.058
 -1.023  -1.016  -0.958  -0.950  -0.914  -0.910  -0.906  -0.886
 -0.863  -0.845  -0.829  -0.809  -0.776  -0.755  -0.747  -0.732
 -0.723  -0.694  -0.686  -0.679  -0.648  -0.641  -0.627  -0.625
 -0.610  -0.601  -0.585  -0.580  -0.573  -0.568  -0.542  -0.530
 -0.528  -0.522  -0.519  -0.514  -0.510  -0.506  -0.501  -0.498
 -0.485  -0.483  -0.473  -0.468  -0.455  -0.441  -0.435  -0.435
 -0.432  -0.425  -0.408  -0.388  -0.387  -0.374  -0.369  -0.367
 -0.366  -0.363  -0.346  -0.336  -0.324  -0.321  -0.273
 -- Virtual --
 -0.051  -0.013   0.021   0.034   0.043   0.056   0.065   0.072
  0.073   0.078   0.088   0.110   0.113   0.118   0.129   0.133
  0.141   0.144   0.150   0.165   0.167   0.169   0.171   0.171
  0.186   0.192   0.198   0.210   0.215   0.226   0.230   0.245
  0.250   0.251   0.260   0.262   0.271   0.277   0.282   0.292
  0.295   0.296   0.297   0.302   0.307   0.313   0.322   0.325
  0.329   0.331   0.335   0.337   0.340   0.343   0.351   0.354
  0.360   0.365   0.367   0.371   0.374   0.378   0.381   0.385
  0.390   0.391   0.397   0.398   0.400   0.404   0.408   0.409
  0.412   0.419   0.421   0.424   0.428   0.431   0.440   0.444
  0.449   0.452   0.456   0.457   0.460   0.461   0.462   0.465
  0.469   0.470   0.475   0.480   0.482   0.483   0.489   0.492
  0.494   0.499   0.502   0.503   0.509   0.511   0.518   0.520
  0.523   0.529   0.535   0.536   0.539   0.544   0.546   0.550
  0.554   0.562   0.568   0.579   0.581   0.584   0.588   0.597
  0.600   0.607   0.615   0.617   0.621   0.628   0.629   0.632
  0.645   0.658   0.659   0.664   0.667   0.669   0.673   0.677
  0.685   0.687   0.693   0.694   0.705   0.712   0.720   0.722
  0.727   0.730   0.734   0.737   0.743   0.748   0.752   0.756
  0.764   0.766   0.772   0.774   0.779   0.781   0.787   0.791
  0.797   0.800   0.803   0.813   0.817   0.824   0.828   0.833
  0.834   0.839   0.845   0.850   0.854   0.856   0.859   0.862
  0.873   0.875   0.885   0.886   0.898   0.901   0.905   0.909
  0.917   0.920   0.922   0.925   0.931   0.938   0.946   0.952
  0.954   0.956   0.961   0.966   0.974   0.978   0.983   0.989
  0.991   0.994   0.997   1.006   1.012   1.023   1.031   1.034
  1.043   1.047   1.056   1.059   1.060   1.066   1.072   1.076
  1.084   1.088   1.088   1.099   1.110   1.113   1.116   1.120
  1.133   1.136   1.137   1.153   1.154   1.162   1.163   1.172
  1.180   1.184   1.194   1.199   1.204   1.213   1.217   1.220
  1.228   1.238   1.244   1.250   1.262   1.267   1.271   1.282
  1.285   1.292   1.296   1.304   1.310   1.315   1.321   1.337
  1.338   1.352   1.355   1.361   1.365   1.374   1.380   1.386
  1.390   1.392   1.402   1.404   1.416   1.420   1.429   1.432
  1.441   1.445   1.450   1.453   1.461   1.472   1.482   1.488
  1.492   1.504   1.507   1.523   1.527   1.530   1.532   1.541
  1.552   1.557   1.558   1.564   1.577   1.579   1.590   1.599
  1.605   1.611   1.615   1.620   1.628   1.633   1.640   1.648
  1.653   1.658   1.659   1.667   1.670   1.675   1.682   1.689
  1.692   1.695   1.699   1.704   1.709   1.722   1.727   1.735
  1.739   1.753   1.760   1.768   1.772   1.775   1.783   1.791
  1.799   1.801   1.819   1.829   1.842   1.849   1.855   1.864
  1.872   1.880   1.885   1.889   1.892   1.906   1.913   1.920
  1.927   1.937   1.940   1.949   1.960   1.967   1.975   1.982
  1.987   1.997   1.999   2.005   2.008   2.017   2.033   2.041
  2.047   2.062   2.066   2.069   2.076   2.077   2.087   2.096
  2.114   2.125   2.127   2.142   2.147   2.162   2.169   2.175
  2.177   2.183   2.189   2.192   2.210   2.218   2.224   2.228
  2.236   2.251   2.258   2.260   2.268   2.268   2.279   2.281
  2.299   2.302   2.318   2.329   2.342   2.344   2.357   2.363
  2.369   2.374   2.384   2.386   2.394   2.400   2.405   2.408
  2.422   2.427   2.428   2.435   2.442   2.451   2.452   2.466
  2.468   2.475   2.480   2.491   2.497   2.501   2.513   2.518
  2.522   2.526   2.528   2.540   2.552   2.556   2.566   2.574
  2.586   2.595   2.597   2.607   2.616   2.620   2.622   2.625
  2.640   2.649   2.658   2.663   2.667   2.672   2.675   2.692
  2.702   2.722   2.731   2.737   2.749   2.765   2.767   2.770
  2.780   2.784   2.789   2.791   2.798   2.805   2.812   2.813
  2.822   2.827   2.836   2.846   2.856   2.869   2.872   2.883
  2.891   2.894   2.896   2.914   2.920   2.934   2.938   2.941
  2.948   2.948   2.949   2.952   2.958   2.965   2.973   2.979
  2.983   2.987   2.994   3.003   3.010   3.017   3.023   3.025
  3.028   3.037   3.043   3.045   3.047   3.057   3.065   3.066
  3.066   3.083   3.087   3.088   3.092   3.095   3.096   3.106
  3.112   3.117   3.121   3.124   3.131   3.134   3.140   3.143
  3.151   3.159   3.164   3.168   3.173   3.174   3.179   3.181
  3.181   3.190   3.194   3.197   3.204   3.206   3.208   3.210
  3.221   3.222   3.229   3.231   3.239   3.244   3.247   3.252
  3.257   3.261   3.263   3.269   3.272   3.276   3.277   3.291
  3.293   3.295   3.300   3.304   3.309   3.321   3.327   3.328
  3.334   3.338   3.343   3.347   3.354   3.360   3.369   3.373
  3.377   3.382   3.384   3.393   3.405   3.409   3.417   3.425
  3.436   3.439   3.444   3.449   3.459   3.461   3.464   3.472
  3.476   3.479   3.487   3.488   3.493   3.501   3.513   3.516
  3.518   3.522   3.538   3.541   3.545   3.552   3.561   3.562
  3.574   3.586   3.590   3.594   3.596   3.613   3.622   3.635
  3.643   3.644   3.654   3.665   3.679   3.680   3.684   3.689
  3.698   3.709   3.723   3.729   3.736   3.742   3.751   3.763
  3.765   3.776   3.788   3.793   3.797   3.804   3.807   3.810
  3.821   3.831   3.835   3.847   3.851   3.860   3.864   3.866
  3.872   3.882   3.889   3.893   3.908   3.919   3.926   3.936
  3.942   3.943   3.945   3.947   3.959   3.968   3.969   3.975
  3.981   3.989   3.997   4.008   4.025   4.027   4.034   4.041
  4.049   4.060   4.070   4.080   4.090   4.091   4.105   4.114
  4.120   4.135   4.140   4.148   4.163   4.171   4.175   4.178
  4.188   4.192   4.193   4.196   4.203   4.221   4.229   4.236
  4.245   4.263   4.269   4.279   4.298   4.303   4.308   4.315
  4.320   4.333   4.343   4.347   4.352   4.375   4.381   4.385
  4.399   4.401   4.421   4.422   4.435   4.439   4.452   4.457
  4.469   4.479   4.486   4.489   4.510   4.514   4.536   4.541
  4.546   4.553   4.565   4.570   4.581   4.596   4.601   4.608
  4.622   4.632   4.639   4.648   4.653   4.667   4.674   4.678
  4.694   4.720   4.724   4.742   4.756   4.783   4.793   4.808
  4.816   4.818   4.830   4.838   4.845   4.848   4.852   4.858
  4.872   4.882   4.920   4.930   4.935   4.938   4.944   4.949
  4.954   4.960   4.968   4.973   4.986   4.992   5.000   5.003
  5.016   5.028   5.039   5.047   5.055   5.069   5.083   5.090
  5.105   5.113   5.127   5.147   5.157   5.163   5.170   5.194
  5.200   5.227   5.238   5.239   5.247   5.261   5.281   5.286
  5.295   5.313   5.320   5.333   5.347   5.356   5.407   5.412
  5.422   5.429   5.457   5.463   5.466   5.483   5.501   5.523
  5.534   5.538   5.573   5.603   5.609   5.647   5.658   5.663
  5.688   5.700   5.712   5.715   5.738   5.764   5.775   5.815
  5.853   5.863   5.902   5.922   5.934   5.958   6.005   6.086
  6.105   6.132   6.138   6.179   6.187   6.210   6.221   6.300
  6.326   6.346   6.389   6.393   6.474   6.829   7.013   7.856
  8.654   9.695  10.152  10.978  11.100  11.193  11.819  11.999
 12.208  12.517  12.629  12.720  12.808  12.903  13.181  13.234
 13.519  13.571  13.814  13.880  14.251  14.640  14.993
 --------------------------------------------------------------
 
          Ground-State Mulliken Net Atomic Charges

     Atom                 Charge (a.u.)
  ----------------------------------------
      1 C                    -0.069632
      2 C                    -0.100431
      3 N                    -0.154653
      4 C                    -0.155566
      5 C                    -0.092399
      6 C                     0.109579
      7 C                     0.046327
      8 C                    -0.118348
      9 C                     0.028093
     10 N                    -0.134237
     11 N                    -0.280192
     12 C                     0.024543
     13 C                    -0.045446
     14 S                     0.422513
     15 N                    -0.242873
     16 C                     0.045345
     17 S                     0.135757
     18 C                    -0.017725
     19 C                    -0.037041
     20 S                     0.057355
     21 C                     0.029643
     22 C                     0.037869
     23 C                    -0.150024
     24 C                    -0.164494
     25 N                    -0.188416
     26 S                     0.093723
     27 C                    -0.077795
     28 C                    -0.204882
     29 H                     0.124951
     30 H                     0.129367
     31 H                     0.132887
     32 H                     0.129843
     33 H                     0.137542
     34 H                     0.132269
     35 H                     0.144456
     36 H                     0.128228
     37 H                     0.143865
  ----------------------------------------
  Sum of atomic charges =     0.000000

 -----------------------------------------------------------------
                    Cartesian Multipole Moments
 -----------------------------------------------------------------
    Charge (ESU x 10^10)
                 0.0000
    Dipole Moment (Debye)
         X      -0.5871      Y       0.8125      Z      -0.2862
       Tot       1.0424
    Quadrupole Moments (Debye-Ang)
        XX    -169.0264     XY      15.6126     YY    -176.3040
        XZ      -8.5522     YZ      -1.0765     ZZ    -183.0715
    Octopole Moments (Debye-Ang^2)
       XXX    -191.9452    XXY      36.6203    XYY     -61.5932
       YYY      26.4647    XXZ     -91.3125    XYZ     -26.0357
       YYZ       7.5918    XZZ      47.4755    YZZ      -3.1123
       ZZZ      32.3903
    Hexadecapole Moments (Debye-Ang^3)
      XXXX  -17406.5405   XXXY    1070.5132   XXYY   -3497.2046
      XYYY       4.3166   YYYY   -2307.9752   XXXZ    -541.8820
      XXYZ     -23.2330   XYYZ       9.9441   YYYZ      25.3172
      XXZZ   -3443.2252   XYZZ      35.9907   YYZZ    -728.0659
      XZZZ      39.6004   YZZZ     -42.1044   ZZZZ   -1659.8811
 -----------------------------------------------------------------
 Calculating analytic gradient of the SCF energy
 K construction time:  CPU 2718.65 s  wall 171.68 s
 Gradient of SCF Energy
            1           2           3           4           5           6
    1   0.0015799  -0.0022209   0.0004140   0.0020270  -0.0002187  -0.0009271
    2   0.0006295  -0.0006308  -0.0000445  -0.0011142  -0.0000276   0.0016173
    3  -0.0005316   0.0003185  -0.0000497   0.0000300  -0.0004700  -0.0003418
            7           8           9          10          11          12
    1   0.0009642  -0.0030776  -0.0006058   0.0048908  -0.0021167   0.0035001
    2   0.0000198  -0.0015006  -0.0003347   0.0010737   0.0003311  -0.0005094
    3  -0.0011085   0.0001531  -0.0000679  -0.0053192  -0.0004298   0.0033143
           13          14          15          16          17          18
    1  -0.0254896   0.0017236   0.0023501   0.0268303  -0.0077000  -0.0049381
    2   0.0082136  -0.0009558   0.0007349  -0.0143976  -0.0060276   0.0148177
    3   0.0131112   0.0042379  -0.0045915  -0.0090487  -0.0011753   0.0012651
           19          20          21          22          23          24
    1   0.0026454  -0.0002068   0.0035053   0.0003147   0.0018793  -0.0027109
    2  -0.0012745  -0.0046148   0.0044202  -0.0001402  -0.0017097   0.0018660
    3  -0.0005237  -0.0004789   0.0012000   0.0005008  -0.0006264   0.0000016
           25          26          27          28          29          30
    1  -0.0004722  -0.0002474   0.0007324   0.0007074  -0.0001412   0.0005147
    2  -0.0002139  -0.0008439   0.0021036  -0.0003564   0.0000086  -0.0000232
    3  -0.0003270  -0.0004491   0.0001793  -0.0002084   0.0000108   0.0003461
           31          32          33          34          35          36
    1  -0.0008238  -0.0003547  -0.0009669  -0.0010013   0.0001532  -0.0003868
    2  -0.0000652   0.0000012   0.0004415   0.0003470  -0.0010014  -0.0007335
    3   0.0002948  -0.0000701   0.0001460   0.0002025   0.0000626   0.0000934
           37
    1  -0.0001263
    2  -0.0001062
    3   0.0003496
 Max gradient component =       2.683E-02
 RMS gradient           =       4.744E-03
 Gradient time:  CPU 3156.28 s  wall 200.99 s
 Geometry Optimization Parameters
   NAtoms,    NIC,     NZ,  NCons,   NDum,   NFix, NCnnct, MaxDiis
       37     280       0       3       0       0       0       0


** CONSTRAINED OPTIMIZATION IN DELOCALIZED INTERNAL COORDINATES **
   Searching for a Minimum

   Optimization Cycle:   1

                       Coordinates (Angstroms)
     ATOM                X               Y               Z
      1  C         7.5108900741   -0.4994700681   -1.1332583536
      2  C         6.8315129826    0.5112297976   -1.7930910259
      3  N         6.9172387775   -1.3570489740   -0.3080570626
      4  C         5.4728183327    0.6413409704   -1.5847348765
      5  C         5.6121818239   -1.2215099300   -0.1135098108
      6  C         4.8298346043   -0.2409159915   -0.7250453944
      7  C         3.3772392373   -0.1637169747   -0.4966472623
      8  C         2.4951755043    0.0493174235   -1.5199528584
      9  C         2.7792252559   -0.2972651787    0.7904247709
     10  N         1.1480231875    0.1504682825   -1.4084172837
     11  N         3.3931576954   -0.5009682644    1.9575142115
     12  C         1.3611014729   -0.1894719141    0.9224442887
     13  C         0.5590554859    0.0402342514   -0.2423284541
     14  S         2.2411046801   -0.5516228575    3.0813408244
     15  N         0.9317841870   -0.3169211034    2.1747867489
     16  C        -0.8799219535    0.1619895806   -0.2283501188
     17  S        -2.0067512922   -1.1392064044   -0.4098274800
     18  C        -1.5698971171    1.3410311005   -0.0640021848
     19  C        -3.3721615389   -0.1017284898   -0.2646468523
     20  S        -1.0818442576    2.9850742829    0.1688097057
     21  C        -2.9815328199    1.2083583702   -0.0813817610
     22  C        -4.7277806781   -0.6064773615   -0.3255662808
     23  C        -2.7625608143    3.4707404178    0.2388765473
     24  C        -3.6488630306    2.4693743465    0.0966313554
     25  N        -5.7784692860    0.1530548053   -0.2048161009
     26  S        -5.1006542469   -2.2912923758   -0.5663054977
     27  C        -6.9258540673   -0.5775717068   -0.2935539555
     28  C        -6.7704011998   -1.9099582027   -0.4872797712
     29  H         8.5777887382   -0.6281674934   -1.2715524673
     30  H         7.3681972093    1.1877230227   -2.4426930599
     31  H         4.9099579844    1.4321482819   -2.0641629434
     32  H         5.1517224025   -1.9314386972    0.5623816312
     33  H         2.8640578470    0.1446100929   -2.5333328588
     34  H        -2.9945786303    4.5130394119    0.3937820260
     35  H        -4.7204896641    2.5721605292    0.1167051277
     36  H        -7.8811985959   -0.0825914592   -0.2084698587
     37  H        -7.5276466825   -2.6680018785   -0.5841800395
   Point Group: c1    Number of degrees of freedom:   105


   Energy is  -2595.890614532

              Constraints and their Current Values
                                        Value     Constraint
   Dihedral:        4   6   7   8       42.189       42.246
   Dihedral:       10  13  16  17       90.000       90.000
   Dihedral:       17  19  22  25      179.258      179.217

 Attempting to Generate Delocalized Internal Coordinates

   Using Lagrange Multiplier Algorithm


108 Hessian modes will be used to form the next step
  Hessian Eigenvalues:
    -0.977753   -0.977753   -0.977753    0.045000    0.045000    0.045000
     0.045000    0.045000    0.045000    0.045000    0.045000    0.045000
     0.045000    0.045000    0.045000    0.045000    0.045000    0.045000
     0.045000    0.045000    0.045000    0.045000    0.045000    0.045000
     0.045001    0.045001    0.045001    0.045001    0.045001    0.045003
     0.045005    0.045007    0.045009    0.045012    0.159961    0.159984
     0.159995    0.159997    0.159998    0.159999    0.160000    0.160000
     0.160000    0.220002    0.224572    0.225458    0.231978    0.233022
     0.234404    0.247446    0.247715    0.249914    0.249956    0.249989
     0.249992    0.249998    0.249998    0.249998    0.249999    0.249999
     0.249999    0.250000    0.250000    0.297524    0.305118    0.316323
     0.317277    0.326673    0.334474    0.354466    0.355754    0.356364
     0.356781    0.356811    0.359242    0.360768    0.361169    0.363921
     0.365012    0.372838    0.385318    0.386475    0.390167    0.393199
     0.397170    0.410394    0.431175    0.455299    0.463158    0.473302
     0.473331    0.475009    0.483101    0.491317    0.496878    0.499410
     0.517638    0.525704    0.538152    0.558610    0.574891    0.584500
     0.591081    0.623467    0.638977    1.022753    1.022753    1.022753

 Minimum Search - Taking P-RFO Step
 Searching for Lamda that Maximizes Along the Constraint modes Only
 Value Taken    Lamda =   0.00000175
 Searching for Lamda that Minimizes Along All other modes
 Value Taken    Lamda =  -0.00354650
 Step Taken.  Stepsize is  0.115478

                             Maximum     Tolerance    Cnvgd?
         Gradient            0.009510       0.000300      NO
         Displacement        0.034466       0.001200      NO
         Energy change     *********       0.000001      NO


 New Cartesian Coordinates Obtained by Inverse Iteration

 Displacement from previous Coordinates is:  0.732698
 ----------------------------------------------------------------
             Standard Nuclear Orientation (Angstroms)
    I     Atom           X                Y                Z
 ----------------------------------------------------------------
    1      C       7.5255828813    -0.5460588515    -1.0826618540
    2      C       6.8776536042     0.4750315316    -1.7585532261
    3      N       6.9047266174    -1.3924477373    -0.2665342158
    4      C       5.5161108867     0.6258759171    -1.5776156342
    5      C       5.5991043465    -1.2377835313    -0.0984627286
    6      C       4.8442464400    -0.2486034771    -0.7302964529
    7      C       3.3884483517    -0.1514585173    -0.5308185369
    8      C       2.5268845821     0.0726248869    -1.5700776988
    9      C       2.7692052596    -0.2814222785     0.7441237615
   10      N       1.1743280986     0.1844159634    -1.4816483960
   11      N       3.3623514359    -0.4929314408     1.9201036548
   12      C       1.3496253124    -0.1620883672     0.8486163886
   13      C       0.5748637821     0.0783154789    -0.3250331756
   14      S       2.1820535313    -0.5302107123     3.0144523982
   15      N       0.8882753293    -0.2855043181     2.0924229029
   16      C      -0.8873831123     0.2241338122    -0.2678852918
   17      S      -1.9896832945    -1.0849040717    -0.4361449152
   18      C      -1.5886099182     1.3792821069    -0.0757593548
   19      C      -3.3799554674    -0.0847530562    -0.2591963410
   20      S      -1.1243062242     3.0366956451     0.1660701628
   21      C      -3.0026461808     1.2249027335    -0.0686255152
   22      C      -4.7281243064    -0.6119810465    -0.3063156462
   23      C      -2.8100341849     3.4929804606     0.2745700195
   24      C      -3.6799046769     2.4766432679     0.1361761315
   25      N      -5.7902537446     0.1264802842    -0.1598473453
   26      S      -5.0766573248    -2.2986154597    -0.5632578585
   27      C      -6.9269585997    -0.6221453104    -0.2482074795
   28      C      -6.7526504284    -1.9479873943    -0.4646272809
   29      H       8.5929919594    -0.6920808274    -1.1998272994
   30      H       7.4348951038     1.1412545977    -2.4013515635
   31      H       4.9787165410     1.4244026289    -2.0724041262
   32      H       5.1167948004    -1.9390348379     0.5709598750
   33      H       2.9199482224     0.1591197294    -2.5757987278
   34      H      -3.0514469398     4.5301226122     0.4432530961
   35      H      -4.7522065127     2.5698871450     0.1761079943
   36      H      -7.8868028567    -0.1389171761    -0.1478583925
   37      H      -7.4977217057    -2.7166907474    -0.5695137032
 ----------------------------------------------------------------
 Molecular Point Group                 C1    NOp =  1
 Largest Abelian Subgroup              C1    NOp =  1
 Nuclear Repulsion Energy =  2958.1380094711 hartrees
 There are      111 alpha and      111 beta electrons
 Applying Cartesian multipole field
    Component          Value
    ---------          -----
     (2,0,0)        1.00000E-12
     (0,2,0)        2.00000E-11
     (0,0,2)       -3.00000E-11
 Nucleus-field energy     =     0.0000000145 hartrees
 Requested basis set is cc-pVTZ
 There are 342 shells and 982 basis functions
 A cutoff of  1.0D-11 yielded  29209 shell pairs
 There are    232081 function pairs (    303289 Cartesian)
 Smallest overlap matrix eigenvalue = 3.12E-05
 Guess MOs from SCF MO coefficient file
 Reading MOs from coefficient file
 Reading MOs from coefficient file
 Long-range K will be added via erf
 Coulomb attenuation parameter = 0.2 bohr**(-1)
 A restricted hybrid HF-DFT SCF calculation will be
 performed using Pulay DIIS extrapolation
 Exchange:     0.2220 Hartree-Fock + 1.0000 wB97X-D + LR-HF
 Correlation:  1.0000 wB97X-D
 Using SG-2 standard quadrature grid
 Dispersion:   Grimme D
 SCF converges when DIIS error is below 1.0E-08
 Geometry optimization detected.  Setting ReadMinima to 0
 Setting SaveMinima to 0
 using 16 threads for integral computing 
 using 16 threads for integral computing 
 K construction time:  CPU 1069.72 s  wall 69.88 s
 -------------------------------------------------------
 OpenMP BLAS3 based DFT computing Module                
 Release: version 1.0, May 2013, Q-Chem Inc. Pittsburgh 
 -------------------------------------------------------
 ---------------------------------------
  Cycle       Energy         DIIS Error
 ---------------------------------------
    1   -2595.8876058044      4.28E-04
 K construction time:  CPU 1068.63 s  wall 69.73 s
    2   -2595.8921693498      5.51E-05
 K construction time:  CPU 843.11 s  wall 55.02 s
    3   -2595.8923024305      6.18E-05
 K construction time:  CPU 789.07 s  wall 51.54 s
    4   -2595.8926963156      1.39E-05
 K construction time:  CPU 727.91 s  wall 47.50 s
    5   -2595.8927162647      8.24E-06
 K construction time:  CPU 689.58 s  wall 45.03 s
    6   -2595.8927245896      2.75E-06
 K construction time:  CPU 633.25 s  wall 41.32 s
    7   -2595.8927256942      9.76E-07
 K construction time:  CPU 578.84 s  wall 37.68 s
    8   -2595.8927258507      4.21E-07
 K construction time:  CPU 533.43 s  wall 34.70 s
    9   -2595.8927258893      1.78E-07
 K construction time:  CPU 470.38 s  wall 30.59 s
   10   -2595.8927258966      5.78E-08
 K construction time:  CPU 414.29 s  wall 26.85 s
   11   -2595.8927258976      2.74E-08
 K construction time:  CPU 367.61 s  wall 23.75 s
   12   -2595.8927258966      1.12E-08
 K construction time:  CPU 314.90 s  wall 20.36 s
   13   -2595.8927258949      3.71E-09 Convergence criterion met
 ---------------------------------------
 SCF time:  CPU 11465.72 s  wall 764.72 s
 SCF   energy in the final basis set = -2595.8927258949
 Total energy in the final basis set = -2595.8927258949
 
 --------------------------------------------------------------
 
                    Orbital Energies (a.u.)
 --------------------------------------------------------------
 
 Alpha MOs
 -- Occupied --
-89.159 -89.093 -89.088 -89.075 -14.496 -14.492 -14.461 -14.440
-14.440 -10.372 -10.372 -10.366 -10.362 -10.343 -10.341 -10.339
-10.336 -10.332 -10.331 -10.330 -10.327 -10.324 -10.323 -10.323
-10.320 -10.313 -10.307 -10.297  -8.169  -8.108  -8.104  -8.090
 -6.119  -6.113  -6.113  -6.057  -6.054  -6.053  -6.051  -6.049
 -6.047  -6.040  -6.036  -6.032  -1.156  -1.079  -1.076  -1.059
 -1.024  -1.018  -0.957  -0.950  -0.914  -0.909  -0.906  -0.886
 -0.863  -0.845  -0.828  -0.807  -0.777  -0.756  -0.748  -0.732
 -0.723  -0.695  -0.687  -0.679  -0.648  -0.642  -0.627  -0.625
 -0.610  -0.602  -0.585  -0.581  -0.573  -0.568  -0.542  -0.531
 -0.528  -0.523  -0.519  -0.513  -0.510  -0.506  -0.501  -0.499
 -0.485  -0.482  -0.473  -0.468  -0.454  -0.442  -0.435  -0.435
 -0.433  -0.423  -0.410  -0.388  -0.387  -0.374  -0.369  -0.367
 -0.366  -0.363  -0.347  -0.336  -0.324  -0.322  -0.273
 -- Virtual --
 -0.051  -0.012   0.021   0.034   0.042   0.057   0.065   0.073
  0.075   0.079   0.088   0.110   0.113   0.118   0.128   0.133
  0.142   0.144   0.150   0.164   0.167   0.169   0.171   0.171
  0.186   0.192   0.198   0.209   0.214   0.225   0.231   0.244
  0.249   0.251   0.260   0.262   0.271   0.275   0.282   0.291
  0.294   0.296   0.297   0.303   0.306   0.313   0.321   0.324
  0.328   0.330   0.335   0.338   0.340   0.343   0.351   0.353
  0.360   0.363   0.367   0.372   0.374   0.378   0.381   0.387
  0.390   0.392   0.396   0.399   0.400   0.404   0.407   0.409
  0.412   0.418   0.421   0.424   0.428   0.430   0.440   0.443
  0.449   0.452   0.456   0.457   0.460   0.460   0.462   0.466
  0.469   0.471   0.475   0.480   0.482   0.484   0.489   0.490
  0.494   0.499   0.502   0.504   0.509   0.511   0.517   0.521
  0.523   0.529   0.533   0.535   0.538   0.544   0.546   0.550
  0.553   0.562   0.568   0.577   0.581   0.584   0.590   0.596
  0.601   0.607   0.614   0.618   0.620   0.628   0.629   0.632
  0.644   0.657   0.659   0.663   0.667   0.670   0.674   0.676
  0.685   0.687   0.694   0.695   0.705   0.711   0.720   0.721
  0.727   0.730   0.734   0.738   0.742   0.747   0.751   0.753
  0.763   0.766   0.770   0.773   0.779   0.779   0.787   0.792
  0.796   0.800   0.803   0.813   0.816   0.824   0.829   0.834
  0.835   0.839   0.842   0.849   0.854   0.856   0.859   0.862
  0.872   0.875   0.882   0.887   0.899   0.899   0.904   0.908
  0.916   0.920   0.922   0.926   0.932   0.937   0.947   0.952
  0.954   0.958   0.963   0.967   0.974   0.979   0.984   0.988
  0.992   0.995   0.997   1.006   1.012   1.023   1.030   1.033
  1.044   1.046   1.055   1.058   1.060   1.068   1.071   1.074
  1.083   1.088   1.089   1.099   1.110   1.111   1.116   1.120
  1.132   1.136   1.139   1.152   1.155   1.161   1.163   1.172
  1.180   1.184   1.194   1.201   1.203   1.212   1.219   1.220
  1.229   1.238   1.243   1.249   1.262   1.267   1.271   1.281
  1.283   1.292   1.296   1.304   1.309   1.314   1.321   1.337
  1.338   1.351   1.354   1.360   1.363   1.375   1.378   1.386
  1.390   1.391   1.401   1.402   1.415   1.420   1.428   1.435
  1.442   1.444   1.450   1.453   1.459   1.471   1.484   1.488
  1.492   1.504   1.507   1.523   1.527   1.531   1.532   1.542
  1.551   1.558   1.558   1.565   1.577   1.580   1.590   1.599
  1.606   1.611   1.616   1.620   1.629   1.634   1.639   1.647
  1.652   1.658   1.660   1.666   1.670   1.675   1.681   1.688
  1.691   1.693   1.698   1.704   1.708   1.722   1.725   1.735
  1.740   1.755   1.760   1.768   1.773   1.775   1.783   1.789
  1.801   1.803   1.819   1.830   1.837   1.848   1.855   1.863
  1.872   1.879   1.885   1.887   1.891   1.904   1.912   1.921
  1.926   1.936   1.940   1.947   1.960   1.966   1.975   1.981
  1.985   1.996   2.000   2.004   2.009   2.018   2.033   2.040
  2.048   2.062   2.065   2.069   2.073   2.080   2.085   2.093
  2.114   2.125   2.128   2.144   2.146   2.163   2.169   2.176
  2.179   2.181   2.188   2.192   2.209   2.216   2.225   2.227
  2.235   2.249   2.258   2.258   2.266   2.268   2.277   2.282
  2.298   2.302   2.312   2.326   2.343   2.345   2.354   2.362
  2.367   2.371   2.385   2.385   2.391   2.400   2.405   2.407
  2.422   2.426   2.429   2.436   2.444   2.451   2.453   2.465
  2.468   2.476   2.483   2.490   2.494   2.501   2.513   2.519
  2.521   2.526   2.532   2.541   2.552   2.556   2.567   2.572
  2.585   2.594   2.597   2.609   2.615   2.620   2.622   2.625
  2.642   2.646   2.660   2.664   2.669   2.673   2.677   2.690
  2.702   2.720   2.732   2.738   2.750   2.765   2.767   2.770
  2.778   2.786   2.789   2.791   2.797   2.803   2.812   2.814
  2.822   2.826   2.834   2.845   2.855   2.869   2.873   2.881
  2.891   2.895   2.896   2.913   2.917   2.934   2.938   2.941
  2.945   2.948   2.951   2.953   2.956   2.965   2.974   2.979
  2.983   2.986   2.995   3.002   3.012   3.017   3.022   3.023
  3.027   3.037   3.044   3.045   3.048   3.058   3.064   3.066
  3.067   3.083   3.084   3.089   3.090   3.095   3.095   3.107
  3.111   3.118   3.122   3.125   3.131   3.135   3.140   3.142
  3.151   3.159   3.162   3.168   3.172   3.177   3.178   3.181
  3.182   3.189   3.194   3.197   3.204   3.205   3.209   3.210
  3.218   3.223   3.229   3.231   3.238   3.244   3.247   3.252
  3.255   3.260   3.261   3.270   3.272   3.277   3.277   3.289
  3.293   3.295   3.300   3.305   3.310   3.318   3.325   3.326
  3.334   3.338   3.343   3.347   3.352   3.362   3.367   3.372
  3.377   3.380   3.384   3.392   3.403   3.406   3.417   3.425
  3.432   3.436   3.444   3.448   3.457   3.462   3.465   3.470
  3.475   3.478   3.486   3.487   3.492   3.499   3.511   3.516
  3.518   3.522   3.535   3.541   3.545   3.551   3.557   3.561
  3.574   3.584   3.589   3.593   3.597   3.612   3.618   3.633
  3.642   3.642   3.654   3.661   3.676   3.678   3.682   3.686
  3.696   3.710   3.717   3.727   3.735   3.740   3.752   3.764
  3.765   3.775   3.788   3.794   3.800   3.804   3.809   3.812
  3.820   3.831   3.837   3.846   3.852   3.857   3.862   3.865
  3.871   3.885   3.888   3.895   3.908   3.918   3.926   3.929
  3.938   3.942   3.945   3.949   3.959   3.967   3.970   3.974
  3.982   3.989   3.998   4.009   4.023   4.026   4.033   4.039
  4.048   4.059   4.067   4.079   4.089   4.089   4.098   4.117
  4.119   4.129   4.142   4.147   4.164   4.167   4.173   4.177
  4.190   4.193   4.194   4.195   4.202   4.220   4.228   4.235
  4.243   4.261   4.267   4.279   4.295   4.301   4.305   4.313
  4.320   4.333   4.342   4.345   4.353   4.371   4.381   4.386
  4.397   4.402   4.422   4.422   4.433   4.437   4.451   4.458
  4.468   4.478   4.486   4.489   4.511   4.513   4.538   4.541
  4.543   4.551   4.561   4.571   4.579   4.595   4.601   4.606
  4.623   4.634   4.641   4.648   4.654   4.667   4.674   4.680
  4.693   4.720   4.723   4.742   4.757   4.786   4.790   4.807
  4.815   4.817   4.829   4.838   4.846   4.849   4.852   4.858
  4.874   4.882   4.919   4.930   4.935   4.937   4.945   4.949
  4.954   4.959   4.970   4.972   4.987   4.992   5.001   5.003
  5.015   5.026   5.037   5.045   5.054   5.069   5.085   5.088
  5.104   5.112   5.128   5.144   5.156   5.163   5.170   5.192
  5.196   5.223   5.237   5.242   5.248   5.258   5.281   5.286
  5.290   5.312   5.318   5.334   5.347   5.358   5.398   5.411
  5.418   5.429   5.460   5.464   5.466   5.481   5.500   5.523
  5.534   5.536   5.568   5.600   5.609   5.648   5.654   5.664
  5.686   5.698   5.709   5.717   5.727   5.764   5.776   5.815
  5.849   5.858   5.897   5.922   5.937   5.958   6.006   6.094
  6.100   6.131   6.144   6.177   6.185   6.215   6.224   6.297
  6.325   6.348   6.388   6.393   6.471   6.827   7.013   7.856
  8.622   9.693  10.133  10.962  11.120  11.192  11.779  12.001
 12.135  12.517  12.611  12.712  12.823  12.909  13.179  13.242
 13.527  13.569  13.824  13.873  14.273  14.618  14.988
 --------------------------------------------------------------
 
          Ground-State Mulliken Net Atomic Charges

     Atom                 Charge (a.u.)
  ----------------------------------------
      1 C                    -0.069473
      2 C                    -0.100534
      3 N                    -0.153993
      4 C                    -0.155550
      5 C                    -0.093013
      6 C                     0.108636
      7 C                     0.047202
      8 C                    -0.110836
      9 C                     0.027166
     10 N                    -0.135604
     11 N                    -0.279451
     12 C                     0.024742
     13 C                    -0.037608
     14 S                     0.421017
     15 N                    -0.241213
     16 C                     0.030162
     17 S                     0.134180
     18 C                    -0.013904
     19 C                    -0.038453
     20 S                     0.054135
     21 C                     0.029871
     22 C                     0.038822
     23 C                    -0.149852
     24 C                    -0.165121
     25 N                    -0.188076
     26 S                     0.094314
     27 C                    -0.077225
     28 C                    -0.204344
     29 H                     0.124903
     30 H                     0.129432
     31 H                     0.133012
     32 H                     0.130188
     33 H                     0.137298
     34 H                     0.132668
     35 H                     0.144167
     36 H                     0.128483
     37 H                     0.143851
  ----------------------------------------
  Sum of atomic charges =     0.000000

 -----------------------------------------------------------------
                    Cartesian Multipole Moments
 -----------------------------------------------------------------
    Charge (ESU x 10^10)
                 0.0000
    Dipole Moment (Debye)
         X      -0.4849      Y       0.7743      Z      -0.2808
       Tot       0.9558
    Quadrupole Moments (Debye-Ang)
        XX    -168.2022     XY      15.8246     YY    -176.5566
        XZ      -9.0902     YZ      -0.7380     ZZ    -183.4254
    Octopole Moments (Debye-Ang^2)
       XXX    -178.4551    XXY      33.7560    XYY     -62.5597
       YYY      20.7395    XXZ     -90.7724    XYZ     -25.5407
       YYZ       9.9859    XZZ      46.5950    YZZ      -4.8327
       ZZZ      37.1020
    Hexadecapole Moments (Debye-Ang^3)
      XXXX  -17363.9882   XXXY    1091.8716   XXYY   -3504.1550
      XYYY      25.7445   YYYY   -2344.5280   XXXZ    -526.6116
      XXYZ     -17.9081   XYYZ      17.9036   YYYZ      20.3596
      XXZZ   -3446.7799   XYZZ      43.1300   YYZZ    -727.2736
      XZZZ      68.8321   YZZZ     -49.7044   ZZZZ   -1622.5459
 -----------------------------------------------------------------
 Calculating analytic gradient of the SCF energy
 K construction time:  CPU 2715.76 s  wall 171.52 s
 Gradient of SCF Energy
            1           2           3           4           5           6
    1  -0.0000638  -0.0005390  -0.0001276   0.0006645   0.0002240  -0.0003989
    2   0.0001889   0.0000139  -0.0002400   0.0002501  -0.0000654   0.0000626
    3  -0.0000071  -0.0002686   0.0002519  -0.0002093  -0.0002771   0.0003058
            7           8           9          10          11          12
    1   0.0011570  -0.0009517   0.0007442   0.0039070   0.0007715   0.0009940
    2  -0.0001028  -0.0001338  -0.0001055   0.0000410  -0.0002057  -0.0004851
    3   0.0002719  -0.0001190   0.0009474  -0.0032470  -0.0013126   0.0019747
           13          14          15          16          17          18
    1  -0.0072431   0.0005736  -0.0014650   0.0055528  -0.0029000  -0.0015300
    2   0.0032438   0.0002514   0.0005466  -0.0055302   0.0017059   0.0024594
    3   0.0072832  -0.0016795  -0.0020793  -0.0023120   0.0007829   0.0002449
           19          20          21          22          23          24
    1   0.0005232  -0.0001521   0.0009294   0.0004004   0.0006983  -0.0007989
    2  -0.0000957  -0.0015505  -0.0004946   0.0003377   0.0003288   0.0005543
    3  -0.0006721  -0.0002434   0.0001392  -0.0001229  -0.0000020  -0.0001052
           25          26          27          28          29          30
    1  -0.0003782  -0.0004081   0.0002908  -0.0001368  -0.0000855   0.0001410
    2  -0.0004801  -0.0001178   0.0005447  -0.0002639  -0.0000764   0.0001026
    3   0.0000612   0.0001469   0.0001296  -0.0003569   0.0000835   0.0001096
           31          32          33          34          35          36
    1  -0.0001419  -0.0000389   0.0000904  -0.0002458   0.0001257  -0.0001283
    2  -0.0000379  -0.0000659   0.0000988   0.0000167  -0.0003761  -0.0002933
    3  -0.0000182   0.0001026  -0.0001225   0.0000682   0.0000258   0.0000468
           37
    1  -0.0000542
    2  -0.0000263
    3   0.0001787
 Max gradient component =       7.283E-03
 RMS gradient           =       1.529E-03
 Gradient time:  CPU 3151.74 s  wall 200.81 s
 Geometry Optimization Parameters
   NAtoms,    NIC,     NZ,  NCons,   NDum,   NFix, NCnnct, MaxDiis
       37     280       0       3       0       0       0       0

 Cartesian Hessian Update
 Hessian Updated using BFGS Update


** CONSTRAINED OPTIMIZATION IN DELOCALIZED INTERNAL COORDINATES **
   Searching for a Minimum

   Optimization Cycle:   2

                       Coordinates (Angstroms)
     ATOM                X               Y               Z
      1  C         7.5255828813   -0.5460588515   -1.0826618540
      2  C         6.8776536042    0.4750315316   -1.7585532261
      3  N         6.9047266174   -1.3924477373   -0.2665342158
      4  C         5.5161108867    0.6258759171   -1.5776156342
      5  C         5.5991043465   -1.2377835313   -0.0984627286
      6  C         4.8442464400   -0.2486034771   -0.7302964529
      7  C         3.3884483517   -0.1514585173   -0.5308185369
      8  C         2.5268845821    0.0726248869   -1.5700776988
      9  C         2.7692052596   -0.2814222785    0.7441237615
     10  N         1.1743280986    0.1844159634   -1.4816483960
     11  N         3.3623514359   -0.4929314408    1.9201036548
     12  C         1.3496253124   -0.1620883672    0.8486163886
     13  C         0.5748637821    0.0783154789   -0.3250331756
     14  S         2.1820535313   -0.5302107123    3.0144523982
     15  N         0.8882753293   -0.2855043181    2.0924229029
     16  C        -0.8873831123    0.2241338122   -0.2678852918
     17  S        -1.9896832945   -1.0849040717   -0.4361449152
     18  C        -1.5886099182    1.3792821069   -0.0757593548
     19  C        -3.3799554674   -0.0847530562   -0.2591963410
     20  S        -1.1243062242    3.0366956451    0.1660701628
     21  C        -3.0026461808    1.2249027335   -0.0686255152
     22  C        -4.7281243064   -0.6119810465   -0.3063156462
     23  C        -2.8100341849    3.4929804606    0.2745700195
     24  C        -3.6799046769    2.4766432679    0.1361761315
     25  N        -5.7902537446    0.1264802842   -0.1598473453
     26  S        -5.0766573248   -2.2986154597   -0.5632578585
     27  C        -6.9269585997   -0.6221453104   -0.2482074795
     28  C        -6.7526504284   -1.9479873943   -0.4646272809
     29  H         8.5929919594   -0.6920808274   -1.1998272994
     30  H         7.4348951038    1.1412545977   -2.4013515635
     31  H         4.9787165410    1.4244026289   -2.0724041262
     32  H         5.1167948004   -1.9390348379    0.5709598750
     33  H         2.9199482224    0.1591197294   -2.5757987278
     34  H        -3.0514469398    4.5301226122    0.4432530961
     35  H        -4.7522065127    2.5698871450    0.1761079943
     36  H        -7.8868028567   -0.1389171761   -0.1478583925
     37  H        -7.4977217057   -2.7166907474   -0.5695137032
   Point Group: c1    Number of degrees of freedom:   105


   Energy is  -2595.892725895

              Constraints and their Current Values
                                        Value     Constraint
   Dihedral:        4   6   7   8       42.246       42.246
   Dihedral:       10  13  16  17       90.000       90.000
   Dihedral:       17  19  22  25      179.217      179.217
 Hessian Updated using BFGS Update

   Using Lagrange Multiplier Algorithm


106 Hessian modes will be used to form the next step
  Hessian Eigenvalues:
    -0.977753   -0.977702    0.044177    0.045000    0.045000    0.045000
     0.045000    0.045000    0.045000    0.045000    0.045000    0.045000
     0.045000    0.045000    0.045000    0.045000    0.045000    0.045000
     0.045000    0.045000    0.045000    0.045000    0.045001    0.045001
     0.045001    0.045001    0.045001    0.045002    0.045005    0.045007
     0.045009    0.045012    0.045419    0.156308    0.159964    0.159986
     0.159997    0.159998    0.159999    0.160000    0.160000    0.160163
     0.181511    0.220050    0.224612    0.225849    0.232047    0.233115
     0.234499    0.247490    0.247721    0.249915    0.249957    0.249989
     0.249992    0.249998    0.249998    0.249999    0.249999    0.250000
     0.250000    0.277773    0.298010    0.305021    0.315430    0.318709
     0.326563    0.334469    0.354418    0.355748    0.356354    0.356799
     0.356827    0.359239    0.360768    0.361169    0.363895    0.365010
     0.370594    0.384853    0.386417    0.393095    0.396347    0.397353
     0.418958    0.431173    0.455632    0.461460    0.472933    0.473364
     0.474842    0.483012    0.491341    0.496793    0.499413    0.517675
     0.526517    0.538380    0.558893    0.574897    0.588149    0.591892
     0.624460    0.638962    1.022753    1.022853

 Minimum Search - Taking P-RFO Step
 Searching for Lamda that Maximizes Along the Constraint modes Only
 Value Taken    Lamda =   0.00000020
 Searching for Lamda that Minimizes Along All other modes
 Value Taken    Lamda =  -0.00062491
 Step Taken.  Stepsize is  0.062796

                             Maximum     Tolerance    Cnvgd?
         Gradient            0.003365       0.000300      NO
         Displacement        0.025436       0.001200      NO
         Energy change     -0.002111       0.000001      NO


 New Cartesian Coordinates Obtained by Inverse Iteration

 Displacement from previous Coordinates is:  0.402582
 ----------------------------------------------------------------
             Standard Nuclear Orientation (Angstroms)
    I     Atom           X                Y                Z
 ----------------------------------------------------------------
    1      C       7.5233043171    -0.5735632177    -1.0653370582
    2      C       6.8869608245     0.4514960982    -1.7457498161
    3      N       6.8909066969    -1.4130353336    -0.2512123955
    4      C       5.5248770991     0.6124832248    -1.5730951132
    5      C       5.5852680622    -1.2488280873    -0.0907085329
    6      C       4.8411783711    -0.2562582905    -0.7298182904
    7      C       3.3839721147    -0.1475559499    -0.5415659632
    8      C       2.5349054716     0.0820950845    -1.5905709485
    9      C       2.7539221188    -0.2726227811     0.7291383433
   10      N       1.1809383800     0.2053872441    -1.5176572149
   11      N       3.3294933000    -0.4849530692     1.9160284587
   12      C       1.3367785396    -0.1449282849     0.8155379007
   13      C       0.5807517764     0.1020525509    -0.3674815787
   14      S       2.1390320946    -0.5167724290     3.0001779802
   15      N       0.8622956148    -0.2654023257     2.0579158085
   16      C      -0.8859517000     0.2655989506    -0.2940598957
   17      S      -1.9663574780    -1.0569124697    -0.4649243968
   18      C      -1.5916291733     1.4104544389    -0.0854956053
   19      C      -3.3678754992    -0.0740936072    -0.2626330009
   20      S      -1.1451454932     3.0749168869     0.1670806441
   21      C      -3.0046926459     1.2387260801    -0.0652603412
   22      C      -4.7100041933    -0.6151437635    -0.3015509473
   23      C      -2.8357407106     3.5068535284     0.2949164113
   24      C      -3.6932858118     2.4805774119     0.1569140699
   25      N      -5.7770919981     0.1115717243    -0.1358480907
   26      S      -5.0416208947    -2.3016183173    -0.5752699028
   27      C      -6.9068028140    -0.6479325125    -0.2235361224
   28      C      -6.7202507989    -1.9691319054    -0.4565348527
   29      H       8.5903238420    -0.7276477122    -1.1772628314
   30      H       7.4512750081     1.1118105158    -2.3882630130
   31      H       4.9979135650     1.4144856993    -2.0731677169
   32      H       5.0942552420    -1.9456697920     0.5765726523
   33      H       2.9399555605     0.1628295673    -2.5917866689
   34      H      -3.0868006947     4.5398445415     0.4730696975
   35      H      -4.7662415484     2.5643949075     0.2076403856
   36      H      -7.8693932168    -0.1729353694    -0.1108007909
   37      H      -7.4579617200    -2.7440235946    -0.5668676387
 ----------------------------------------------------------------
 Molecular Point Group                 C1    NOp =  1
 Largest Abelian Subgroup              C1    NOp =  1
 Nuclear Repulsion Energy =  2959.5530035520 hartrees
 There are      111 alpha and      111 beta electrons
 Applying Cartesian multipole field
    Component          Value
    ---------          -----
     (2,0,0)        1.00000E-12
     (0,2,0)        2.00000E-11
     (0,0,2)       -3.00000E-11
 Nucleus-field energy     =     0.0000000150 hartrees
 Requested basis set is cc-pVTZ
 There are 342 shells and 982 basis functions
 A cutoff of  1.0D-11 yielded  29254 shell pairs
 There are    232360 function pairs (    303612 Cartesian)
 Smallest overlap matrix eigenvalue = 3.05E-05
 Guess MOs from SCF MO coefficient file
 Reading MOs from coefficient file
 Reading MOs from coefficient file
 Long-range K will be added via erf
 Coulomb attenuation parameter = 0.2 bohr**(-1)
 A restricted hybrid HF-DFT SCF calculation will be
 performed using Pulay DIIS extrapolation
 Exchange:     0.2220 Hartree-Fock + 1.0000 wB97X-D + LR-HF
 Correlation:  1.0000 wB97X-D
 Using SG-2 standard quadrature grid
 Dispersion:   Grimme D
 SCF converges when DIIS error is below 1.0E-08
 Geometry optimization detected.  Setting ReadMinima to 0
 Setting SaveMinima to 0
 using 16 threads for integral computing 
 using 16 threads for integral computing 
 K construction time:  CPU 1066.15 s  wall 69.58 s
 -------------------------------------------------------
 OpenMP BLAS3 based DFT computing Module                
 Release: version 1.0, May 2013, Q-Chem Inc. Pittsburgh 
 -------------------------------------------------------
 ---------------------------------------
  Cycle       Energy         DIIS Error
 ---------------------------------------
    1   -2595.8871925733      2.47E-04
 K construction time:  CPU 1067.33 s  wall 69.77 s
    2   -2595.8928081073      3.24E-05
 K construction time:  CPU 807.76 s  wall 52.77 s
    3   -2595.8928432941      3.88E-05
 K construction time:  CPU 754.67 s  wall 49.25 s
    4   -2595.8929983005      7.64E-06
 K construction time:  CPU 698.14 s  wall 45.65 s
    5   -2595.8930049439      5.01E-06
 K construction time:  CPU 655.26 s  wall 42.75 s
    6   -2595.8930080173      1.65E-06
 K construction time:  CPU 602.28 s  wall 39.25 s
    7   -2595.8930084297      5.65E-07
 K construction time:  CPU 541.14 s  wall 35.21 s
    8   -2595.8930084866      2.53E-07
 K construction time:  CPU 506.07 s  wall 32.95 s
    9   -2595.8930085021      1.07E-07
 K construction time:  CPU 441.41 s  wall 28.62 s
   10   -2595.8930085050      4.03E-08
 K construction time:  CPU 394.11 s  wall 25.55 s
   11   -2595.8930085056      1.87E-08
 K construction time:  CPU 349.41 s  wall 22.61 s
   12   -2595.8930085052      6.60E-09 Convergence criterion met
 ---------------------------------------
 SCF time:  CPU 10623.74 s  wall 708.93 s
 SCF   energy in the final basis set = -2595.8930085052
 Total energy in the final basis set = -2595.8930085052
 
 --------------------------------------------------------------
 
                    Orbital Energies (a.u.)
 --------------------------------------------------------------
 
 Alpha MOs
 -- Occupied --
-89.160 -89.093 -89.088 -89.075 -14.496 -14.491 -14.461 -14.440
-14.440 -10.371 -10.371 -10.366 -10.361 -10.344 -10.340 -10.338
-10.336 -10.332 -10.331 -10.330 -10.327 -10.324 -10.323 -10.323
-10.320 -10.313 -10.307 -10.297  -8.170  -8.108  -8.104  -8.090
 -6.120  -6.114  -6.114  -6.057  -6.053  -6.053  -6.050  -6.049
 -6.047  -6.040  -6.036  -6.032  -1.155  -1.079  -1.077  -1.059
 -1.024  -1.016  -0.957  -0.950  -0.915  -0.909  -0.906  -0.886
 -0.863  -0.845  -0.828  -0.807  -0.777  -0.757  -0.748  -0.733
 -0.722  -0.695  -0.687  -0.679  -0.648  -0.642  -0.627  -0.625
 -0.610  -0.601  -0.585  -0.581  -0.573  -0.567  -0.542  -0.530
 -0.528  -0.523  -0.519  -0.513  -0.510  -0.506  -0.501  -0.499
 -0.485  -0.483  -0.473  -0.468  -0.454  -0.442  -0.435  -0.435
 -0.432  -0.423  -0.409  -0.388  -0.387  -0.374  -0.370  -0.367
 -0.365  -0.364  -0.347  -0.336  -0.324  -0.322  -0.273
 -- Virtual --
 -0.051  -0.012   0.021   0.034   0.042   0.057   0.066   0.073
  0.074   0.080   0.088   0.111   0.113   0.118   0.129   0.133
  0.142   0.144   0.150   0.164   0.167   0.168   0.171   0.172
  0.187   0.192   0.199   0.209   0.215   0.226   0.231   0.243
  0.249   0.251   0.259   0.261   0.271   0.275   0.282   0.292
  0.294   0.296   0.298   0.303   0.306   0.313   0.321   0.324
  0.327   0.331   0.334   0.338   0.340   0.344   0.351   0.353
  0.359   0.363   0.367   0.372   0.374   0.378   0.381   0.386
  0.390   0.392   0.396   0.399   0.400   0.404   0.407   0.409
  0.413   0.419   0.421   0.424   0.427   0.430   0.440   0.444
  0.449   0.452   0.456   0.457   0.460   0.460   0.462   0.466
  0.469   0.471   0.475   0.480   0.482   0.484   0.488   0.490
  0.493   0.499   0.502   0.504   0.509   0.511   0.517   0.521
  0.523   0.529   0.533   0.535   0.538   0.544   0.546   0.550
  0.554   0.562   0.568   0.577   0.581   0.584   0.590   0.595
  0.601   0.607   0.614   0.618   0.621   0.628   0.629   0.632
  0.645   0.657   0.659   0.663   0.667   0.671   0.675   0.677
  0.686   0.688   0.694   0.697   0.706   0.710   0.720   0.722
  0.728   0.729   0.735   0.739   0.742   0.748   0.750   0.753
  0.764   0.766   0.770   0.774   0.778   0.780   0.787   0.793
  0.796   0.800   0.803   0.814   0.816   0.824   0.829   0.834
  0.835   0.839   0.842   0.848   0.854   0.856   0.859   0.862
  0.872   0.874   0.881   0.887   0.899   0.899   0.903   0.908
  0.916   0.920   0.921   0.926   0.933   0.937   0.947   0.952
  0.954   0.959   0.964   0.967   0.974   0.979   0.984   0.988
  0.991   0.994   0.998   1.006   1.012   1.023   1.030   1.033
  1.044   1.045   1.055   1.058   1.060   1.067   1.072   1.075
  1.083   1.088   1.090   1.099   1.109   1.111   1.116   1.120
  1.132   1.136   1.141   1.152   1.155   1.161   1.163   1.173
  1.180   1.184   1.194   1.200   1.203   1.212   1.219   1.219
  1.229   1.238   1.242   1.249   1.261   1.268   1.271   1.281
  1.282   1.292   1.296   1.303   1.309   1.314   1.321   1.337
  1.339   1.351   1.354   1.360   1.363   1.375   1.378   1.387
  1.390   1.391   1.401   1.402   1.415   1.420   1.428   1.436
  1.443   1.444   1.450   1.455   1.461   1.470   1.484   1.487
  1.492   1.504   1.506   1.524   1.527   1.531   1.533   1.542
  1.551   1.557   1.560   1.565   1.577   1.581   1.590   1.599
  1.606   1.612   1.615   1.620   1.629   1.635   1.638   1.647
  1.651   1.659   1.661   1.666   1.670   1.675   1.680   1.687
  1.690   1.692   1.696   1.703   1.708   1.720   1.725   1.735
  1.741   1.755   1.762   1.767   1.774   1.776   1.783   1.787
  1.800   1.805   1.819   1.832   1.835   1.848   1.854   1.864
  1.872   1.878   1.885   1.886   1.890   1.904   1.912   1.920
  1.926   1.935   1.939   1.946   1.960   1.966   1.976   1.982
  1.986   1.996   2.001   2.005   2.009   2.018   2.033   2.040
  2.049   2.062   2.065   2.070   2.072   2.080   2.085   2.094
  2.114   2.125   2.128   2.144   2.148   2.164   2.169   2.176
  2.181   2.181   2.188   2.191   2.209   2.215   2.225   2.228
  2.236   2.248   2.258   2.258   2.266   2.268   2.277   2.282
  2.297   2.302   2.309   2.325   2.343   2.344   2.353   2.360
  2.368   2.372   2.385   2.386   2.390   2.401   2.405   2.407
  2.422   2.427   2.429   2.436   2.445   2.450   2.453   2.464
  2.468   2.476   2.483   2.490   2.493   2.502   2.513   2.519
  2.520   2.526   2.534   2.541   2.552   2.557   2.566   2.570
  2.584   2.594   2.597   2.610   2.615   2.620   2.622   2.624
  2.642   2.646   2.661   2.665   2.670   2.673   2.677   2.688
  2.703   2.720   2.732   2.738   2.749   2.764   2.766   2.770
  2.779   2.786   2.789   2.791   2.797   2.802   2.811   2.814
  2.822   2.826   2.833   2.845   2.855   2.869   2.874   2.881
  2.890   2.895   2.896   2.913   2.914   2.933   2.938   2.940
  2.944   2.949   2.951   2.952   2.956   2.965   2.974   2.979
  2.984   2.986   2.996   3.003   3.013   3.017   3.021   3.022
  3.028   3.037   3.044   3.045   3.049   3.058   3.064   3.066
  3.068   3.082   3.084   3.089   3.090   3.095   3.096   3.107
  3.110   3.118   3.122   3.125   3.132   3.135   3.140   3.144
  3.151   3.159   3.162   3.168   3.172   3.178   3.179   3.181
  3.182   3.189   3.194   3.198   3.203   3.204   3.210   3.211
  3.218   3.223   3.229   3.231   3.238   3.244   3.248   3.251
  3.255   3.259   3.261   3.271   3.272   3.277   3.279   3.288
  3.293   3.295   3.300   3.305   3.310   3.317   3.325   3.327
  3.334   3.339   3.343   3.347   3.350   3.362   3.366   3.373
  3.378   3.379   3.384   3.392   3.403   3.406   3.417   3.427
  3.431   3.436   3.445   3.447   3.457   3.462   3.467   3.470
  3.476   3.478   3.486   3.487   3.492   3.500   3.509   3.517
  3.519   3.522   3.535   3.542   3.546   3.551   3.555   3.563
  3.575   3.585   3.589   3.594   3.600   3.611   3.618   3.633
  3.641   3.642   3.655   3.659   3.676   3.678   3.681   3.687
  3.696   3.710   3.715   3.727   3.734   3.740   3.752   3.764
  3.767   3.774   3.789   3.794   3.800   3.804   3.809   3.812
  3.819   3.832   3.839   3.845   3.854   3.857   3.861   3.866
  3.871   3.886   3.889   3.896   3.908   3.918   3.926   3.928
  3.936   3.941   3.945   3.951   3.959   3.967   3.971   3.975
  3.983   3.989   3.998   4.007   4.023   4.026   4.033   4.040
  4.049   4.060   4.067   4.080   4.087   4.090   4.096   4.116
  4.120   4.127   4.142   4.148   4.163   4.167   4.173   4.177
  4.190   4.194   4.196   4.196   4.203   4.220   4.228   4.235
  4.244   4.261   4.267   4.281   4.296   4.302   4.305   4.311
  4.320   4.333   4.343   4.346   4.355   4.368   4.381   4.387
  4.397   4.402   4.422   4.423   4.433   4.437   4.452   4.458
  4.466   4.478   4.487   4.491   4.511   4.514   4.537   4.542
  4.543   4.551   4.560   4.571   4.579   4.596   4.601   4.605
  4.623   4.636   4.643   4.647   4.655   4.665   4.675   4.682
  4.693   4.720   4.725   4.743   4.759   4.787   4.790   4.809
  4.815   4.816   4.827   4.840   4.845   4.849   4.850   4.859
  4.876   4.882   4.918   4.930   4.935   4.937   4.944   4.947
  4.955   4.959   4.971   4.973   4.988   4.992   5.001   5.003
  5.016   5.025   5.037   5.045   5.053   5.070   5.085   5.088
  5.103   5.112   5.129   5.145   5.158   5.163   5.170   5.192
  5.196   5.222   5.237   5.244   5.248   5.255   5.281   5.287
  5.289   5.312   5.317   5.335   5.348   5.360   5.398   5.411
  5.418   5.428   5.464   5.465   5.467   5.484   5.499   5.523
  5.535   5.536   5.567   5.600   5.610   5.646   5.654   5.666
  5.686   5.701   5.709   5.719   5.724   5.764   5.779   5.816
  5.847   5.857   5.896   5.924   5.939   5.960   6.003   6.097
  6.098   6.131   6.146   6.177   6.184   6.216   6.228   6.296
  6.325   6.348   6.389   6.393   6.471   6.830   7.013   7.858
  8.623   9.691  10.136  10.970  11.097  11.193  11.772  11.983
 12.112  12.514  12.627  12.692  12.826  12.904  13.187  13.274
 13.529  13.570  13.829  13.877  14.273  14.650  14.986
 --------------------------------------------------------------
 
          Ground-State Mulliken Net Atomic Charges

     Atom                 Charge (a.u.)
  ----------------------------------------
      1 C                    -0.069609
      2 C                    -0.100321
      3 N                    -0.153973
      4 C                    -0.156136
      5 C                    -0.093142
      6 C                     0.109221
      7 C                     0.044410
      8 C                    -0.107573
      9 C                     0.028116
     10 N                    -0.134339
     11 N                    -0.281461
     12 C                     0.024598
     13 C                    -0.036279
     14 S                     0.424299
     15 N                    -0.243096
     16 C                     0.026864
     17 S                     0.133481
     18 C                    -0.013451
     19 C                    -0.038544
     20 S                     0.052929
     21 C                     0.032086
     22 C                     0.038773
     23 C                    -0.149518
     24 C                    -0.165411
     25 N                    -0.188172
     26 S                     0.094295
     27 C                    -0.077458
     28 C                    -0.204595
     29 H                     0.124779
     30 H                     0.129326
     31 H                     0.133072
     32 H                     0.130090
     33 H                     0.137457
     34 H                     0.132755
     35 H                     0.144467
     36 H                     0.128456
     37 H                     0.143605
  ----------------------------------------
  Sum of atomic charges =     0.000000

 -----------------------------------------------------------------
                    Cartesian Multipole Moments
 -----------------------------------------------------------------
    Charge (ESU x 10^10)
                 0.0000
    Dipole Moment (Debye)
         X      -0.4458      Y       0.7509      Z      -0.2531
       Tot       0.9092
    Quadrupole Moments (Debye-Ang)
        XX    -168.3681     XY      15.7770     YY    -176.6348
        XZ      -9.2819     YZ      -0.5418     ZZ    -183.2957
    Octopole Moments (Debye-Ang^2)
       XXX    -171.3800    XXY      32.7348    XYY     -63.5997
       YYY      16.9629    XXZ     -89.9634    XYZ     -25.4059
       YYZ      11.3340    XZZ      46.3699    YZZ      -6.2829
       ZZZ      41.0758
    Hexadecapole Moments (Debye-Ang^3)
      XXXX  -17282.6642   XXXY    1094.9063   XXYY   -3494.0622
      XYYY      41.9659   YYYY   -2371.6983   XXXZ    -523.8313
      XXYZ     -14.9453   XYYZ      21.0750   YYYZ      16.1243
      XXZZ   -3432.2567   XYZZ      47.9522   YYZZ    -730.6982
      XZZZ      82.2847   YZZZ     -57.0342   ZZZZ   -1613.2767
 -----------------------------------------------------------------
 Calculating analytic gradient of the SCF energy
 K construction time:  CPU 2700.21 s  wall 170.68 s
 Gradient of SCF Energy
            1           2           3           4           5           6
    1  -0.0001201   0.0001751   0.0000246  -0.0002146  -0.0000284  -0.0000687
    2  -0.0000013   0.0000093   0.0000024   0.0002978  -0.0000670  -0.0003635
    3   0.0000439  -0.0001259  -0.0000116   0.0000854   0.0000104   0.0001324
            7           8           9          10          11          12
    1   0.0003601  -0.0013345   0.0001026   0.0007372  -0.0013845  -0.0005259
    2   0.0000473   0.0004283   0.0002737  -0.0001541   0.0001350   0.0002220
    3   0.0005663  -0.0001143  -0.0016159  -0.0007776   0.0000962  -0.0021771
           13          14          15          16          17          18
    1   0.0018296   0.0003932   0.0007720  -0.0018339   0.0001224  -0.0003318
    2   0.0002190  -0.0004816   0.0000357  -0.0011342   0.0009459  -0.0006599
    3   0.0005300   0.0029559  -0.0000149   0.0007262   0.0005485  -0.0002874
           19          20          21          22          23          24
    1   0.0003186   0.0000351   0.0001924  -0.0002371  -0.0000112   0.0003314
    2   0.0000152   0.0002370  -0.0000613  -0.0000966   0.0003522  -0.0000576
    3  -0.0005136   0.0000190   0.0000617  -0.0001978   0.0000349  -0.0001360
           25          26          27          28          29          30
    1  -0.0000568   0.0000295   0.0001944   0.0002228   0.0000415  -0.0000048
    2  -0.0000720  -0.0001533   0.0001056   0.0000264   0.0000029   0.0000058
    3   0.0002280   0.0000991   0.0000356  -0.0001133  -0.0000153   0.0000413
           31          32          33          34          35          36
    1   0.0000404   0.0000863   0.0000292   0.0000492  -0.0000252   0.0000440
    2  -0.0000622  -0.0000047   0.0000464  -0.0000906   0.0000070   0.0000560
    3  -0.0000823  -0.0000626  -0.0000950   0.0000042   0.0000447   0.0000054
           37
    1   0.0000456
    2  -0.0000110
    3   0.0000715
 Max gradient component =       2.956E-03
 RMS gradient           =       5.631E-04
 Gradient time:  CPU 3137.87 s  wall 200.02 s
 Geometry Optimization Parameters
   NAtoms,    NIC,     NZ,  NCons,   NDum,   NFix, NCnnct, MaxDiis
       37     280       0       3       0       0       0       0

 Cartesian Hessian Update
 Hessian Updated using BFGS Update


** CONSTRAINED OPTIMIZATION IN DELOCALIZED INTERNAL COORDINATES **
   Searching for a Minimum

   Optimization Cycle:   3

                       Coordinates (Angstroms)
     ATOM                X               Y               Z
      1  C         7.5233043171   -0.5735632177   -1.0653370582
      2  C         6.8869608245    0.4514960982   -1.7457498161
      3  N         6.8909066969   -1.4130353336   -0.2512123955
      4  C         5.5248770991    0.6124832248   -1.5730951132
      5  C         5.5852680622   -1.2488280873   -0.0907085329
      6  C         4.8411783711   -0.2562582905   -0.7298182904
      7  C         3.3839721147   -0.1475559499   -0.5415659632
      8  C         2.5349054716    0.0820950845   -1.5905709485
      9  C         2.7539221188   -0.2726227811    0.7291383433
     10  N         1.1809383800    0.2053872441   -1.5176572149
     11  N         3.3294933000   -0.4849530692    1.9160284587
     12  C         1.3367785396   -0.1449282849    0.8155379007
     13  C         0.5807517764    0.1020525509   -0.3674815787
     14  S         2.1390320946   -0.5167724290    3.0001779802
     15  N         0.8622956148   -0.2654023257    2.0579158085
     16  C        -0.8859517000    0.2655989506   -0.2940598957
     17  S        -1.9663574780   -1.0569124697   -0.4649243968
     18  C        -1.5916291733    1.4104544389   -0.0854956053
     19  C        -3.3678754992   -0.0740936072   -0.2626330009
     20  S        -1.1451454932    3.0749168869    0.1670806441
     21  C        -3.0046926459    1.2387260801   -0.0652603412
     22  C        -4.7100041933   -0.6151437635   -0.3015509473
     23  C        -2.8357407106    3.5068535284    0.2949164113
     24  C        -3.6932858118    2.4805774119    0.1569140699
     25  N        -5.7770919981    0.1115717243   -0.1358480907
     26  S        -5.0416208947   -2.3016183173   -0.5752699028
     27  C        -6.9068028140   -0.6479325125   -0.2235361224
     28  C        -6.7202507989   -1.9691319054   -0.4565348527
     29  H         8.5903238420   -0.7276477122   -1.1772628314
     30  H         7.4512750081    1.1118105158   -2.3882630130
     31  H         4.9979135650    1.4144856993   -2.0731677169
     32  H         5.0942552420   -1.9456697920    0.5765726523
     33  H         2.9399555605    0.1628295673   -2.5917866689
     34  H        -3.0868006947    4.5398445415    0.4730696975
     35  H        -4.7662415484    2.5643949075    0.2076403856
     36  H        -7.8693932168   -0.1729353694   -0.1108007909
     37  H        -7.4579617200   -2.7440235946   -0.5668676387
   Point Group: c1    Number of degrees of freedom:   105


   Energy is  -2595.893008505

              Constraints and their Current Values
                                        Value     Constraint
   Dihedral:        4   6   7   8       42.246       42.246
   Dihedral:       10  13  16  17       90.000       90.000
   Dihedral:       17  19  22  25      179.217      179.217
 Hessian Updated using BFGS Update

 90 Hessian modes will be used to form the next step
  Hessian Eigenvalues:
     0.041785    0.045000    0.045000    0.045000    0.045000    0.045000
     0.045000    0.045000    0.045000    0.045001    0.045001    0.045001
     0.045001    0.045002    0.045005    0.045007    0.045009    0.045012
     0.045164    0.045489    0.149368    0.159966    0.159986    0.159998
     0.159998    0.160000    0.160000    0.160036    0.160162    0.166117
     0.220050    0.224620    0.225861    0.232063    0.233154    0.234516
     0.247493    0.247732    0.249915    0.249959    0.249989    0.249992
     0.249998    0.249998    0.249999    0.249999    0.257524    0.297702
[...]
     27  C        -6.9016104390   -0.6623206319   -0.1991213097
     28  C        -6.7129303888   -1.9768869240   -0.4653967546
     29  H         8.5940334713   -0.7542093168   -1.1423299902
     30  H         7.4722240418    1.0710543796   -2.3907038317
     31  H         5.0182170602    1.3906041573   -2.0970936359
     32  H         5.0790197130   -1.9247479322    0.6078099258
     33  H         2.9580537978    0.1389560393   -2.6123681117
     34  H        -3.1043150559    4.5287499364    0.5422390646
     35  H        -4.7738442723    2.5461519168    0.2621556259
     36  H        -7.8648131980   -0.1950601671   -0.0616910952
     37  H        -7.4490805433   -2.7519484152   -0.5849553255
   Point Group: c1    Number of degrees of freedom:   105


   Energy is  -2595.893076720

              Constraints and their Current Values
                                        Value     Constraint
   Dihedral:        4   6   7   8       42.246       42.246
   Dihedral:       10  13  16  17       90.000       90.000
   Dihedral:       17  19  22  25      179.217      179.217
 Hessian Updated using BFGS Update

100 Hessian modes will be used to form the next step
  Hessian Eigenvalues:
     0.006491    0.033603    0.043778    0.045000    0.045000    0.045000
     0.045000    0.045000    0.045000    0.045000    0.045000    0.045000
     0.045000    0.045000    0.045001    0.045001    0.045001    0.045001
     0.045001    0.045003    0.045005    0.045005    0.045008    0.045010
     0.045031    0.045099    0.045158    0.045326    0.045570    0.145562
     0.156632    0.159965    0.159989    0.160000    0.160021    0.160118
     0.160209    0.160517    0.161931    0.219046    0.220112    0.225094
     0.226481    0.232096    0.234380    0.234618    0.247843    0.249682
     0.249879    0.249954    0.249985    0.249996    0.250563    0.251271
     0.252234    0.263287    0.280244    0.297668    0.304503    0.306537
     0.316260    0.325819    0.334612    0.350528    0.355619    0.356045
     0.356445    0.356786    0.356866    0.359262    0.360781    0.361319
     0.364003    0.365042    0.381085    0.386511    0.389397    0.394901
     0.403354    0.407270    0.431320    0.454103    0.455492    0.463869
     0.472362    0.473400    0.476563    0.483917    0.492424    0.497700
     0.501066    0.522770    0.526647    0.538633    0.559234    0.575125
     0.591284    0.624933    0.639516    0.682842

 Minimum Search - Taking Simple RFO Step
 Searching for Lamda that Minimizes Along All modes
 Value Taken    Lamda =   0.00000000
 Step Taken.  Stepsize is  0.002280

                             Maximum     Tolerance    Cnvgd?
         Gradient           0.000053      0.000300     YES
         Displacement       0.000953      0.001200     YES
         Energy change     -0.000001      0.000001     YES

 Final energy is   -2595.89307671979     


 ******************************
 **  OPTIMIZATION CONVERGED  **
 ******************************

                       Coordinates (Angstroms)
     ATOM                X               Y               Z
      1  C         7.5270472642   -0.5934753480   -1.0406837114
      2  C         6.9003570550    0.4233781063   -1.7419425497
      3  N         6.8846915776   -1.4160377978   -0.2169296045
      4  C         5.5379701460    0.5932269916   -1.5821463362
      5  C         5.5787671653   -1.2431517367   -0.0689004839
      6  C         4.8437007252   -0.2587695040   -0.7308309570
      7  C         3.3854974546   -0.1416548621   -0.5549098607
      8  C         2.5460302089    0.0744994973   -1.6130415385
      9  C         2.7455480917   -0.2479911745    0.7132964642
     10  N         1.1912164474    0.2079934406   -1.5509684193
     11  N         3.3144301204   -0.4440652430    1.9054663402
     12  C         1.3273510299   -0.1185326831    0.7873441284
     13  C         0.5801167994    0.1161569891   -0.4062447800
     14  S         2.1132634006   -0.4603685172    2.9781976048
     15  N         0.8422290284   -0.2227186093    2.0259766962
     16  C        -0.8844154032    0.2873349700   -0.3451740794
     17  S        -1.9607446850   -1.0421360546   -0.5169199322
     18  C        -1.5943674646    1.4227610353   -0.1013057951
     19  C        -3.3650479047   -0.0716650697   -0.2733273136
     20  S        -1.1568741244    3.0843534797    0.1804474735
     21  C        -3.0065167118    1.2399969581   -0.0615084772
     22  C        -4.7056183349   -0.6175656326   -0.3062380064
     23  C        -2.8486502621    3.5009502552    0.3411168053
     24  C        -3.7011415666    2.4717540386    0.1951878064
     25  N        -5.7737531187    0.1001015840   -0.1095186699
     26  S        -5.0345795176   -2.2981685131   -0.6164537409
     27  C        -6.9016104390   -0.6623206319   -0.1991213097
     28  C        -6.7129303888   -1.9768869240   -0.4653967546
     29  H         8.5940334713   -0.7542093168   -1.1423299902
     30  H         7.4722240418    1.0710543796   -2.3907038317
     31  H         5.0182170602    1.3906041573   -2.0970936359
     32  H         5.0790197130   -1.9247479322    0.6078099258
     33  H         2.9580537978    0.1389560393   -2.6123681117
     34  H        -3.1043150559    4.5287499364    0.5422390646
     35  H        -4.7738442723    2.5461519168    0.2621556259
     36  H        -7.8648131980   -0.1950601671   -0.0616910952
     37  H        -7.4490805433   -2.7519484152   -0.5849553255

Z-matrix Print:
$molecule
0 1
S 
C  1 1.719149
C  2 1.361138 1 109.659813
C  3 1.424483 2 114.522487 1 0.521821 0
C  4 1.376179 3 112.102066 2 -0.391141 0
C  4 1.437227 3 111.972069 2 179.833216 0
H  6 1.077363 4 123.470220 3 -179.904799 0
C  6 1.344352 4 111.655816 3 0.229865 0
H  8 1.078048 6 126.852106 4 179.841445 0
C  5 1.447833 4 127.163708 3 179.737535 0
N  10 1.301790 5 123.259163 4 1.149782 0
C  11 1.364323 10 111.118496 5 -179.855219 0
H  12 1.079342 11 119.172511 10 179.715278 0
C  12 1.354469 11 116.111417 10 -0.036041 0
H  14 1.075608 12 128.745691 11 179.533641 0
C  2 1.475766 1 121.835460 3 -177.453294 0
N  16 1.300872 2 119.630977 1 -90.000016 0
C  17 1.362789 16 120.011788 2 -178.853092 0
H  18 1.082853 17 114.486296 16 -178.370094 0
C  18 1.367871 17 126.182331 16 0.811703 0
C  20 1.424496 18 115.136820 17 -0.817707 0
N  21 1.335418 20 127.906033 18 179.329450 0
C  21 1.426017 20 119.093394 18 0.342612 0
N  23 1.334320 21 113.746620 20 179.379069 0
C  20 1.473438 18 121.840670 17 179.399335 0
C  25 1.390196 20 121.241169 18 -42.245749 0
H  26 1.082185 25 120.205652 20 -2.838509 0
C  26 1.382202 25 119.191531 20 178.329822 0
H  28 1.080466 26 121.161139 25 179.618414 0
C  28 1.385098 26 118.531828 25 0.170078 0
H  30 1.083802 28 120.452619 26 179.970640 0
N  30 1.329587 28 123.316672 26 0.134275 0
C  32 1.325610 30 117.674593 28 -0.014891 0
H  33 1.082709 32 116.257675 30 179.938338 0
S  24 1.605843 23 105.916418 21 -0.110604 0
S  14 1.715489 12 109.594568 11 0.015723 0
S  3 1.741171 2 133.946426 1 -179.418127 0
$end

 
 --------------------------------------------------------------
 
                    Orbital Energies (a.u.)
 --------------------------------------------------------------
 
 Alpha MOs
 -- Occupied --
-89.159 -89.093 -89.088 -89.075 -14.496 -14.492 -14.461 -14.440
-14.440 -10.371 -10.371 -10.366 -10.361 -10.343 -10.341 -10.339
-10.336 -10.333 -10.331 -10.330 -10.327 -10.324 -10.323 -10.323
-10.319 -10.313 -10.307 -10.297  -8.169  -8.108  -8.104  -8.090
 -6.119  -6.114  -6.113  -6.057  -6.053  -6.053  -6.050  -6.049
 -6.047  -6.040  -6.036  -6.032  -1.155  -1.079  -1.077  -1.059
 -1.024  -1.017  -0.957  -0.950  -0.915  -0.909  -0.906  -0.886
 -0.863  -0.845  -0.828  -0.807  -0.777  -0.757  -0.748  -0.733
 -0.722  -0.696  -0.687  -0.679  -0.648  -0.642  -0.627  -0.625
 -0.610  -0.601  -0.585  -0.581  -0.573  -0.567  -0.542  -0.530
 -0.528  -0.523  -0.519  -0.514  -0.510  -0.506  -0.501  -0.499
 -0.485  -0.482  -0.473  -0.468  -0.454  -0.442  -0.435  -0.435
 -0.433  -0.423  -0.410  -0.388  -0.387  -0.374  -0.370  -0.367
 -0.366  -0.364  -0.347  -0.336  -0.324  -0.323  -0.273
 -- Virtual --
 -0.051  -0.012   0.021   0.034   0.042   0.057   0.066   0.073
  0.074   0.080   0.088   0.110   0.113   0.118   0.129   0.133
  0.142   0.144   0.150   0.164   0.167   0.168   0.171   0.171
  0.187   0.192   0.199   0.209   0.215   0.226   0.230   0.244
  0.249   0.251   0.260   0.261   0.271   0.275   0.282   0.291
  0.294   0.296   0.298   0.304   0.306   0.313   0.322   0.324
  0.327   0.330   0.335   0.339   0.340   0.344   0.352   0.353
  0.360   0.363   0.367   0.372   0.374   0.378   0.381   0.386
  0.390   0.392   0.396   0.399   0.400   0.404   0.407   0.408
  0.412   0.419   0.422   0.424   0.428   0.429   0.440   0.444
  0.448   0.452   0.455   0.457   0.459   0.460   0.462   0.466
  0.468   0.471   0.475   0.480   0.482   0.484   0.489   0.490
  0.494   0.499   0.501   0.504   0.509   0.511   0.517   0.521
  0.523   0.529   0.533   0.534   0.538   0.544   0.546   0.550
  0.554   0.562   0.568   0.577   0.581   0.584   0.590   0.595
  0.601   0.606   0.614   0.617   0.620   0.627   0.628   0.632
  0.645   0.657   0.659   0.663   0.667   0.671   0.675   0.677
  0.686   0.688   0.694   0.699   0.706   0.709   0.720   0.722
  0.727   0.729   0.736   0.739   0.741   0.747   0.750   0.752
  0.764   0.767   0.770   0.774   0.778   0.780   0.787   0.793
  0.796   0.800   0.804   0.814   0.815   0.824   0.829   0.835
  0.835   0.840   0.842   0.847   0.854   0.856   0.859   0.862
  0.871   0.875   0.881   0.886   0.898   0.900   0.903   0.907
  0.916   0.920   0.921   0.926   0.933   0.937   0.947   0.951
  0.954   0.958   0.964   0.966   0.974   0.979   0.984   0.988
  0.991   0.994   0.998   1.008   1.011   1.023   1.029   1.033
  1.043   1.045   1.055   1.058   1.060   1.067   1.072   1.075
  1.083   1.088   1.090   1.099   1.107   1.112   1.117   1.120
  1.131   1.136   1.143   1.154   1.157   1.160   1.162   1.173
  1.179   1.184   1.193   1.200   1.203   1.212   1.218   1.220
  1.229   1.239   1.243   1.249   1.261   1.270   1.270   1.280
  1.283   1.292   1.295   1.303   1.308   1.314   1.322   1.337
  1.340   1.352   1.353   1.359   1.362   1.375   1.378   1.386
  1.390   1.391   1.400   1.402   1.414   1.419   1.428   1.436
  1.443   1.444   1.450   1.454   1.460   1.471   1.485   1.487
  1.492   1.504   1.506   1.524   1.527   1.530   1.533   1.540
  1.551   1.557   1.559   1.566   1.577   1.581   1.588   1.599
  1.606   1.612   1.616   1.620   1.628   1.632   1.636   1.648
  1.652   1.659   1.661   1.666   1.670   1.676   1.680   1.686
  1.689   1.691   1.696   1.704   1.709   1.718   1.724   1.735
  1.741   1.756   1.762   1.765   1.774   1.777   1.783   1.786
  1.801   1.806   1.817   1.832   1.834   1.850   1.854   1.864
  1.872   1.879   1.884   1.886   1.891   1.903   1.912   1.920
  1.925   1.936   1.938   1.946   1.959   1.965   1.976   1.982
  1.985   1.997   2.001   2.005   2.009   2.018   2.033   2.041
  2.049   2.062   2.063   2.070   2.072   2.080   2.085   2.094
  2.114   2.125   2.127   2.146   2.148   2.164   2.168   2.176
  2.180   2.182   2.187   2.192   2.208   2.215   2.225   2.227
  2.236   2.248   2.257   2.258   2.266   2.268   2.277   2.282
  2.297   2.300   2.309   2.325   2.343   2.345   2.352   2.360
  2.369   2.372   2.384   2.385   2.391   2.401   2.406   2.408
  2.421   2.427   2.429   2.435   2.446   2.449   2.453   2.463
  2.467   2.477   2.482   2.490   2.493   2.502   2.512   2.519
  2.520   2.525   2.534   2.542   2.552   2.558   2.566   2.569
  2.584   2.594   2.598   2.609   2.614   2.619   2.622   2.625
  2.643   2.645   2.660   2.664   2.670   2.674   2.675   2.687
  2.704   2.719   2.732   2.738   2.750   2.764   2.767   2.770
  2.778   2.786   2.789   2.791   2.797   2.802   2.812   2.814
  2.821   2.826   2.833   2.845   2.855   2.869   2.875   2.881
  2.890   2.896   2.896   2.912   2.915   2.934   2.938   2.940
  2.944   2.948   2.951   2.952   2.956   2.965   2.974   2.979
  2.984   2.987   2.996   3.002   3.014   3.017   3.021   3.022
  3.028   3.037   3.043   3.046   3.048   3.058   3.064   3.066
  3.068   3.081   3.084   3.088   3.090   3.095   3.096   3.107
  3.110   3.117   3.122   3.125   3.131   3.136   3.139   3.145
  3.152   3.158   3.161   3.168   3.172   3.178   3.179   3.181
  3.182   3.188   3.194   3.198   3.202   3.204   3.210   3.211
  3.217   3.224   3.230   3.231   3.238   3.244   3.249   3.252
  3.254   3.258   3.264   3.271   3.272   3.277   3.281   3.288
  3.294   3.297   3.300   3.305   3.310   3.316   3.324   3.327
  3.335   3.339   3.343   3.347   3.350   3.361   3.366   3.374
  3.378   3.379   3.384   3.391   3.402   3.405   3.416   3.426
  3.430   3.438   3.444   3.448   3.457   3.462   3.467   3.470
  3.476   3.478   3.485   3.486   3.492   3.499   3.509   3.516
  3.519   3.522   3.534   3.541   3.547   3.551   3.554   3.562
  3.574   3.585   3.589   3.593   3.600   3.612   3.617   3.634
  3.641   3.643   3.655   3.658   3.675   3.678   3.682   3.687
  3.695   3.709   3.714   3.725   3.734   3.739   3.751   3.763
  3.766   3.774   3.789   3.794   3.801   3.803   3.809   3.812
  3.819   3.832   3.839   3.844   3.854   3.857   3.861   3.865
  3.871   3.884   3.890   3.896   3.907   3.918   3.926   3.928
  3.936   3.941   3.945   3.951   3.960   3.967   3.971   3.974
  3.983   3.988   3.999   4.007   4.021   4.027   4.030   4.040
  4.049   4.060   4.067   4.079   4.085   4.089   4.097   4.117
  4.120   4.126   4.142   4.148   4.163   4.166   4.174   4.177
  4.190   4.194   4.195   4.197   4.203   4.220   4.228   4.235
  4.244   4.261   4.266   4.281   4.296   4.303   4.305   4.310
  4.319   4.334   4.344   4.346   4.355   4.367   4.381   4.387
  4.397   4.403   4.422   4.424   4.432   4.438   4.452   4.459
  4.467   4.478   4.487   4.491   4.510   4.516   4.537   4.541
  4.545   4.551   4.559   4.571   4.579   4.596   4.601   4.604
  4.622   4.635   4.644   4.646   4.656   4.665   4.674   4.681
  4.693   4.719   4.726   4.743   4.759   4.787   4.790   4.809
  4.815   4.816   4.827   4.841   4.845   4.849   4.850   4.858
  4.875   4.882   4.918   4.930   4.935   4.937   4.944   4.948
  4.953   4.959   4.971   4.973   4.987   4.992   5.002   5.003
  5.016   5.025   5.036   5.044   5.053   5.070   5.086   5.088
  5.103   5.112   5.129   5.146   5.159   5.163   5.170   5.192
  5.196   5.222   5.237   5.244   5.247   5.256   5.281   5.286
  5.288   5.312   5.317   5.335   5.348   5.359   5.397   5.410
  5.418   5.428   5.464   5.465   5.467   5.483   5.500   5.523
  5.534   5.536   5.568   5.598   5.611   5.647   5.655   5.666
  5.686   5.700   5.709   5.719   5.724   5.761   5.779   5.815
  5.846   5.858   5.898   5.922   5.939   5.960   6.004   6.095
  6.100   6.132   6.146   6.177   6.184   6.216   6.228   6.295
  6.325   6.347   6.389   6.392   6.470   6.830   7.013   7.854
  8.623   9.691  10.136  10.967  11.102  11.195  11.765  11.983
 12.110  12.514  12.623  12.692  12.824  12.904  13.186  13.270
 13.531  13.569  13.831  13.881  14.272  14.643  14.988
 --------------------------------------------------------------
 
          Ground-State Mulliken Net Atomic Charges

     Atom                 Charge (a.u.)
  ----------------------------------------
      1 C                    -0.069580
      2 C                    -0.100217
      3 N                    -0.153977
      4 C                    -0.156052
      5 C                    -0.093052
      6 C                     0.109551
      7 C                     0.045630
      8 C                    -0.107505
      9 C                     0.027980
     10 N                    -0.134915
     11 N                    -0.281100
     12 C                     0.022591
     13 C                    -0.037875
     14 S                     0.422848
     15 N                    -0.241323
     16 C                     0.030239
     17 S                     0.131831
     18 C                    -0.015359
     19 C                    -0.038224
     20 S                     0.053068
     21 C                     0.033067
     22 C                     0.039174
     23 C                    -0.149595
     24 C                    -0.165150
     25 N                    -0.188426
     26 S                     0.094480
     27 C                    -0.077620
     28 C                    -0.204293
     29 H                     0.124812
     30 H                     0.129153
     31 H                     0.133097
     32 H                     0.129870
     33 H                     0.137296
     34 H                     0.132620
     35 H                     0.144800
     36 H                     0.128606
     37 H                     0.143551
  ----------------------------------------
  Sum of atomic charges =     0.000000

 -----------------------------------------------------------------
                    Cartesian Multipole Moments
 -----------------------------------------------------------------
    Charge (ESU x 10^10)
                 0.0000
    Dipole Moment (Debye)
         X      -0.4649      Y       0.7396      Z      -0.2639
       Tot       0.9126
    Quadrupole Moments (Debye-Ang)
        XX    -168.0415     XY      15.6697     YY    -176.8242
        XZ      -9.6774     YZ      -0.1089     ZZ    -183.3754
    Octopole Moments (Debye-Ang^2)
       XXX    -167.5816    XXY      29.6992    XYY     -63.6990
       YYY      12.5141    XXZ     -89.6824    XYZ     -25.4586
       YYZ      13.4930    XZZ      45.9271    YZZ      -7.1730
       ZZZ      45.2039
    Hexadecapole Moments (Debye-Ang^3)
      XXXX  -17241.3222   XXXY    1083.6232   XXYY   -3492.1930
      XYYY      42.8188   YYYY   -2368.7820   XXXZ    -539.7302
      XXYZ     -11.9479   XYYZ      19.2744   YYYZ       0.5428
      XXZZ   -3429.7183   XYZZ      48.4163   YYZZ    -728.5554
      XZZZ      79.8189   YZZZ     -77.1941   ZZZZ   -1616.7719
 -----------------------------------------------------------------
Archival summary:
1\1\mn250\OPT\ProcedureUnspecified\BasisUnspecified\45199\afmv_a\FriJun201:42:102017FriJun201:42:102017\0\\#,OPT,ProcedureUnspecified,BasisUnspecified,\\0,1\S\C,1,1.71915\C,2,1.36114,1,109.66\C,3,1.42448,2,114.522,1,0.521821,0\C,4,1.37618,3,112.102,2,-0.391141,0\C,4,1.43723,3,111.972,2,179.833,0\H,6,1.07736,4,123.47,3,-179.905,0\C,6,1.34435,4,111.656,3,0.229865,0\H,8,1.07805,6,126.852,4,179.841,0\C,5,1.44783,4,127.164,3,179.738,0\N,10,1.30179,5,123.259,4,1.14978,0\C,11,1.36432,10,111.118,5,-179.855,0\H,12,1.07934,11,119.173,10,179.715,0\C,12,1.35447,11,116.111,10,-0.0360407,0\H,14,1.07561,12,128.746,11,179.534,0\C,2,1.47577,1,121.835,3,-177.453,0\N,16,1.30087,2,119.631,1,-90,0\C,17,1.36279,16,120.012,2,-178.853,0\H,18,1.08285,17,114.486,16,-178.37,0\C,18,1.36787,17,126.182,16,0.811703,0\C,20,1.4245,18,115.137,17,-0.817707,0\N,21,1.33542,20,127.906,18,179.329,0\C,21,1.42602,20,119.093,18,0.342612,0\N,23,1.33432,21,113.747,20,179.379,0\C,20,1.47344,18,121.841,17,179.399,0\C,25,1.3902,20,121.241,18,-42.2457,0\H,26,1.08218,25,120.206,20,-2.83851,0\C,26,1.3822,25,119.192,20,178.33,0\H,28,1.08047,26,121.161,25,179.618,0\C,28,1.3851,26,118.532,25,0.170078,0\H,30,1.0838,28,120.453,26,179.971,0\N,30,1.32959,28,123.317,26,0.134275,0\C,32,1.32561,30,117.675,28,-0.0148915,0\H,33,1.08271,32,116.258,30,179.938,0\S,24,1.60584,23,105.916,21,-0.110604,0\S,14,1.71549,12,109.595,11,0.0157235,0\S,3,1.74117,2,133.946,1,-179.418,0\\\@

 Total job time:  7742.43s(wall), 117056.26s(cpu) 
 Fri Jun  2 01:42:10 2017

        *************************************************************
        *                                                           *
        *  Thank you very much for using Q-Chem.  Have a nice day.  *
        *                                                           *
        *************************************************************


0 sent ACK to 0 
now end server 0 ... 
cleanup process ... done
