
Running Job 1 of 1 ./7/11.qcin
qchem ./7/11.qcin_58932.0 /tmpu/cab_g/afmv_a/scratch_qchem/qchem58932/ 1
/tmpu/appuserlic/qchem4.4/serial-multicore/exe/qcprog.exe_s ./7/11.qcin_58932.0 /tmpu/cab_g/afmv_a/scratch_qchem/qchem58932/
Check license passed

                  Welcome to Q-Chem
     A Quantum Leap Into The Future Of Chemistry


 Q-Chem 4.4, Q-Chem, Inc., Pleasanton, CA (2016)

 Y. Shao,  Z. Gan,  E. Epifanovsky,  A. T. B. Gilbert,  M. Wormit,  
 J. Kussmann,  A. W. Lange,  A. Behn,  J. Deng,  X. Feng,  D. Ghosh,  
 M. Goldey,  P. R. Horn,  L. D. Jacobson,  I. Kaliman,  F. Rob,  
 R. Z. Khaliullin,  T. Kus,  A. Landau,  J. Liu,  E. I. Proynov,  Y. M. Rhee,  
 R. M. Richard,  M. A. Rohrdanz,  R. P. Steele,  E. J. Sundstrom,  
 H. L. Woodcock III,  P. M. Zimmerman,  D. Zuev,  B. Albrecht,  E. Alguire,  
 B. Austin,  S. A. Baeppler,  G. J. O. Beran,  Y. A. Bernard,  E. Berquist,  
 K. Brandhorst,  K. B. Bravaya,  S. T. Brown,  D. Casanova,  C.-M. Chang,  
 Y. Chen,  S. H. Chien,  K. D. Closser,  M. P. Coons,  D. L. Crittenden,  
 S. Dasgupta,  M. Diedenhofen,  R. A. DiStasio Jr.,  H. Do,  A. D. Dutoi,  
 R. G. Edgar,  P.-T. Fang,  S. Fatehi,  Q. Feng,  L. Fusti-Molnar,  
 A. Ghysels,  A. Golubeva-Zadorozhnaya,  J. Gomes,  A. Gunina,  
 M. W. D. Hanson-Heine,  P. H. P. Harbach,  A. W. Hauser,  J. E. Herr,  
 E. G. Hohenstein,  Z. C. Holden,  K. Hui,  T.-C. Jagau,  H. Ji,  B. Kaduk,  
 K. Khistyaev,  Jaehoon Kim,  Jihan Kim,  R. A. King,  P. Klunzinger,  
 K. Koh,  D. Kosenkov,  T. Kowalczyk,  C. M. Krauter,  A. Kunitsa,  
 K. U. Lao,  A. Laurent,  K. V. Lawler,  J. Lee,  D. Lefrancois,  S. Lehtola,  
 S. V. Levchenko,  C. Y. Lin,  Y.-S. Lin,  F. Liu,  E. Livshits,  
 R. C. Lochan,  A. Luenser,  P. Manohar,  S. F. Manzer,  S.-P. Mao,  Y. Mao,  
 N. Mardirossian,  A. V. Marenich,  L. A. Martinez-Martinez,  S. A. Maurer,  
 N. J. Mayhall,  J.-M. Mewes,  A. F. Morrison,  K. Nanda,  T. S. Nguyen-Beck,  
 C. M. Oana,  R. Olivares-Amaya,  D. P. O'Neill,  J. A. Parkhill,  
 T. M. Perrine,  R. Peverati,  P. A. Pieniazek,  F. Plasser,  A. Prociuk,  
 D. R. Rehn,  E. Rosta,  N. J. Russ,  N. Sergueev,  S. M. Sharada,  
 S. Sharma,  D. W. Small,  A. Sodt,  T. Stauch,  T. Stein,  D. Stuck,  
 Y.-C. Su,  A. J. W. Thom,  T. Tsuchimochi,  L. Vogt,  O. Vydrov,  T. Wang,  
 M. A. Watson,  J. Wenzel,  A. White,  C. F. Williams,  V. Vanovschi,  
 K. Yao,  S. Yeganeh,  S. R. Yost,  Z.-Q. You,  I. Y. Zhang,  X. Zhang,  
 Y. Zhao,  B. R. Brooks,  G. K. L. Chan,  D. M. Chipman,  C. J. Cramer,  
 W. A. Goddard III,  M. S. Gordon,  W. J. Hehre,  A. Klamt,  
 H. F. Schaefer III,  M. W. Schmidt,  C. D. Sherrill,  D. G. Truhlar,  
 A. Warshel,  X. Xu,  A. Aspuru-Guzik,  R. Baer,  A. T. Bell,  N. A. Besley,  
 J.-D. Chai,  A. Dreuw,  B. D. Dunietz,  T. R. Furlani,  S. R. Gwaltney,  
 C.-P. Hsu,  Y. Jung,  J. Kong,  D. S. Lambrecht,  W. Liang,  C. Ochsenfeld,  
 V. A. Rassolov,  L. V. Slipchenko,  J. E. Subotnik,  T. Van Voorhis,  
 J. M. Herbert,  A. I. Krylov,  P. M. W. Gill,  M. Head-Gordon

 Contributors to earlier versions of Q-Chem not listed above: 
 R. D. Adamson,  J. Baker,  E. F. C. Byrd,  A. K. Chakraborty,  C.-L. Cheng,  
 H. Dachsel,  R. J. Doerksen,  G. Hawkins,  A. Heyden,  S. Hirata,  
 G. Kedziora,  F. J. Keil,  C. Kelley,  P. P. Korambath,  W. Kurlancheek,  
 A. M. Lee,  M. S. Lee,  D. Liotard,  I. Lotan,  P. E. Maslen,  N. Nair,  
 D. Neuhauser,  R. Olson,  B. Peters,  J. Ritchie,  N. E. Schultz,  
 N. Shenvi,  A. C. Simmonett,  K. S. Thanthiriwatte,  Q. Wu,  W. Zhang

 Please cite Q-Chem as follows:
 Y. Shao et al., Mol. Phys. 113, 184-215 (2015)
 DOI: 10.1080/00268976.2014.952696

 Q-Chem 4.4.2 for Intel X86 Linux

 Parts of Q-Chem use Armadillo 5.200.1 (Boston Tea Smuggler).
 http://arma.sourceforge.net/

 Q-Chem begins on Thu Oct 11 22:36:03 2018  

Host: 
0

     Scratch files written to /tmpu/cab_g/afmv_a/scratch_qchem/qchem58932//
 Dec716 11556_ 22328  22283 4050   
Processing $rem in /tmpu/appuserlic/qchem4.4/serial-multicore/config/preferences.
 MEM_TOTAL  2000 
FILE_GEOM_ORG=        593

Checking the input file for inconsistencies... 	...done.

--------------------------------------------------------------
User input:
--------------------------------------------------------------
$comment
SP
$end

$rem
MEM_STATIC 5000
MEM_TOTAL 20000
JOBTYPE SP
EXCHANGE B3LYP
BASIS 6-31g(d,p)
$end

$molecule
0 1
C          -0.150000    -18.811000     -5.419000
C           0.476000    -18.218000     -4.354000
N          -0.912000    -19.817000     -5.246000
C           0.245000    -18.793000     -3.085000
C          -1.186000    -20.357000     -4.038000
C          -0.557000    -19.884000     -2.891000
C          -0.871000    -20.347000     -1.494000
C          -2.292000    -20.438000     -1.249000
C          -0.092000    -20.448000     -0.359000
N          -2.847000    -20.593000     -0.060000
N           1.280000    -20.326000     -0.411000
C          -0.599000    -20.795000      0.879000
C          -2.075000    -20.866000      0.971000
S           1.767000    -20.791000      1.083000
N           0.308000    -20.983000      1.832000
C          -2.857000    -21.000000      2.210000
S          -4.434000    -20.221000      2.399000
C          -2.541000    -21.775000      3.347000
C          -4.580000    -20.923000      4.061000
S          -1.322000    -22.984000      3.590000
C          -3.493000    -21.779000      4.328000
C          -5.665000    -20.672000      5.009000
C          -1.896000    -23.285000      5.204000
C          -3.035000    -22.521000      5.479000
N          -6.809000    -20.556000      4.371000
S          -5.667000    -20.746000      6.715000
C          -7.853000    -20.480000      5.358000
C          -7.410000    -20.551000      6.624000
C          -0.095000    -18.141000     -6.740000
H           1.189000    -17.415000     -4.517000
H           0.640000    -18.169000     -2.289000
H          -1.964000    -21.116000     -4.111000
H          -2.921000    -20.484000     -2.137000
H          -1.388000    -23.957000      5.883000
H          -3.650000    -22.604000      6.368000
H          -8.875000    -20.438000      5.004000
H          -7.980000    -20.450000      7.539000
H           0.895000    -17.727000     -6.967000
C          -1.123000    -17.121000     -7.086000
H          -0.202000    -18.941000     -7.483000
H          -1.263000    -16.402000     -6.270000
H          -2.035000    -17.696000     -7.286000
C          -0.764000    -16.320000     -8.337000
H          -1.176000    -15.336000     -8.082000
C          -1.388000    -16.730000     -9.776000
H           0.325000    -16.189000     -8.360000
H          -2.471000    -16.616000     -9.640000
H          -1.326000    -17.797000    -10.024000
C          -0.841000    -15.818000    -10.932000
H          -1.105000    -14.756000    -10.858000
C          -1.179000    -16.412000    -12.297000
H           0.253000    -15.746000    -10.933000
H          -1.097000    -17.506000    -12.308000
H          -0.717000    -15.999000    -13.203000
H          -2.251000    -16.181000    -12.329000
C           6.713000    -14.123000    -17.684000
C           7.295000    -13.117000    -16.845000
N           5.706000    -14.860000    -17.321000
C           6.877000    -13.000000    -15.565000
C           5.291000    -14.740000    -16.052000
C           5.832000    -13.885000    -15.127000
C           5.375000    -13.739000    -13.696000
C           6.270000    -13.693000    -12.655000
C           4.028000    -13.936000    -13.252000
N           5.975000    -13.628000    -11.324000
N           2.969000    -13.992000    -14.114000
C           3.654000    -13.897000    -11.901000
C           4.663000    -13.672000    -10.962000
S           1.583000    -14.085000    -13.119000
N           2.314000    -13.933000    -11.692000
C           4.254000    -13.690000     -9.565000
S           2.598000    -14.048000     -8.824000
C           5.064000    -13.254000     -8.506000
C           3.150000    -13.601000     -7.196000
S           6.770000    -12.907000     -8.596000
C           4.497000    -13.267000     -7.239000
C           2.371000    -13.736000     -6.016000
C           6.772000    -12.705000     -6.819000
C           5.483000    -12.858000     -6.296000
N           1.091000    -14.145000     -6.142000
S           2.897000    -13.617000     -4.350000
C           0.520000    -14.351000     -4.925000
C           1.348000    -14.168000     -3.891000
C           7.118000    -14.166000    -19.177000
H           7.919000    -12.319000    -17.238000
H           7.165000    -12.155000    -14.947000
H           4.544000    -15.478000    -15.764000
H           7.351000    -13.698000    -12.788000
H           7.658000    -12.510000     -6.231000
H           5.328000    -12.652000     -5.243000
H          -0.513000    -14.675000     -4.931000
H           1.034000    -14.133000     -2.856000
H           6.413000    -13.568000    -19.768000
C           7.344000    -15.577000    -19.778000
H           8.041000    -13.575000    -19.217000
H           6.365000    -16.064000    -19.864000
H           7.889000    -16.296000    -19.153000
C           8.080000    -15.701000    -21.124000
H           9.151000    -15.467000    -21.166000
C           7.433000    -14.842000    -22.167000
H           8.026000    -16.695000    -21.586000
H           7.639000    -13.821000    -21.821000
H           6.347000    -14.970000    -22.246000
C           8.126000    -15.058000    -23.595000
H           9.187000    -14.794000    -23.693000
C           7.292000    -14.225000    -24.640000
H           8.021000    -16.133000    -23.786000
H           6.207000    -14.384000    -24.598000
H           7.660000    -14.562000    -25.617000
H           7.499000    -13.176000    -24.397000
$end

--------------------------------------------------------------
 ----------------------------------------------------------------
             Standard Nuclear Orientation (Angstroms)
    I     Atom           X                Y                Z
 ----------------------------------------------------------------
    1      C       1.9912876456    -1.5436843319    -0.4434642600
    2      C       2.4868797387    -0.2661325850    -0.4435698030
    3      N       2.7462603993    -2.5326950194    -0.7163800000
    4      C       3.8506664617    -0.1174210260    -0.7787080525
    5      C       4.0639212541    -2.4217606986    -0.9945947521
    6      C       4.6652128724    -1.1710931801    -1.0908140227
    7      C       6.1396571428    -0.9472761489    -1.2920453073
    8      C       6.9472082119    -1.7947647513    -0.4451856143
    9      C       6.8420065548     0.0612081344    -1.9204812658
   10      N       8.2457582007    -1.6512013164    -0.2478826320
   11      N       6.2120407005     0.9910802643    -2.7195137084
   12      C       8.2211712124     0.1487316851    -1.9018674173
   13      C       8.9121453788    -0.7987406517    -0.9980245813
   14      S       7.4509369078     1.7786514761    -3.4477291806
   15      N       8.7406111737     1.0987764371    -2.6724510245
   16      C      10.3384992469    -0.7645430541    -0.6389338303
   17      S      10.9000636864    -1.2358405777     0.9710397796
   18      C      11.4289548284    -0.4446840607    -1.4766968332
   19      C      12.6083747937    -0.9104764403     0.4688691525
   20      S      11.5132938626    -0.2388428924    -3.1963500950
   21      C      12.6608596455    -0.5730704337    -0.8982433253
   22      C      13.7886955951    -0.9931454441     1.3284845558
   23      C      13.2313486698     0.0191876053    -3.1140036211
   24      C      13.6968268787    -0.1355114598    -1.8040264319
   25      N      13.6584814738    -1.9811307512     2.1864853224
   26      S      15.2900247662    -0.1887190986     1.2067267029
   27      C      14.9084722666    -2.1194678514     2.8852462718
   28      C      15.8497064954    -1.2451428888     2.4932258818
   29      C       0.6244237748    -1.7766790352     0.0803321001
   30      H       1.8207856049     0.5784898600    -0.2929758777
   31      H       4.1962276756     0.8953004225    -0.5943179361
   32      H       4.5383403347    -3.4001831204    -1.0602461074
   33      H       6.4428472643    -2.6688987890    -0.0355385483
   34      H      13.8173849235     0.2948089930    -3.9807696565
   35      H      14.7378782414    -0.1381171263    -1.5013049911
   36      H      14.9977033626    -2.9304120293     3.5965629045
   37      H      16.8403502985    -1.0990539096     2.9050618510
   38      H      -0.0916942028    -1.0108741155    -0.2417592956
   39      C       0.4309139534    -2.0201935424     1.5364071785
   40      H       0.2622234588    -2.6793641468    -0.4270814595
   41      H       0.9793067798    -1.2875018107     2.1404312957
   42      H       0.7938914108    -3.0414893420     1.7024531216
   43      C      -1.0359360741    -1.9462898036     1.9587485501
   44      H      -0.9441153821    -1.5143892097     2.9627683892
   45      C      -1.9110899562    -3.3024412075     2.1109196785
   46      H      -1.5303266220    -1.1793120522     1.3497049433
   47      H      -1.3943388596    -3.8672173612     2.8972893120
   48      H      -1.8321417872    -4.0047639650     1.2716658844
   49      C      -3.4039162111    -2.9956270009     2.4912140580
   50      H      -3.5514095273    -2.5130545290     3.4650649353
   51      C      -4.2743218103    -4.2372264059     2.3147770713
   52      H      -3.8636203090    -2.2487051763     1.8333379828
   53      H      -3.9899197943    -4.8244163072     1.4327314301
   54      H      -5.3674945140    -4.1503385124     2.3624523657
   55      H      -3.9424990534    -4.8106086132     3.1892457685
   56      C     -12.7812117904    -0.4986503643    -0.8787830185
   57      C     -12.5872226699     0.8776715838    -0.5283730922
   58      N     -11.8439779780    -1.3951345224    -0.7957412500
   59      C     -11.3458091102     1.3126528224    -0.2177339192
   60      C     -10.6141922874    -0.9619498768    -0.4843504697
   61      C     -10.2841899499     0.3431141429    -0.2250487890
   62      C      -8.9049889292     0.8448762368     0.1270383387
   63      C      -8.3743728626     1.9666951559    -0.4618512118
   64      C      -7.9229092250     0.0826222242     0.8375608752
   65      N      -7.1224032134     2.4762194889    -0.2727270423
   66      N      -8.2298560544    -1.0617382274     1.5186510313
   67      C      -6.6142618681     0.5360566522     1.0576456650
   68      C      -6.2710690387     1.7845032235     0.5341699344
   69      S      -6.7857446077    -1.5147269298     2.3117546594
   70      N      -5.8867143523    -0.2451887555     1.8948476867
   71      C      -4.8915436492     2.2051797327     0.7320460940
   72      S      -3.4804752631     1.2979623023     1.5101357699
   73      C      -4.4278197979     3.5073578547     0.4933636099
   74      C      -2.4238000120     2.7231524518     1.4254749678
   75      S      -5.2914304042     4.7642826374    -0.3511846784
   76      C      -3.0992846603     3.7643534516     0.8030322252
   77      C      -1.0494765391     2.7293557318     1.7841705366
   78      C      -3.8125965433     5.7667103593    -0.2691720331
   79      C      -2.7983811831     5.1066894097     0.4338205337
   80      N      -0.5248339336     1.6037966773     2.3127762039
   81      S       0.1484781770     3.9664113564     1.4663799138
   82      C       0.8196079203     1.7213840678     2.4807503297
   83      C       1.3300275133     2.8759756748     2.0395938268
   84      C     -14.2241151501    -1.0050467557    -1.1165130946
   85      H     -13.4155645483     1.5475741941    -0.3145759331
   86      H     -11.1777296701     2.2960097717     0.2108117751
   87      H      -9.8455923709    -1.7286169961    -0.5684497960
   88      H      -8.9202766516     2.5949025462    -1.1644318321
   89      H      -3.7154529715     6.7438133825    -0.7214969258
   90      H      -1.8854027503     5.6500183798     0.6495379679
   91      H       1.3241184349     0.8641457521     2.9081992867
   92      H       2.3420364134     3.2085981973     2.2299782893
   93      H     -14.6330381973    -1.4068881948    -0.1809836192
   94      C     -14.4139062639    -1.9767325834    -2.3094104017
   95      H     -14.8042537037    -0.0867613900    -1.2681747107
   96      H     -13.9516324544    -2.9334887784    -2.0375161053
   97      H     -13.8754215934    -1.7313713321    -3.2337713247
   98      C     -15.8375483724    -2.2434890249    -2.8298641920
   99      H     -16.3719689659    -1.4378246774    -3.3483818758
  100      C     -16.7393090473    -2.6813632951    -1.7165660250
  101      H     -15.9194828948    -3.0847416626    -3.5298475730
  102      H     -16.8267273997    -1.7841089039    -1.0905583660
  103      H     -16.3354075293    -3.4954052034    -1.1031979991
  104      C     -18.1893481626    -3.0700137543    -2.2755171721
  105      H     -18.7772603948    -2.2812541216    -2.7625884696
  106      C     -19.0103226030    -3.6445840426    -1.0600584307
  107      H     -17.9918547192    -3.8563413265    -3.0143109790
  108      H     -18.4927035814    -4.4157725363    -0.4755852870
  109      H     -19.9034652575    -4.0887083334    -1.5167550621
  110      H     -19.1957631367    -2.7816792458    -0.4094386337
 ----------------------------------------------------------------
 Molecular Point Group                 C1    NOp =  1
 Largest Abelian Subgroup              C1    NOp =  1
 Nuclear Repulsion Energy = 10495.7093975642 hartrees
 There are      270 alpha and      270 beta electrons
 Requested basis set is 6-31G(d,p)
 There are 406 shells and 1262 basis functions

 Total QAlloc Memory Limit  20000 MB
 Mega-Array Size      4888 MB
 MEM_STATIC part      5000 MB
 A cutoff of  1.0D-08 yielded  13311 shell pairs
 There are    137222 function pairs
 
 -------------------------------------------------------
 OpenMP Integral Computing Module                       
 Release: version 1.0, May 2013, Q-Chem Inc. Pittsburgh 
 -------------------------------------------------------
 Integral Job Info:
 Integral job number is                      11
 Integral operator is                         1
 short-range coefficients                     0
 long-range coefficients              100000000
 Omega coefficients                           0
 if combine SR and LR in K                    0
 Integral screening is                        0
 Integral computing path is                   2
 max size of driver memory is            800000
 size of driver memory is                593474
 size of scratch memory is             15166112
 max col of scratch BK array               1296
 max len of scratch array in speh3          155
 max len of scratch index in speh4           18
 max int batch size is                      520
 min int batch size is                       52
 fixed nKL is                                52
 max L of basis functions is                  2
 order of int derivative is                   0
 number of shells is                        406
 number of basis is                        1262
 number of cartesian basis is              1262
 number of contracted shell pairs         13311
 number of primitive shell pairs          43004
 maxK2 (contraction) of shell pair           36
 max number of K2 of shell pair               1
 max number of CS2 of shell pair           1328
 max number of PS2 of shell pair           7968
 mem total for path MDJ                  279336
 -------------------------------------------------------
 Smallest overlap matrix eigenvalue = 4.33E-04

 Scale SEOQF with 1.000000e-03/1.000000e-02/1.000000e-01

 Standard Electronic Orientation quadrupole field applied
 Nucleus-field energy     =    -0.0000001382 hartrees
 Guess from superposition of atomic densities
 Warning:  Energy on first SCF cycle will be non-variational
 A restricted hybrid HF-DFT SCF calculation will be
 performed using Pulay DIIS extrapolation
 Exchange:     0.2000 Hartree-Fock + 0.0800 Slater + 0.7200 B88
 Correlation:  0.1900 VWN1RPA + 0.8100 LYP
 Using SG-1 standard quadrature grid
 SCF converges when DIIS error is below 1.0E-05
 using 16 threads for integral computing 
 -------------------------------------------------------
 OpenMP BLAS3 based DFT computing Module                
 Release: version 1.0, May 2013, Q-Chem Inc. Pittsburgh 
 -------------------------------------------------------
 ---------------------------------------
  Cycle       Energy         DIIS Error
 ---------------------------------------
    1   -5680.4046348058      2.16E-02
    2   -5662.4506119028      2.17E-03
    3   -5661.0588207630      3.33E-03
    4   -5663.2898606232      9.51E-04
    5   -5663.4379916143      4.46E-04
    6   -5663.4678054508      2.28E-04
    7   -5663.4773554072      6.64E-05
    8   -5663.4780852666      2.93E-05
    9   -5663.4782477684      1.12E-05
   10   -5663.4782761387      3.68E-06 Convergence criterion met
 ---------------------------------------
 SCF time:  CPU 1034.60 s  wall 85.87 s
 SCF   energy in the final basis set = -5663.4782761387
 Total energy in the final basis set = -5663.4782761387
 
 --------------------------------------------------------------
 
                    Orbital Energies (a.u.)
 --------------------------------------------------------------
 
 Alpha MOs
 -- Occupied --
-88.988 -88.987 -88.935 -88.933 -88.928 -88.928 -88.914 -88.909
-14.388 -14.387 -14.383 -14.381 -14.353 -14.346 -14.344 -14.343
-14.327 -14.313 -10.272 -10.267 -10.265 -10.262 -10.259 -10.255
-10.253 -10.252 -10.246 -10.245 -10.244 -10.239 -10.238 -10.236
-10.233 -10.232 -10.232 -10.232 -10.232 -10.230 -10.228 -10.228
-10.227 -10.225 -10.224 -10.221 -10.220 -10.215 -10.213 -10.213
-10.209 -10.209 -10.209 -10.207 -10.206 -10.200 -10.198 -10.189
-10.186 -10.182 -10.180 -10.178 -10.176 -10.171 -10.170 -10.170
-10.170 -10.169 -10.168 -10.164  -8.043  -8.042  -7.997  -7.995
 -7.985  -7.984  -7.973  -7.971  -6.008  -6.007  -6.002  -6.002
 -6.000  -6.000  -5.960  -5.959  -5.957  -5.955  -5.954  -5.951
 -5.949  -5.949  -5.946  -5.945  -5.942  -5.941  -5.937  -5.935
 -5.934  -5.931  -5.929  -5.927  -1.036  -1.027  -0.974  -0.969
 -0.966  -0.955  -0.952  -0.950  -0.912  -0.912  -0.902  -0.895
 -0.845  -0.841  -0.835  -0.830  -0.815  -0.814  -0.811  -0.808
 -0.803  -0.800  -0.799  -0.793  -0.783  -0.778  -0.769  -0.766
 -0.753  -0.751  -0.741  -0.741  -0.728  -0.724  -0.712  -0.706
 -0.697  -0.690  -0.677  -0.672  -0.653  -0.652  -0.647  -0.646
 -0.635  -0.635  -0.628  -0.627  -0.610  -0.607  -0.603  -0.597
 -0.596  -0.593  -0.584  -0.581  -0.580  -0.578  -0.561  -0.561
 -0.548  -0.545  -0.543  -0.540  -0.527  -0.523  -0.518  -0.516
 -0.513  -0.508  -0.499  -0.498  -0.488  -0.487  -0.477  -0.475
 -0.471  -0.467  -0.467  -0.465  -0.464  -0.452  -0.450  -0.449
 -0.446  -0.441  -0.440  -0.438  -0.437  -0.436  -0.435  -0.431
 -0.429  -0.429  -0.424  -0.421  -0.418  -0.416  -0.416  -0.412
 -0.411  -0.409  -0.406  -0.403  -0.400  -0.400  -0.397  -0.395
 -0.394  -0.394  -0.392  -0.390  -0.387  -0.386  -0.385  -0.384
 -0.379  -0.378  -0.377  -0.372  -0.362  -0.357  -0.357  -0.354
 -0.352  -0.350  -0.350  -0.348  -0.345  -0.344  -0.342  -0.341
 -0.338  -0.337  -0.336  -0.333  -0.332  -0.320  -0.316  -0.314
 -0.314  -0.307  -0.306  -0.304  -0.302  -0.301  -0.298  -0.297
 -0.294  -0.293  -0.291  -0.289  -0.286  -0.284  -0.283  -0.281
 -0.281  -0.272  -0.271  -0.263  -0.259  -0.257  -0.256  -0.248
 -0.248  -0.237  -0.235  -0.232  -0.197  -0.191
 -- Virtual --
 -0.117  -0.112  -0.079  -0.071  -0.035  -0.030  -0.023  -0.022
 -0.019  -0.018  -0.012  -0.011  -0.007   0.000   0.001   0.003
  0.005   0.007   0.008   0.012   0.024   0.031   0.033   0.036
  0.039   0.042   0.053   0.057   0.065   0.068   0.082   0.091
  0.095   0.098   0.099   0.102   0.104   0.105   0.106   0.107
  0.110   0.111   0.117   0.120   0.121   0.122   0.124   0.125
  0.125   0.130   0.133   0.134   0.136   0.142   0.146   0.147
  0.149   0.150   0.154   0.155   0.156   0.158   0.161   0.164
  0.167   0.168   0.168   0.170   0.177   0.181   0.184   0.185
  0.188   0.189   0.191   0.193   0.193   0.194   0.197   0.202
  0.203   0.205   0.210   0.211   0.218   0.219   0.220   0.222
  0.229   0.231   0.232   0.234   0.236   0.237   0.241   0.243
  0.245   0.247   0.252   0.254   0.257   0.258   0.259   0.262
  0.265   0.268   0.270   0.274   0.278   0.280   0.284   0.285
  0.286   0.289   0.293   0.293   0.297   0.302   0.306   0.307
  0.313   0.320   0.320   0.321   0.324   0.328   0.328   0.329
  0.333   0.335   0.338   0.342   0.345   0.346   0.348   0.353
  0.353   0.359   0.361   0.362   0.365   0.367   0.367   0.370
  0.373   0.379   0.381   0.381   0.388   0.393   0.401   0.402
  0.404   0.409   0.414   0.419   0.422   0.426   0.431   0.432
  0.435   0.442   0.447   0.450   0.453   0.456   0.459   0.463
  0.467   0.477   0.478   0.479   0.482   0.492   0.497   0.499
  0.500   0.502   0.503   0.508   0.510   0.511   0.517   0.521
  0.521   0.523   0.526   0.529   0.531   0.534   0.535   0.537
  0.538   0.540   0.542   0.545   0.546   0.547   0.550   0.552
  0.554   0.556   0.556   0.558   0.559   0.562   0.564   0.565
  0.566   0.567   0.573   0.576   0.579   0.581   0.584   0.586
  0.587   0.589   0.590   0.591   0.592   0.595   0.598   0.599
  0.601   0.602   0.604   0.608   0.610   0.613   0.616   0.616
  0.618   0.618   0.623   0.627   0.627   0.628   0.631   0.633
  0.634   0.637   0.639   0.641   0.643   0.644   0.646   0.647
  0.654   0.654   0.662   0.662   0.666   0.666   0.671   0.675
  0.678   0.680   0.684   0.690   0.690   0.695   0.699   0.700
  0.704   0.706   0.710   0.716   0.718   0.722   0.724   0.728
  0.732   0.734   0.736   0.737   0.738   0.742   0.747   0.749
  0.752   0.755   0.756   0.758   0.761   0.765   0.766   0.768
  0.770   0.775   0.777   0.779   0.780   0.782   0.784   0.784
  0.792   0.795   0.798   0.801   0.804   0.808   0.809   0.809
  0.812   0.813   0.815   0.817   0.818   0.819   0.820   0.824
  0.824   0.828   0.829   0.833   0.837   0.837   0.838   0.840
  0.841   0.843   0.844   0.847   0.847   0.849   0.855   0.857
  0.860   0.860   0.862   0.865   0.866   0.868   0.870   0.873
  0.877   0.878   0.882   0.883   0.887   0.889   0.890   0.891
  0.894   0.897   0.898   0.899   0.901   0.904   0.907   0.907
  0.909   0.914   0.915   0.917   0.920   0.921   0.923   0.926
  0.926   0.930   0.932   0.934   0.936   0.939   0.942   0.946
  0.948   0.949   0.950   0.956   0.957   0.961   0.962   0.964
  0.965   0.971   0.972   0.976   0.979   0.981   0.983   0.986
  0.987   0.992   0.994   0.995   0.995   0.998   1.001   1.005
  1.007   1.007   1.016   1.017   1.020   1.021   1.021   1.024
  1.028   1.030   1.034   1.036   1.037   1.041   1.044   1.046
  1.049   1.051   1.056   1.058   1.064   1.065   1.069   1.071
  1.079   1.083   1.084   1.086   1.092   1.097   1.099   1.102
  1.109   1.110   1.114   1.119   1.121   1.130   1.136   1.139
  1.140   1.143   1.154   1.163   1.167   1.171   1.173   1.181
  1.184   1.190   1.193   1.199   1.209   1.211   1.219   1.223
  1.227   1.232   1.238   1.241   1.248   1.252   1.254   1.264
  1.269   1.273   1.278   1.280   1.288   1.294   1.295   1.299
  1.301   1.309   1.315   1.316   1.319   1.329   1.333   1.334
  1.339   1.341   1.342   1.347   1.349   1.354   1.363   1.367
  1.370   1.373   1.379   1.385   1.389   1.390   1.395   1.400
  1.404   1.411   1.416   1.418   1.425   1.430   1.431   1.433
  1.434   1.439   1.448   1.452   1.453   1.458   1.463   1.466
  1.474   1.485   1.489   1.491   1.493   1.498   1.499   1.509
  1.517   1.523   1.524   1.529   1.533   1.545   1.557   1.564
  1.569   1.581   1.585   1.588   1.593   1.595   1.601   1.605
  1.611   1.616   1.616   1.619   1.635   1.639   1.641   1.646
  1.649   1.659   1.665   1.668   1.670   1.671   1.676   1.683
  1.689   1.692   1.697   1.699   1.704   1.706   1.709   1.718
  1.721   1.722   1.730   1.734   1.736   1.746   1.747   1.751
  1.754   1.756   1.757   1.762   1.769   1.771   1.774   1.775
  1.781   1.788   1.794   1.799   1.801   1.803   1.811   1.814
  1.818   1.819   1.821   1.827   1.830   1.835   1.837   1.844
  1.854   1.857   1.858   1.862   1.863   1.868   1.871   1.874
  1.876   1.880   1.882   1.887   1.890   1.891   1.894   1.903
  1.904   1.909   1.911   1.918   1.924   1.925   1.933   1.934
  1.935   1.937   1.942   1.943   1.946   1.951   1.954   1.957
  1.963   1.966   1.972   1.972   1.978   1.987   1.990   1.992
  1.995   1.998   2.007   2.012   2.015   2.016   2.019   2.029
  2.033   2.041   2.042   2.048   2.051   2.055   2.065   2.082
  2.084   2.088   2.090   2.091   2.092   2.095   2.097   2.101
  2.105   2.108   2.110   2.112   2.118   2.123   2.125   2.131
  2.132   2.134   2.138   2.142   2.148   2.149   2.156   2.157
  2.162   2.163   2.168   2.168   2.171   2.181   2.185   2.188
  2.188   2.191   2.194   2.200   2.207   2.212   2.219   2.222
  2.223   2.225   2.230   2.239   2.244   2.250   2.252   2.259
  2.261   2.267   2.268   2.270   2.274   2.277   2.284   2.285
  2.288   2.291   2.301   2.304   2.308   2.311   2.312   2.316
  2.317   2.322   2.325   2.327   2.328   2.331   2.334   2.338
  2.341   2.346   2.348   2.349   2.354   2.356   2.359   2.365
  2.371   2.372   2.374   2.378   2.381   2.384   2.391   2.396
  2.398   2.401   2.403   2.404   2.409   2.414   2.419   2.420
  2.423   2.427   2.428   2.428   2.430   2.435   2.445   2.447
  2.450   2.452   2.456   2.458   2.462   2.464   2.469   2.476
  2.479   2.484   2.489   2.493   2.496   2.496   2.500   2.503
  2.509   2.511   2.514   2.518   2.519   2.523   2.528   2.529
  2.533   2.544   2.545   2.547   2.548   2.556   2.562   2.565
  2.567   2.572   2.577   2.588   2.589   2.590   2.594   2.601
  2.606   2.608   2.621   2.626   2.635   2.637   2.648   2.648
  2.659   2.663   2.665   2.667   2.670   2.673   2.674   2.681
  2.686   2.687   2.693   2.699   2.701   2.703   2.706   2.712
  2.715   2.716   2.721   2.726   2.729   2.733   2.751   2.754
  2.756   2.757   2.771   2.774   2.777   2.779   2.781   2.787
  2.792   2.797   2.815   2.818   2.823   2.827   2.840   2.842
  2.844   2.845   2.855   2.859   2.862   2.869   2.876   2.877
  2.886   2.892   2.893   2.895   2.897   2.901   2.904   2.907
  2.915   2.928   2.932   2.937   2.944   2.946   2.951   2.957
  2.959   2.964   2.972   2.978   2.986   3.023   3.024   3.037
  3.047   3.052   3.064   3.070   3.086   3.109   3.112   3.126
  3.180   3.194   3.195   3.199   3.210   3.215   3.229   3.231
  3.247   3.256   3.256   3.261   3.264   3.266   3.275   3.284
  3.292   3.299   3.301   3.312   3.326   3.330   3.337   3.344
  3.354   3.365   3.369   3.385   3.399   3.407   3.432   3.435
  3.448   3.458   3.458   3.477   3.478   3.494   3.540   3.547
  3.553   3.561   3.567   3.583   3.589   3.592   3.599   3.599
  3.608   3.616   3.749   3.787   3.838   3.840   3.924   3.924
  3.934   3.937   3.948   3.953   3.957   3.972   3.974   3.985
  3.996   4.022   4.063   4.072   4.100   4.107   4.109   4.114
  4.118   4.133   4.133   4.135   4.151   4.157   4.166   4.191
  4.192   4.228   4.253   4.255   4.259   4.263   4.268   4.274
  4.288   4.307   4.317   4.338   4.365   4.393   4.394   4.403
  4.426   4.437   4.440   4.441   4.448   4.461   4.487   4.488
  4.503   4.513   4.523   4.547   4.586   4.598   4.642   4.672
  4.687   4.701   4.710   4.724   4.758   4.774   4.793   4.823
 --------------------------------------------------------------
 
          Ground-State Mulliken Net Atomic Charges

     Atom                 Charge (a.u.)
  ----------------------------------------
      1 C                     0.300411
      2 C                    -0.129657
      3 N                    -0.484032
      4 C                    -0.068045
      5 C                     0.043985
      6 C                     0.051037
      7 C                     0.015975
      8 C                     0.073968
      9 C                     0.192915
     10 N                    -0.497771
     11 N                    -0.540919
     12 C                     0.253447
     13 C                     0.280132
     14 S                     0.596397
     15 N                    -0.562202
     16 C                    -0.224824
     17 S                     0.363620
     18 C                    -0.123920
     19 C                    -0.210575
     20 S                     0.282971
     21 C                     0.131018
     22 C                     0.039464
     23 C                    -0.300653
     24 C                    -0.080595
     25 N                    -0.419831
     26 S                     0.278828
     27 C                     0.114353
     28 C                    -0.304129
     29 C                    -0.227882
     30 H                     0.097921
     31 H                     0.095467
     32 H                     0.107583
     33 H                     0.110975
     34 H                     0.137423
     35 H                     0.104906
     36 H                     0.120620
     37 H                     0.135332
     38 H                     0.094275
     39 C                    -0.173709
     40 H                     0.107569
     41 H                     0.082903
     42 H                     0.103443
     43 C                    -0.181161
     44 H                     0.095574
     45 C                    -0.189631
     46 H                     0.112572
     47 H                     0.094933
     48 H                     0.094956
     49 C                    -0.186171
     50 H                     0.097729
     51 C                    -0.328647
     52 H                     0.107662
     53 H                     0.106514
     54 H                     0.095084
     55 H                     0.103117
     56 C                     0.269096
     57 C                    -0.121403
     58 N                    -0.467339
     59 C                    -0.072942
     60 C                     0.082237
     61 C                     0.042260
     62 C                     0.052669
     63 C                     0.047196
     64 C                     0.192362
     65 N                    -0.520048
     66 N                    -0.565805
     67 C                     0.228757
     68 C                     0.304337
     69 S                     0.610991
     70 N                    -0.564278
     71 C                    -0.221312
     72 S                     0.382793
     73 C                    -0.158816
     74 C                    -0.241665
     75 S                     0.300305
     76 C                     0.181014
     77 C                     0.058862
     78 C                    -0.303087
     79 C                    -0.104625
     80 N                    -0.441278
     81 S                     0.289583
     82 C                     0.134862
     83 C                    -0.320295
     84 C                    -0.226772
     85 H                     0.093782
     86 H                     0.105823
     87 H                     0.107324
     88 H                     0.112941
     89 H                     0.131416
     90 H                     0.111289
     91 H                     0.120967
     92 H                     0.134856
     93 H                     0.124972
     94 C                    -0.175438
     95 H                     0.092184
     96 H                     0.116375
     97 H                     0.092911
     98 C                    -0.182307
     99 H                     0.088244
    100 C                    -0.165813
    101 H                     0.087599
    102 H                     0.088313
    103 H                     0.091864
    104 C                    -0.193267
    105 H                     0.095259
    106 C                    -0.314896
    107 H                     0.091914
    108 H                     0.103273
    109 H                     0.096613
    110 H                     0.105419
  ----------------------------------------
  Sum of atomic charges =     0.000000

 -----------------------------------------------------------------
                    Cartesian Multipole Moments
 -----------------------------------------------------------------
    Charge (ESU x 10^10)
                 0.0000
    Dipole Moment (Debye)
         X       3.5555      Y       5.0801      Z       0.2792
       Tot       6.2070
    Quadrupole Moments (Debye-Ang)
        XX    -350.3675     XY      -3.2620     YY    -436.7953
        XZ       2.4601     YZ      -5.6311     ZZ    -440.0919
    Octopole Moments (Debye-Ang^2)
       XXX    1488.1248    XXY     317.7069    XYY     -48.0620
       YYY     134.8386    XXZ      39.6645    XYZ     -30.9012
       YYZ      -4.6162    XZZ     161.3886    YZZ     -10.5576
       ZZZ     -19.1848
    Hexadecapole Moments (Debye-Ang^3)
      XXXX -199211.8335   XXXY   -3321.7570   XXYY  -42474.5701
      XYYY     -88.8708   YYYY  -13256.0026   XXXZ    3428.4068
      XXYZ    -747.8299   XYYZ     192.1278   YYYZ    -202.7027
      XXZZ  -38825.3494   XYZZ      69.3094   YYZZ   -3713.2551
      XZZZ    -285.7422   YZZZ    -206.8991   ZZZZ   -8165.7970
 -----------------------------------------------------------------
Archival summary:
1\1\mn246\SP\ProcedureUnspecified\6-31G**\8105042\afmv_a\ThuOct1122:37:322018ThuOct1122:37:322018\0\\#,ProcedureUnspecified,6-31G**,\\0,1\S\C,1,1.7762\C,2,1.38846,1,109.49\C,3,1.38815,2,115.264,1,-4.69497,0\C,4,1.40274,3,116.763,2,5.49732,0\C,2,1.42038,1,124.547,3,172.529,0\N,6,1.34965,2,118.124,1,4.77391,0\C,7,1.35999,6,111.134,2,-174.017,0\H,8,1.08264,7,116.166,6,-179.56,0\C,8,1.33725,7,114.283,6,2.86282,0\H,10,1.08215,8,124.354,7,-169.844,0\C,3,1.42433,2,136.067,1,178.942,0\H,12,1.0841,3,126.774,2,4.26454,0\C,12,1.39945,3,114.935,2,-176.314,0\H,14,1.08109,12,124.842,3,172.798,0\C,5,1.45575,4,123.946,3,-176.495,0\N,16,1.36174,5,121.749,4,-20.7823,0\C,17,1.36485,16,117.772,5,-176.248,0\H,18,1.08916,17,109.501,16,177.153,0\C,18,1.37362,17,126.857,16,-3.18269,0\C,16,1.39658,5,116.12,4,168.169,0\N,21,1.35668,16,127.901,5,-10.7301,0\C,21,1.40235,16,117.357,5,177.629,0\N,23,1.36662,21,113.711,16,172.248,0\C,20,1.50928,18,121.634,17,176.635,0\C,25,1.37089,20,125.492,18,-134.381,0\H,26,1.08885,25,120.997,20,7.51027,0\N,26,1.34052,25,124.918,20,-179.977,0\C,28,1.29961,26,116.97,25,-1.29871,0\C,29,1.43342,28,123.306,26,6.36888,0\H,30,1.08657,29,122.473,28,161.255,0\C,30,1.3516,29,119.307,28,-6.66517,0\H,32,1.08577,30,121.626,29,169.625,0\C,29,1.54755,28,117.161,26,174.843,0\H,34,1.09673,29,103.914,28,173.529,0\H,34,1.09723,29,109.654,28,-76.7614,0\C,34,1.55023,29,115.942,28,51.8147,0\H,37,1.09682,34,107.723,29,-71.0065,0\H,37,1.09755,34,116.608,29,42.0353,0\C,37,1.53909,34,118.822,29,164.78,0\H,40,1.09707,37,118.891,34,-69.3997,0\H,40,1.09745,37,114.683,34,168.15,0\C,40,1.49811,37,110.864,34,53.5284,0\H,43,1.09637,40,114.269,37,49.9928,0\H,43,1.09754,40,103.466,37,-67.7683,0\C,43,1.6019,40,110.884,37,175.531,0\H,46,1.09687,43,104.239,40,-57.4637,0\H,46,1.09773,43,117.729,40,62.3929,0\C,46,1.57527,43,106.919,40,-174.647,0\H,49,1.09649,46,105.007,43,-69.7237,0\H,49,1.09705,46,104.522,43,168.468,0\H,49,1.09739,46,114.926,43,49.37,0\S,22,1.61053,21,108.32,16,-174.623,0\S,10,1.70695,8,113.462,7,-3.87227,0\S,4,1.74326,3,116.661,2,177.43,0\H,9,2.3104,8,122.456,7,-48.1017,0\C,56,1.09655,9,151.637,8,10.8459,0\H,57,1.09653,56,111.924,9,175.14,0\C,57,1.48893,56,111.371,9,-67.766,0\H,59,1.09682,57,108.452,56,83.9185,0\H,59,1.09704,57,105.952,56,-166.204,0\C,59,1.48222,57,119.416,56,-47.2584,0\N,62,1.27382,59,120.015,57,-83.444,0\C,63,1.35127,62,123.939,59,169.187,0\H,64,1.08935,63,111.306,62,-172.061,0\C,62,1.37031,59,118.692,57,87.2815,0\H,66,1.08616,62,120.211,59,14.519,0\C,64,1.39104,63,120.635,62,4.59252,0\C,68,1.36789,64,114.795,63,-5.03059,0\H,69,1.08583,68,124.588,64,-166.369,0\C,68,1.50485,64,124.507,63,-175.137,0\C,71,1.38031,68,131.92,64,-149.785,0\N,72,1.37839,71,121.618,68,11.8185,0\C,72,1.38206,71,123.223,68,-174.239,0\N,74,1.32899,72,115.309,71,-173.204,0\C,71,1.44483,68,112.458,64,44.5492,0\H,76,1.08917,71,115.619,68,-18.8636,0\N,76,1.32128,71,124.967,68,167.791,0\C,78,1.31661,76,118.862,71,9.68056,0\C,79,1.47126,78,111.511,76,-179.795,0\C,80,1.41183,79,127.534,78,-152.15,0\C,81,1.367,80,115.066,79,176.117,0\C,82,1.40911,81,113.545,80,4.3962,0\C,82,1.444,81,110.649,80,176.028,0\H,84,1.08417,82,120.865,81,-178.115,0\C,84,1.3988,82,112.471,81,13.3512,0\H,86,1.08198,84,126.738,82,177.202,0\C,83,1.46251,82,123.623,81,174.713,0\N,88,1.315,83,110.246,82,143.129,0\C,89,1.43871,88,107.644,83,-172.891,0\H,90,1.08239,89,117.571,88,176.578,0\C,90,1.34315,89,113.86,88,0.310784,0\H,92,1.08274,90,128.168,89,-175.429,0\C,57,1.52823,56,107.186,9,56.0233,0\H,94,1.09682,57,101.05,56,22.5667,0\H,94,1.09709,57,108.236,56,-88.2048,0\C,94,1.62117,57,120.241,56,139.587,0\H,97,1.0972,94,115.14,57,47.7976,0\H,97,1.09744,94,104.097,57,-61.3693,0\C,97,1.57076,94,111.862,57,177.509,0\H,100,1.09637,97,112.724,94,-50.5688,0\H,100,1.09682,97,115.385,94,63.6809,0\C,100,1.52653,97,110.796,94,-166.926,0\H,103,1.09707,100,99.2363,97,-74.0512,0\H,103,1.09712,100,112.36,97,38.0716,0\H,103,1.09766,100,119.898,97,168.985,0\S,73,1.63873,72,103.668,71,169.756,0\S,88,1.70761,83,129.868,82,-26.9566,0\S,81,1.73398,80,130.764,79,10.8165,0\S,80,1.76904,79,121.58,78,24.2971,0\\\@

 Total job time:  88.92s(wall), 1044.59s(cpu) 
 Thu Oct 11 22:37:32 2018

        *************************************************************
        *                                                           *
        *  Thank you very much for using Q-Chem.  Have a nice day.  *
        *                                                           *
        *************************************************************


