
Running Job 1 of 1 ./7/2.qcin
qchem ./7/2.qcin_59754.0 /tmpu/cab_g/afmv_a/scratch_qchem/qchem59754/ 1
/tmpu/appuserlic/qchem4.4/serial-multicore/exe/qcprog.exe_s ./7/2.qcin_59754.0 /tmpu/cab_g/afmv_a/scratch_qchem/qchem59754/
Check license passed

                  Welcome to Q-Chem
     A Quantum Leap Into The Future Of Chemistry


 Q-Chem 4.4, Q-Chem, Inc., Pleasanton, CA (2016)

 Y. Shao,  Z. Gan,  E. Epifanovsky,  A. T. B. Gilbert,  M. Wormit,  
 J. Kussmann,  A. W. Lange,  A. Behn,  J. Deng,  X. Feng,  D. Ghosh,  
 M. Goldey,  P. R. Horn,  L. D. Jacobson,  I. Kaliman,  F. Rob,  
 R. Z. Khaliullin,  T. Kus,  A. Landau,  J. Liu,  E. I. Proynov,  Y. M. Rhee,  
 R. M. Richard,  M. A. Rohrdanz,  R. P. Steele,  E. J. Sundstrom,  
 H. L. Woodcock III,  P. M. Zimmerman,  D. Zuev,  B. Albrecht,  E. Alguire,  
 B. Austin,  S. A. Baeppler,  G. J. O. Beran,  Y. A. Bernard,  E. Berquist,  
 K. Brandhorst,  K. B. Bravaya,  S. T. Brown,  D. Casanova,  C.-M. Chang,  
 Y. Chen,  S. H. Chien,  K. D. Closser,  M. P. Coons,  D. L. Crittenden,  
 S. Dasgupta,  M. Diedenhofen,  R. A. DiStasio Jr.,  H. Do,  A. D. Dutoi,  
 R. G. Edgar,  P.-T. Fang,  S. Fatehi,  Q. Feng,  L. Fusti-Molnar,  
 A. Ghysels,  A. Golubeva-Zadorozhnaya,  J. Gomes,  A. Gunina,  
 M. W. D. Hanson-Heine,  P. H. P. Harbach,  A. W. Hauser,  J. E. Herr,  
 E. G. Hohenstein,  Z. C. Holden,  K. Hui,  T.-C. Jagau,  H. Ji,  B. Kaduk,  
 K. Khistyaev,  Jaehoon Kim,  Jihan Kim,  R. A. King,  P. Klunzinger,  
 K. Koh,  D. Kosenkov,  T. Kowalczyk,  C. M. Krauter,  A. Kunitsa,  
 K. U. Lao,  A. Laurent,  K. V. Lawler,  J. Lee,  D. Lefrancois,  S. Lehtola,  
 S. V. Levchenko,  C. Y. Lin,  Y.-S. Lin,  F. Liu,  E. Livshits,  
 R. C. Lochan,  A. Luenser,  P. Manohar,  S. F. Manzer,  S.-P. Mao,  Y. Mao,  
 N. Mardirossian,  A. V. Marenich,  L. A. Martinez-Martinez,  S. A. Maurer,  
 N. J. Mayhall,  J.-M. Mewes,  A. F. Morrison,  K. Nanda,  T. S. Nguyen-Beck,  
 C. M. Oana,  R. Olivares-Amaya,  D. P. O'Neill,  J. A. Parkhill,  
 T. M. Perrine,  R. Peverati,  P. A. Pieniazek,  F. Plasser,  A. Prociuk,  
 D. R. Rehn,  E. Rosta,  N. J. Russ,  N. Sergueev,  S. M. Sharada,  
 S. Sharma,  D. W. Small,  A. Sodt,  T. Stauch,  T. Stein,  D. Stuck,  
 Y.-C. Su,  A. J. W. Thom,  T. Tsuchimochi,  L. Vogt,  O. Vydrov,  T. Wang,  
 M. A. Watson,  J. Wenzel,  A. White,  C. F. Williams,  V. Vanovschi,  
 K. Yao,  S. Yeganeh,  S. R. Yost,  Z.-Q. You,  I. Y. Zhang,  X. Zhang,  
 Y. Zhao,  B. R. Brooks,  G. K. L. Chan,  D. M. Chipman,  C. J. Cramer,  
 W. A. Goddard III,  M. S. Gordon,  W. J. Hehre,  A. Klamt,  
 H. F. Schaefer III,  M. W. Schmidt,  C. D. Sherrill,  D. G. Truhlar,  
 A. Warshel,  X. Xu,  A. Aspuru-Guzik,  R. Baer,  A. T. Bell,  N. A. Besley,  
 J.-D. Chai,  A. Dreuw,  B. D. Dunietz,  T. R. Furlani,  S. R. Gwaltney,  
 C.-P. Hsu,  Y. Jung,  J. Kong,  D. S. Lambrecht,  W. Liang,  C. Ochsenfeld,  
 V. A. Rassolov,  L. V. Slipchenko,  J. E. Subotnik,  T. Van Voorhis,  
 J. M. Herbert,  A. I. Krylov,  P. M. W. Gill,  M. Head-Gordon

 Contributors to earlier versions of Q-Chem not listed above: 
 R. D. Adamson,  J. Baker,  E. F. C. Byrd,  A. K. Chakraborty,  C.-L. Cheng,  
 H. Dachsel,  R. J. Doerksen,  G. Hawkins,  A. Heyden,  S. Hirata,  
 G. Kedziora,  F. J. Keil,  C. Kelley,  P. P. Korambath,  W. Kurlancheek,  
 A. M. Lee,  M. S. Lee,  D. Liotard,  I. Lotan,  P. E. Maslen,  N. Nair,  
 D. Neuhauser,  R. Olson,  B. Peters,  J. Ritchie,  N. E. Schultz,  
 N. Shenvi,  A. C. Simmonett,  K. S. Thanthiriwatte,  Q. Wu,  W. Zhang

 Please cite Q-Chem as follows:
 Y. Shao et al., Mol. Phys. 113, 184-215 (2015)
 DOI: 10.1080/00268976.2014.952696

 Q-Chem 4.4.2 for Intel X86 Linux

 Parts of Q-Chem use Armadillo 5.200.1 (Boston Tea Smuggler).
 http://arma.sourceforge.net/

 Q-Chem begins on Thu Oct 11 23:07:50 2018  

Host: 
0

     Scratch files written to /tmpu/cab_g/afmv_a/scratch_qchem/qchem59754//
 Dec716 11556_ 22328  22283 4050   
Processing $rem in /tmpu/appuserlic/qchem4.4/serial-multicore/config/preferences.
 MEM_TOTAL  2000 
FILE_GEOM_ORG=        593

Checking the input file for inconsistencies... 	...done.

--------------------------------------------------------------
User input:
--------------------------------------------------------------
$comment
SP
$end

$rem
MEM_STATIC 5000
MEM_TOTAL 20000
JOBTYPE SP
EXCHANGE B3LYP
BASIS 6-31g(d,p)
$end

$molecule
0 1
C         -21.682000     -2.617000      3.009000
C         -22.667000     -2.574000      3.949000
N         -21.190000     -3.785000      2.454000
C         -23.304000     -3.716000      4.449000
C         -21.962000     -4.893000      2.756000
C         -22.970000     -4.886000      3.826000
C         -23.772000     -6.117000      4.197000
C         -25.168000     -6.171000      4.362000
C         -23.105000     -7.321000      4.536000
N         -25.832000     -7.299000      4.562000
N         -21.735000     -7.431000      4.652000
C         -23.774000     -8.498000      4.881000
C         -25.170000     -8.446000      4.778000
S         -21.453000     -8.938000      5.121000
N         -23.009000     -9.516000      5.234000
C         -26.041000     -9.603000      4.920000
S         -27.779000     -9.472000      5.465000
C         -25.879000    -10.901000      4.540000
C         -28.005000    -11.163000      5.475000
S         -24.649000    -11.512000      3.479000
C         -26.934000    -11.693000      4.775000
C         -29.154000    -11.948000      5.871000
C         -25.694000    -12.967000      3.302000
C         -26.743000    -12.959000      4.168000
N         -28.951000    -13.240000      6.193000
S         -30.674000    -11.215000      6.053000
C         -30.125000    -13.691000      6.737000
C         -31.125000    -12.728000      6.813000
C         -20.825000     -1.325000      2.636000
H         -22.895000     -1.584000      4.332000
H         -24.092000     -3.714000      5.196000
H         -21.607000     -5.855000      2.390000
H         -25.742000     -5.246000      4.390000
H         -25.418000    -13.785000      2.650000
H         -27.457000    -13.775000      4.174000
H         -30.184000    -14.698000      7.126000
H         -32.177000    -12.821000      7.047000
H         -20.075000     -1.153000      3.418000
C         -21.700000     -0.062000      2.432000
H         -20.291000     -1.534000      1.701000
H         -22.103000      0.249000      3.403000
H         -22.629000     -0.385000      1.947000
C         -21.048000      1.023000      1.539000
H         -20.177000      1.441000      2.058000
C         -21.969000      2.205000      1.187000
H         -20.693000      0.528000      0.626000
H         -22.320000      2.692000      2.105000
H         -22.767000      1.790000      0.559000
C         -21.296000      3.306000      0.326000
H         -22.005000      4.128000      0.168000
C         -20.737000      2.915000     -1.047000
H         -20.494000      3.770000      0.912000
H         -20.334000      3.705000     -1.694000
H         -21.570000      2.534000     -1.650000
H         -19.903000      2.213000     -0.926000
C         -20.506000    -11.784000      2.496000
C         -19.964000    -13.018000      3.014000
N         -21.688000    -11.732000      1.870000
C         -20.682000    -14.237000      3.007000
C         -22.360000    -12.887000      1.793000
C         -21.816000    -14.162000      2.161000
C         -22.487000    -15.428000      1.741000
C         -23.079000    -16.293000      2.650000
C         -22.548000    -15.836000      0.397000
N         -23.661000    -17.424000      2.351000
N         -22.150000    -15.047000     -0.602000
C         -23.138000    -17.028000      0.005000
C         -23.713000    -17.828000      1.070000
S         -22.302000    -15.964000     -1.984000
N         -23.194000    -17.220000     -1.343000
C         -24.216000    -19.193000      0.777000
S         -23.878000    -20.143000     -0.713000
C         -24.902000    -19.958000      1.632000
C         -24.674000    -21.544000     -0.070000
S         -25.464000    -19.608000      3.246000
C         -25.185000    -21.241000      1.146000
C         -24.815000    -22.825000     -0.790000
C         -26.307000    -21.222000      3.228000
C         -26.028000    -21.961000      2.083000
N         -25.340000    -23.914000     -0.210000
S         -24.415000    -23.044000     -2.481000
C         -25.552000    -24.952000     -1.079000
C         -24.994000    -24.739000     -2.287000
C         -19.652000    -10.488000      2.466000
H         -18.962000    -13.064000      3.431000
H         -20.237000    -15.172000      3.332000
H         -23.280000    -12.783000      1.220000
H         -22.964000    -16.078000      3.711000
H         -26.886000    -21.509000      4.096000
H         -26.297000    -22.986000      1.857000
H         -25.981000    -25.910000     -0.819000
H         -24.881000    -25.371000     -3.158000
H         -20.351000     -9.645000      2.525000
C         -18.997000    -10.341000      0.994000
H         -19.008000    -10.387000      3.348000
H         -19.814000    -10.418000      0.266000
H         -18.324000    -11.165000      0.727000
C         -18.230000     -8.971000      0.864000
H         -17.771000     -9.021000     -0.131000
C         -17.185000     -8.776000      1.932000
H         -18.975000     -8.166000      0.837000
H         -16.547000     -9.660000      1.810000
H         -17.712000     -8.665000      2.887000
C         -16.315000     -7.553000      1.587000
H         -16.513000     -7.315000      0.535000
C         -14.826000     -7.674000      1.758000
H         -16.735000     -6.673000      2.090000
H         -14.325000     -8.286000      0.998000
H         -14.706000     -8.324000      2.633000
H         -14.370000     -6.681000      1.860000
$end

--------------------------------------------------------------
 ----------------------------------------------------------------
             Standard Nuclear Orientation (Angstroms)
    I     Atom           X                Y                Z
 ----------------------------------------------------------------
    1      C       9.5231148844    -0.5269027594    -0.3465097484
    2      C       9.5070659994     0.8108610676    -0.0899861110
    3      N       8.4003932782    -1.3350795839    -0.3208306658
    4      C       8.3404810777     1.5219026780     0.2156811082
    5      C       7.2195350490    -0.6165330456    -0.2566690339
    6      C       7.1800224134     0.8083445058     0.1027411984
    7      C       5.8820822747     1.5795129157     0.2325744763
    8      C       5.6058042862     2.8299392687    -0.3497153216
    9      C       4.8628571565     1.1096294426     1.0984934564
   10      N       4.4118977082     3.4011431101    -0.3097997260
   11      N       5.0083326413     0.0206934877     1.9324666991
   12      C       3.6377370314     1.7600434084     1.2656979780
   13      C       3.4326213317     2.8730362597     0.4402868909
   14      S       3.6415929205    -0.0817522834     2.7643689766
   15      N       2.8190591196     1.2311640952     2.1580046231
   16      C       2.1672568469     3.5829979799     0.3295571461
   17      S       2.0580887795     5.3409861180    -0.1525113544
   18      C       0.8811149807     3.1349814411     0.3533957934
   19      C       0.3674143943     5.3972871508     0.0690903533
   20      S       0.3701972932     1.4805637198     0.2358920920
   21      C      -0.0484060155     4.0788999319     0.1520935325
   22      C      -0.5521825950     6.5079637652    -0.0491502298
   23      C      -1.2553157552     2.1375835685    -0.1720432559
   24      C      -1.3256815177     3.4855694621    -0.0035093121
   25      N      -1.7403832908     6.4088328361     0.5773552894
   26      S      -0.0789629473     7.9352304241    -0.8364151467
   27      C      -2.3200461107     7.6482398388     0.5033667978
   28      C      -1.5442002390     8.6025524203    -0.1450895848
   29      C      10.8900154059    -1.3400875172    -0.4612072374
   30      H      10.4810781915     1.2904992974    -0.0854674794
   31      H       8.2953753473     2.5867495545     0.4231024252
   32      H       6.2970909762    -1.1906005697    -0.1861820828
   33      H       6.4130057537     3.3995187289    -0.8078528876
   34      H      -2.0854190655     1.4852889421    -0.4083570610
   35      H      -2.2468875871     4.0181735817    -0.2118365293
   36      H      -3.2673295002     7.8274660634     0.9926347616
   37      H      -1.7902465466     9.6003575151    -0.4826621063
   38      H      11.2835058387    -1.5257052226     0.5459269873
   39      C      11.9469519757    -0.6182535887    -1.3354216660
   40      H      10.6657948452    -2.3123093294    -0.9168078170
   41      H      12.2980507004     0.2725840989    -0.8014657690
   42      H      11.4106144521    -0.1336949871    -2.1601276878
   43      C      13.0129070408    -1.5606506291    -1.9481251975
   44      H      13.6360776476    -1.9705421194    -1.1441517147
   45      C      13.9647617490    -0.8876936160    -2.9532970599
   46      H      12.4806462976    -2.3948101864    -2.4229886874
   47      H      14.4905072986    -0.0547983453    -2.4706262766
   48      H      13.3440676680    -0.5978807939    -3.8101286571
   49      C      15.0538860774    -1.8288700326    -3.5316102538
   50      H      15.7143876940    -1.2564042441    -4.1944447246
   51      C      14.6031839332    -3.0754995492    -4.3018526997
   52      H      15.7180801384    -2.1409206753    -2.7171370217
   53      H      15.3671948097    -3.7000695514    -4.7828076799
   54      H      14.0126354068    -2.7400858399    -5.1629038489
   55      H      14.0772724289    -3.7626636334    -3.6278915650
   56      C       0.7080344653    -2.5344886962     1.6394383656
   57      C      -0.3406525030    -2.8049492570     2.5943994787
   58      N       0.4769695054    -1.8851180838     0.4919930327
   59      C      -1.6579460857    -2.3089178679     2.4521866869
   60      C      -0.7782282746    -1.4604104998     0.3032074365
   61      C      -1.8847790496    -1.8176336521     1.1428037690
   62      C      -3.2897689571    -1.5897461947     0.6917298654
   63      C      -4.1283369947    -0.6707763876     1.3059514377
   64      C      -3.8617067111    -2.3045942629    -0.3752286366
   65      N      -5.3712424948    -0.4402107935     0.9753286546
   66      N      -3.1421296871    -3.1169232018    -1.1506360144
   67      C      -5.1768685448    -2.1230092019    -0.7752339076
   68      C      -5.9300800671    -1.1279063785    -0.0354415221
   69      S      -4.2319373655    -3.8180062739    -2.1969240962
   70      N      -5.5373400053    -2.8266159971    -1.8852347202
   71      C      -7.3871496951    -0.9790521193    -0.2739231957
   72      S      -8.4368125018    -2.1505676510    -1.1471948323
   73      C      -8.1509233289    -0.0029300997     0.2267579795
   74      C      -9.8669262644    -1.2500052732    -0.7552407155
   75      S      -7.7116542256     1.3742149113     1.2034126133
   76      C      -9.5128411791    -0.1361665873    -0.0729115177
   77      C     -11.2304332044    -1.6291075399    -1.1752077333
   78      C      -9.4380787100     1.9363839514     1.0641521734
   79      C     -10.2501015652     1.0193220321     0.4049076675
   80      N     -12.3160140653    -0.9636053960    -0.7550088627
   81      S     -11.5792563622    -2.9023682155    -2.3261081011
   82      C     -13.4724667081    -1.3448778355    -1.3833380853
   83      C     -13.3131445815    -2.4515462892    -2.1356002694
   84      C       2.1198164262    -3.1578997931     1.8069564219
   85      H      -0.1604018506    -3.4175405571     3.4731773809
   86      H      -2.4547124012    -2.5792727487     3.1377132560
   87      H      -0.9063720065    -0.9965443753    -0.6734974333
   88      H      -3.7698206722    -0.1709518174     2.2041788285
   89      H      -9.7145100357     2.8692390348     1.5378621223
   90      H     -11.3260020345     1.0371250435     0.2776943315
   91      H     -14.4520029222    -0.9232217375    -1.2041177174
   92      H     -14.0164086119    -3.0720361962    -2.6752723724
   93      H       2.8288360321    -2.4737970252     1.3252660637
   94      C       2.1996213095    -4.4947732498     0.8993119202
   95      H       2.4375356041    -3.2063458986     2.8555595398
   96      H       1.8938138912    -4.2160778101    -0.1166667581
   97      H       1.4794705907    -5.2689984315     1.1911206078
   98      C       3.6564459188    -5.0940623264     0.9238814266
   99      H       3.5672632056    -6.0234510116     0.3481305122
  100      C       4.1584618677    -5.3680920995     2.3179982332
  101      H       4.3099045554    -4.4215423188     0.3542432522
  102      H       3.3911160868    -6.0389695651     2.7235692857
  103      H       4.2905558935    -4.3987932002     2.8130596559
  104      C       5.4635893194    -6.1824841519     2.2468510631
  105      H       5.5343640120    -6.5712461627     1.2239106730
  106      C       5.6257235439    -7.3416393621     3.1908185900
  107      H       6.3111396315    -5.4861875141     2.2721188422
  108      H       5.0231017665    -8.2237695876     2.9421455948
  109      H       5.1173198544    -7.0178182320     4.1068920391
  110      H       6.6879655895    -7.5856748238     3.3191834218
 ----------------------------------------------------------------
 Molecular Point Group                 C1    NOp =  1
 Largest Abelian Subgroup              C1    NOp =  1
 Nuclear Repulsion Energy = 11155.6091340128 hartrees
 There are      270 alpha and      270 beta electrons
 Requested basis set is 6-31G(d,p)
 There are 406 shells and 1262 basis functions

 Total QAlloc Memory Limit  20000 MB
 Mega-Array Size      4888 MB
 MEM_STATIC part      5000 MB
 A cutoff of  1.0D-08 yielded  13274 shell pairs
 There are    138576 function pairs
 
 -------------------------------------------------------
 OpenMP Integral Computing Module                       
 Release: version 1.0, May 2013, Q-Chem Inc. Pittsburgh 
 -------------------------------------------------------
 Integral Job Info:
 Integral job number is                      11
 Integral operator is                         1
 short-range coefficients                     0
 long-range coefficients              100000000
 Omega coefficients                           0
 if combine SR and LR in K                    0
 Integral screening is                        0
 Integral computing path is                   2
 max size of driver memory is            800000
 size of driver memory is                593474
 size of scratch memory is             15166112
 max col of scratch BK array               1296
 max len of scratch array in speh3          155
 max len of scratch index in speh4           18
 max int batch size is                      520
 min int batch size is                       52
 fixed nKL is                                52
 max L of basis functions is                  2
 order of int derivative is                   0
 number of shells is                        406
 number of basis is                        1262
 number of cartesian basis is              1262
 number of contracted shell pairs         13274
 number of primitive shell pairs          42787
 maxK2 (contraction) of shell pair           36
 max number of K2 of shell pair               1
 max number of CS2 of shell pair           1341
 max number of PS2 of shell pair           7854
 mem total for path MDJ                  285160
 -------------------------------------------------------
 Smallest overlap matrix eigenvalue = 4.05E-04

 Scale SEOQF with 1.000000e-02/1.000000e-02/1.000000e-01

 Standard Electronic Orientation quadrupole field applied
 Nucleus-field energy     =     0.0000000032 hartrees
 Guess from superposition of atomic densities
 Warning:  Energy on first SCF cycle will be non-variational
 A restricted hybrid HF-DFT SCF calculation will be
 performed using Pulay DIIS extrapolation
 Exchange:     0.2000 Hartree-Fock + 0.0800 Slater + 0.7200 B88
 Correlation:  0.1900 VWN1RPA + 0.8100 LYP
 Using SG-1 standard quadrature grid
 SCF converges when DIIS error is below 1.0E-05
 using 16 threads for integral computing 
 -------------------------------------------------------
 OpenMP BLAS3 based DFT computing Module                
 Release: version 1.0, May 2013, Q-Chem Inc. Pittsburgh 
 -------------------------------------------------------
 ---------------------------------------
  Cycle       Energy         DIIS Error
 ---------------------------------------
    1   -5680.0307186211      2.15E-02
    2   -5662.4332287913      2.20E-03
    3   -5660.7007737730      3.54E-03
    4   -5663.3066972589      9.08E-04
    5   -5663.4598414243      3.76E-04
    6   -5663.4733256840      2.69E-04
    7   -5663.4863151360      8.83E-05
    8   -5663.4877691938      2.53E-05
    9   -5663.4878855598      9.85E-06 Convergence criterion met
 ---------------------------------------
 SCF time:  CPU 971.52 s  wall 79.52 s
 SCF   energy in the final basis set = -5663.4878855598
 Total energy in the final basis set = -5663.4878855598
 
 --------------------------------------------------------------
 
                    Orbital Energies (a.u.)
 --------------------------------------------------------------
 
 Alpha MOs
 -- Occupied --
-88.988 -88.985 -88.928 -88.926 -88.924 -88.916 -88.908 -88.897
-14.393 -14.382 -14.379 -14.378 -14.352 -14.345 -14.343 -14.342
-14.337 -14.333 -10.278 -10.270 -10.265 -10.258 -10.255 -10.251
-10.250 -10.247 -10.243 -10.240 -10.236 -10.235 -10.235 -10.233
-10.232 -10.232 -10.232 -10.231 -10.230 -10.228 -10.227 -10.227
-10.226 -10.224 -10.220 -10.219 -10.219 -10.219 -10.215 -10.215
-10.214 -10.208 -10.206 -10.206 -10.198 -10.194 -10.193 -10.192
-10.187 -10.186 -10.185 -10.182 -10.180 -10.180 -10.178 -10.175
-10.174 -10.172 -10.169 -10.169  -8.043  -8.040  -7.990  -7.987
 -7.984  -7.975  -7.967  -7.958  -6.008  -6.005  -6.003  -6.001
 -5.999  -5.998  -5.954  -5.951  -5.951  -5.948  -5.948  -5.947
 -5.945  -5.944  -5.940  -5.940  -5.936  -5.932  -5.932  -5.928
 -5.923  -5.922  -5.919  -5.913  -1.034  -1.031  -0.970  -0.968
 -0.965  -0.961  -0.943  -0.923  -0.917  -0.917  -0.901  -0.901
 -0.841  -0.839  -0.834  -0.830  -0.813  -0.811  -0.807  -0.805
 -0.802  -0.800  -0.796  -0.795  -0.780  -0.778  -0.768  -0.764
 -0.750  -0.744  -0.739  -0.735  -0.724  -0.720  -0.709  -0.706
 -0.693  -0.689  -0.679  -0.670  -0.656  -0.650  -0.644  -0.640
 -0.638  -0.633  -0.630  -0.628  -0.611  -0.607  -0.595  -0.594
 -0.591  -0.590  -0.585  -0.583  -0.577  -0.571  -0.561  -0.561
 -0.553  -0.549  -0.544  -0.540  -0.522  -0.521  -0.512  -0.511
 -0.509  -0.507  -0.499  -0.497  -0.489  -0.482  -0.480  -0.475
 -0.473  -0.469  -0.466  -0.465  -0.464  -0.461  -0.449  -0.445
 -0.443  -0.441  -0.438  -0.436  -0.436  -0.434  -0.430  -0.429
 -0.428  -0.426  -0.422  -0.420  -0.415  -0.415  -0.413  -0.413
 -0.411  -0.408  -0.407  -0.405  -0.402  -0.400  -0.399  -0.394
 -0.392  -0.390  -0.389  -0.388  -0.385  -0.383  -0.383  -0.380
 -0.379  -0.378  -0.376  -0.375  -0.364  -0.358  -0.351  -0.351
 -0.351  -0.349  -0.347  -0.344  -0.343  -0.342  -0.338  -0.338
 -0.335  -0.334  -0.333  -0.327  -0.326  -0.325  -0.321  -0.320
 -0.312  -0.311  -0.308  -0.308  -0.305  -0.303  -0.299  -0.298
 -0.297  -0.294  -0.290  -0.289  -0.288  -0.288  -0.285  -0.279
 -0.276  -0.275  -0.263  -0.260  -0.257  -0.254  -0.253  -0.246
 -0.245  -0.240  -0.233  -0.231  -0.200  -0.186
 -- Virtual --
 -0.118  -0.107  -0.074  -0.069  -0.036  -0.034  -0.033  -0.030
 -0.022  -0.017  -0.016  -0.013  -0.006  -0.004  -0.003   0.001
  0.005   0.009   0.021   0.027   0.035   0.036   0.038   0.043
  0.046   0.048   0.056   0.063   0.079   0.088   0.089   0.089
  0.094   0.098   0.101   0.105   0.108   0.109   0.111   0.113
  0.115   0.116   0.118   0.119   0.121   0.122   0.124   0.126
  0.130   0.130   0.132   0.135   0.137   0.140   0.142   0.144
  0.150   0.152   0.154   0.155   0.157   0.158   0.159   0.161
  0.162   0.164   0.169   0.175   0.176   0.177   0.178   0.179
  0.182   0.184   0.186   0.188   0.191   0.193   0.195   0.196
  0.199   0.205   0.207   0.214   0.216   0.217   0.218   0.218
  0.221   0.225   0.226   0.227   0.234   0.237   0.239   0.240
  0.242   0.243   0.248   0.254   0.258   0.259   0.262   0.265
  0.268   0.270   0.270   0.275   0.277   0.278   0.282   0.284
  0.284   0.286   0.289   0.294   0.297   0.301   0.303   0.304
  0.305   0.308   0.312   0.315   0.317   0.323   0.325   0.326
  0.327   0.333   0.334   0.338   0.339   0.342   0.348   0.352
  0.355   0.356   0.356   0.363   0.364   0.368   0.370   0.372
  0.376   0.377   0.380   0.384   0.386   0.390   0.394   0.396
  0.397   0.408   0.409   0.414   0.419   0.422   0.430   0.439
  0.443   0.445   0.452   0.454   0.462   0.464   0.468   0.473
  0.477   0.481   0.483   0.491   0.492   0.497   0.498   0.500
  0.504   0.506   0.509   0.510   0.512   0.513   0.515   0.517
  0.521   0.524   0.525   0.526   0.527   0.528   0.533   0.535
  0.537   0.540   0.541   0.543   0.544   0.545   0.547   0.548
  0.550   0.556   0.556   0.557   0.559   0.561   0.564   0.566
  0.568   0.570   0.571   0.573   0.577   0.578   0.582   0.585
  0.586   0.587   0.588   0.592   0.593   0.595   0.597   0.599
  0.601   0.604   0.607   0.607   0.611   0.611   0.613   0.614
  0.617   0.621   0.622   0.623   0.628   0.629   0.630   0.631
  0.636   0.637   0.639   0.640   0.642   0.643   0.644   0.647
  0.652   0.654   0.657   0.660   0.662   0.666   0.670   0.672
  0.675   0.678   0.681   0.682   0.686   0.689   0.691   0.695
  0.700   0.704   0.705   0.706   0.709   0.711   0.711   0.714
  0.719   0.720   0.722   0.734   0.741   0.741   0.747   0.748
  0.750   0.752   0.755   0.756   0.759   0.769   0.774   0.777
  0.778   0.782   0.787   0.787   0.789   0.791   0.794   0.797
  0.798   0.803   0.803   0.806   0.807   0.809   0.810   0.812
  0.815   0.817   0.817   0.820   0.821   0.823   0.825   0.828
  0.831   0.833   0.834   0.835   0.836   0.836   0.838   0.839
  0.841   0.843   0.844   0.845   0.850   0.850   0.853   0.855
  0.855   0.857   0.861   0.862   0.864   0.864   0.866   0.866
  0.868   0.872   0.873   0.875   0.876   0.880   0.882   0.885
  0.888   0.889   0.890   0.894   0.900   0.905   0.908   0.911
  0.913   0.915   0.917   0.918   0.922   0.924   0.925   0.929
  0.931   0.933   0.935   0.939   0.941   0.942   0.944   0.945
  0.948   0.952   0.953   0.956   0.958   0.961   0.963   0.966
  0.967   0.969   0.970   0.974   0.976   0.977   0.981   0.985
  0.986   0.987   0.989   0.991   0.993   0.997   1.000   1.000
  1.004   1.006   1.008   1.010   1.013   1.017   1.021   1.024
  1.027   1.030   1.032   1.037   1.042   1.045   1.047   1.053
  1.055   1.059   1.063   1.068   1.069   1.077   1.082   1.083
  1.084   1.090   1.090   1.094   1.098   1.102   1.103   1.106
  1.115   1.117   1.124   1.127   1.129   1.134   1.137   1.142
  1.146   1.151   1.157   1.159   1.163   1.164   1.168   1.175
  1.181   1.185   1.188   1.194   1.201   1.206   1.207   1.210
  1.219   1.219   1.224   1.229   1.234   1.252   1.260   1.268
  1.270   1.275   1.281   1.288   1.291   1.293   1.298   1.303
  1.308   1.311   1.313   1.316   1.320   1.321   1.328   1.331
  1.336   1.340   1.344   1.349   1.354   1.355   1.356   1.366
  1.367   1.374   1.383   1.384   1.387   1.387   1.394   1.400
  1.402   1.403   1.411   1.414   1.419   1.422   1.426   1.434
  1.437   1.440   1.447   1.452   1.457   1.462   1.464   1.465
  1.475   1.482   1.489   1.491   1.494   1.496   1.517   1.521
  1.523   1.524   1.538   1.547   1.550   1.553   1.563   1.568
  1.570   1.574   1.577   1.579   1.591   1.593   1.594   1.604
  1.619   1.622   1.626   1.636   1.641   1.645   1.652   1.653
  1.660   1.663   1.664   1.674   1.678   1.681   1.684   1.688
  1.691   1.697   1.698   1.699   1.705   1.706   1.707   1.712
  1.715   1.720   1.724   1.730   1.739   1.743   1.745   1.745
  1.751   1.753   1.758   1.763   1.767   1.770   1.776   1.777
  1.781   1.788   1.793   1.794   1.800   1.807   1.810   1.814
  1.823   1.827   1.829   1.835   1.840   1.843   1.843   1.846
  1.847   1.849   1.853   1.862   1.865   1.868   1.868   1.871
  1.880   1.884   1.887   1.889   1.890   1.890   1.896   1.897
  1.903   1.909   1.910   1.912   1.917   1.920   1.923   1.925
  1.928   1.930   1.931   1.933   1.936   1.942   1.946   1.959
  1.961   1.971   1.972   1.976   1.978   1.981   1.987   1.993
  1.994   2.000   2.007   2.008   2.012   2.017   2.017   2.021
  2.026   2.041   2.043   2.052   2.055   2.060   2.061   2.063
  2.073   2.074   2.080   2.087   2.092   2.092   2.097   2.102
  2.104   2.112   2.115   2.122   2.122   2.124   2.126   2.136
  2.138   2.139   2.140   2.142   2.149   2.150   2.154   2.160
  2.163   2.168   2.169   2.175   2.177   2.179   2.188   2.194
  2.196   2.197   2.202   2.205   2.208   2.211   2.216   2.218
  2.223   2.234   2.240   2.246   2.250   2.253   2.254   2.255
  2.259   2.267   2.272   2.274   2.274   2.280   2.283   2.284
  2.286   2.292   2.294   2.294   2.296   2.299   2.304   2.304
  2.309   2.317   2.322   2.323   2.324   2.327   2.330   2.333
  2.336   2.337   2.339   2.341   2.343   2.347   2.357   2.362
  2.367   2.371   2.372   2.381   2.385   2.388   2.393   2.395
  2.396   2.399   2.405   2.406   2.407   2.413   2.414   2.417
  2.421   2.424   2.424   2.430   2.434   2.437   2.439   2.441
  2.444   2.449   2.453   2.456   2.459   2.465   2.472   2.473
  2.476   2.483   2.491   2.495   2.496   2.499   2.502   2.504
  2.507   2.511   2.521   2.523   2.524   2.527   2.528   2.541
  2.544   2.549   2.549   2.552   2.558   2.561   2.564   2.565
  2.571   2.581   2.583   2.587   2.603   2.604   2.608   2.611
  2.613   2.618   2.621   2.624   2.627   2.632   2.634   2.639
  2.646   2.652   2.655   2.659   2.663   2.671   2.672   2.677
  2.679   2.682   2.682   2.691   2.693   2.693   2.695   2.702
  2.705   2.705   2.711   2.713   2.720   2.724   2.728   2.734
  2.735   2.747   2.754   2.756   2.772   2.778   2.779   2.787
  2.788   2.794   2.804   2.805   2.809   2.818   2.825   2.832
  2.836   2.838   2.855   2.858   2.861   2.866   2.867   2.868
  2.871   2.882   2.883   2.888   2.894   2.894   2.897   2.903
  2.906   2.913   2.920   2.925   2.927   2.931   2.940   2.941
  2.949   2.958   2.966   2.968   2.975   2.984   3.001   3.009
  3.030   3.042   3.057   3.069   3.090   3.097   3.120   3.127
  3.138   3.162   3.187   3.200   3.214   3.216   3.238   3.239
  3.242   3.244   3.256   3.258   3.265   3.267   3.269   3.276
  3.278   3.295   3.299   3.303   3.306   3.318   3.326   3.328
  3.336   3.338   3.359   3.362   3.389   3.409   3.419   3.422
  3.427   3.443   3.455   3.461   3.483   3.491   3.533   3.546
  3.567   3.567   3.571   3.575   3.578   3.586   3.593   3.605
  3.632   3.644   3.689   3.736   3.831   3.867   3.903   3.917
  3.950   3.955   3.957   3.961   3.971   3.979   3.989   4.021
  4.044   4.055   4.056   4.080   4.091   4.097   4.109   4.122
  4.134   4.141   4.150   4.156   4.159   4.167   4.177   4.188
  4.191   4.205   4.224   4.236   4.247   4.258   4.264   4.271
  4.285   4.295   4.309   4.329   4.369   4.380   4.384   4.392
  4.426   4.446   4.463   4.470   4.479   4.481   4.492   4.504
  4.506   4.513   4.536   4.540   4.590   4.610   4.643   4.668
  4.684   4.691   4.706   4.729   4.743   4.752   4.767   4.787
 --------------------------------------------------------------
 
          Ground-State Mulliken Net Atomic Charges

     Atom                 Charge (a.u.)
  ----------------------------------------
      1 C                     0.242575
      2 C                    -0.102007
      3 N                    -0.465671
      4 C                    -0.069432
      5 C                     0.079774
      6 C                     0.038392
      7 C                     0.000190
      8 C                     0.069871
      9 C                     0.199795
     10 N                    -0.512244
     11 N                    -0.536021
     12 C                     0.268093
     13 C                     0.271431
     14 S                     0.609981
     15 N                    -0.576233
     16 C                    -0.236801
     17 S                     0.291555
     18 C                    -0.099514
     19 C                    -0.189743
     20 S                     0.282156
     21 C                     0.133534
     22 C                     0.043891
     23 C                    -0.312366
     24 C                    -0.051147
     25 N                    -0.421929
     26 S                     0.289501
     27 C                     0.125936
     28 C                    -0.311699
     29 C                    -0.225189
     30 H                     0.083362
     31 H                     0.105191
     32 H                     0.115564
     33 H                     0.105130
     34 H                     0.123102
     35 H                     0.113983
     36 H                     0.117073
     37 H                     0.126380
     38 H                     0.115913
     39 C                    -0.191820
     40 H                     0.118061
     41 H                     0.090519
     42 H                     0.098074
     43 C                    -0.175671
     44 H                     0.090145
     45 C                    -0.170476
     46 H                     0.101659
     47 H                     0.094241
     48 H                     0.092241
     49 C                    -0.182460
     50 H                     0.089973
     51 C                    -0.319092
     52 H                     0.088580
     53 H                     0.101638
     54 H                     0.100844
     55 H                     0.106418
     56 C                     0.247965
     57 C                    -0.116693
     58 N                    -0.436221
     59 C                    -0.062388
     60 C                     0.083331
     61 C                     0.012920
     62 C                    -0.009579
     63 C                     0.065396
     64 C                     0.239904
     65 N                    -0.502121
     66 N                    -0.548644
     67 C                     0.218003
     68 C                     0.292880
     69 S                     0.592905
     70 N                    -0.565092
     71 C                    -0.226299
     72 S                     0.313387
     73 C                    -0.094338
     74 C                    -0.233288
     75 S                     0.273559
     76 C                     0.158136
     77 C                     0.068275
     78 C                    -0.319530
     79 C                    -0.041941
     80 N                    -0.450501
     81 S                     0.248811
     82 C                     0.142098
     83 C                    -0.302202
     84 C                    -0.235889
     85 H                     0.089007
     86 H                     0.112651
     87 H                     0.113080
     88 H                     0.113157
     89 H                     0.129407
     90 H                     0.128233
     91 H                     0.123203
     92 H                     0.132149
     93 H                     0.124554
     94 C                    -0.190576
     95 H                     0.099937
     96 H                     0.116725
     97 H                     0.093029
     98 C                    -0.193111
     99 H                     0.092418
    100 C                    -0.162744
    101 H                     0.099423
    102 H                     0.090562
    103 H                     0.099541
    104 C                    -0.180812
    105 H                     0.095293
    106 C                    -0.320186
    107 H                     0.099072
    108 H                     0.101809
    109 H                     0.099870
    110 H                     0.106221
  ----------------------------------------
  Sum of atomic charges =     0.000000

 -----------------------------------------------------------------
                    Cartesian Multipole Moments
 -----------------------------------------------------------------
    Charge (ESU x 10^10)
                 0.0000
    Dipole Moment (Debye)
         X      -2.4507      Y      -0.0341      Z      -0.0157
       Tot       2.4510
    Quadrupole Moments (Debye-Ang)
        XX    -378.4359     XY      12.7385     YY    -411.3911
        XZ      12.6144     YZ      -3.5947     ZZ    -442.3477
    Octopole Moments (Debye-Ang^2)
       XXX    -531.2459    XXY       5.6309    XYY    -174.1219
       YYY     237.4432    XXZ    -225.1242    XYZ     -62.2698
       YYZ     -49.5093    XZZ     -22.1406    YZZ     -49.8728
       ZZZ       7.5703
    Hexadecapole Moments (Debye-Ang^3)
      XXXX -115847.8197   XXXY    2777.0041   XXYY  -26880.5610
      XYYY    -637.3628   YYYY  -28901.0393   XXXZ    2693.6685
      XXYZ    1156.8832   XYYZ     113.0567   YYYZ    -221.6280
      XXZZ  -23406.9423   XYZZ     146.3808   YYZZ   -6487.7188
      XZZZ       4.4413   YZZZ      62.2677   ZZZZ   -6776.8790
 -----------------------------------------------------------------
Archival summary:
1\1\mn246\SP\ProcedureUnspecified\6-31G**\8105042\afmv_a\ThuOct1123:09:132018ThuOct1123:09:132018\0\\#,ProcedureUnspecified,6-31G**,\\0,1\S\C,1,1.73549\C,2,1.33997,1,117.202\C,2,1.36215,1,126.18,3,164.126,0\C,3,1.3849,2,118.12,1,171.792,0\C,3,1.41693,2,110.294,1,-5.35443,0\H,6,1.08429,3,125.54,2,177.781,0\C,6,1.3603,3,112.453,2,12.0272,0\H,8,1.08185,6,125.793,3,173.459,0\C,5,1.4468,3,123.015,2,175.397,0\N,10,1.34691,5,117.788,3,-33.7465,0\C,11,1.37026,10,106.35,5,-170.164,0\H,12,1.08113,11,119.747,10,176.521,0\C,12,1.39038,11,114.202,10,0.892838,0\H,14,1.08172,12,130.674,11,-169.517,0\C,4,1.45515,2,131.243,1,12.2427,0\N,16,1.34183,4,113.582,2,-145.01,0\C,17,1.32411,16,120.339,4,177.407,0\H,18,1.08898,17,117.091,16,168.14,0\C,16,1.40076,4,124.045,2,36.248,0\N,20,1.32142,16,128.697,4,6.84159,0\C,20,1.39711,16,115.327,4,-171.677,0\N,22,1.3793,20,112.809,16,179.811,0\C,18,1.40675,17,123.233,16,-8.08843,0\C,24,1.51532,18,125.811,17,-173.357,0\C,25,1.36696,24,117.027,18,-42.9262,0\H,26,1.0858,25,119.502,24,-2.00299,0\C,26,1.39998,25,115.103,24,171.672,0\H,28,1.08571,26,121.485,25,-176.727,0\C,28,1.36223,26,123.347,25,6.63302,0\N,30,1.38359,28,124.095,26,0.733292,0\C,31,1.38378,30,112.955,28,-11.451,0\H,32,1.08877,31,116.885,30,177.214,0\C,30,1.59463,28,121.63,26,170.116,0\H,34,1.09684,30,107.858,28,165.739,0\H,34,1.09709,30,109.129,28,-77.4827,0\C,34,1.54997,30,112.805,28,45.8839,0\H,37,1.09634,34,108.79,30,-69.9128,0\H,37,1.09663,34,107.244,30,36.7552,0\C,37,1.54912,34,114.142,30,156.254,0\H,40,1.09669,37,109.173,34,67.1732,0\H,40,1.09755,37,107.444,34,-49.6876,0\C,40,1.53924,37,114.698,34,-172.911,0\H,43,1.09686,40,109.94,37,-58.3096,0\H,43,1.097,40,106.002,37,65.921,0\C,43,1.55127,40,114.353,37,-178.36,0\H,46,1.09631,43,108.729,40,64.8006,0\H,46,1.09696,43,109.352,40,177.101,0\C,46,1.53313,43,118.309,40,-59.6918,0\H,49,1.09666,46,107.702,43,-60.3329,0\H,49,1.09681,46,109.979,43,65.1557,0\H,49,1.09778,46,118.564,43,-175.074,0\S,23,1.60329,22,105.918,20,-1.38634,0\S,10,1.6973,5,120.414,3,151.616,0\S,5,1.70606,3,105.897,2,-14.7524,0\H,9,2.76043,8,103.612,6,-177.023,0\C,56,1.08883,9,110.312,8,-83.0006,0\N,57,1.33848,56,111.843,9,128.604,0\C,58,1.33855,57,115.895,56,176.511,0\C,57,1.43422,56,122.713,9,-63.7141,0\C,60,1.41679,57,120.256,56,174.382,0\H,61,1.0853,60,123.546,57,-178.952,0\C,61,1.41476,60,111.319,57,20.1568,0\H,63,1.08628,61,115.693,60,165.342,0\C,60,1.49312,57,120.739,56,-1.30329,0\C,65,1.38743,60,122.417,57,113.257,0\H,66,1.08866,65,118.055,60,5.76951,0\N,66,1.30663,65,125.435,60,178.79,0\C,68,1.3442,66,119.7,65,-0.183755,0\C,65,1.40589,60,122.308,57,-67.5899,0\N,70,1.33376,65,122.101,60,7.99116,0\C,70,1.38659,65,122.562,60,-178.214,0\N,72,1.36276,70,114.724,65,-175.5,0\C,69,1.48394,68,118.538,66,-172,0\C,74,1.33673,69,125.035,68,-15.8546,0\C,75,1.40085,74,113.949,69,175.922,0\C,76,1.35336,75,116.135,74,-3.24997,0\C,76,1.45156,75,110.345,74,175.023,0\H,78,1.08354,76,118.604,75,177.603,0\C,78,1.39104,76,112.601,75,1.71624,0\H,80,1.08214,78,128.804,76,178.584,0\C,77,1.47623,76,126.616,75,-179.262,0\N,82,1.34088,77,122.085,76,9.11382,0\C,83,1.37024,82,113.671,77,-171.875,0\H,84,1.08139,83,125.45,82,178.928,0\C,84,1.34759,83,112.625,82,-9.93757,0\H,86,1.08205,84,132.26,83,-173.025,0\C,59,1.55236,58,116.38,57,-173.965,0\H,88,1.09669,59,106.861,58,-35.6809,0\H,88,1.09675,59,112.605,58,-150.56,0\C,88,1.61784,59,108.431,58,75.5551,0\H,91,1.0969,88,113.679,59,61.7008,0\H,91,1.097,88,107.212,59,-52.7091,0\C,91,1.57546,88,110.56,59,-174.621,0\H,94,1.09691,91,103.823,88,-175.75,0\H,94,1.09717,91,108.028,88,70.6818,0\C,94,1.50688,91,113.058,88,-55.3444,0\H,97,1.09639,94,107.284,91,67.6408,0\H,97,1.09699,94,102.722,91,-56.5529,0\C,97,1.54002,94,109.619,91,-169.649,0\H,100,1.09661,97,106.575,94,14.8066,0\H,100,1.09718,97,108.542,94,-93.626,0\C,100,1.50366,97,118.037,94,136.102,0\H,103,1.0966,100,104.288,97,34.647,0\H,103,1.09688,100,114.734,97,-73.5883,0\H,103,1.09745,100,110.439,97,158.276,0\S,71,1.66551,70,105.579,65,-176.28,0\S,77,1.7349,76,108.993,75,3.73967,0\S,75,1.74452,74,129.962,69,-2.96837,0\S,82,1.75141,77,123.89,76,-166.981,0\\\@

 Total job time:  82.59s(wall), 981.11s(cpu) 
 Thu Oct 11 23:09:13 2018

        *************************************************************
        *                                                           *
        *  Thank you very much for using Q-Chem.  Have a nice day.  *
        *                                                           *
        *************************************************************


