
Running Job 1 of 1 ./7/27.qcin
qchem ./7/27.qcin_59635.0 /tmpu/cab_g/afmv_a/scratch_qchem/qchem59635/ 1
/tmpu/appuserlic/qchem4.4/serial-multicore/exe/qcprog.exe_s ./7/27.qcin_59635.0 /tmpu/cab_g/afmv_a/scratch_qchem/qchem59635/
Check license passed

                  Welcome to Q-Chem
     A Quantum Leap Into The Future Of Chemistry


 Q-Chem 4.4, Q-Chem, Inc., Pleasanton, CA (2016)

 Y. Shao,  Z. Gan,  E. Epifanovsky,  A. T. B. Gilbert,  M. Wormit,  
 J. Kussmann,  A. W. Lange,  A. Behn,  J. Deng,  X. Feng,  D. Ghosh,  
 M. Goldey,  P. R. Horn,  L. D. Jacobson,  I. Kaliman,  F. Rob,  
 R. Z. Khaliullin,  T. Kus,  A. Landau,  J. Liu,  E. I. Proynov,  Y. M. Rhee,  
 R. M. Richard,  M. A. Rohrdanz,  R. P. Steele,  E. J. Sundstrom,  
 H. L. Woodcock III,  P. M. Zimmerman,  D. Zuev,  B. Albrecht,  E. Alguire,  
 B. Austin,  S. A. Baeppler,  G. J. O. Beran,  Y. A. Bernard,  E. Berquist,  
 K. Brandhorst,  K. B. Bravaya,  S. T. Brown,  D. Casanova,  C.-M. Chang,  
 Y. Chen,  S. H. Chien,  K. D. Closser,  M. P. Coons,  D. L. Crittenden,  
 S. Dasgupta,  M. Diedenhofen,  R. A. DiStasio Jr.,  H. Do,  A. D. Dutoi,  
 R. G. Edgar,  P.-T. Fang,  S. Fatehi,  Q. Feng,  L. Fusti-Molnar,  
 A. Ghysels,  A. Golubeva-Zadorozhnaya,  J. Gomes,  A. Gunina,  
 M. W. D. Hanson-Heine,  P. H. P. Harbach,  A. W. Hauser,  J. E. Herr,  
 E. G. Hohenstein,  Z. C. Holden,  K. Hui,  T.-C. Jagau,  H. Ji,  B. Kaduk,  
 K. Khistyaev,  Jaehoon Kim,  Jihan Kim,  R. A. King,  P. Klunzinger,  
 K. Koh,  D. Kosenkov,  T. Kowalczyk,  C. M. Krauter,  A. Kunitsa,  
 K. U. Lao,  A. Laurent,  K. V. Lawler,  J. Lee,  D. Lefrancois,  S. Lehtola,  
 S. V. Levchenko,  C. Y. Lin,  Y.-S. Lin,  F. Liu,  E. Livshits,  
 R. C. Lochan,  A. Luenser,  P. Manohar,  S. F. Manzer,  S.-P. Mao,  Y. Mao,  
 N. Mardirossian,  A. V. Marenich,  L. A. Martinez-Martinez,  S. A. Maurer,  
 N. J. Mayhall,  J.-M. Mewes,  A. F. Morrison,  K. Nanda,  T. S. Nguyen-Beck,  
 C. M. Oana,  R. Olivares-Amaya,  D. P. O'Neill,  J. A. Parkhill,  
 T. M. Perrine,  R. Peverati,  P. A. Pieniazek,  F. Plasser,  A. Prociuk,  
 D. R. Rehn,  E. Rosta,  N. J. Russ,  N. Sergueev,  S. M. Sharada,  
 S. Sharma,  D. W. Small,  A. Sodt,  T. Stauch,  T. Stein,  D. Stuck,  
 Y.-C. Su,  A. J. W. Thom,  T. Tsuchimochi,  L. Vogt,  O. Vydrov,  T. Wang,  
 M. A. Watson,  J. Wenzel,  A. White,  C. F. Williams,  V. Vanovschi,  
 K. Yao,  S. Yeganeh,  S. R. Yost,  Z.-Q. You,  I. Y. Zhang,  X. Zhang,  
 Y. Zhao,  B. R. Brooks,  G. K. L. Chan,  D. M. Chipman,  C. J. Cramer,  
 W. A. Goddard III,  M. S. Gordon,  W. J. Hehre,  A. Klamt,  
 H. F. Schaefer III,  M. W. Schmidt,  C. D. Sherrill,  D. G. Truhlar,  
 A. Warshel,  X. Xu,  A. Aspuru-Guzik,  R. Baer,  A. T. Bell,  N. A. Besley,  
 J.-D. Chai,  A. Dreuw,  B. D. Dunietz,  T. R. Furlani,  S. R. Gwaltney,  
 C.-P. Hsu,  Y. Jung,  J. Kong,  D. S. Lambrecht,  W. Liang,  C. Ochsenfeld,  
 V. A. Rassolov,  L. V. Slipchenko,  J. E. Subotnik,  T. Van Voorhis,  
 J. M. Herbert,  A. I. Krylov,  P. M. W. Gill,  M. Head-Gordon

 Contributors to earlier versions of Q-Chem not listed above: 
 R. D. Adamson,  J. Baker,  E. F. C. Byrd,  A. K. Chakraborty,  C.-L. Cheng,  
 H. Dachsel,  R. J. Doerksen,  G. Hawkins,  A. Heyden,  S. Hirata,  
 G. Kedziora,  F. J. Keil,  C. Kelley,  P. P. Korambath,  W. Kurlancheek,  
 A. M. Lee,  M. S. Lee,  D. Liotard,  I. Lotan,  P. E. Maslen,  N. Nair,  
 D. Neuhauser,  R. Olson,  B. Peters,  J. Ritchie,  N. E. Schultz,  
 N. Shenvi,  A. C. Simmonett,  K. S. Thanthiriwatte,  Q. Wu,  W. Zhang

 Please cite Q-Chem as follows:
 Y. Shao et al., Mol. Phys. 113, 184-215 (2015)
 DOI: 10.1080/00268976.2014.952696

 Q-Chem 4.4.2 for Intel X86 Linux

 Parts of Q-Chem use Armadillo 5.200.1 (Boston Tea Smuggler).
 http://arma.sourceforge.net/

 Q-Chem begins on Thu Oct 11 23:03:09 2018  

Host: 
0

     Scratch files written to /tmpu/cab_g/afmv_a/scratch_qchem/qchem59635//
 Dec716 11556_ 22328  22283 4050   
Processing $rem in /tmpu/appuserlic/qchem4.4/serial-multicore/config/preferences.
 MEM_TOTAL  2000 
FILE_GEOM_ORG=        593

Checking the input file for inconsistencies... 	...done.

--------------------------------------------------------------
User input:
--------------------------------------------------------------
$comment
SP
$end

$rem
MEM_STATIC 5000
MEM_TOTAL 20000
JOBTYPE SP
EXCHANGE B3LYP
BASIS 6-31g(d,p)
$end

$molecule
0 1
C          -7.088000     28.050000      9.632000
C          -5.913000     27.899000      8.972000
N          -7.106000     28.004000     11.016000
C          -4.725000     27.542000      9.588000
C          -5.924000     27.808000     11.653000
C          -4.689000     27.486000     10.969000
C          -3.465000     26.985000     11.717000
C          -2.664000     25.949000     11.170000
C          -3.134000     27.334000     13.016000
N          -1.559000     25.463000     11.788000
N          -3.775000     28.350000     13.625000
C          -2.010000     26.784000     13.721000
C          -1.216000     25.818000     13.054000
S          -2.906000     28.534000     15.027000
N          -1.774000     27.291000     14.881000
C           0.023000     25.150000     13.561000
S           0.720000     25.273000     15.255000
C           0.931000     24.368000     12.833000
C           2.119000     24.257000     14.844000
S           0.883000     23.877000     11.144000
C           2.055000     23.881000     13.549000
C           3.095000     23.837000     15.820000
C           2.220000     22.698000     11.497000
C           2.745000     22.922000     12.760000
N           4.382000     23.848000     15.358000
S           2.931000     23.945000     17.496000
C           5.269000     23.750000     16.380000
C           4.651000     23.676000     17.664000
C          -8.411000     28.091000      8.882000
H          -5.862000     28.054000      7.899000
H          -3.832000     27.250000      9.042000
H          -6.015000     27.887000     12.736000
H          -2.953000     25.535000     10.205000
H           2.559000     21.951000     10.792000
H           3.651000     22.460000     13.137000
H           6.313000     23.622000     16.129000
H           5.011000     23.260000     18.596000
H          -8.200000     28.202000      7.812000
C          -9.293000     29.196000      9.387000
H          -8.955000     27.148000      9.016000
H          -8.854000     29.491000     10.348000
H         -10.338000     28.973000      9.636000
C          -9.247000     30.442000      8.436000
H          -8.201000     30.770000      8.483000
C         -10.154000     31.579000      9.065000
H          -9.492000     30.188000      7.398000
H          -9.871000     31.682000     10.121000
H         -11.220000     31.330000      9.132000
C          -9.991000     33.014000      8.429000
H          -8.971000     33.397000      8.558000
C         -10.988000     34.019000      9.076000
H         -10.173000     32.945000      7.349000
H         -11.997000     33.613000      8.929000
H         -10.850000     35.014000      8.637000
H         -10.948000     34.181000     10.160000
C         -13.609000     24.757000     16.659000
C         -14.643000     24.627000     15.733000
N         -12.291000     24.738000     16.400000
C         -14.285000     24.400000     14.403000
C         -11.939000     24.443000     15.108000
C         -12.877000     24.362000     14.051000
C         -12.413000     24.026000     12.675000
C         -13.165000     23.117000     11.877000
C         -11.180000     24.488000     12.062000
N         -12.713000     22.563000     10.687000
N         -10.241000     25.392000     12.545000
C         -10.859000     24.050000     10.763000
C         -11.582000     23.063000     10.108000
S          -9.018000     25.433000     11.529000
N          -9.628000     24.505000     10.370000
C         -11.143000     22.348000      8.976000
S         -11.306000     20.590000      8.768000
C         -10.612000     22.906000      7.835000
C         -10.644000     20.667000      7.117000
S         -10.469000     24.596000      7.396000
C         -10.316000     22.020000      6.847000
C         -10.343000     19.505000      6.333000
C          -9.908000     24.001000      5.745000
C          -9.851000     22.624000      5.687000
N         -10.305000     19.621000      5.003000
S         -10.155000     17.883000      6.892000
C          -9.919000     18.507000      4.367000
C          -9.564000     17.548000      5.294000
C         -13.925000     25.008000     18.187000
H         -15.672000     24.700000     16.074000
H         -14.985000     24.457000     13.575000
H         -10.876000     24.265000     14.957000
H         -14.117000     22.763000     12.270000
H          -9.558000     24.671000      4.970000
H          -9.550000     22.095000      4.790000
H          -9.793000     18.417000      3.296000
H          -9.170000     16.556000      5.115000
H         -14.996000     24.837000     18.355000
C         -13.510000     26.431000     18.683000
H         -13.425000     24.228000     18.774000
H         -13.753000     27.091000     17.841000
H         -12.418000     26.504000     18.757000
C         -14.212000     26.947000     19.988000
H         -15.289000     26.781000     19.863000
C         -14.015000     28.432000     20.170000
H         -13.931000     26.360000     20.871000
H         -14.093000     28.948000     19.206000
H         -12.985000     28.577000     20.519000
C         -15.080000     29.151000     21.128000
H         -15.138000     30.240000     21.006000
C         -14.675000     28.857000     22.589000
H         -16.076000     28.692000     21.135000
H         -14.663000     27.768000     22.718000
H         -15.490000     29.219000     23.227000
H         -13.774000     29.369000     22.952000
$end

--------------------------------------------------------------
 ----------------------------------------------------------------
             Standard Nuclear Orientation (Angstroms)
    I     Atom           X                Y                Z
 ----------------------------------------------------------------
    1      C      -0.5366635644     0.6757344176     3.7800354376
    2      C       0.4825491333     1.5254533999     4.0596943870
    3      N      -0.2827239185    -0.4880979374     3.0737034294
    4      C       1.7619672086     1.3871118102     3.5476397090
    5      C       0.9978292617    -0.7238222023     2.6916999957
    6      C       2.0680721137     0.2404578607     2.8383601400
    7      C       3.4061822955     0.0658651919     2.1400338972
    8      C       4.0651640228     1.1821671826     1.5623497719
    9      C       3.9925816681    -1.1545396028     1.8476114071
   10      N       5.2613026615     1.0899107755     0.9299842824
   11      N       3.5022889707    -2.2852208423     2.3909262382
   12      C       5.2233232734    -1.2865838716     1.1190920785
   13      C       5.8530774984    -0.1030411078     0.6596172234
   14      S       4.6333942617    -3.4162519028     1.9482180265
   15      N       5.6920672750    -2.4822176781     1.0237827838
   16      C       7.1554656760     0.0123375654    -0.0676150617
   17      S       8.1743447112    -1.3696422921    -0.7176852005
   18      C       7.8882600744     1.1790555817    -0.3279099717
   19      C       9.4466573348    -0.2713718194    -1.2950936837
   20      S       7.4999728346     2.8530003046     0.0505713143
   21      C       9.1222950579     1.0069504379    -1.0066871657
   22      C      10.5879865773    -0.7250321872    -2.0521351825
   23      C       8.8589649654     3.3663760407    -1.0411267859
   24      C       9.6262132010     2.2725923550    -1.4098236721
   25      N      11.7588630602    -0.1031720567    -1.7170646823
   26      S      10.7590375964    -2.2397487781    -2.7759522852
   27      C      12.8277686703    -0.7689162749    -2.2221215429
   28      C      12.4733593646    -1.9419558393    -2.9531675227
   29      C      -1.9804528450     1.0580227023     4.0695836732
   30      H       0.3241238219     2.3763722469     4.7145176735
   31      H       2.5246555105     2.1571020180     3.6267006602
   32      H       1.1232026182    -1.7043840851     2.2332341677
   33      H       3.5845122667     2.1563002406     1.6409670393
   34      H       9.0391369169     4.3936903012    -1.3276900044
   35      H      10.5802717213     2.3387281794    -1.9214948484
   36      H      13.7994794964    -0.3036285821    -2.1293506773
   37      H      13.0022506624    -2.4711500732    -3.7351569458
   38      H      -1.9822317348     1.9566718213     4.6974121502
   39      C      -2.7258678124    -0.0705800527     4.7211865796
   40      H      -2.5042358812     1.3041942376     3.1378155120
   41      H      -2.1010933629    -0.9563063346     4.5526254898
   42      H      -3.7052387116    -0.3635261970     4.3227267971
   43      C      -2.8456426311     0.1442269493     6.2699102298
   44      H      -1.8051502272     0.1332509395     6.6179965477
   45      C      -3.5905848351    -1.1104498262     6.8878959106
   46      H      -3.2946651854     1.1108357841     6.5268754146
   47      H      -3.1034732551    -2.0121011227     6.4934580218
   48      H      -4.6268296367    -1.2389701468     6.5524480930
   49      C      -3.5302821997    -1.2357438497     8.4598230717
   50      H      -2.4981521239    -1.3482678970     8.8144719762
   51      C      -4.3622702605    -2.4578150384     8.9466298878
   52      H      -3.9225009688    -0.3118927589     8.9036119844
   53      H      -5.3875721115    -2.3167270672     8.5814226881
   54      H      -4.2955796622    -2.5418828844    10.0376271203
   55      H      -4.1067976277    -3.4559760171     8.5707197993
   56      C      -5.6049072950    -4.9051703146    -2.9958354922
   57      C      -6.8031012084    -4.2370620008    -2.7478543903
   58      N      -4.3642237161    -4.4366283995    -2.7819693409
   59      C      -6.7180080371    -2.9251572415    -2.2785378078
   60      C      -4.2787505996    -3.1251951830    -2.3907785114
   61      C      -5.4077449140    -2.3516314744    -2.0293576669
   62      C      -5.2297487720    -0.9282296313    -1.6246200154
   63      C      -6.1402626870     0.0604727210    -2.0958111328
   64      C      -4.1334509126    -0.4065276476    -0.8274625379
   65      N      -5.9413242548     1.4288143215    -1.9717757972
   66      N      -3.1017156502    -1.0897957387    -0.1943013706
   67      C      -4.0823051212     0.9748831900    -0.5603030242
   68      C      -4.9376417466     1.8845500594    -1.1659666635
   69      S      -2.1020815660    -0.0205583939     0.4278957028
   70      N      -2.9447912603     1.3115864908     0.1249181834
   71      C      -4.7429143139     3.2793196310    -1.2114536859
   72      S      -4.9751235301     4.2832059852    -2.6601386302
   73      C      -4.4369745853     4.0788894146    -0.1333558037
   74      C      -4.6497638795     5.7764200669    -1.7466689788
   75      S      -4.3529356888     3.6575055146     1.5650678987
   76      C      -4.3571458395     5.4079785212    -0.4088653646
   77      C      -4.5298240263     7.0663576612    -2.3608158946
   78      C      -4.1386187923     5.4595135386     1.8834738493
   79      C      -4.1188201249     6.1894889208     0.7132234683
   80      N      -4.7522758796     8.1535787976    -1.6176703008
   81      S      -4.2645549507     7.4118299802    -4.0308428987
   82      C      -4.5190226557     9.3089985834    -2.2541340092
   83      C      -4.0057415854     9.0474240193    -3.5083892824
   84      C      -5.6094273840    -6.3904127698    -3.5359053192
   85      H      -7.7433785027    -4.7498036561    -2.9306810971
   86      H      -7.5661521459    -2.3715253658    -1.8874159381
   87      H      -3.2696273281    -2.7176200900    -2.3881772900
   88      H      -7.0024710805    -0.2750185976    -2.6703642298
   89      H      -3.9360643026     5.8590690133     2.8690458159
   90      H      -4.0097851586     7.2679662423     0.7062203875
   91      H      -4.6079214777    10.2909745730    -1.8082224089
   92      H      -3.6725113478     9.7542981235    -4.2571399815
   93      H      -6.6292971221    -6.6441233763    -3.8521372680
   94      C      -5.0795024029    -7.4319504814    -2.4978548822
   95      H      -5.0177218739    -6.4223087415    -4.4588550666
   96      H      -5.4716172882    -7.0773048690    -1.5365612713
   97      H      -3.9931698953    -7.3336064321    -2.3817552225
   98      C      -5.5015549623    -8.9252236670    -2.7304313864
   99      H      -6.5848870808    -8.9320099287    -2.9020573388
  100      C      -5.2460231300    -9.7678949500    -1.5049655192
  101      H      -5.0628123620    -9.3435794961    -3.6445989481
  102      H      -5.5029845061    -9.2091086688    -0.5975710388
  103      H      -4.1650507920    -9.9508364125    -1.4630462440
  104      C      -6.0885787498   -11.1288865070    -1.4227949076
  105      H      -6.1499443944   -11.5650341744    -0.4177185573
  106      C      -5.4092687394   -12.1614891648    -2.3486737662
  107      H      -7.0717748790   -11.0912905757    -1.9072099337
  108      H      -5.3916179416   -11.7396283275    -3.3608140150
  109      H      -6.0761338958   -13.0301011843    -2.4045040683
  110      H      -4.4454235650   -12.5582821722    -2.0033162860
 ----------------------------------------------------------------
 Molecular Point Group                 C1    NOp =  1
 Largest Abelian Subgroup              C1    NOp =  1
 Nuclear Repulsion Energy = 10868.7937835209 hartrees
 There are      270 alpha and      270 beta electrons
 Requested basis set is 6-31G(d,p)
 There are 406 shells and 1262 basis functions

 Total QAlloc Memory Limit  20000 MB
 Mega-Array Size      4888 MB
 MEM_STATIC part      5000 MB
 A cutoff of  1.0D-08 yielded  12582 shell pairs
 There are    132041 function pairs
 
 -------------------------------------------------------
 OpenMP Integral Computing Module                       
 Release: version 1.0, May 2013, Q-Chem Inc. Pittsburgh 
 -------------------------------------------------------
 Integral Job Info:
 Integral job number is                      11
 Integral operator is                         1
 short-range coefficients                     0
 long-range coefficients              100000000
 Omega coefficients                           0
 if combine SR and LR in K                    0
 Integral screening is                        0
 Integral computing path is                   2
 max size of driver memory is            800000
 size of driver memory is                593474
 size of scratch memory is             15166112
 max col of scratch BK array               1296
 max len of scratch array in speh3          155
 max len of scratch index in speh4           18
 max int batch size is                      520
 min int batch size is                       52
 fixed nKL is                                52
 max L of basis functions is                  2
 order of int derivative is                   0
 number of shells is                        406
 number of basis is                        1262
 number of cartesian basis is              1262
 number of contracted shell pairs         12582
 number of primitive shell pairs          41391
 maxK2 (contraction) of shell pair           36
 max number of K2 of shell pair               1
 max number of CS2 of shell pair           1279
 max number of PS2 of shell pair           7662
 mem total for path MDJ                  279544
 -------------------------------------------------------
 Smallest overlap matrix eigenvalue = 4.05E-04

 Scale SEOQF with 1.000000e-02/1.000000e-02/1.000000e-02

 Standard Electronic Orientation quadrupole field applied
 Nucleus-field energy     =     0.0000000933 hartrees
 Guess from superposition of atomic densities
 Warning:  Energy on first SCF cycle will be non-variational
 A restricted hybrid HF-DFT SCF calculation will be
 performed using Pulay DIIS extrapolation
 Exchange:     0.2000 Hartree-Fock + 0.0800 Slater + 0.7200 B88
 Correlation:  0.1900 VWN1RPA + 0.8100 LYP
 Using SG-1 standard quadrature grid
 SCF converges when DIIS error is below 1.0E-05
 using 16 threads for integral computing 
 -------------------------------------------------------
 OpenMP BLAS3 based DFT computing Module                
 Release: version 1.0, May 2013, Q-Chem Inc. Pittsburgh 
 -------------------------------------------------------
 ---------------------------------------
  Cycle       Energy         DIIS Error
 ---------------------------------------
    1   -5679.6933656037      2.13E-02
    2   -5662.4996450897      2.15E-03
    3   -5660.8672020305      3.48E-03
    4   -5663.3086130988      9.50E-04
    5   -5663.4690463565      3.85E-04
    6   -5663.4837273681      2.68E-04
    7   -5663.4974133058      6.94E-05
    8   -5663.4982698894      2.39E-05
    9   -5663.4983772113      9.74E-06 Convergence criterion met
 ---------------------------------------
 SCF time:  CPU 934.91 s  wall 77.06 s
 SCF   energy in the final basis set = -5663.4983772113
 Total energy in the final basis set = -5663.4983772113
 
 --------------------------------------------------------------
 
                    Orbital Energies (a.u.)
 --------------------------------------------------------------
 
 Alpha MOs
 -- Occupied --
-88.986 -88.981 -88.937 -88.925 -88.925 -88.921 -88.908 -88.906
-14.390 -14.389 -14.370 -14.369 -14.351 -14.349 -14.347 -14.339
-14.335 -14.330 -10.272 -10.270 -10.265 -10.258 -10.257 -10.256
-10.250 -10.250 -10.247 -10.245 -10.244 -10.243 -10.241 -10.239
-10.239 -10.235 -10.234 -10.231 -10.230 -10.230 -10.230 -10.229
-10.227 -10.226 -10.225 -10.224 -10.224 -10.222 -10.221 -10.219
-10.218 -10.212 -10.207 -10.203 -10.201 -10.198 -10.196 -10.191
-10.185 -10.185 -10.180 -10.179 -10.179 -10.179 -10.177 -10.176
-10.176 -10.170 -10.170 -10.166  -8.041  -8.037  -7.999  -7.987
 -7.983  -7.980  -7.967  -7.965  -6.006  -6.002  -6.000  -5.999
 -5.997  -5.994  -5.963  -5.959  -5.957  -5.951  -5.948  -5.948
 -5.945  -5.944  -5.944  -5.941  -5.939  -5.937  -5.932  -5.930
 -5.928  -5.927  -5.923  -5.921  -1.038  -1.031  -0.972  -0.971
 -0.952  -0.945  -0.936  -0.932  -0.920  -0.909  -0.906  -0.885
 -0.838  -0.836  -0.833  -0.825  -0.816  -0.806  -0.805  -0.804
 -0.802  -0.799  -0.797  -0.795  -0.780  -0.778  -0.767  -0.762
 -0.748  -0.747  -0.740  -0.738  -0.720  -0.719  -0.709  -0.706
 -0.692  -0.690  -0.673  -0.666  -0.653  -0.648  -0.645  -0.640
 -0.635  -0.628  -0.627  -0.626  -0.614  -0.607  -0.599  -0.594
 -0.592  -0.590  -0.584  -0.579  -0.575  -0.573  -0.570  -0.564
 -0.555  -0.548  -0.538  -0.536  -0.526  -0.520  -0.515  -0.511
 -0.510  -0.504  -0.500  -0.498  -0.488  -0.482  -0.476  -0.474
 -0.472  -0.470  -0.467  -0.463  -0.458  -0.457  -0.450  -0.448
 -0.448  -0.446  -0.445  -0.438  -0.437  -0.432  -0.430  -0.429
 -0.427  -0.424  -0.423  -0.422  -0.421  -0.416  -0.411  -0.410
 -0.407  -0.406  -0.406  -0.399  -0.399  -0.397  -0.396  -0.395
 -0.391  -0.389  -0.388  -0.386  -0.385  -0.384  -0.384  -0.382
 -0.379  -0.378  -0.376  -0.366  -0.366  -0.358  -0.357  -0.352
 -0.350  -0.347  -0.346  -0.345  -0.342  -0.340  -0.339  -0.337
 -0.336  -0.332  -0.331  -0.326  -0.326  -0.324  -0.323  -0.321
 -0.319  -0.315  -0.312  -0.306  -0.302  -0.299  -0.296  -0.295
 -0.292  -0.291  -0.289  -0.288  -0.287  -0.287  -0.283  -0.274
 -0.273  -0.270  -0.269  -0.266  -0.258  -0.253  -0.250  -0.249
 -0.247  -0.242  -0.234  -0.228  -0.195  -0.188
 -- Virtual --
 -0.115  -0.103  -0.076  -0.072  -0.042  -0.038  -0.032  -0.030
 -0.024  -0.023  -0.017  -0.016  -0.014  -0.006  -0.004   0.004
  0.005   0.013   0.013   0.019   0.026   0.035   0.037   0.038
  0.043   0.046   0.057   0.071   0.075   0.081   0.091   0.095
  0.096   0.097   0.097   0.102   0.103   0.108   0.110   0.112
  0.113   0.115   0.117   0.122   0.122   0.124   0.124   0.124
  0.127   0.130   0.133   0.134   0.136   0.139   0.142   0.146
  0.150   0.151   0.152   0.155   0.160   0.161   0.162   0.165
  0.168   0.171   0.174   0.175   0.176   0.178   0.180   0.185
  0.187   0.187   0.189   0.190   0.192   0.193   0.194   0.198
  0.199   0.201   0.201   0.202   0.206   0.207   0.215   0.219
  0.224   0.225   0.227   0.230   0.234   0.235   0.236   0.237
  0.241   0.242   0.245   0.246   0.249   0.252   0.257   0.261
  0.263   0.269   0.271   0.273   0.274   0.274   0.277   0.277
  0.281   0.283   0.285   0.286   0.291   0.293   0.303   0.305
  0.307   0.307   0.309   0.314   0.316   0.318   0.322   0.327
  0.328   0.333   0.334   0.336   0.336   0.341   0.346   0.348
  0.352   0.356   0.361   0.362   0.365   0.368   0.369   0.371
  0.375   0.379   0.383   0.384   0.385   0.387   0.394   0.395
  0.396   0.403   0.410   0.414   0.418   0.420   0.427   0.436
  0.439   0.444   0.447   0.458   0.464   0.466   0.469   0.471
  0.476   0.477   0.482   0.487   0.489   0.497   0.500   0.501
  0.503   0.504   0.508   0.509   0.513   0.516   0.519   0.521
  0.523   0.524   0.524   0.525   0.527   0.529   0.532   0.534
  0.536   0.539   0.540   0.541   0.543   0.544   0.547   0.548
  0.551   0.552   0.553   0.556   0.556   0.558   0.559   0.565
  0.567   0.568   0.569   0.572   0.576   0.578   0.581   0.582
  0.583   0.585   0.587   0.591   0.592   0.594   0.595   0.597
  0.598   0.600   0.602   0.606   0.607   0.608   0.612   0.612
  0.614   0.616   0.617   0.619   0.621   0.622   0.622   0.627
  0.628   0.629   0.632   0.634   0.636   0.640   0.641   0.644
  0.646   0.649   0.651   0.652   0.652   0.658   0.662   0.665
  0.667   0.669   0.672   0.679   0.681   0.684   0.686   0.688
  0.693   0.694   0.697   0.698   0.707   0.707   0.710   0.715
  0.717   0.723   0.726   0.731   0.734   0.737   0.741   0.744
  0.746   0.749   0.751   0.752   0.759   0.766   0.767   0.768
  0.770   0.773   0.782   0.783   0.787   0.790   0.792   0.792
  0.795   0.799   0.800   0.800   0.803   0.804   0.805   0.806
  0.807   0.810   0.812   0.815   0.816   0.821   0.822   0.825
  0.829   0.831   0.831   0.832   0.835   0.836   0.838   0.840
  0.841   0.843   0.844   0.846   0.847   0.850   0.852   0.853
  0.854   0.856   0.860   0.863   0.864   0.864   0.866   0.869
  0.872   0.878   0.879   0.880   0.880   0.881   0.885   0.888
  0.890   0.893   0.895   0.896   0.898   0.906   0.907   0.907
  0.910   0.913   0.915   0.916   0.919   0.921   0.922   0.923
  0.926   0.931   0.932   0.935   0.936   0.939   0.940   0.941
  0.945   0.945   0.949   0.951   0.952   0.956   0.958   0.960
  0.964   0.965   0.969   0.971   0.973   0.978   0.978   0.983
  0.985   0.987   0.992   0.994   0.995   0.996   0.997   1.001
  1.003   1.005   1.006   1.007   1.010   1.013   1.013   1.016
  1.021   1.023   1.025   1.030   1.031   1.034   1.037   1.040
  1.043   1.045   1.050   1.053   1.058   1.064   1.064   1.077
  1.079   1.079   1.083   1.090   1.092   1.095   1.100   1.104
  1.106   1.112   1.113   1.118   1.123   1.126   1.127   1.140
  1.143   1.153   1.155   1.161   1.165   1.168   1.176   1.177
  1.182   1.187   1.191   1.198   1.201   1.201   1.207   1.213
  1.224   1.226   1.230   1.243   1.251   1.255   1.257   1.265
  1.270   1.270   1.274   1.278   1.283   1.286   1.289   1.300
  1.300   1.306   1.308   1.309   1.312   1.322   1.325   1.331
  1.333   1.338   1.342   1.345   1.347   1.358   1.364   1.371
  1.378   1.379   1.382   1.386   1.389   1.394   1.398   1.402
  1.403   1.413   1.420   1.421   1.422   1.426   1.428   1.434
  1.438   1.440   1.444   1.449   1.455   1.459   1.469   1.476
  1.480   1.488   1.490   1.500   1.504   1.506   1.513   1.518
  1.524   1.525   1.528   1.532   1.541   1.546   1.550   1.554
  1.556   1.566   1.577   1.585   1.595   1.601   1.602   1.607
  1.613   1.616   1.623   1.630   1.635   1.643   1.645   1.650
  1.654   1.658   1.664   1.665   1.674   1.678   1.683   1.687
  1.688   1.691   1.693   1.695   1.700   1.701   1.701   1.709
  1.711   1.712   1.723   1.724   1.737   1.741   1.742   1.746
  1.747   1.750   1.754   1.756   1.757   1.758   1.766   1.772
  1.782   1.784   1.785   1.789   1.796   1.802   1.805   1.810
  1.816   1.824   1.824   1.825   1.828   1.830   1.839   1.842
  1.846   1.857   1.858   1.859   1.863   1.863   1.866   1.867
  1.870   1.873   1.877   1.881   1.883   1.888   1.891   1.895
  1.896   1.900   1.903   1.906   1.911   1.915   1.916   1.918
  1.919   1.926   1.930   1.938   1.939   1.941   1.944   1.947
  1.952   1.953   1.957   1.958   1.965   1.967   1.976   1.981
  1.986   1.993   2.002   2.004   2.010   2.012   2.014   2.017
  2.020   2.029   2.035   2.046   2.050   2.058   2.065   2.074
  2.078   2.078   2.083   2.084   2.087   2.100   2.103   2.104
  2.105   2.106   2.109   2.114   2.119   2.120   2.123   2.123
  2.125   2.131   2.131   2.133   2.139   2.140   2.145   2.150
  2.152   2.155   2.158   2.168   2.169   2.170   2.172   2.183
  2.185   2.190   2.198   2.198   2.201   2.204   2.210   2.211
  2.211   2.215   2.218   2.222   2.231   2.234   2.237   2.246
  2.247   2.248   2.249   2.251   2.259   2.259   2.264   2.269
  2.277   2.279   2.282   2.284   2.296   2.298   2.299   2.307
  2.310   2.313   2.315   2.321   2.326   2.328   2.331   2.337
  2.339   2.341   2.343   2.349   2.351   2.359   2.361   2.368
  2.371   2.374   2.378   2.384   2.387   2.390   2.393   2.395
  2.396   2.398   2.400   2.402   2.407   2.410   2.413   2.417
  2.421   2.426   2.430   2.438   2.440   2.442   2.442   2.444
  2.448   2.450   2.452   2.457   2.458   2.465   2.466   2.472
  2.476   2.477   2.479   2.483   2.490   2.492   2.499   2.503
  2.504   2.505   2.510   2.518   2.521   2.523   2.527   2.528
  2.533   2.535   2.538   2.545   2.547   2.554   2.559   2.561
  2.563   2.570   2.571   2.578   2.580   2.586   2.601   2.603
  2.606   2.607   2.612   2.623   2.631   2.633   2.634   2.639
  2.649   2.650   2.653   2.655   2.656   2.661   2.664   2.665
  2.666   2.667   2.679   2.685   2.687   2.691   2.695   2.697
  2.703   2.705   2.706   2.716   2.722   2.724   2.726   2.730
  2.735   2.739   2.745   2.756   2.762   2.773   2.776   2.787
  2.789   2.792   2.793   2.811   2.814   2.816   2.823   2.824
  2.833   2.841   2.847   2.851   2.852   2.855   2.862   2.866
  2.871   2.878   2.886   2.887   2.893   2.894   2.896   2.910
  2.917   2.922   2.925   2.927   2.932   2.944   2.950   2.954
  2.956   2.961   2.964   2.978   2.983   2.985   3.003   3.011
  3.023   3.032   3.047   3.062   3.064   3.068   3.084   3.099
  3.146   3.165   3.190   3.195   3.199   3.207   3.228   3.237
  3.238   3.249   3.251   3.255   3.261   3.261   3.262   3.275
  3.281   3.287   3.295   3.298   3.301   3.329   3.329   3.339
  3.341   3.353   3.355   3.360   3.388   3.390   3.409   3.423
  3.434   3.437   3.470   3.474   3.486   3.493   3.526   3.537
  3.539   3.546   3.557   3.565   3.569   3.583   3.588   3.605
  3.609   3.633   3.716   3.742   3.831   3.880   3.899   3.909
  3.922   3.946   3.948   3.950   3.960   3.972   3.981   3.996
  4.004   4.054   4.073   4.076   4.082   4.084   4.097   4.102
  4.109   4.128   4.134   4.139   4.153   4.164   4.167   4.177
  4.190   4.217   4.227   4.235   4.243   4.248   4.249   4.253
  4.267   4.293   4.313   4.316   4.368   4.373   4.384   4.388
  4.418   4.422   4.436   4.448   4.456   4.461   4.486   4.492
  4.494   4.506   4.518   4.538   4.609   4.610   4.648   4.650
  4.676   4.690   4.702   4.716   4.737   4.759   4.777   4.791
 --------------------------------------------------------------
 
          Ground-State Mulliken Net Atomic Charges

     Atom                 Charge (a.u.)
  ----------------------------------------
      1 C                     0.275045
      2 C                    -0.129270
      3 N                    -0.490682
      4 C                    -0.075161
      5 C                     0.083680
      6 C                     0.040977
      7 C                     0.035064
      8 C                     0.065707
      9 C                     0.198233
     10 N                    -0.535461
     11 N                    -0.541035
     12 C                     0.257502
     13 C                     0.322213
     14 S                     0.572499
     15 N                    -0.581841
     16 C                    -0.219377
     17 S                     0.299657
     18 C                    -0.125761
     19 C                    -0.226368
     20 S                     0.276446
     21 C                     0.196823
     22 C                     0.008924
     23 C                    -0.315275
     24 C                    -0.053944
     25 N                    -0.401476
     26 S                     0.305366
     27 C                     0.122875
     28 C                    -0.323715
     29 C                    -0.235468
     30 H                     0.086770
     31 H                     0.103973
     32 H                     0.125741
     33 H                     0.114488
     34 H                     0.130703
     35 H                     0.115912
     36 H                     0.122849
     37 H                     0.145696
     38 H                     0.096781
     39 C                    -0.190733
     40 H                     0.139300
     41 H                     0.128842
     42 H                     0.089150
     43 C                    -0.183364
     44 H                     0.094720
     45 C                    -0.177747
     46 H                     0.089885
     47 H                     0.097220
     48 H                     0.089797
     49 C                    -0.178988
     50 H                     0.092948
     51 C                    -0.321749
     52 H                     0.093780
     53 H                     0.101659
     54 H                     0.098112
     55 H                     0.102924
     56 C                     0.252982
     57 C                    -0.107336
     58 N                    -0.469968
     59 C                    -0.092277
     60 C                     0.081863
     61 C                     0.037557
     62 C                     0.028252
     63 C                     0.056150
     64 C                     0.207325
     65 N                    -0.519650
     66 N                    -0.550487
     67 C                     0.201862
     68 C                     0.248008
     69 S                     0.661842
     70 N                    -0.554328
     71 C                    -0.202016
     72 S                     0.307277
     73 C                    -0.103506
     74 C                    -0.208054
     75 S                     0.246141
     76 C                     0.164981
     77 C                     0.041831
     78 C                    -0.308324
     79 C                    -0.047648
     80 N                    -0.431384
     81 S                     0.273098
     82 C                     0.134695
     83 C                    -0.308313
     84 C                    -0.219859
     85 H                     0.099094
     86 H                     0.107230
     87 H                     0.117628
     88 H                     0.111835
     89 H                     0.123039
     90 H                     0.124710
     91 H                     0.120776
     92 H                     0.121037
     93 H                     0.083015
     94 C                    -0.175834
     95 H                     0.114370
     96 H                     0.095026
     97 H                     0.114995
     98 C                    -0.176891
     99 H                     0.088128
    100 C                    -0.169758
    101 H                     0.096537
    102 H                     0.090194
    103 H                     0.095677
    104 C                    -0.184677
    105 H                     0.094318
    106 C                    -0.319052
    107 H                     0.096868
    108 H                     0.103754
    109 H                     0.090494
    110 H                     0.101928
  ----------------------------------------
  Sum of atomic charges =     0.000000

 -----------------------------------------------------------------
                    Cartesian Multipole Moments
 -----------------------------------------------------------------
    Charge (ESU x 10^10)
                 0.0000
    Dipole Moment (Debye)
         X       3.0723      Y       1.5397      Z      -1.2468
       Tot       3.6557
    Quadrupole Moments (Debye-Ang)
        XX    -399.9866     XY       1.6808     YY    -408.9763
        XZ     -18.9092     YZ       2.4143     ZZ    -431.6299
    Octopole Moments (Debye-Ang^2)
       XXX     690.6387    XXY    -304.7956    XYY     -16.6465
       YYY     387.2170    XXZ    -405.4962    XYZ      20.4409
       YYZ    -104.6773    XZZ      66.0231    YZZ      86.8139
       ZZZ     -29.5003
    Hexadecapole Moments (Debye-Ang^3)
      XXXX  -82718.3298   XXXY     -48.2503   XXYY  -23233.7343
      XYYY    -879.3767   YYYY  -47264.6863   XXXZ   -4351.2220
      XXYZ     869.5388   XYYZ     289.0861   YYYZ   -1487.2609
      XXZZ  -18469.7454   XYZZ    -483.9459   YYZZ  -11643.5015
      XZZZ     -93.5989   YZZZ     -57.8078   ZZZZ  -23147.9038
 -----------------------------------------------------------------
Archival summary:
1\1\mn246\SP\ProcedureUnspecified\6-31G**\8105042\afmv_a\ThuOct1123:04:292018ThuOct1123:04:292018\0\\#,ProcedureUnspecified,6-31G**,\\0,1\S\N,1,1.59049\C,2,1.39005,1,108.315\C,3,1.40794,2,111.647,1,8.55052,0\N,4,1.36998,3,111.482,2,-7.0327,0\C,4,1.38778,3,122.543,2,-174.569,0\N,6,1.36543,4,119.461,3,-5.39414,0\C,7,1.38828,6,119.146,4,-4.31301,0\H,8,1.08907,7,117.659,6,-174.504,0\C,6,1.40903,4,125.293,3,163.386,0\C,10,1.37666,6,125.475,4,49.3109,0\C,11,1.35969,10,114.967,6,177.059,0\C,12,1.38803,11,113.368,10,-176.718,0\H,13,1.084,12,124.905,11,-179.239,0\C,13,1.3794,12,112.669,11,5.67727,0\H,15,1.0826,13,125.054,12,-177.268,0\C,12,1.41813,11,115.658,10,-2.32308,0\C,8,1.42429,7,124.266,6,11.3492,0\C,17,1.4337,12,128.36,11,173.646,0\N,19,1.33559,17,118.694,12,32.9796,0\C,20,1.33959,19,114.127,17,-175.291,0\H,21,1.08214,20,124.932,19,177.679,0\C,21,1.38023,20,109.454,19,4.41974,0\H,23,1.08229,21,128.273,20,177.184,0\C,18,1.49049,8,119.785,7,168.541,0\C,25,1.4155,18,119.734,8,-137.812,0\H,26,1.08833,25,122.295,18,0.160724,0\N,26,1.3712,25,123.079,18,179.562,0\C,28,1.34334,26,115.886,25,-9.42879,0\C,29,1.39411,28,126.75,26,6.1385,0\H,30,1.08649,29,119.19,28,177.582,0\C,30,1.39592,29,117.246,28,-2.7572,0\H,32,1.08574,30,123.554,29,168.801,0\C,29,1.58039,28,112.634,26,-176.134,0\H,34,1.0968,29,108.261,28,57.2058,0\H,34,1.0975,29,108.565,28,170.216,0\C,34,1.56306,29,113.472,28,-66.3423,0\H,37,1.09694,34,110.261,29,72.3299,0\H,37,1.09709,34,104.201,29,-38.0827,0\C,37,1.5691,34,116.392,29,-159.327,0\H,40,1.09686,37,107.142,34,48.6371,0\H,40,1.09691,37,112.266,34,-66.3793,0\C,40,1.50903,37,111.439,34,165.261,0\H,43,1.09619,40,110.357,37,-39.6503,0\H,43,1.09714,40,106.917,37,75.8069,0\C,43,1.60279,40,115.264,37,-159.007,0\H,46,1.0967,43,114.804,40,30.3101,0\H,46,1.09735,43,114.447,40,161.267,0\C,46,1.54434,43,107.806,40,-78.6455,0\H,49,1.0965,46,107.018,43,171.436,0\H,49,1.09668,46,107.649,43,58.4203,0\H,49,1.09805,46,116.051,43,-71.4051,0\S,19,1.72589,17,127.406,12,-153.232,0\S,11,1.75193,10,129.062,6,6.32006,0\S,10,1.77775,6,124.558,4,-135.394,0\H,1,3.04308,2,123.915,3,-84.0417,0\C,56,1.09688,1,126.56,2,-102.934,0\H,57,1.09624,56,107.563,1,-153.84,0\C,57,1.50132,56,107.476,1,85.9567,0\H,59,1.09694,57,104.922,56,-105.437,0\H,59,1.09716,57,119.097,56,9.96912,0\C,57,1.52135,56,110.359,1,-35.7031,0\C,62,1.35611,57,121.102,56,-105.441,0\H,63,1.08534,62,120.396,57,-15.493,0\N,62,1.38488,57,118.833,56,66.6997,0\C,65,1.35695,62,117.556,57,-172.339,0\H,66,1.08968,65,112.541,62,-174.153,0\C,63,1.38501,62,123.741,57,164.228,0\H,68,1.08666,63,123.414,62,-168.687,0\C,68,1.3826,63,118.491,62,7.84197,0\C,70,1.51943,68,121.739,63,-174.473,0\C,71,1.38519,70,124.825,68,-154.916,0\N,72,1.34685,71,120.024,70,11.9806,0\C,71,1.41919,70,120.373,68,34.2219,0\H,74,1.0891,71,117.985,70,-0.257477,0\N,74,1.35615,71,123.082,70,-179.813,0\C,76,1.35883,74,122.454,71,-7.93806,0\C,77,1.41721,76,118.369,74,3.28277,0\N,78,1.28777,77,126.131,76,175.214,0\C,77,1.49613,76,114.087,74,-178.863,0\C,80,1.40213,77,127.543,76,-9.13793,0\C,81,1.41887,80,116.259,77,-178.123,0\C,82,1.35,81,115.216,80,1.18391,0\C,82,1.42067,81,109.645,80,-169.559,0\H,84,1.08462,82,120.013,81,-178.31,0\C,84,1.38599,82,115.545,81,-1.5803,0\H,86,1.08164,84,125.933,82,174.623,0\C,83,1.44276,82,126.864,81,-175.507,0\N,88,1.36746,83,113.94,82,-44.5988,0\C,89,1.35678,88,111.114,83,-165.83,0\H,90,1.08135,89,117.702,88,-172.392,0\C,90,1.4269,89,113.479,88,0.652164,0\H,92,1.08226,90,130.601,89,-155.683,0\C,59,1.56813,57,111.321,56,138.215,0\H,94,1.09635,59,112.553,57,-54.6989,0\H,94,1.09723,59,103.858,57,62.8505,0\C,94,1.58463,59,108.216,57,177.801,0\H,97,1.09674,94,114.688,59,64.134,0\H,97,1.0981,94,107.548,59,-48.9004,0\C,97,1.57807,94,115.682,59,-167.121,0\H,100,1.09715,97,111.474,94,62.0075,0\H,100,1.0974,97,108.804,94,-55.7189,0\C,100,1.55648,97,110.699,94,-176.818,0\H,103,1.09626,100,109.813,97,-178.976,0\H,103,1.09677,100,118.872,97,-58.2619,0\H,103,1.09751,100,107.119,97,57.4191,0\S,73,1.65971,72,102.498,71,171.932,0\S,88,1.68746,83,125.98,82,161.371,0\S,81,1.75958,80,129.52,77,2.52012,0\S,83,1.77718,82,110.106,81,-0.26012,0\\\@

 Total job time:  80.11s(wall), 944.68s(cpu) 
 Thu Oct 11 23:04:29 2018

        *************************************************************
        *                                                           *
        *  Thank you very much for using Q-Chem.  Have a nice day.  *
        *                                                           *
        *************************************************************


