
Running Job 1 of 1 ./7/32.qcin
qchem ./7/32.qcin_59878.0 /tmpu/cab_g/afmv_a/scratch_qchem/qchem59878/ 1
/tmpu/appuserlic/qchem4.4/serial-multicore/exe/qcprog.exe_s ./7/32.qcin_59878.0 /tmpu/cab_g/afmv_a/scratch_qchem/qchem59878/
Check license passed

                  Welcome to Q-Chem
     A Quantum Leap Into The Future Of Chemistry


 Q-Chem 4.4, Q-Chem, Inc., Pleasanton, CA (2016)

 Y. Shao,  Z. Gan,  E. Epifanovsky,  A. T. B. Gilbert,  M. Wormit,  
 J. Kussmann,  A. W. Lange,  A. Behn,  J. Deng,  X. Feng,  D. Ghosh,  
 M. Goldey,  P. R. Horn,  L. D. Jacobson,  I. Kaliman,  F. Rob,  
 R. Z. Khaliullin,  T. Kus,  A. Landau,  J. Liu,  E. I. Proynov,  Y. M. Rhee,  
 R. M. Richard,  M. A. Rohrdanz,  R. P. Steele,  E. J. Sundstrom,  
 H. L. Woodcock III,  P. M. Zimmerman,  D. Zuev,  B. Albrecht,  E. Alguire,  
 B. Austin,  S. A. Baeppler,  G. J. O. Beran,  Y. A. Bernard,  E. Berquist,  
 K. Brandhorst,  K. B. Bravaya,  S. T. Brown,  D. Casanova,  C.-M. Chang,  
 Y. Chen,  S. H. Chien,  K. D. Closser,  M. P. Coons,  D. L. Crittenden,  
 S. Dasgupta,  M. Diedenhofen,  R. A. DiStasio Jr.,  H. Do,  A. D. Dutoi,  
 R. G. Edgar,  P.-T. Fang,  S. Fatehi,  Q. Feng,  L. Fusti-Molnar,  
 A. Ghysels,  A. Golubeva-Zadorozhnaya,  J. Gomes,  A. Gunina,  
 M. W. D. Hanson-Heine,  P. H. P. Harbach,  A. W. Hauser,  J. E. Herr,  
 E. G. Hohenstein,  Z. C. Holden,  K. Hui,  T.-C. Jagau,  H. Ji,  B. Kaduk,  
 K. Khistyaev,  Jaehoon Kim,  Jihan Kim,  R. A. King,  P. Klunzinger,  
 K. Koh,  D. Kosenkov,  T. Kowalczyk,  C. M. Krauter,  A. Kunitsa,  
 K. U. Lao,  A. Laurent,  K. V. Lawler,  J. Lee,  D. Lefrancois,  S. Lehtola,  
 S. V. Levchenko,  C. Y. Lin,  Y.-S. Lin,  F. Liu,  E. Livshits,  
 R. C. Lochan,  A. Luenser,  P. Manohar,  S. F. Manzer,  S.-P. Mao,  Y. Mao,  
 N. Mardirossian,  A. V. Marenich,  L. A. Martinez-Martinez,  S. A. Maurer,  
 N. J. Mayhall,  J.-M. Mewes,  A. F. Morrison,  K. Nanda,  T. S. Nguyen-Beck,  
 C. M. Oana,  R. Olivares-Amaya,  D. P. O'Neill,  J. A. Parkhill,  
 T. M. Perrine,  R. Peverati,  P. A. Pieniazek,  F. Plasser,  A. Prociuk,  
 D. R. Rehn,  E. Rosta,  N. J. Russ,  N. Sergueev,  S. M. Sharada,  
 S. Sharma,  D. W. Small,  A. Sodt,  T. Stauch,  T. Stein,  D. Stuck,  
 Y.-C. Su,  A. J. W. Thom,  T. Tsuchimochi,  L. Vogt,  O. Vydrov,  T. Wang,  
 M. A. Watson,  J. Wenzel,  A. White,  C. F. Williams,  V. Vanovschi,  
 K. Yao,  S. Yeganeh,  S. R. Yost,  Z.-Q. You,  I. Y. Zhang,  X. Zhang,  
 Y. Zhao,  B. R. Brooks,  G. K. L. Chan,  D. M. Chipman,  C. J. Cramer,  
 W. A. Goddard III,  M. S. Gordon,  W. J. Hehre,  A. Klamt,  
 H. F. Schaefer III,  M. W. Schmidt,  C. D. Sherrill,  D. G. Truhlar,  
 A. Warshel,  X. Xu,  A. Aspuru-Guzik,  R. Baer,  A. T. Bell,  N. A. Besley,  
 J.-D. Chai,  A. Dreuw,  B. D. Dunietz,  T. R. Furlani,  S. R. Gwaltney,  
 C.-P. Hsu,  Y. Jung,  J. Kong,  D. S. Lambrecht,  W. Liang,  C. Ochsenfeld,  
 V. A. Rassolov,  L. V. Slipchenko,  J. E. Subotnik,  T. Van Voorhis,  
 J. M. Herbert,  A. I. Krylov,  P. M. W. Gill,  M. Head-Gordon

 Contributors to earlier versions of Q-Chem not listed above: 
 R. D. Adamson,  J. Baker,  E. F. C. Byrd,  A. K. Chakraborty,  C.-L. Cheng,  
 H. Dachsel,  R. J. Doerksen,  G. Hawkins,  A. Heyden,  S. Hirata,  
 G. Kedziora,  F. J. Keil,  C. Kelley,  P. P. Korambath,  W. Kurlancheek,  
 A. M. Lee,  M. S. Lee,  D. Liotard,  I. Lotan,  P. E. Maslen,  N. Nair,  
 D. Neuhauser,  R. Olson,  B. Peters,  J. Ritchie,  N. E. Schultz,  
 N. Shenvi,  A. C. Simmonett,  K. S. Thanthiriwatte,  Q. Wu,  W. Zhang

 Please cite Q-Chem as follows:
 Y. Shao et al., Mol. Phys. 113, 184-215 (2015)
 DOI: 10.1080/00268976.2014.952696

 Q-Chem 4.4.2 for Intel X86 Linux

 Parts of Q-Chem use Armadillo 5.200.1 (Boston Tea Smuggler).
 http://arma.sourceforge.net/

 Q-Chem begins on Thu Oct 11 23:12:38 2018  

Host: 
0

     Scratch files written to /tmpu/cab_g/afmv_a/scratch_qchem/qchem59878//
 Dec716 11556_ 22328  22283 4050   
Processing $rem in /tmpu/appuserlic/qchem4.4/serial-multicore/config/preferences.
 MEM_TOTAL  2000 
FILE_GEOM_ORG=        593

Checking the input file for inconsistencies... 	...done.

--------------------------------------------------------------
User input:
--------------------------------------------------------------
$comment
SP
$end

$rem
MEM_STATIC 5000
MEM_TOTAL 20000
JOBTYPE SP
EXCHANGE B3LYP
BASIS 6-31g(d,p)
$end

$molecule
0 1
C         -25.933000    -21.844000    -15.157000
C         -25.459000    -23.077000    -14.909000
N         -25.573000    -20.759000    -14.419000
C         -24.566000    -23.255000    -13.864000
C         -24.603000    -20.904000    -13.492000
C         -23.989000    -22.127000    -13.234000
C         -22.915000    -22.243000    -12.180000
C         -23.018000    -23.321000    -11.222000
C         -21.864000    -21.274000    -11.865000
N         -22.270000    -23.450000    -10.158000
N         -21.420000    -20.319000    -12.737000
C         -20.952000    -21.514000    -10.819000
C         -21.223000    -22.616000     -9.930000
S         -20.193000    -19.690000    -11.935000
N         -19.977000    -20.677000    -10.625000
C         -20.464000    -22.849000     -8.775000
S         -19.589000    -21.679000     -7.764000
C         -20.252000    -24.092000     -8.186000
C         -19.022000    -22.880000     -6.664000
S         -20.777000    -25.663000     -8.690000
C         -19.499000    -24.072000     -6.987000
C         -18.656000    -22.539000     -5.326000
C         -20.151000    -26.316000     -7.170000
C         -19.352000    -25.415000     -6.484000
N         -19.227000    -21.467000     -4.846000
S         -17.947000    -23.588000     -4.143000
C         -18.942000    -21.355000     -3.521000
C         -18.104000    -22.369000     -3.047000
C         -27.030000    -21.574000    -16.097000
H         -25.900000    -23.922000    -15.429000
H         -24.091000    -24.216000    -13.690000
H         -24.101000    -20.017000    -13.109000
H         -23.850000    -24.015000    -11.331000
H         -20.090000    -27.381000     -6.988000
H         -18.751000    -25.768000     -5.653000
H         -19.230000    -20.497000     -2.928000
H         -17.740000    -22.517000     -2.039000
H         -27.757000    -22.391000    -16.174000
C         -26.584000    -21.192000    -17.457000
H         -27.675000    -20.760000    -15.743000
H         -26.437000    -22.095000    -18.064000
H         -25.531000    -20.893000    -17.384000
C         -27.522000    -20.133000    -18.048000
H         -28.524000    -20.569000    -18.144000
C         -27.028000    -19.607000    -19.459000
H         -27.465000    -19.275000    -17.367000
H         -27.014000    -20.462000    -20.147000
H         -25.972000    -19.310000    -19.443000
C         -27.875000    -18.410000    -20.029000
H         -27.767000    -17.634000    -19.260000
C         -29.424000    -18.665000    -20.221000
H         -27.508000    -18.080000    -21.009000
H         -29.946000    -18.877000    -19.280000
H         -29.543000    -19.453000    -20.976000
H         -29.755000    -17.795000    -20.802000
C         -21.302000    -20.689000      2.013000
C         -21.313000    -21.361000      0.808000
N         -20.788000    -19.476000      2.249000
C         -20.646000    -20.716000     -0.263000
C         -20.350000    -18.847000      1.200000
C         -20.208000    -19.392000     -0.086000
C         -19.611000    -18.547000     -1.128000
C         -20.283000    -18.423000     -2.343000
C         -18.270000    -18.042000     -0.979000
N         -19.746000    -17.829000     -3.402000
N         -17.482000    -18.229000      0.080000
C         -17.757000    -17.338000     -2.020000
C         -18.507000    -17.254000     -3.231000
S         -16.126000    -17.455000     -0.307000
N         -16.505000    -16.974000     -1.801000
C         -17.985000    -16.595000     -4.436000
S         -16.709000    -15.353000     -4.555000
C         -18.274000    -16.967000     -5.741000
C         -16.608000    -15.366000     -6.326000
S         -18.950000    -18.444000     -6.311000
C         -17.482000    -16.322000     -6.744000
C         -15.488000    -14.839000     -7.044000
C         -18.538000    -18.013000     -7.979000
C         -17.699000    -16.927000     -8.027000
N         -14.434000    -14.568000     -6.299000
S         -15.285000    -14.681000     -8.761000
C         -13.370000    -14.225000     -7.087000
C         -13.615000    -14.251000     -8.453000
C         -21.965000    -21.354000      3.182000
H         -21.659000    -22.388000      0.733000
H         -20.561000    -21.189000     -1.237000
H         -19.988000    -17.859000      1.480000
H         -21.220000    -18.904000     -2.622000
H         -19.058000    -18.531000     -8.774000
H         -17.316000    -16.561000     -8.972000
H         -12.393000    -13.949000     -6.713000
H         -12.825000    -14.238000     -9.193000
H         -22.937000    -21.745000      2.855000
C         -22.080000    -20.525000      4.547000
H         -21.441000    -22.258000      3.515000
H         -22.767000    -19.677000      4.437000
H         -21.101000    -20.054000      4.697000
C         -22.596000    -21.400000      5.724000
H         -21.787000    -22.131000      5.842000
C         -23.977000    -22.007000      5.580000
H         -22.618000    -20.778000      6.628000
H         -24.051000    -22.326000      4.533000
H         -24.739000    -21.231000      5.719000
C         -24.215000    -23.262000      6.465000
H         -24.093000    -23.010000      7.526000
C         -23.246000    -24.442000      6.176000
H         -25.253000    -23.585000      6.318000
H         -22.252000    -24.094000      6.480000
H         -23.027000    -24.706000      5.134000
H         -23.507000    -25.366000      6.709000
$end

--------------------------------------------------------------
 ----------------------------------------------------------------
             Standard Nuclear Orientation (Angstroms)
    I     Atom           X                Y                Z
 ----------------------------------------------------------------
    1      C      -9.9187860694    -2.7604228661     1.0201437249
    2      C      -9.6116862215    -3.3512725820    -0.1473558668
    3      N      -9.0484370602    -1.9507683123     1.6822774770
    4      C      -8.3622903085    -3.1277908451    -0.7043332144
    5      C      -7.8872303139    -1.6228058533     1.0778823101
    6      C      -7.5289574904    -2.1141363629    -0.1749241052
    7      C      -6.2144196039    -1.7271402415    -0.8074366719
    8      C      -5.3903615359    -2.7798374360    -1.3580853051
    9      C      -5.5515071945    -0.4227637921    -0.7634342192
   10      N      -4.1626438877    -2.6257704534    -1.7790529297
   11      N      -6.2002959363     0.7552651867    -0.5167240784
   12      C      -4.2990345120    -0.2294193473    -1.3777550678
   13      C      -3.5914514665    -1.3956242149    -1.8440794619
   14      S      -5.0398977492     1.8232104437    -0.7561880121
   15      N      -3.7812468190     0.9623543787    -1.3977873195
   16      C      -2.2794485670    -1.3285383903    -2.3324879835
   17      S      -0.9927348660    -0.1783550504    -1.9104783437
   18      C      -1.7243278154    -2.1892191047    -3.2748168322
   19      C       0.1565578915    -0.8961668441    -2.9771377956
   20      S      -2.4468170518    -3.5047157466    -4.1380432732
   21      C      -0.3580073811    -1.9625355868    -3.5694234403
   22      C       1.5598713924    -0.7454410835    -2.7569697616
   23      C      -0.8488688336    -3.9088078755    -4.7798812927
   24      C       0.0904004416    -2.9149765184    -4.5543364802
   25      N       1.9101358100    -0.5129590762    -1.5204860560
   26      S       2.8384988252    -1.2825430446    -3.7958173786
   27      C       3.2645299327    -0.5720894842    -1.4131820238
   28      C       3.9062994181    -0.8207894795    -2.6303082457
   29      C     -11.1226991785    -3.0851417234     1.7979996816
   30      H     -10.2843833180    -4.1045957431    -0.5459644862
   31      H      -8.1103777628    -3.5117794963    -1.6884647021
   32      H      -7.3250484510    -0.7649263381     1.4431990090
   33      H      -5.7771134861    -3.7969324522    -1.3170772940
   34      H      -0.7165685216    -4.6478224002    -5.5592555031
   35      H       1.0401518293    -2.9573500311    -5.0763975753
   36      H       3.7937498049    -0.3232159715    -0.5028275316
   37      H       4.9668582919    -0.9267546240    -2.8159160670
   38      H     -11.4549545441    -4.1237781225     1.6849165149
   39      C     -12.2685368347    -2.1797105231     1.5496241452
   40      H     -10.9287594082    -3.0496301123     2.8773806574
   41      H     -12.8549891147    -2.5519450439     0.6993405544
   42      H     -11.8732973768    -1.2761636839     1.0690745846
   43      C     -13.0488004038    -1.9387390856     2.8472094137
   44      H     -13.4586555730    -2.8964749991     3.1908322596
   45      C     -14.2212122658    -0.8885993447     2.6620339554
   46      H     -12.3343811689    -1.4774135478     3.5399993566
   47      H     -14.9213154841    -1.2978773063     1.9224989435
   48      H     -13.8796034041     0.0298034156     2.1686367974
   49      C     -14.9470539556    -0.4957840815     4.0014248656
   50      H     -14.1382527885    -0.0783332519     4.6152460750
   51      C     -15.5989284061    -1.6762702625     4.8277432531
   52      H     -15.7563007332     0.2254300700     3.8312520106
   53      H     -14.8658059516    -2.4116176405     5.1808787801
   54      H     -16.3982635245    -2.1129641932     4.2149694128
   55      H     -16.2020918305    -1.1558880102     5.5823412885
   56      C       7.8907545256    -3.0941149576     1.5660369221
   57      C       6.7000932285    -3.2652781687     0.8901975693
   58      N       8.3343131812    -1.9664440721     2.1342579117
   59      C       5.9095478297    -2.1001647574     0.7304987556
   60      C       7.4966903965    -0.9734236955     2.1206710658
   61      C       6.2806815729    -0.9328090937     1.4202012271
   62      C       5.5084114139     0.3155772727     1.4566468260
   63      C       4.1586012726     0.2473022028     1.7980206640
   64      C       6.0721440123     1.5380349185     0.9435095523
   65      N       3.3385303022     1.2859093670     1.6909470351
   66      N       7.3035957465     1.6804863328     0.4529708477
   67      C       5.2683348295     2.6317819966     0.9348998465
   68      C       3.8972320186     2.4819119075     1.3005404325
   69      S       7.3751600230     3.2323268626     0.0355375902
   70      N       5.8649134044     3.6790161094     0.3914334565
   71      C       2.9370404228     3.5915632335     1.2264051914
   72      S       3.2669621950     5.3453373469     1.2445430903
   73      C       1.5860853042     3.4635287085     0.9375151986
   74      C       1.6056711917     5.8461243779     0.8755775742
   75      S       0.7615409660     2.1267756991     0.2328003440
   76      C       0.8971092759     4.6966211966     0.7049362910
   77      C       1.2783496054     7.1495986183     0.3841831463
   78      C      -0.6854909589     3.1196529192    -0.0080781192
   79      C      -0.4246984187     4.4511902246     0.2031484308
   80      N       2.3136635925     7.8671059954    -0.0065726750
   81      S      -0.2919608079     7.8242604233     0.0788658449
   82      C       1.8928629148     9.0229673448    -0.6045696070
   83      C       0.5158622991     9.1788459727    -0.6834882836
   84      C       8.7748887131    -4.2947273539     1.7247555795
   85      H       6.4698311314    -4.1905371851     0.3696736801
   86      H       4.9785900935    -2.1262919489     0.1716919345
   87      H       7.9251221187    -0.1152795285     2.6360571813
   88      H       3.5906595633    -0.6517536094     2.0353218679
   89      H      -1.6256127113     2.6068755614    -0.1629311849
   90      H      -1.1938438417     5.1994045936     0.0539486444
   91      H       2.5517922700     9.7840309731    -1.0010229567
   92      H       0.0421147707     9.9088281965    -1.3273502504
   93      H       8.1558794556    -5.1434807874     2.0426221371
   94      C      10.0900254353    -4.1406465244     2.6249586120
   95      H       9.1960956215    -4.6456900158     0.7749708932
   96      H       9.8307063412    -3.9946186097     3.6807059566
   97      H      10.5466177875    -3.1878277157     2.3309488472
   98      C      11.0132293995    -5.3883417150     2.5346195191
   99      H      11.3224889875    -5.3727233294     1.4825355997
  100      C      10.4368550253    -6.7096242082     3.0019001133
  101      H      11.9041587947    -5.1991318149     3.1470151645
  102      H       9.3981549463    -6.7192836691     2.6491185369
  103      H      10.3891637234    -6.7262696101     4.0971578320
  104      C      11.1417839662    -7.9580231172     2.4023424828
  105      H      12.2041971983    -7.9654895782     2.6768081020
  106      C      11.0845557187    -8.0422521173     0.8516934564
  107      H      10.6789852292    -8.8495128979     2.8433020048
  108      H      11.6856746587    -7.2025048799     0.4842201959
  109      H      10.1396483976    -7.8161464796     0.3423336668
  110      H      11.4652248189    -8.9901208589     0.4484294176
 ----------------------------------------------------------------
 Molecular Point Group                 C1    NOp =  1
 Largest Abelian Subgroup              C1    NOp =  1
 Nuclear Repulsion Energy = 11237.8824852200 hartrees
 There are      270 alpha and      270 beta electrons
 Requested basis set is 6-31G(d,p)
 There are 406 shells and 1262 basis functions

 Total QAlloc Memory Limit  20000 MB
 Mega-Array Size      4888 MB
 MEM_STATIC part      5000 MB
 A cutoff of  1.0D-08 yielded  13297 shell pairs
 There are    140132 function pairs
 
 -------------------------------------------------------
 OpenMP Integral Computing Module                       
 Release: version 1.0, May 2013, Q-Chem Inc. Pittsburgh 
 -------------------------------------------------------
 Integral Job Info:
 Integral job number is                      11
 Integral operator is                         1
 short-range coefficients                     0
 long-range coefficients              100000000
 Omega coefficients                           0
 if combine SR and LR in K                    0
 Integral screening is                        0
 Integral computing path is                   2
 max size of driver memory is            800000
 size of driver memory is                593474
 size of scratch memory is             15166112
 max col of scratch BK array               1296
 max len of scratch array in speh3          155
 max len of scratch index in speh4           18
 max int batch size is                      520
 min int batch size is                       52
 fixed nKL is                                52
 max L of basis functions is                  2
 order of int derivative is                   0
 number of shells is                        406
 number of basis is                        1262
 number of cartesian basis is              1262
 number of contracted shell pairs         13297
 number of primitive shell pairs          43183
 maxK2 (contraction) of shell pair           36
 max number of K2 of shell pair               1
 max number of CS2 of shell pair           1377
 max number of PS2 of shell pair           8064
 mem total for path MDJ                  292648
 -------------------------------------------------------
 Smallest overlap matrix eigenvalue = 4.42E-04

 Scale SEOQF with 1.000000e-02/1.000000e-02/1.000000e-02

 Standard Electronic Orientation quadrupole field applied
 Nucleus-field energy     =     0.0000001184 hartrees
 Guess from superposition of atomic densities
 Warning:  Energy on first SCF cycle will be non-variational
 A restricted hybrid HF-DFT SCF calculation will be
 performed using Pulay DIIS extrapolation
 Exchange:     0.2000 Hartree-Fock + 0.0800 Slater + 0.7200 B88
 Correlation:  0.1900 VWN1RPA + 0.8100 LYP
 Using SG-1 standard quadrature grid
 SCF converges when DIIS error is below 1.0E-05
 using 16 threads for integral computing 
 -------------------------------------------------------
 OpenMP BLAS3 based DFT computing Module                
 Release: version 1.0, May 2013, Q-Chem Inc. Pittsburgh 
 -------------------------------------------------------
 ---------------------------------------
  Cycle       Energy         DIIS Error
 ---------------------------------------
    1   -5680.9975204895      2.19E-02
    2   -5662.4603657075      2.15E-03
    3   -5661.2122199926      3.18E-03
    4   -5663.2795241936      9.19E-04
    5   -5663.4327252876      4.18E-04
    6   -5663.4569282437      2.46E-04
    7   -5663.4679362954      7.70E-05
    8   -5663.4690150952      2.79E-05
    9   -5663.4691600178      1.09E-05
   10   -5663.4691876589      3.58E-06 Convergence criterion met
 ---------------------------------------
 SCF time:  CPU 1064.52 s  wall 87.51 s
 SCF   energy in the final basis set = -5663.4691876589
 Total energy in the final basis set = -5663.4691876589
 
 --------------------------------------------------------------
 
                    Orbital Energies (a.u.)
 --------------------------------------------------------------
 
 Alpha MOs
 -- Occupied --
-88.991 -88.988 -88.931 -88.930 -88.922 -88.914 -88.912 -88.896
-14.396 -14.395 -14.383 -14.381 -14.347 -14.346 -14.343 -14.340
-14.328 -14.324 -10.267 -10.266 -10.265 -10.264 -10.259 -10.258
-10.252 -10.251 -10.240 -10.237 -10.236 -10.235 -10.234 -10.234
-10.232 -10.232 -10.230 -10.228 -10.228 -10.227 -10.227 -10.224
-10.223 -10.223 -10.221 -10.220 -10.220 -10.218 -10.216 -10.214
-10.212 -10.210 -10.209 -10.208 -10.206 -10.199 -10.197 -10.196
-10.182 -10.182 -10.181 -10.180 -10.177 -10.175 -10.174 -10.173
-10.173 -10.173 -10.172 -10.172  -8.048  -8.045  -7.995  -7.991
 -7.982  -7.973  -7.972  -7.957  -6.013  -6.009  -6.007  -6.006
 -6.004  -6.002  -5.958  -5.955  -5.955  -5.952  -5.952  -5.948
 -5.946  -5.942  -5.938  -5.937  -5.937  -5.934  -5.933  -5.929
 -5.929  -5.921  -5.918  -5.913  -1.058  -1.057  -0.987  -0.971
 -0.963  -0.958  -0.953  -0.940  -0.929  -0.920  -0.914  -0.905
 -0.852  -0.837  -0.837  -0.831  -0.829  -0.816  -0.814  -0.811
 -0.806  -0.803  -0.801  -0.799  -0.787  -0.783  -0.767  -0.763
 -0.752  -0.745  -0.743  -0.736  -0.727  -0.713  -0.713  -0.709
 -0.695  -0.689  -0.679  -0.676  -0.659  -0.655  -0.650  -0.645
 -0.638  -0.638  -0.631  -0.629  -0.613  -0.612  -0.605  -0.599
 -0.598  -0.591  -0.587  -0.584  -0.581  -0.575  -0.561  -0.554
 -0.553  -0.547  -0.546  -0.542  -0.532  -0.523  -0.522  -0.515
 -0.513  -0.511  -0.505  -0.498  -0.492  -0.487  -0.482  -0.480
 -0.477  -0.476  -0.473  -0.469  -0.460  -0.456  -0.452  -0.452
 -0.450  -0.446  -0.442  -0.441  -0.439  -0.439  -0.437  -0.434
 -0.431  -0.429  -0.429  -0.427  -0.425  -0.419  -0.418  -0.413
 -0.410  -0.406  -0.406  -0.403  -0.402  -0.401  -0.400  -0.398
 -0.397  -0.394  -0.392  -0.390  -0.387  -0.385  -0.382  -0.378
 -0.377  -0.376  -0.373  -0.369  -0.365  -0.365  -0.361  -0.359
 -0.355  -0.352  -0.350  -0.349  -0.347  -0.343  -0.341  -0.340
 -0.337  -0.333  -0.333  -0.330  -0.328  -0.325  -0.317  -0.313
 -0.313  -0.312  -0.312  -0.311  -0.307  -0.304  -0.304  -0.301
 -0.300  -0.299  -0.298  -0.290  -0.289  -0.288  -0.284  -0.282
 -0.279  -0.279  -0.271  -0.265  -0.253  -0.250  -0.247  -0.246
 -0.245  -0.237  -0.236  -0.231  -0.196  -0.191
 -- Virtual --
 -0.115  -0.113  -0.072  -0.070  -0.043  -0.032  -0.031  -0.023
 -0.019  -0.016  -0.013  -0.004  -0.002   0.001   0.004   0.008
  0.008   0.009   0.018   0.024   0.026   0.034   0.035   0.043
  0.050   0.053   0.054   0.056   0.069   0.073   0.088   0.089
  0.089   0.095   0.097   0.101   0.104   0.106   0.111   0.114
  0.115   0.116   0.119   0.123   0.123   0.125   0.126   0.126
  0.127   0.134   0.136   0.137   0.141   0.144   0.146   0.149
  0.152   0.153   0.154   0.158   0.159   0.161   0.162   0.163
  0.167   0.170   0.171   0.176   0.177   0.177   0.178   0.184
  0.186   0.187   0.190   0.194   0.195   0.195   0.198   0.199
  0.201   0.203   0.207   0.214   0.215   0.218   0.218   0.220
  0.223   0.227   0.230   0.230   0.232   0.236   0.240   0.241
  0.243   0.245   0.246   0.248   0.251   0.256   0.261   0.263
  0.266   0.272   0.275   0.276   0.277   0.281   0.285   0.286
  0.287   0.290   0.292   0.297   0.299   0.301   0.305   0.309
  0.310   0.315   0.317   0.318   0.323   0.326   0.329   0.332
  0.335   0.336   0.338   0.341   0.344   0.345   0.347   0.351
  0.352   0.354   0.356   0.357   0.361   0.362   0.365   0.369
  0.373   0.378   0.384   0.388   0.390   0.395   0.396   0.400
  0.403   0.411   0.419   0.423   0.425   0.432   0.437   0.443
  0.445   0.452   0.454   0.458   0.463   0.468   0.469   0.475
  0.480   0.482   0.484   0.491   0.497   0.498   0.501   0.502
  0.505   0.506   0.507   0.508   0.513   0.517   0.517   0.520
  0.521   0.522   0.528   0.529   0.532   0.533   0.534   0.537
  0.540   0.542   0.543   0.544   0.546   0.547   0.551   0.552
  0.554   0.556   0.559   0.562   0.562   0.565   0.567   0.569
  0.570   0.572   0.575   0.577   0.579   0.579   0.580   0.584
  0.585   0.586   0.588   0.592   0.593   0.597   0.602   0.603
  0.605   0.606   0.607   0.611   0.612   0.615   0.618   0.618
  0.624   0.624   0.626   0.626   0.627   0.630   0.631   0.634
  0.634   0.635   0.638   0.640   0.642   0.644   0.646   0.650
  0.654   0.654   0.656   0.658   0.660   0.663   0.665   0.672
  0.674   0.678   0.683   0.684   0.686   0.690   0.693   0.695
  0.700   0.701   0.703   0.709   0.710   0.714   0.717   0.720
  0.723   0.724   0.727   0.728   0.731   0.734   0.736   0.739
  0.743   0.747   0.749   0.758   0.759   0.762   0.763   0.765
  0.770   0.771   0.772   0.780   0.785   0.789   0.789   0.791
  0.795   0.795   0.797   0.801   0.802   0.805   0.807   0.809
  0.814   0.815   0.818   0.818   0.822   0.823   0.825   0.827
  0.828   0.828   0.831   0.833   0.834   0.837   0.839   0.840
  0.842   0.842   0.845   0.848   0.850   0.853   0.853   0.858
  0.860   0.861   0.863   0.866   0.867   0.868   0.871   0.873
  0.874   0.876   0.878   0.880   0.882   0.886   0.888   0.888
  0.890   0.891   0.894   0.897   0.900   0.905   0.912   0.914
  0.916   0.917   0.920   0.920   0.922   0.926   0.929   0.930
  0.932   0.935   0.938   0.940   0.941   0.943   0.944   0.947
  0.948   0.951   0.952   0.953   0.959   0.960   0.964   0.966
  0.967   0.968   0.971   0.972   0.976   0.978   0.987   0.988
  0.997   1.000   1.001   1.003   1.005   1.006   1.009   1.011
  1.016   1.017   1.018   1.021   1.024   1.028   1.028   1.031
  1.033   1.035   1.041   1.043   1.049   1.052   1.055   1.057
  1.059   1.060   1.064   1.066   1.068   1.073   1.075   1.076
  1.079   1.083   1.087   1.091   1.098   1.103   1.104   1.107
  1.111   1.115   1.119   1.123   1.127   1.130   1.133   1.139
  1.143   1.145   1.150   1.154   1.159   1.166   1.171   1.177
  1.179   1.184   1.189   1.191   1.196   1.200   1.213   1.217
  1.222   1.233   1.239   1.239   1.244   1.248   1.254   1.256
  1.264   1.271   1.276   1.276   1.283   1.288   1.292   1.303
  1.306   1.309   1.311   1.314   1.314   1.316   1.324   1.326
  1.334   1.340   1.343   1.346   1.351   1.357   1.360   1.369
  1.372   1.378   1.383   1.388   1.393   1.394   1.403   1.409
  1.413   1.417   1.420   1.422   1.427   1.435   1.438   1.441
  1.444   1.450   1.452   1.460   1.466   1.469   1.470   1.471
  1.481   1.487   1.491   1.493   1.496   1.505   1.508   1.512
  1.514   1.521   1.527   1.530   1.534   1.542   1.545   1.552
  1.557   1.573   1.574   1.575   1.584   1.600   1.613   1.616
  1.619   1.625   1.627   1.641   1.643   1.647   1.656   1.658
  1.670   1.673   1.675   1.680   1.683   1.689   1.694   1.695
  1.696   1.700   1.707   1.708   1.711   1.714   1.714   1.717
  1.718   1.724   1.729   1.730   1.735   1.738   1.741   1.746
  1.754   1.755   1.767   1.769   1.775   1.776   1.780   1.789
  1.789   1.794   1.796   1.800   1.802   1.809   1.813   1.816
  1.823   1.826   1.827   1.829   1.834   1.835   1.843   1.847
  1.851   1.855   1.857   1.859   1.867   1.867   1.869   1.871
  1.876   1.881   1.886   1.887   1.889   1.896   1.898   1.900
  1.900   1.903   1.910   1.915   1.916   1.917   1.925   1.927
  1.930   1.937   1.945   1.946   1.948   1.956   1.960   1.966
  1.967   1.979   1.980   1.982   1.983   1.989   1.991   1.996
  1.998   2.001   2.005   2.010   2.012   2.016   2.026   2.028
  2.035   2.036   2.038   2.045   2.053   2.058   2.066   2.071
  2.072   2.079   2.080   2.085   2.096   2.099   2.102   2.105
  2.107   2.111   2.118   2.121   2.123   2.124   2.128   2.136
  2.137   2.142   2.146   2.150   2.150   2.153   2.154   2.160
  2.172   2.174   2.181   2.184   2.185   2.188   2.190   2.193
  2.197   2.200   2.208   2.213   2.220   2.227   2.233   2.239
  2.244   2.246   2.248   2.249   2.252   2.253   2.256   2.259
  2.261   2.264   2.269   2.272   2.276   2.278   2.280   2.282
  2.284   2.288   2.299   2.306   2.308   2.309   2.311   2.312
  2.317   2.320   2.323   2.325   2.330   2.334   2.336   2.339
  2.341   2.347   2.349   2.350   2.355   2.360   2.365   2.369
  2.370   2.372   2.375   2.377   2.387   2.389   2.393   2.396
  2.402   2.405   2.409   2.411   2.415   2.422   2.424   2.426
  2.429   2.431   2.434   2.438   2.441   2.442   2.445   2.451
  2.454   2.456   2.457   2.462   2.471   2.475   2.482   2.487
  2.488   2.493   2.495   2.497   2.502   2.503   2.506   2.510
  2.513   2.520   2.525   2.530   2.531   2.535   2.540   2.541
  2.546   2.550   2.555   2.561   2.563   2.569   2.570   2.577
  2.579   2.582   2.587   2.590   2.594   2.598   2.600   2.601
  2.606   2.609   2.615   2.628   2.629   2.633   2.637   2.641
  2.643   2.648   2.649   2.659   2.661   2.666   2.667   2.672
  2.676   2.680   2.683   2.689   2.697   2.706   2.709   2.711
  2.714   2.723   2.729   2.732   2.738   2.738   2.743   2.746
  2.752   2.755   2.758   2.760   2.761   2.769   2.780   2.783
  2.791   2.798   2.802   2.807   2.815   2.819   2.823   2.827
  2.834   2.837   2.843   2.856   2.862   2.863   2.867   2.879
  2.885   2.887   2.890   2.893   2.900   2.900   2.903   2.914
  2.915   2.918   2.922   2.927   2.931   2.940   2.942   2.948
  2.957   2.961   2.965   2.972   2.982   2.989   3.022   3.033
  3.038   3.052   3.057   3.065   3.075   3.086   3.111   3.116
  3.156   3.189   3.194   3.203   3.209   3.209   3.241   3.245
  3.246   3.257   3.264   3.266   3.267   3.277   3.283   3.287
  3.290   3.309   3.310   3.319   3.320   3.324   3.330   3.343
  3.344   3.368   3.370   3.373   3.393   3.410   3.426   3.433
  3.441   3.447   3.470   3.479   3.485   3.501   3.523   3.539
  3.545   3.552   3.569   3.575   3.575   3.587   3.590   3.600
  3.622   3.630   3.748   3.752   3.840   3.874   3.896   3.926
  3.937   3.945   3.948   3.956   3.975   3.982   3.984   3.996
  4.029   4.059   4.076   4.084   4.095   4.104   4.108   4.121
  4.142   4.147   4.159   4.162   4.175   4.178   4.183   4.204
  4.208   4.222   4.242   4.252   4.260   4.265   4.271   4.281
  4.291   4.315   4.334   4.345   4.370   4.392   4.400   4.408
  4.430   4.434   4.440   4.457   4.460   4.474   4.477   4.491
  4.513   4.532   4.534   4.549   4.592   4.600   4.648   4.649
  4.680   4.703   4.712   4.720   4.747   4.762   4.801   4.813
 --------------------------------------------------------------
 
          Ground-State Mulliken Net Atomic Charges

     Atom                 Charge (a.u.)
  ----------------------------------------
      1 C                     0.269159
      2 C                    -0.104650
      3 N                    -0.481199
      4 C                    -0.092325
      5 C                     0.075907
      6 C                     0.044784
      7 C                    -0.001615
      8 C                     0.077423
      9 C                     0.165695
     10 N                    -0.497465
     11 N                    -0.476801
     12 C                     0.218560
     13 C                     0.259693
     14 S                     0.592678
     15 N                    -0.560132
     16 C                    -0.215780
     17 S                     0.376843
     18 C                    -0.115694
     19 C                    -0.250995
     20 S                     0.282644
     21 C                     0.162907
     22 C                     0.052248
     23 C                    -0.293146
     24 C                    -0.092569
     25 N                    -0.404265
     26 S                     0.292170
     27 C                     0.114036
     28 C                    -0.311768
     29 C                    -0.228388
     30 H                     0.093014
     31 H                     0.099189
     32 H                     0.112451
     33 H                     0.109571
     34 H                     0.125546
     35 H                     0.114769
     36 H                     0.109507
     37 H                     0.139582
     38 H                     0.093253
     39 C                    -0.176240
     40 H                     0.121653
     41 H                     0.088587
     42 H                     0.104160
     43 C                    -0.181581
     44 H                     0.100033
     45 C                    -0.183547
     46 H                     0.109613
     47 H                     0.083895
     48 H                     0.091635
     49 C                    -0.179806
     50 H                     0.095725
     51 C                    -0.320776
     52 H                     0.089802
     53 H                     0.109608
     54 H                     0.100972
     55 H                     0.103122
     56 C                     0.285359
     57 C                    -0.115449
     58 N                    -0.462718
     59 C                    -0.083812
     60 C                     0.095428
     61 C                     0.038919
     62 C                    -0.019906
     63 C                     0.026924
     64 C                     0.239503
     65 N                    -0.470922
     66 N                    -0.546151
     67 C                     0.246214
     68 C                     0.245773
     69 S                     0.608376
     70 N                    -0.542894
     71 C                    -0.211220
     72 S                     0.340120
     73 C                    -0.127663
     74 C                    -0.228837
     75 S                     0.320191
     76 C                     0.113625
     77 C                     0.063052
     78 C                    -0.325270
     79 C                    -0.066043
     80 N                    -0.420059
     81 S                     0.275457
     82 C                     0.122095
     83 C                    -0.311021
     84 C                    -0.261121
     85 H                     0.096977
     86 H                     0.094834
     87 H                     0.097058
     88 H                     0.124941
     89 H                     0.144380
     90 H                     0.105224
     91 H                     0.116621
     92 H                     0.133181
     93 H                     0.109157
     94 C                    -0.176391
     95 H                     0.106805
     96 H                     0.092056
     97 H                     0.114935
     98 C                    -0.184406
     99 H                     0.090090
    100 C                    -0.172198
    101 H                     0.088369
    102 H                     0.091586
    103 H                     0.092101
    104 C                    -0.174689
    105 H                     0.095682
    106 C                    -0.322310
    107 H                     0.091489
    108 H                     0.105357
    109 H                     0.097746
    110 H                     0.101766
  ----------------------------------------
  Sum of atomic charges =     0.000000

 -----------------------------------------------------------------
                    Cartesian Multipole Moments
 -----------------------------------------------------------------
    Charge (ESU x 10^10)
                 0.0000
    Dipole Moment (Debye)
         X      -1.2819      Y      -1.0326      Z      -4.9675
       Tot       5.2331
    Quadrupole Moments (Debye-Ang)
        XX    -433.2164     XY      -0.8657     YY    -412.1873
        XZ      -4.0584     YZ       1.9037     ZZ    -442.4693
    Octopole Moments (Debye-Ang^2)
       XXX    -307.6779    XXY    -100.5980    XYY     -74.3648
       YYY     236.2063    XXZ    -174.4239    XYZ     -18.0981
       YYZ    -149.5026    XZZ      48.1313    YZZ     -49.2831
       ZZZ     -87.4693
    Hexadecapole Moments (Debye-Ang^3)
      XXXX -120014.2639   XXXY    2103.9401   XXYY  -25855.5833
      XYYY    -133.7475   YYYY  -35581.2245   XXXZ    -133.7573
      XXYZ     316.7758   XYYZ     -10.1979   YYYZ    -931.5426
      XXZZ  -22725.3203   XYZZ     -57.1748   YYZZ   -8299.5637
      XZZZ      -7.9594   YZZZ     336.3436   ZZZZ  -12085.0185
 -----------------------------------------------------------------
Archival summary:
1\1\mn246\SP\ProcedureUnspecified\6-31G**\8105042\afmv_a\ThuOct1123:14:092018ThuOct1123:14:092018\0\\#,ProcedureUnspecified,6-31G**,\\0,1\S\C,1,1.7245\C,2,1.3239,1,110.668\C,3,1.41598,2,114.262,1,-4.6725,0\C,4,1.39173,3,115.262,2,4.99116,0\C,5,1.40157,4,125.431,3,177.232,0\N,6,1.35785,5,116.99,4,-30.8793,0\C,7,1.307,6,121.155,5,178.817,0\H,8,1.08892,7,117.12,6,179.016,0\C,2,1.42845,1,121.029,3,153.531,0\N,10,1.306,2,115.353,1,-25.0252,0\C,11,1.35992,10,109.516,2,-171.739,0\H,12,1.08202,11,122.922,10,-174.193,0\C,12,1.39825,11,113.339,10,-1.71264,0\H,14,1.08188,12,128.075,11,179.157,0\C,6,1.44158,5,122.24,4,151.528,0\N,16,1.29955,6,122.774,5,-1.15882,0\C,16,1.40835,6,117.811,5,172.767,0\N,18,1.36731,16,112.483,6,172.27,0\C,3,1.44162,2,135.8,1,-177.855,0\H,20,1.08461,3,128.831,2,0.562068,0\C,20,1.38593,3,111.971,2,-176.896,0\H,22,1.08216,20,121.605,3,-173.779,0\C,8,1.44584,7,124.905,6,6.23575,0\C,24,1.50925,8,117.991,7,170.775,0\C,25,1.39258,24,120.706,8,-131.844,0\H,26,1.08879,25,116.552,24,-15.9797,0\N,26,1.34954,25,122.584,24,179.551,0\C,28,1.36069,26,118.493,25,2.09096,0\C,29,1.34405,28,122.556,26,-6.83742,0\H,30,1.08577,29,118.838,28,-170.505,0\C,30,1.38606,29,118.956,28,0.159831,0\H,32,1.08601,30,121.079,29,174.285,0\C,29,1.46966,28,113.447,26,-177.914,0\H,34,1.09633,29,113.765,28,140.45,0\H,34,1.09724,29,111.637,28,27.3118,0\C,34,1.48136,29,114.195,28,-93.3968,0\H,37,1.09706,34,107.348,29,17.3282,0\H,37,1.09794,34,109.62,29,-87.6622,0\C,37,1.53317,34,110.354,29,143.512,0\H,40,1.09689,37,105.615,34,-60.3823,0\H,40,1.09696,37,108.544,34,62.6932,0\C,40,1.58481,37,112.442,34,-175.631,0\H,43,1.09709,40,112.142,37,49.903,0\H,43,1.09753,40,107.67,37,-61.5065,0\C,43,1.57325,40,114.034,37,173.738,0\H,46,1.09726,43,111.86,40,179.531,0\H,46,1.09782,43,103.359,40,-59.388,0\C,46,1.58155,43,116.654,40,57.9267,0\H,49,1.09677,46,113.151,43,-62.6095,0\H,49,1.09728,46,103.408,43,169.024,0\H,49,1.09778,46,107.782,43,63.8095,0\S,19,1.59511,18,101.803,16,12.6291,0\S,14,1.64676,12,111.613,11,11.8734,0\S,4,1.73138,3,114.87,2,-175.363,0\H,13,2.26051,12,108.902,11,-120.594,0\C,56,1.08611,13,125.705,12,-150.491,0\C,57,1.40576,56,119.914,13,-18.1999,0\C,58,1.40392,57,116.708,56,-179.973,0\H,59,1.08885,58,123.654,57,-175.708,0\N,59,1.29919,58,125.857,57,-3.52744,0\C,61,1.33838,59,115.207,58,9.14431,0\C,62,1.37976,61,126.761,59,-5.46241,0\H,63,1.08631,62,121.553,61,-173.389,0\C,58,1.4684,57,125.402,56,0.490261,0\C,65,1.39398,58,118.275,57,-51.12,0\H,66,1.08957,65,126.761,58,0.86874,0\N,66,1.32766,65,122.687,58,171.007,0\C,68,1.37659,66,116.862,65,3.97209,0\C,69,1.42691,68,123.636,66,-3.95136,0\N,70,1.3221,69,128.471,68,-170.717,0\C,70,1.35737,69,118.866,68,-1.30151,0\N,72,1.33319,70,117.294,69,-172.558,0\C,69,1.46928,68,113.906,66,178.965,0\C,74,1.38742,69,125.25,68,29.4365,0\C,75,1.43154,74,115.023,69,170.177,0\C,76,1.36108,75,117.165,74,4.16249,0\C,77,1.43096,76,127.386,75,-162.26,0\N,78,1.31886,77,114.692,76,143.105,0\C,79,1.36773,78,110.352,77,-172.749,0\H,80,1.08193,79,124.562,78,-179.35,0\C,80,1.38804,79,115.149,78,0.734492,0\H,82,1.08253,80,122.935,79,164.904,0\C,76,1.43499,75,110.659,74,-170.515,0\H,84,1.08336,76,125.732,75,-172.428,0\C,84,1.37318,76,113.239,75,3.6111,0\H,86,1.08201,84,130.283,76,-164.761,0\C,62,1.49945,61,115.74,59,172.656,0\H,88,1.09667,62,113.019,61,114.229,0\H,88,1.09754,62,108.5,61,-132.557,0\C,88,1.60115,62,117.825,61,-3.98204,0\H,91,1.09671,88,105.953,62,44.4678,0\H,91,1.09689,88,111.086,62,-67.7806,0\C,91,1.55474,88,112.2,62,171.671,0\H,94,1.09671,91,102.225,88,-64.7237,0\H,94,1.09754,91,108.135,88,-178.188,0\C,94,1.51537,91,117.126,88,61.3392,0\H,97,1.09642,94,109.744,91,74.3681,0\H,97,1.09702,94,105.584,91,-39.765,0\C,97,1.55399,94,114.139,91,-157.437,0\H,100,1.09699,97,107.842,94,-177.297,0\H,100,1.09732,97,110.375,94,-60.0124,0\C,100,1.55399,97,114.32,94,60.075,0\H,103,1.09616,100,105.831,97,-66.4934,0\H,103,1.09701,100,118.938,97,43.7121,0\H,103,1.09817,100,113.606,97,172.261,0\S,73,1.6086,72,103.866,70,-1.29168,0\S,75,1.72145,74,128.557,69,16.4339,0\S,78,1.73616,77,128.408,76,-29.4968,0\S,77,1.77393,76,105.973,75,-3.93292,0\\\@

 Total job time:  90.60s(wall), 1073.80s(cpu) 
 Thu Oct 11 23:14:09 2018

        *************************************************************
        *                                                           *
        *  Thank you very much for using Q-Chem.  Have a nice day.  *
        *                                                           *
        *************************************************************


