
Running Job 1 of 1 ./7/33.qcin
qchem ./7/33.qcin_59916.0 /tmpu/cab_g/afmv_a/scratch_qchem/qchem59916/ 1
/tmpu/appuserlic/qchem4.4/serial-multicore/exe/qcprog.exe_s ./7/33.qcin_59916.0 /tmpu/cab_g/afmv_a/scratch_qchem/qchem59916/
Check license passed

                  Welcome to Q-Chem
     A Quantum Leap Into The Future Of Chemistry


 Q-Chem 4.4, Q-Chem, Inc., Pleasanton, CA (2016)

 Y. Shao,  Z. Gan,  E. Epifanovsky,  A. T. B. Gilbert,  M. Wormit,  
 J. Kussmann,  A. W. Lange,  A. Behn,  J. Deng,  X. Feng,  D. Ghosh,  
 M. Goldey,  P. R. Horn,  L. D. Jacobson,  I. Kaliman,  F. Rob,  
 R. Z. Khaliullin,  T. Kus,  A. Landau,  J. Liu,  E. I. Proynov,  Y. M. Rhee,  
 R. M. Richard,  M. A. Rohrdanz,  R. P. Steele,  E. J. Sundstrom,  
 H. L. Woodcock III,  P. M. Zimmerman,  D. Zuev,  B. Albrecht,  E. Alguire,  
 B. Austin,  S. A. Baeppler,  G. J. O. Beran,  Y. A. Bernard,  E. Berquist,  
 K. Brandhorst,  K. B. Bravaya,  S. T. Brown,  D. Casanova,  C.-M. Chang,  
 Y. Chen,  S. H. Chien,  K. D. Closser,  M. P. Coons,  D. L. Crittenden,  
 S. Dasgupta,  M. Diedenhofen,  R. A. DiStasio Jr.,  H. Do,  A. D. Dutoi,  
 R. G. Edgar,  P.-T. Fang,  S. Fatehi,  Q. Feng,  L. Fusti-Molnar,  
 A. Ghysels,  A. Golubeva-Zadorozhnaya,  J. Gomes,  A. Gunina,  
 M. W. D. Hanson-Heine,  P. H. P. Harbach,  A. W. Hauser,  J. E. Herr,  
 E. G. Hohenstein,  Z. C. Holden,  K. Hui,  T.-C. Jagau,  H. Ji,  B. Kaduk,  
 K. Khistyaev,  Jaehoon Kim,  Jihan Kim,  R. A. King,  P. Klunzinger,  
 K. Koh,  D. Kosenkov,  T. Kowalczyk,  C. M. Krauter,  A. Kunitsa,  
 K. U. Lao,  A. Laurent,  K. V. Lawler,  J. Lee,  D. Lefrancois,  S. Lehtola,  
 S. V. Levchenko,  C. Y. Lin,  Y.-S. Lin,  F. Liu,  E. Livshits,  
 R. C. Lochan,  A. Luenser,  P. Manohar,  S. F. Manzer,  S.-P. Mao,  Y. Mao,  
 N. Mardirossian,  A. V. Marenich,  L. A. Martinez-Martinez,  S. A. Maurer,  
 N. J. Mayhall,  J.-M. Mewes,  A. F. Morrison,  K. Nanda,  T. S. Nguyen-Beck,  
 C. M. Oana,  R. Olivares-Amaya,  D. P. O'Neill,  J. A. Parkhill,  
 T. M. Perrine,  R. Peverati,  P. A. Pieniazek,  F. Plasser,  A. Prociuk,  
 D. R. Rehn,  E. Rosta,  N. J. Russ,  N. Sergueev,  S. M. Sharada,  
 S. Sharma,  D. W. Small,  A. Sodt,  T. Stauch,  T. Stein,  D. Stuck,  
 Y.-C. Su,  A. J. W. Thom,  T. Tsuchimochi,  L. Vogt,  O. Vydrov,  T. Wang,  
 M. A. Watson,  J. Wenzel,  A. White,  C. F. Williams,  V. Vanovschi,  
 K. Yao,  S. Yeganeh,  S. R. Yost,  Z.-Q. You,  I. Y. Zhang,  X. Zhang,  
 Y. Zhao,  B. R. Brooks,  G. K. L. Chan,  D. M. Chipman,  C. J. Cramer,  
 W. A. Goddard III,  M. S. Gordon,  W. J. Hehre,  A. Klamt,  
 H. F. Schaefer III,  M. W. Schmidt,  C. D. Sherrill,  D. G. Truhlar,  
 A. Warshel,  X. Xu,  A. Aspuru-Guzik,  R. Baer,  A. T. Bell,  N. A. Besley,  
 J.-D. Chai,  A. Dreuw,  B. D. Dunietz,  T. R. Furlani,  S. R. Gwaltney,  
 C.-P. Hsu,  Y. Jung,  J. Kong,  D. S. Lambrecht,  W. Liang,  C. Ochsenfeld,  
 V. A. Rassolov,  L. V. Slipchenko,  J. E. Subotnik,  T. Van Voorhis,  
 J. M. Herbert,  A. I. Krylov,  P. M. W. Gill,  M. Head-Gordon

 Contributors to earlier versions of Q-Chem not listed above: 
 R. D. Adamson,  J. Baker,  E. F. C. Byrd,  A. K. Chakraborty,  C.-L. Cheng,  
 H. Dachsel,  R. J. Doerksen,  G. Hawkins,  A. Heyden,  S. Hirata,  
 G. Kedziora,  F. J. Keil,  C. Kelley,  P. P. Korambath,  W. Kurlancheek,  
 A. M. Lee,  M. S. Lee,  D. Liotard,  I. Lotan,  P. E. Maslen,  N. Nair,  
 D. Neuhauser,  R. Olson,  B. Peters,  J. Ritchie,  N. E. Schultz,  
 N. Shenvi,  A. C. Simmonett,  K. S. Thanthiriwatte,  Q. Wu,  W. Zhang

 Please cite Q-Chem as follows:
 Y. Shao et al., Mol. Phys. 113, 184-215 (2015)
 DOI: 10.1080/00268976.2014.952696

 Q-Chem 4.4.2 for Intel X86 Linux

 Parts of Q-Chem use Armadillo 5.200.1 (Boston Tea Smuggler).
 http://arma.sourceforge.net/

 Q-Chem begins on Thu Oct 11 23:14:10 2018  

Host: 
0

     Scratch files written to /tmpu/cab_g/afmv_a/scratch_qchem/qchem59916//
 Dec716 11556_ 22328  22283 4050   
Processing $rem in /tmpu/appuserlic/qchem4.4/serial-multicore/config/preferences.
 MEM_TOTAL  2000 
FILE_GEOM_ORG=        593

Checking the input file for inconsistencies... 	...done.

--------------------------------------------------------------
User input:
--------------------------------------------------------------
$comment
SP
$end

$rem
MEM_STATIC 5000
MEM_TOTAL 20000
JOBTYPE SP
EXCHANGE B3LYP
BASIS 6-31g(d,p)
$end

$molecule
0 1
C           8.705000    -18.167000     -1.318000
C           9.864000    -17.672000     -0.700000
N           8.598000    -18.106000     -2.653000
C          11.026000    -17.355000     -1.469000
C           9.613000    -17.669000     -3.328000
C          10.881000    -17.326000     -2.878000
C          12.025000    -16.914000     -3.762000
C          13.351000    -17.306000     -3.439000
C          11.894000    -16.076000     -4.856000
N          14.411000    -17.027000     -4.187000
N          10.729000    -15.491000     -5.197000
C          12.944000    -15.854000     -5.720000
C          14.234000    -16.308000     -5.283000
S          10.965000    -14.642000     -6.522000
N          12.542000    -15.016000     -6.749000
C          15.436000    -15.906000     -6.066000
S          15.537000    -14.446000     -7.002000
C          16.706000    -16.455000     -5.942000
C          17.230000    -14.631000     -7.254000
S          17.212000    -17.991000     -5.183000
C          17.716000    -15.704000     -6.488000
C          18.168000    -13.764000     -7.866000
C          18.902000    -17.632000     -5.788000
C          18.932000    -16.400000     -6.473000
N          17.731000    -12.880000     -8.824000
S          19.681000    -13.203000     -7.137000
C          18.622000    -11.940000     -9.077000
C          19.787000    -12.043000     -8.427000
C           7.524000    -18.570000     -0.462000
H           9.993000    -17.767000      0.374000
H          11.972000    -17.113000     -0.994000
H           9.448000    -17.528000     -4.395000
H          13.491000    -17.967000     -2.585000
H          19.700000    -18.345000     -5.625000
H          19.767000    -16.000000     -7.038000
H          18.323000    -11.163000     -9.768000
H          20.564000    -11.309000     -8.596000
H           7.249000    -17.766000      0.231000
C           7.767000    -19.848000      0.315000
H           6.651000    -18.794000     -1.089000
H           8.522000    -19.687000      1.094000
H           8.159000    -20.695000     -0.263000
C           6.504000    -20.482000      1.003000
H           5.752000    -20.867000      0.303000
C           5.783000    -19.551000      1.916000
H           6.918000    -21.325000      1.570000
H           4.871000    -20.091000      2.198000
H           5.576000    -18.599000      1.413000
C           6.524000    -19.282000      3.217000
H           6.939000    -20.179000      3.693000
C           5.588000    -18.454000      4.150000
H           7.367000    -18.623000      2.975000
H           4.738000    -19.148000      4.156000
H           5.302000    -17.509000      3.673000
H           6.041000    -18.202000      5.117000
C          14.042000    -19.902000     -6.413000
C          15.219000    -20.675000     -6.383000
N          13.892000    -18.982000     -7.373000
C          16.226000    -20.483000     -7.302000
C          14.880000    -18.796000     -8.244000
C          16.149000    -19.447000     -8.255000
C          17.344000    -19.007000     -8.994000
C          17.558000    -17.638000     -9.370000
C          18.364000    -19.940000     -9.475000
N          18.671000    -17.141000     -9.934000
N          18.354000    -21.265000     -9.300000
C          19.448000    -19.424000    -10.267000
C          19.617000    -18.001000    -10.379000
S          19.629000    -21.848000    -10.120000
N          20.296000    -20.411000    -10.610000
C          20.889000    -17.497000    -10.887000
S          22.365000    -18.510000    -11.259000
C          21.262000    -16.168000    -10.985000
C          23.282000    -17.032000    -11.754000
S          20.295000    -14.710000    -10.660000
C          22.529000    -15.931000    -11.479000
C          24.658000    -17.082000    -12.184000
C          21.652000    -13.783000    -11.362000
C          22.782000    -14.524000    -11.575000
N          25.106000    -18.343000    -12.349000
S          25.698000    -15.839000    -12.641000
C          26.430000    -18.324000    -12.720000
C          26.945000    -17.064000    -13.042000
C          12.849000    -20.186000     -5.427000
H          15.327000    -21.440000     -5.619000
H          17.011000    -21.216000     -7.142000
H          14.632000    -18.042000     -8.990000
H          16.804000    -16.880000     -9.165000
H          21.600000    -12.703000    -11.336000
H          23.649000    -14.113000    -12.081000
H          26.992000    -19.228000    -12.913000
H          27.941000    -16.778000    -13.353000
H          13.369000    -20.412000     -4.487000
C          12.004000    -21.475000     -5.606000
H          12.244000    -19.282000     -5.289000
H          12.723000    -22.303000     -5.648000
H          11.595000    -21.326000     -6.613000
C          10.919000    -21.814000     -4.529000
H          10.089000    -21.099000     -4.593000
C          11.419000    -21.877000     -3.138000
H          10.600000    -22.820000     -4.827000
H          11.687000    -20.823000     -2.992000
H          12.288000    -22.530000     -2.987000
C          10.309000    -22.172000     -2.061000
H           9.447000    -21.519000     -2.242000
C          10.827000    -22.026000     -0.623000
H           9.875000    -23.179000     -2.091000
H          10.078000    -22.274000      0.140000
H          11.136000    -20.982000     -0.493000
H          11.687000    -22.676000     -0.421000
$end

--------------------------------------------------------------
 ----------------------------------------------------------------
             Standard Nuclear Orientation (Angstroms)
    I     Atom           X                Y                Z
 ----------------------------------------------------------------
    1      C      -9.0459279154    -0.6085589235     0.0924098449
    2      C      -8.4251038961    -1.0286895634    -1.0943073845
    3      N      -8.3310278742    -0.5664825273     1.2257864407
    4      C      -7.0037571535    -1.1538626097    -1.1730420385
    5      C      -7.0657621209    -0.8341524142     1.1604075056
    6      C      -6.2794962149    -1.0778045024     0.0421979613
    7      C      -4.7913276633    -1.2891947150     0.0667853576
    8      C      -3.9837225638    -0.7877034285    -0.9879892595
    9      C      -4.1326582015    -2.0399862882     1.0252776913
   10      N      -2.6609537437    -0.8878435202    -1.0226246577
   11      N      -4.7755487313    -2.7140635739     1.9989524726
   12      C      -2.7568041361    -2.0748244374     1.0892456045
   13      C      -2.0537980921    -1.5254529077    -0.0355470095
   14      S      -3.6871348367    -3.4171121248     2.9226406934
   15      N      -2.3517655397    -2.8599129805     2.1580153248
   16      C      -0.5808388387    -1.7293966209    -0.1266238984
   17      S       0.2529105253    -3.0852583987     0.5693630537
   18      C       0.2789478036    -1.0613358971    -0.9892586989
   19      C       1.7208841338    -2.7008599751    -0.2438216343
   20      S       0.0215774915     0.4493174432    -1.9074634735
   21      C       1.5064790121    -1.6516155539    -1.1534356120
   22      C       2.9461821469    -3.4080698973    -0.3114670713
   23      C       1.7704743597     0.3245688500    -2.4335846886
   24      C       2.3680336942    -0.8343561417    -1.8971476416
   25      N       3.2876032678    -4.2484992731     0.7216346093
   26      S       3.7911419012    -3.8654937713    -1.7987926621
   27      C       4.2726763244    -5.0636352146     0.3950240306
   28      C       4.7979338655    -4.8934253507    -0.8237733758
   29      C     -10.5456375553    -0.4076225361     0.1124489072
   30      H      -8.9724202115    -1.0124877464    -2.0320303458
   31      H      -6.5016252240    -1.3337514247    -2.1188795191
   32      H      -6.5449111209    -0.9003426465     2.1143090146
   33      H      -4.4688715693    -0.1908398024    -1.7588467393
   34      H       2.2102007771     1.1016972885    -3.0455112102
   35      H       3.4201806845    -1.0938503340    -1.9429676687
   36      H       4.5507654036    -5.8061910848     1.1311546193
   37      H       5.6146958801    -5.5237386966    -1.1503478658
   38      H     -11.0654056504    -1.2924210989    -0.2738963148
   39      C     -10.9873226947     0.8179929815    -0.6614004584
   40      H     -10.8972592984    -0.2248568611     1.1363594785
   41      H     -10.8280496261     0.6721570267    -1.7366450649
   42      H     -10.4487259146     1.7479967065    -0.4374281834
   43      C     -12.4839343917     1.2534073576    -0.4588251653
   44      H     -12.7181401745     1.6147385181     0.5502914997
   45      C     -13.4708527008     0.1767066920    -0.7535774813
   46      H     -12.6062071858     2.0841262321    -1.1648630647
   47      H     -14.4353690754     0.5908647758    -0.4356950426
   48      H     -13.2074012645    -0.7454932608    -0.2222559329
   49      C     -13.6174942945    -0.1221303182    -2.2379075269
   50      H     -13.6923656289     0.7699532952    -2.8719352156
   51      C     -14.8009284883    -1.1213071573    -2.4203853427
   52      H     -12.7152697098    -0.6649131092    -2.5459199301
   53      H     -15.5735452305    -0.5244646024    -1.9193720351
   54      H     -14.6165470075    -2.0471717148    -1.8625965918
   55      H     -14.9804378915    -1.4053726500    -3.4648398271
   56      C      -2.0251572134     2.1110959128     0.9670956867
   57      C      -1.2139258773     2.9992212756     0.2343644541
   58      N      -1.4498613462     1.2656230097     1.8300616393
   59      C       0.1563275129     2.9942324571     0.3679861532
   60      C      -0.1239638859     1.2604685440     1.9365996892
   61      C       0.8011943714     2.0409877006     1.1821760382
   62      C       2.2476797255     1.7949023005     1.0602412348
   63      C       2.8267104649     0.4934206920     1.2396904638
   64      C       3.2155070441     2.8684633233     0.8299652880
   65      N       4.1121090384     0.1672400571     1.0270153579
   66      N       2.9235504060     4.1651421362     0.6894826281
   67      C       4.6156553808     2.5398286235     0.8173213531
   68      C       5.0097895607     1.1575588106     0.8125871728
   69      S       4.3423813621     4.9479299870     0.5795922341
   70      N       5.3577994176     3.6368677867     0.5793102121
   71      C       6.3891357834     0.8365370733     0.4598648429
   72      S       7.6433790489     2.0284385366    -0.1312136060
   73      C       6.9240952980    -0.4321573979     0.3212767615
   74      C       8.8657639760     0.7037095139    -0.2770426377
   75      S       6.1622513413    -2.0069026970     0.6472353920
   76      C       8.2548479916    -0.4903892154    -0.0409390914
   77      C      10.2060385605     0.9359123939    -0.7571695593
   78      C       7.7816328776    -2.7214220358     0.4009681502
   79      C       8.7039895800    -1.8492601838    -0.1088767453
   80      N      10.4878898521     2.2467792701    -0.8994294706
   81      S      11.4715470642    -0.1461949324    -1.0082272448
   82      C      11.7612980137     2.4000751946    -1.3953226179
   83      C      12.5323859176     1.2339094405    -1.4399306698
   84      C      -3.5952792311     2.1817792657     0.8907955355
   85      H      -1.6852606736     3.7033975889    -0.4457562923
   86      H       0.5847936434     3.7900512787    -0.2338470282
   87      H       0.2240844358     0.5508005901     2.6861127051
   88      H       2.2098401557    -0.3550069034     1.5308032203
   89      H       7.8718751792    -3.7991029482     0.4164658267
   90      H       9.7480500725    -2.1212888395    -0.2210556133
   91      H      12.1988007254     3.3717489455    -1.5817374751
   92      H      13.5462113433     1.0827726569    -1.7861223494
   93      H      -3.7706326433     2.3806755533    -0.1744591043
   94      C      -4.3351878362     3.3843919378     1.5341034066
   95      H      -4.0343012267     1.2102341183     1.1470077797
   96      H      -3.8522635532     4.2845522264     1.1330989282
   97      H      -4.0424849698     3.2792703613     2.5861516404
   98      C      -5.8810273091     3.5132607858     1.3199816091
   99      H      -6.4045774620     2.7223121136     1.8718116874
  100      C      -6.3174788334     3.5100869598    -0.0936484676
  101      H      -6.0943941666     4.5014660851     1.7448649704
  102      H      -6.0479389252     2.4818813646    -0.3660406333
  103      H      -5.8061222410     4.2363305325    -0.7382070052
  104      C      -7.8771747105     3.5927129021    -0.2925849517
  105      H      -8.3651882975     2.8697707111     0.3718029827
  106      C      -8.2987724700     3.3803858822    -1.7536313458
  107      H      -8.3408511406     4.5468498230    -0.0134220882
  108      H      -9.3793773970     3.4815323880    -1.9171439631
  109      H      -7.9885649514     2.3678019350    -2.0378179839
  110      H      -7.8243891240     4.0983527239    -2.4336225629
 ----------------------------------------------------------------
 Molecular Point Group                 C1    NOp =  1
 Largest Abelian Subgroup              C1    NOp =  1
 Nuclear Repulsion Energy = 12094.8027264114 hartrees
 There are      270 alpha and      270 beta electrons
 Requested basis set is 6-31G(d,p)
 There are 406 shells and 1262 basis functions

 Total QAlloc Memory Limit  20000 MB
 Mega-Array Size      4888 MB
 MEM_STATIC part      5000 MB
 A cutoff of  1.0D-08 yielded  16227 shell pairs
 There are    166004 function pairs
 
 -------------------------------------------------------
 OpenMP Integral Computing Module                       
 Release: version 1.0, May 2013, Q-Chem Inc. Pittsburgh 
 -------------------------------------------------------
 Integral Job Info:
 Integral job number is                      11
 Integral operator is                         1
 short-range coefficients                     0
 long-range coefficients              100000000
 Omega coefficients                           0
 if combine SR and LR in K                    0
 Integral screening is                        0
 Integral computing path is                   2
 max size of driver memory is            800000
 size of driver memory is                593474
 size of scratch memory is             15166112
 max col of scratch BK array               1296
 max len of scratch array in speh3          155
 max len of scratch index in speh4           18
 max int batch size is                      520
 min int batch size is                       52
 fixed nKL is                                52
 max L of basis functions is                  2
 order of int derivative is                   0
 number of shells is                        406
 number of basis is                        1262
 number of cartesian basis is              1262
 number of contracted shell pairs         16227
 number of primitive shell pairs          49256
 maxK2 (contraction) of shell pair           36
 max number of K2 of shell pair               1
 max number of CS2 of shell pair           1717
 max number of PS2 of shell pair           9396
 mem total for path MDJ                  363368
 -------------------------------------------------------
 Smallest overlap matrix eigenvalue = 4.82E-04

 Scale SEOQF with 1.000000e-02/1.000000e-02/1.000000e-01

 Standard Electronic Orientation quadrupole field applied
 Nucleus-field energy     =     0.0000000198 hartrees
 Guess from superposition of atomic densities
 Warning:  Energy on first SCF cycle will be non-variational
 A restricted hybrid HF-DFT SCF calculation will be
 performed using Pulay DIIS extrapolation
 Exchange:     0.2000 Hartree-Fock + 0.0800 Slater + 0.7200 B88
 Correlation:  0.1900 VWN1RPA + 0.8100 LYP
 Using SG-1 standard quadrature grid
 SCF converges when DIIS error is below 1.0E-05
 using 16 threads for integral computing 
 -------------------------------------------------------
 OpenMP BLAS3 based DFT computing Module                
 Release: version 1.0, May 2013, Q-Chem Inc. Pittsburgh 
 -------------------------------------------------------
 ---------------------------------------
  Cycle       Energy         DIIS Error
 ---------------------------------------
    1   -5680.1848438207      2.15E-02
    2   -5662.4642440881      2.18E-03
    3   -5661.1805417885      3.25E-03
    4   -5663.3601344600      8.25E-04
    5   -5663.4727758074      3.91E-04
    6   -5663.4926922366      2.30E-04
    7   -5663.5027815830      6.25E-05
    8   -5663.5034746005      2.42E-05
    9   -5663.5035886992      8.09E-06 Convergence criterion met
 ---------------------------------------
 SCF time:  CPU 1171.53 s  wall 94.17 s
 SCF   energy in the final basis set = -5663.5035886992
 Total energy in the final basis set = -5663.5035886992
 
 --------------------------------------------------------------
 
                    Orbital Energies (a.u.)
 --------------------------------------------------------------
 
 Alpha MOs
 -- Occupied --
-88.992 -88.984 -88.933 -88.926 -88.926 -88.917 -88.909 -88.906
-14.383 -14.380 -14.378 -14.371 -14.350 -14.349 -14.342 -14.332
-14.325 -14.323 -10.268 -10.264 -10.263 -10.262 -10.256 -10.254
-10.251 -10.245 -10.238 -10.238 -10.237 -10.237 -10.235 -10.234
-10.234 -10.234 -10.231 -10.231 -10.226 -10.226 -10.226 -10.226
-10.223 -10.221 -10.220 -10.220 -10.216 -10.216 -10.215 -10.213
-10.212 -10.204 -10.202 -10.200 -10.199 -10.199 -10.198 -10.187
-10.187 -10.183 -10.181 -10.181 -10.178 -10.177 -10.177 -10.176
-10.176 -10.174 -10.173 -10.171  -8.047  -8.039  -7.995  -7.986
 -7.985  -7.974  -7.967  -7.964  -6.012  -6.006  -6.005  -6.005
 -5.999  -5.997  -5.958  -5.955  -5.952  -5.950  -5.950  -5.947
 -5.946  -5.943  -5.943  -5.939  -5.935  -5.932  -5.931  -5.929
 -5.928  -5.925  -5.923  -5.920  -1.037  -1.030  -0.968  -0.966
 -0.964  -0.952  -0.951  -0.937  -0.914  -0.907  -0.899  -0.891
 -0.839  -0.837  -0.835  -0.825  -0.817  -0.810  -0.808  -0.805
 -0.801  -0.801  -0.795  -0.791  -0.789  -0.778  -0.766  -0.762
 -0.749  -0.748  -0.738  -0.737  -0.722  -0.718  -0.712  -0.711
 -0.696  -0.693  -0.676  -0.674  -0.657  -0.649  -0.644  -0.639
 -0.637  -0.629  -0.624  -0.618  -0.612  -0.606  -0.601  -0.599
 -0.593  -0.592  -0.591  -0.584  -0.575  -0.573  -0.557  -0.551
 -0.546  -0.544  -0.538  -0.533  -0.521  -0.518  -0.516  -0.514
 -0.509  -0.500  -0.497  -0.492  -0.489  -0.483  -0.480  -0.475
 -0.474  -0.470  -0.469  -0.465  -0.463  -0.454  -0.453  -0.450
 -0.447  -0.443  -0.441  -0.436  -0.434  -0.433  -0.432  -0.430
 -0.429  -0.426  -0.425  -0.420  -0.417  -0.415  -0.415  -0.412
 -0.410  -0.409  -0.408  -0.402  -0.401  -0.400  -0.399  -0.397
 -0.394  -0.392  -0.391  -0.390  -0.389  -0.386  -0.384  -0.381
 -0.378  -0.375  -0.373  -0.367  -0.364  -0.362  -0.354  -0.352
 -0.351  -0.348  -0.345  -0.343  -0.341  -0.341  -0.339  -0.338
 -0.335  -0.331  -0.331  -0.329  -0.327  -0.326  -0.325  -0.322
 -0.308  -0.307  -0.307  -0.304  -0.302  -0.300  -0.298  -0.297
 -0.294  -0.293  -0.292  -0.286  -0.284  -0.283  -0.281  -0.278
 -0.273  -0.271  -0.264  -0.262  -0.254  -0.249  -0.248  -0.244
 -0.243  -0.242  -0.232  -0.226  -0.191  -0.190
 -- Virtual --
 -0.113  -0.109  -0.073  -0.071  -0.036  -0.034  -0.024  -0.022
 -0.016  -0.014  -0.009  -0.006  -0.004  -0.004  -0.002   0.003
  0.006   0.011   0.017   0.018   0.031   0.033   0.034   0.037
  0.051   0.054   0.063   0.071   0.071   0.073   0.080   0.083
  0.087   0.097   0.098   0.100   0.101   0.105   0.106   0.112
  0.115   0.116   0.118   0.119   0.120   0.124   0.124   0.126
  0.127   0.133   0.136   0.138   0.139   0.141   0.142   0.148
  0.152   0.155   0.156   0.158   0.160   0.161   0.163   0.166
  0.169   0.171   0.172   0.177   0.178   0.179   0.182   0.182
  0.186   0.188   0.191   0.193   0.196   0.198   0.201   0.202
  0.205   0.207   0.210   0.214   0.217   0.218   0.221   0.223
  0.225   0.230   0.231   0.235   0.236   0.239   0.242   0.244
  0.246   0.249   0.250   0.251   0.254   0.258   0.260   0.261
  0.265   0.266   0.268   0.273   0.275   0.276   0.278   0.283
  0.287   0.290   0.292   0.295   0.298   0.302   0.304   0.310
  0.313   0.317   0.317   0.323   0.326   0.327   0.328   0.330
  0.332   0.335   0.339   0.339   0.342   0.344   0.348   0.351
  0.352   0.356   0.361   0.361   0.364   0.369   0.371   0.371
  0.376   0.377   0.381   0.385   0.387   0.397   0.401   0.404
  0.407   0.411   0.414   0.421   0.425   0.430   0.432   0.433
  0.443   0.447   0.453   0.455   0.457   0.461   0.465   0.469
  0.470   0.475   0.479   0.480   0.483   0.484   0.490   0.497
  0.498   0.498   0.502   0.503   0.506   0.509   0.513   0.514
  0.515   0.517   0.520   0.524   0.527   0.529   0.533   0.535
  0.536   0.539   0.540   0.543   0.547   0.549   0.551   0.553
  0.555   0.558   0.558   0.560   0.564   0.566   0.571   0.573
  0.574   0.578   0.579   0.583   0.585   0.586   0.587   0.589
  0.592   0.595   0.597   0.599   0.600   0.605   0.606   0.607
  0.611   0.612   0.616   0.616   0.619   0.619   0.622   0.626
  0.629   0.630   0.631   0.634   0.636   0.637   0.639   0.641
  0.643   0.645   0.649   0.651   0.655   0.659   0.661   0.663
  0.665   0.667   0.669   0.671   0.674   0.677   0.681   0.685
  0.688   0.690   0.693   0.694   0.696   0.702   0.703   0.708
  0.709   0.712   0.715   0.721   0.723   0.727   0.729   0.732
  0.736   0.738   0.742   0.746   0.747   0.749   0.751   0.756
  0.757   0.761   0.762   0.763   0.767   0.770   0.772   0.773
  0.777   0.782   0.785   0.786   0.789   0.794   0.795   0.797
  0.803   0.806   0.809   0.811   0.813   0.815   0.816   0.817
  0.821   0.821   0.822   0.824   0.826   0.827   0.829   0.833
  0.834   0.835   0.837   0.840   0.841   0.842   0.843   0.848
  0.851   0.853   0.853   0.856   0.857   0.858   0.861   0.862
  0.864   0.868   0.870   0.873   0.876   0.878   0.878   0.881
  0.883   0.885   0.889   0.891   0.894   0.897   0.898   0.898
  0.901   0.904   0.907   0.909   0.912   0.912   0.914   0.918
  0.922   0.925   0.927   0.928   0.932   0.934   0.936   0.941
  0.942   0.943   0.946   0.948   0.952   0.953   0.953   0.956
  0.958   0.959   0.963   0.966   0.968   0.970   0.973   0.975
  0.978   0.980   0.981   0.983   0.986   0.990   0.997   0.997
  1.000   1.003   1.007   1.009   1.012   1.013   1.015   1.018
  1.019   1.022   1.022   1.028   1.030   1.034   1.036   1.040
  1.041   1.044   1.046   1.048   1.052   1.053   1.058   1.066
  1.068   1.069   1.071   1.075   1.081   1.082   1.089   1.093
  1.096   1.101   1.105   1.107   1.109   1.113   1.118   1.119
  1.124   1.133   1.139   1.141   1.147   1.153   1.155   1.159
  1.162   1.162   1.166   1.172   1.176   1.180   1.187   1.192
  1.197   1.198   1.207   1.216   1.218   1.219   1.227   1.230
  1.234   1.236   1.238   1.244   1.252   1.263   1.265   1.267
  1.273   1.280   1.284   1.290   1.293   1.295   1.298   1.301
  1.303   1.309   1.315   1.329   1.331   1.333   1.339   1.341
  1.346   1.348   1.351   1.355   1.364   1.366   1.368   1.371
  1.373   1.375   1.378   1.384   1.392   1.396   1.401   1.407
  1.411   1.419   1.422   1.429   1.432   1.435   1.439   1.445
  1.450   1.451   1.457   1.461   1.465   1.469   1.472   1.482
  1.484   1.489   1.492   1.496   1.496   1.506   1.511   1.513
  1.517   1.525   1.533   1.544   1.549   1.552   1.554   1.560
  1.574   1.585   1.593   1.595   1.601   1.605   1.607   1.616
  1.624   1.633   1.635   1.638   1.644   1.651   1.653   1.663
  1.671   1.672   1.673   1.681   1.684   1.691   1.692   1.693
  1.695   1.696   1.701   1.702   1.714   1.716   1.717   1.720
  1.722   1.728   1.735   1.741   1.742   1.750   1.752   1.761
  1.763   1.764   1.772   1.774   1.775   1.778   1.782   1.783
  1.786   1.794   1.798   1.803   1.808   1.812   1.814   1.820
  1.827   1.834   1.835   1.840   1.842   1.843   1.846   1.847
  1.851   1.855   1.860   1.862   1.864   1.868   1.874   1.877
  1.881   1.889   1.894   1.895   1.896   1.898   1.902   1.902
  1.906   1.918   1.919   1.925   1.926   1.928   1.931   1.932
  1.936   1.939   1.946   1.947   1.955   1.960   1.961   1.965
  1.969   1.976   1.979   1.987   1.989   1.991   1.998   2.000
  2.002   2.010   2.012   2.012   2.018   2.027   2.033   2.036
  2.037   2.044   2.049   2.052   2.058   2.061   2.062   2.064
  2.079   2.080   2.085   2.088   2.088   2.089   2.092   2.097
  2.101   2.102   2.106   2.114   2.116   2.125   2.132   2.132
  2.137   2.140   2.144   2.147   2.152   2.154   2.157   2.162
  2.166   2.170   2.174   2.176   2.180   2.182   2.185   2.187
  2.191   2.195   2.201   2.210   2.211   2.220   2.223   2.229
  2.232   2.238   2.240   2.243   2.249   2.253   2.256   2.257
  2.264   2.265   2.271   2.274   2.276   2.281   2.285   2.287
  2.292   2.294   2.297   2.298   2.305   2.307   2.311   2.314
  2.318   2.319   2.322   2.331   2.334   2.336   2.340   2.341
  2.346   2.347   2.350   2.354   2.358   2.361   2.365   2.368
  2.375   2.378   2.380   2.381   2.384   2.389   2.393   2.395
  2.397   2.402   2.404   2.414   2.415   2.421   2.422   2.425
  2.428   2.431   2.434   2.437   2.442   2.447   2.451   2.454
  2.457   2.459   2.460   2.462   2.463   2.468   2.471   2.481
  2.483   2.486   2.490   2.496   2.501   2.503   2.506   2.510
  2.512   2.516   2.521   2.531   2.533   2.536   2.540   2.543
  2.549   2.550   2.552   2.559   2.565   2.567   2.569   2.571
  2.576   2.578   2.584   2.587   2.590   2.597   2.601   2.610
  2.612   2.618   2.630   2.634   2.639   2.640   2.644   2.646
  2.648   2.651   2.654   2.663   2.669   2.671   2.674   2.675
  2.676   2.682   2.690   2.692   2.692   2.698   2.701   2.705
  2.715   2.717   2.719   2.728   2.732   2.738   2.745   2.753
  2.756   2.759   2.762   2.766   2.767   2.775   2.782   2.788
  2.794   2.798   2.803   2.807   2.820   2.824   2.825   2.829
  2.832   2.841   2.843   2.853   2.860   2.863   2.873   2.878
  2.882   2.887   2.891   2.897   2.903   2.906   2.911   2.915
  2.921   2.923   2.939   2.939   2.946   2.948   2.956   2.960
  2.961   2.982   2.993   2.995   2.997   3.003   3.009   3.037
  3.040   3.048   3.060   3.085   3.088   3.109   3.118   3.153
  3.180   3.190   3.193   3.199   3.202   3.207   3.235   3.245
  3.254   3.259   3.263   3.266   3.276   3.280   3.282   3.287
  3.294   3.294   3.301   3.308   3.311   3.323   3.326   3.341
  3.354   3.364   3.380   3.391   3.397   3.403   3.425   3.435
  3.439   3.449   3.461   3.476   3.480   3.485   3.534   3.543
  3.564   3.565   3.566   3.574   3.576   3.584   3.594   3.596
  3.600   3.625   3.728   3.737   3.857   3.878   3.925   3.930
  3.934   3.939   3.945   3.954   3.965   3.967   3.998   3.999
  4.006   4.033   4.078   4.098   4.108   4.119   4.120   4.132
  4.138   4.153   4.156   4.162   4.184   4.195   4.206   4.208
  4.224   4.243   4.249   4.266   4.271   4.280   4.284   4.292
  4.318   4.326   4.339   4.354   4.380   4.394   4.407   4.413
  4.428   4.443   4.453   4.457   4.476   4.483   4.492   4.495
  4.499   4.515   4.550   4.552   4.600   4.605   4.667   4.673
  4.687   4.704   4.715   4.717   4.751   4.762   4.794   4.803
 --------------------------------------------------------------
 
          Ground-State Mulliken Net Atomic Charges

     Atom                 Charge (a.u.)
  ----------------------------------------
      1 C                     0.273699
      2 C                    -0.123877
      3 N                    -0.477319
      4 C                    -0.085587
      5 C                     0.089561
      6 C                     0.053375
      7 C                     0.021095
      8 C                     0.059631
      9 C                     0.201627
     10 N                    -0.504632
     11 N                    -0.547313
     12 C                     0.259771
     13 C                     0.296418
     14 S                     0.629128
     15 N                    -0.571159
     16 C                    -0.233522
     17 S                     0.372113
     18 C                    -0.119439
     19 C                    -0.182819
     20 S                     0.268192
     21 C                     0.108198
     22 C                     0.024183
     23 C                    -0.313604
     24 C                    -0.069184
     25 N                    -0.419167
     26 S                     0.281148
     27 C                     0.127850
     28 C                    -0.301313
     29 C                    -0.231633
     30 H                     0.086964
     31 H                     0.102509
     32 H                     0.102064
     33 H                     0.108532
     34 H                     0.130971
     35 H                     0.119412
     36 H                     0.109849
     37 H                     0.122856
     38 H                     0.115144
     39 C                    -0.192372
     40 H                     0.117895
     41 H                     0.094312
     42 H                     0.111786
     43 C                    -0.187999
     44 H                     0.090429
     45 C                    -0.161839
     46 H                     0.088315
     47 H                     0.085354
     48 H                     0.095917
     49 C                    -0.182240
     50 H                     0.093012
     51 C                    -0.310199
     52 H                     0.087473
     53 H                     0.103037
     54 H                     0.102705
     55 H                     0.097994
     56 C                     0.272378
     57 C                    -0.111353
     58 N                    -0.486893
     59 C                    -0.053231
     60 C                     0.058368
     61 C                     0.036848
     62 C                     0.052328
     63 C                     0.056674
     64 C                     0.208131
     65 N                    -0.527378
     66 N                    -0.556428
     67 C                     0.229101
     68 C                     0.315915
     69 S                     0.596371
     70 N                    -0.572685
     71 C                    -0.238346
     72 S                     0.359467
     73 C                    -0.140439
     74 C                    -0.244595
     75 S                     0.307311
     76 C                     0.183717
     77 C                     0.059440
     78 C                    -0.298644
     79 C                    -0.095567
     80 N                    -0.431458
     81 S                     0.280559
     82 C                     0.129482
     83 C                    -0.319635
     84 C                    -0.231371
     85 H                     0.080606
     86 H                     0.112070
     87 H                     0.100851
     88 H                     0.126903
     89 H                     0.121034
     90 H                     0.108160
     91 H                     0.118868
     92 H                     0.136762
     93 H                     0.099870
     94 C                    -0.183615
     95 H                     0.104949
     96 H                     0.088794
     97 H                     0.103788
     98 C                    -0.179345
     99 H                     0.104709
    100 C                    -0.166590
    101 H                     0.094208
    102 H                     0.101229
    103 H                     0.086513
    104 C                    -0.190072
    105 H                     0.105001
    106 C                    -0.316706
    107 H                     0.090256
    108 H                     0.096642
    109 H                     0.102082
    110 H                     0.097664
  ----------------------------------------
  Sum of atomic charges =     0.000000

 -----------------------------------------------------------------
                    Cartesian Multipole Moments
 -----------------------------------------------------------------
    Charge (ESU x 10^10)
                 0.0000
    Dipole Moment (Debye)
         X       2.1686      Y      -0.7229      Z      -3.8154
       Tot       4.4477
    Quadrupole Moments (Debye-Ang)
        XX    -380.1560     XY     -17.3968     YY    -422.2126
        XZ      -3.6857     YZ      -4.8009     ZZ    -448.4679
    Octopole Moments (Debye-Ang^2)
       XXX     791.3737    XXY     -82.5092    XYY     106.2313
       YYY     -39.5290    XXZ    -308.2681    XYZ       5.4120
       YYZ      -7.3688    XZZ      -1.7619    YZZ      -8.9427
       ZZZ      14.8013
    Hexadecapole Moments (Debye-Ang^3)
      XXXX -109409.9656   XXXY   -1054.0634   XXYY  -22176.1110
      XYYY    -307.0489   YYYY  -15491.5629   XXXZ   -1692.1703
      XXYZ    -241.7287   XYYZ    -146.3676   YYYZ    -165.7143
      XXZZ  -21353.2178   XYZZ     185.5706   YYZZ   -3445.2240
      XZZZ     -73.2807   YZZZ    -137.7104   ZZZZ   -4591.2418
 -----------------------------------------------------------------
Archival summary:
1\1\mn246\SP\ProcedureUnspecified\6-31G**\8105042\afmv_a\ThuOct1123:15:472018ThuOct1123:15:472018\0\\#,ProcedureUnspecified,6-31G**,\\0,1\S\C,1,1.78645\C,2,1.37194,1,115.545\C,2,1.38913,1,129.545,3,-179.803,0\C,3,1.40118,2,111.268,1,-7.36601,0\H,5,1.08464,3,118.642,2,-168.719,0\C,3,1.40509,2,112.355,1,-170.162,0\C,5,1.40995,3,114.883,2,6.49998,0\H,8,1.08247,5,129.273,3,179.272,0\C,7,1.41636,3,118.291,2,-179.378,0\N,10,1.37484,7,118.958,3,-167.214,0\C,11,1.31966,10,112.147,7,-165.187,0\H,12,1.08195,11,116.577,10,175.647,0\C,12,1.33803,11,116.097,10,-3.09097,0\H,14,1.08215,12,119.807,11,-179.475,0\C,4,1.4898,2,125.738,1,-16.9773,0\N,16,1.32269,4,118.308,2,-15.6566,0\C,17,1.32701,16,118.325,4,-175.366,0\H,18,1.08896,17,117.838,16,-174.991,0\C,18,1.41995,17,124.033,16,-1.96941,0\C,20,1.38428,18,115.802,17,6.85168,0\N,21,1.34749,20,122.999,18,172.004,0\C,21,1.37778,20,121.4,18,-12.1205,0\N,23,1.38661,21,109.987,20,-178.074,0\C,20,1.50331,18,120.08,17,-177.526,0\C,25,1.38851,20,124.894,18,143.642,0\H,26,1.08885,25,115.086,20,5.8649,0\N,26,1.29492,25,129.067,20,-175.632,0\C,28,1.34067,26,118.155,25,-5.18364,0\C,29,1.40365,28,119.227,26,-4.44203,0\H,30,1.08588,29,120.179,28,176.355,0\C,25,1.41674,20,120.834,18,-38.1439,0\H,32,1.08587,25,121.309,20,2.01569,0\C,29,1.51324,28,120.871,26,-175.436,0\H,34,1.09649,29,110.976,28,119.306,0\H,34,1.09792,29,110.601,28,-0.697827,0\C,34,1.51528,29,112.925,28,-117.246,0\H,37,1.09672,34,110.537,29,-68.8483,0\H,37,1.0978,34,115.977,29,49.1414,0\C,37,1.57177,34,115.836,29,168.531,0\H,40,1.09706,37,103.471,34,175.123,0\H,40,1.09715,37,114.396,34,-66.9361,0\C,40,1.49002,37,113.891,34,55.435,0\H,43,1.09643,40,110.657,37,-50.6715,0\H,43,1.09675,40,104.613,37,-172.497,0\C,43,1.5212,40,113.505,37,72.6582,0\H,46,1.097,43,114.254,40,44.9301,0\H,46,1.09704,43,106.971,40,-73.5705,0\C,46,1.55954,43,108.251,40,172.692,0\H,49,1.09652,46,110.723,43,58.9971,0\H,49,1.09718,46,113.667,43,179.529,0\H,49,1.09735,46,97.6077,43,-56.0328,0\S,22,1.59126,21,108.308,20,178.441,0\S,7,1.72162,3,110.023,2,-10.7796,0\S,14,1.73808,12,111.028,11,13.0148,0\H,39,2.50087,37,148.733,34,-25.9128,0\C,56,1.09646,39,118.066,37,-123.256,0\H,57,1.09695,56,103.366,39,-90.7732,0\C,57,1.53541,56,111.297,39,20.5989,0\H,59,1.0965,57,107.256,56,60.831,0\H,59,1.09677,57,112.376,56,-179.703,0\H,59,1.09758,57,113.538,56,-59.6026,0\C,57,1.5745,56,109.253,39,145.616,0\H,63,1.09729,57,105.138,56,-60.8292,0\H,63,1.09744,57,110.649,56,179.15,0\C,63,1.47948,57,114.384,56,47.3668,0\H,66,1.09663,63,108.345,57,68.2032,0\H,66,1.09737,63,109.767,57,-53.4146,0\C,66,1.56591,63,114.942,57,-178.094,0\H,69,1.09706,66,113.729,63,173.722,0\H,69,1.09741,66,108.478,63,-65.8952,0\C,69,1.55164,66,118.544,63,54.8442,0\H,72,1.09649,69,113.512,66,53.3341,0\H,72,1.09776,69,100.703,66,-62.8384,0\C,72,1.57356,69,119.375,66,-173.754,0\N,75,1.3381,72,119.252,69,-104.289,0\C,76,1.33018,75,118.859,72,176.633,0\H,77,1.08928,76,112.094,75,-178.555,0\C,75,1.40846,72,121.41,69,70.0284,0\H,79,1.08655,75,118.976,72,4.02335,0\C,79,1.37676,75,121.364,72,-175.717,0\H,81,1.08587,79,109.65,75,176.575,0\C,81,1.40976,79,120.915,75,-4.02181,0\C,83,1.47233,81,120.97,79,-163.683,0\C,84,1.43573,83,122.506,81,145.103,0\H,85,1.08863,84,120.755,83,3.48214,0\N,85,1.34308,84,125.897,83,-173.576,0\C,87,1.35371,85,118.82,84,-10.3602,0\C,88,1.43737,87,121.41,85,-0.408403,0\N,89,1.34571,88,129.21,87,177.46,0\C,89,1.43825,88,119.124,87,10.3419,0\N,91,1.33654,89,115.684,88,173.123,0\C,88,1.45947,87,120.271,85,174.499,0\C,93,1.38383,88,126.243,87,0.629074,0\C,94,1.3804,93,115.953,88,-179.002,0\C,95,1.36192,94,116.164,93,2.84732,0\C,95,1.43279,94,110.772,93,-178.07,0\H,97,1.08473,95,122.988,94,170.069,0\C,97,1.36797,95,112.064,94,9.70579,0\H,99,1.08156,97,125.757,95,-176.912,0\C,96,1.44249,95,127.997,94,175.205,0\N,101,1.34835,96,112.696,95,-179.076,0\C,102,1.37513,101,109.877,96,178.249,0\H,103,1.08181,102,122.464,101,179.57,0\C,103,1.39875,102,115.407,101,9.50036,0\H,105,1.08191,103,130.034,102,-179.562,0\S,92,1.62417,91,106.492,89,1.20339,0\S,101,1.68389,96,130.125,95,7.63822,0\S,94,1.77946,93,128.864,88,5.37211,0\S,96,1.80842,95,108.97,94,3.68588,0\\\@

 Total job time:  97.42s(wall), 1180.87s(cpu) 
 Thu Oct 11 23:15:47 2018

        *************************************************************
        *                                                           *
        *  Thank you very much for using Q-Chem.  Have a nice day.  *
        *                                                           *
        *************************************************************


