
Running Job 1 of 1 ./7/42.qcin
qchem ./7/42.qcin_60317.0 /tmpu/cab_g/afmv_a/scratch_qchem/qchem60317/ 1
/tmpu/appuserlic/qchem4.4/serial-multicore/exe/qcprog.exe_s ./7/42.qcin_60317.0 /tmpu/cab_g/afmv_a/scratch_qchem/qchem60317/
Check license passed

                  Welcome to Q-Chem
     A Quantum Leap Into The Future Of Chemistry


 Q-Chem 4.4, Q-Chem, Inc., Pleasanton, CA (2016)

 Y. Shao,  Z. Gan,  E. Epifanovsky,  A. T. B. Gilbert,  M. Wormit,  
 J. Kussmann,  A. W. Lange,  A. Behn,  J. Deng,  X. Feng,  D. Ghosh,  
 M. Goldey,  P. R. Horn,  L. D. Jacobson,  I. Kaliman,  F. Rob,  
 R. Z. Khaliullin,  T. Kus,  A. Landau,  J. Liu,  E. I. Proynov,  Y. M. Rhee,  
 R. M. Richard,  M. A. Rohrdanz,  R. P. Steele,  E. J. Sundstrom,  
 H. L. Woodcock III,  P. M. Zimmerman,  D. Zuev,  B. Albrecht,  E. Alguire,  
 B. Austin,  S. A. Baeppler,  G. J. O. Beran,  Y. A. Bernard,  E. Berquist,  
 K. Brandhorst,  K. B. Bravaya,  S. T. Brown,  D. Casanova,  C.-M. Chang,  
 Y. Chen,  S. H. Chien,  K. D. Closser,  M. P. Coons,  D. L. Crittenden,  
 S. Dasgupta,  M. Diedenhofen,  R. A. DiStasio Jr.,  H. Do,  A. D. Dutoi,  
 R. G. Edgar,  P.-T. Fang,  S. Fatehi,  Q. Feng,  L. Fusti-Molnar,  
 A. Ghysels,  A. Golubeva-Zadorozhnaya,  J. Gomes,  A. Gunina,  
 M. W. D. Hanson-Heine,  P. H. P. Harbach,  A. W. Hauser,  J. E. Herr,  
 E. G. Hohenstein,  Z. C. Holden,  K. Hui,  T.-C. Jagau,  H. Ji,  B. Kaduk,  
 K. Khistyaev,  Jaehoon Kim,  Jihan Kim,  R. A. King,  P. Klunzinger,  
 K. Koh,  D. Kosenkov,  T. Kowalczyk,  C. M. Krauter,  A. Kunitsa,  
 K. U. Lao,  A. Laurent,  K. V. Lawler,  J. Lee,  D. Lefrancois,  S. Lehtola,  
 S. V. Levchenko,  C. Y. Lin,  Y.-S. Lin,  F. Liu,  E. Livshits,  
 R. C. Lochan,  A. Luenser,  P. Manohar,  S. F. Manzer,  S.-P. Mao,  Y. Mao,  
 N. Mardirossian,  A. V. Marenich,  L. A. Martinez-Martinez,  S. A. Maurer,  
 N. J. Mayhall,  J.-M. Mewes,  A. F. Morrison,  K. Nanda,  T. S. Nguyen-Beck,  
 C. M. Oana,  R. Olivares-Amaya,  D. P. O'Neill,  J. A. Parkhill,  
 T. M. Perrine,  R. Peverati,  P. A. Pieniazek,  F. Plasser,  A. Prociuk,  
 D. R. Rehn,  E. Rosta,  N. J. Russ,  N. Sergueev,  S. M. Sharada,  
 S. Sharma,  D. W. Small,  A. Sodt,  T. Stauch,  T. Stein,  D. Stuck,  
 Y.-C. Su,  A. J. W. Thom,  T. Tsuchimochi,  L. Vogt,  O. Vydrov,  T. Wang,  
 M. A. Watson,  J. Wenzel,  A. White,  C. F. Williams,  V. Vanovschi,  
 K. Yao,  S. Yeganeh,  S. R. Yost,  Z.-Q. You,  I. Y. Zhang,  X. Zhang,  
 Y. Zhao,  B. R. Brooks,  G. K. L. Chan,  D. M. Chipman,  C. J. Cramer,  
 W. A. Goddard III,  M. S. Gordon,  W. J. Hehre,  A. Klamt,  
 H. F. Schaefer III,  M. W. Schmidt,  C. D. Sherrill,  D. G. Truhlar,  
 A. Warshel,  X. Xu,  A. Aspuru-Guzik,  R. Baer,  A. T. Bell,  N. A. Besley,  
 J.-D. Chai,  A. Dreuw,  B. D. Dunietz,  T. R. Furlani,  S. R. Gwaltney,  
 C.-P. Hsu,  Y. Jung,  J. Kong,  D. S. Lambrecht,  W. Liang,  C. Ochsenfeld,  
 V. A. Rassolov,  L. V. Slipchenko,  J. E. Subotnik,  T. Van Voorhis,  
 J. M. Herbert,  A. I. Krylov,  P. M. W. Gill,  M. Head-Gordon

 Contributors to earlier versions of Q-Chem not listed above: 
 R. D. Adamson,  J. Baker,  E. F. C. Byrd,  A. K. Chakraborty,  C.-L. Cheng,  
 H. Dachsel,  R. J. Doerksen,  G. Hawkins,  A. Heyden,  S. Hirata,  
 G. Kedziora,  F. J. Keil,  C. Kelley,  P. P. Korambath,  W. Kurlancheek,  
 A. M. Lee,  M. S. Lee,  D. Liotard,  I. Lotan,  P. E. Maslen,  N. Nair,  
 D. Neuhauser,  R. Olson,  B. Peters,  J. Ritchie,  N. E. Schultz,  
 N. Shenvi,  A. C. Simmonett,  K. S. Thanthiriwatte,  Q. Wu,  W. Zhang

 Please cite Q-Chem as follows:
 Y. Shao et al., Mol. Phys. 113, 184-215 (2015)
 DOI: 10.1080/00268976.2014.952696

 Q-Chem 4.4.2 for Intel X86 Linux

 Parts of Q-Chem use Armadillo 5.200.1 (Boston Tea Smuggler).
 http://arma.sourceforge.net/

 Q-Chem begins on Thu Oct 11 23:29:42 2018  

Host: 
0

     Scratch files written to /tmpu/cab_g/afmv_a/scratch_qchem/qchem60317//
 Dec716 11556_ 22328  22283 4050   
Processing $rem in /tmpu/appuserlic/qchem4.4/serial-multicore/config/preferences.
 MEM_TOTAL  2000 
FILE_GEOM_ORG=        593

Checking the input file for inconsistencies... 	...done.

--------------------------------------------------------------
User input:
--------------------------------------------------------------
$comment
SP
$end

$rem
MEM_STATIC 5000
MEM_TOTAL 20000
JOBTYPE SP
EXCHANGE B3LYP
BASIS 6-31g(d,p)
$end

$molecule
0 1
C          27.509000    -15.483000     -1.622000
C          26.515000    -16.018000     -2.400000
N          27.689000    -14.131000     -1.519000
C          25.673000    -15.098000     -3.110000
C          26.778000    -13.293000     -2.086000
C          25.671000    -13.688000     -2.877000
C          24.724000    -12.696000     -3.470000
C          24.404000    -11.467000     -2.728000
C          24.296000    -12.706000     -4.805000
N          23.676000    -10.487000     -3.261000
N          24.613000    -13.743000     -5.656000
C          23.477000    -11.751000     -5.362000
C          23.174000    -10.573000     -4.503000
S          23.957000    -13.311000     -7.077000
N          23.250000    -11.822000     -6.666000
C          22.375000     -9.447000     -4.972000
S          22.011000     -9.134000     -6.700000
C          21.976000     -8.353000     -4.235000
C          21.298000     -7.568000     -6.336000
S          22.189000     -7.908000     -2.505000
C          21.517000     -7.297000     -5.010000
C          20.710000     -6.672000     -7.273000
C          21.564000     -6.280000     -2.904000
C          21.207000     -6.131000     -4.251000
N          19.666000     -6.022000     -6.868000
S          21.129000     -6.497000     -8.989000
C          19.192000     -5.212000     -7.859000
C          19.870000     -5.309000     -9.040000
C          28.514000    -16.312000     -0.908000
H          26.347000    -17.089000     -2.466000
H          24.853000    -15.466000     -3.721000
H          26.923000    -12.220000     -1.969000
H          24.678000    -11.402000     -1.676000
H          21.248000     -5.588000     -2.135000
H          20.731000     -5.264000     -4.695000
H          18.328000     -4.579000     -7.702000
H          19.715000     -4.809000     -9.987000
H          28.322000    -17.349000     -1.209000
C          28.724000    -16.121000      0.603000
H          29.473000    -16.118000     -1.404000
H          28.825000    -15.040000      0.753000
H          29.697000    -16.553000      0.867000
C          27.586000    -16.660000      1.469000
H          27.526000    -17.748000      1.341000
C          26.220000    -15.936000      1.177000
H          27.857000    -16.322000      2.477000
H          25.706000    -16.383000      0.317000
H          26.264000    -14.857000      0.984000
C          25.269000    -16.128000      2.423000
H          24.277000    -15.775000      2.118000
C          25.728000    -15.444000      3.737000
H          25.178000    -17.175000      2.738000
H          26.636000    -15.951000      4.086000
H          24.878000    -15.578000      4.417000
H          25.869000    -14.370000      3.567000
C           8.705000    -18.167000     -1.318000
C           9.864000    -17.672000     -0.700000
N           8.598000    -18.106000     -2.653000
C          11.026000    -17.355000     -1.469000
C           9.613000    -17.669000     -3.328000
C          10.881000    -17.326000     -2.878000
C          12.025000    -16.914000     -3.762000
C          13.351000    -17.306000     -3.439000
C          11.894000    -16.076000     -4.856000
N          14.411000    -17.027000     -4.187000
N          10.729000    -15.491000     -5.197000
C          12.944000    -15.854000     -5.720000
C          14.234000    -16.308000     -5.283000
S          10.965000    -14.642000     -6.522000
N          12.542000    -15.016000     -6.749000
C          15.436000    -15.906000     -6.066000
S          15.537000    -14.446000     -7.002000
C          16.706000    -16.455000     -5.942000
C          17.230000    -14.631000     -7.254000
S          17.212000    -17.991000     -5.183000
C          17.716000    -15.704000     -6.488000
C          18.168000    -13.764000     -7.866000
C          18.902000    -17.632000     -5.788000
C          18.932000    -16.400000     -6.473000
N          17.731000    -12.880000     -8.824000
S          19.681000    -13.203000     -7.137000
C          18.622000    -11.940000     -9.077000
C          19.787000    -12.043000     -8.427000
C           7.524000    -18.570000     -0.462000
H           9.993000    -17.767000      0.374000
H          11.972000    -17.113000     -0.994000
H           9.448000    -17.528000     -4.395000
H          13.491000    -17.967000     -2.585000
H          19.700000    -18.345000     -5.625000
H          19.767000    -16.000000     -7.038000
H          18.323000    -11.163000     -9.768000
H          20.564000    -11.309000     -8.596000
H           7.249000    -17.766000      0.231000
C           7.767000    -19.848000      0.315000
H           6.651000    -18.794000     -1.089000
H           8.522000    -19.687000      1.094000
H           8.159000    -20.695000     -0.263000
C           6.504000    -20.482000      1.003000
H           5.752000    -20.867000      0.303000
C           5.783000    -19.551000      1.916000
H           6.918000    -21.325000      1.570000
H           4.871000    -20.091000      2.198000
H           5.576000    -18.599000      1.413000
C           6.524000    -19.282000      3.217000
H           6.939000    -20.179000      3.693000
C           5.588000    -18.454000      4.150000
H           7.367000    -18.623000      2.975000
H           4.738000    -19.148000      4.156000
H           5.302000    -17.509000      3.673000
H           6.041000    -18.202000      5.117000
$end

--------------------------------------------------------------
 ----------------------------------------------------------------
             Standard Nuclear Orientation (Angstroms)
    I     Atom           X                Y                Z
 ----------------------------------------------------------------
    1      C      -7.0983571996     6.2020205535    -1.1479387539
    2      C      -6.1005498993     5.6073491998    -1.8761499682
    3      N      -7.7914343240     5.5162897448    -0.1886002539
    4      C      -5.8173270331     4.2289856322    -1.5944361354
    5      C      -7.3915811259     4.2600709913     0.1515259924
    6      C      -6.3502208523     3.5271154274    -0.4693604077
    7      C      -5.9839082769     2.1448758768    -0.0360580630
    8      C      -6.0810726638     1.7819791115     1.3860073433
    9      C      -5.7917285245     1.0637716224    -0.9077171327
   10      N      -5.8987050746     0.5332400794     1.8124647178
   11      N      -5.7855621426     1.2328898094    -2.2757156760
   12      C      -5.5206816965    -0.2214663075    -0.4981660609
   13      C      -5.5952281513    -0.4658387818     0.9688373202
   14      S      -5.5787886747    -0.2660088127    -2.8645693537
   15      N      -5.4807197104    -1.1661009879    -1.4271732516
   16      C      -5.3982116202    -1.7871216497     1.5533320332
   17      S      -5.4525753325    -3.3122145852     0.6112146707
   18      C      -5.3702951616    -2.1015135092     2.8948179370
   19      C      -5.3871580403    -4.2941450114     2.0688683387
   20      S      -5.4853686743    -1.0968427090     4.3826649285
   21      C      -5.4973827265    -3.4596802686     3.1510869449
   22      C      -5.3572463526    -5.7162549020     2.1257695693
   23      C      -5.6377199373    -2.6093473544     5.3257072341
   24      C      -5.5756135579    -3.7684593046     4.5404293951
   25      N      -4.6170945731    -6.2380078497     3.0511939070
   26      S      -6.0609522899    -6.8457119489     0.9510497163
   27      C      -4.6633900081    -7.6007096651     2.9898954969
   28      C      -5.4116428278    -8.0943383700     1.9601856254
   29      C      -7.5648739557     7.5905912548    -1.3955180826
   30      H      -5.5262671775     6.1514883878    -2.6202822813
   31      H      -5.0192259789     3.7148432253    -2.1234326313
   32      H      -7.9383356383     3.7410161552     0.9374551114
   33      H      -6.1984592026     2.5745043808     2.1236584112
   34      H      -5.5176689499    -2.6237847816     6.4006306366
   35      H      -5.5618957554    -4.7891662299     4.9056282376
   36      H      -4.1156914308    -8.2136203303     3.6943107046
   37      H      -5.6142132340    -9.1137190098     1.6590837461
   38      H      -7.0175475099     7.9424300961    -2.2783981376
   39      C      -7.6072035797     8.5981900035    -0.2350634457
   40      H      -8.5825758055     7.5006878962    -1.7949343203
   41      H      -8.1125677104     8.0799994317     0.5879478706
   42      H      -8.2719428063     9.4210377525    -0.5250502431
   43      C      -6.2336761407     9.0851524650     0.2251657749
   44      H      -5.7592312056     9.6386750161    -0.5947383591
   45      C      -5.3362160716     7.9123972519     0.7679425562
   46      H      -6.4651133595     9.6792549920     1.1180420268
   47      H      -4.8194285688     7.3930651220    -0.0486539267
   48      H      -5.8402474485     7.1365874681     1.3574317848
   49      C      -4.2151790710     8.5219251193     1.6982827209
   50      H      -3.5074790287     7.7117146833     1.9090377909
   51      C      -4.7105936772     9.1885065149     3.0080027716
   52      H      -3.6635239974     9.3442067232     1.2257950029
   53      H      -5.2737520037    10.0907283262     2.7393719794
   54      H      -3.7881940209     9.4109319450     3.5580589523
   55      H      -5.2967565036     8.4691663090     3.5921430023
   56      C      11.0055162569     0.7761973823     0.7747928406
   57      C       9.8511499692     1.3487161733     1.3314711208
   58      N      10.8792509842    -0.2240949007    -0.1088741949
   59      C       8.5599939346     1.0737137145     0.7843114165
   60      C       9.6863040916    -0.5644462503    -0.4801660883
   61      C       8.4699648735     0.0271939214    -0.1663925809
   62      C       7.1396253329    -0.3922366756    -0.7269375666
   63      C       6.1488306499     0.5834861624    -1.0142698470
   64      C       6.7570921370    -1.7104316347    -0.9065800001
   65      N       4.9682146588     0.3067403129    -1.5532527933
   66      N       7.5219485547    -2.7542620627    -0.5308890391
   67      C       5.5912932394    -2.0362814326    -1.5646186308
   68      C       4.6749573694    -0.9578899134    -1.8066626447
   69      S       6.7693695711    -4.0966337473    -0.9355927998
   70      N       5.4630531479    -3.4144713396    -1.6472990959
   71      C       3.3112937866    -1.2790397669    -2.3133986751
   72      S       2.4916501014    -2.7786201683    -2.0014053273
   73      C       2.4048933598    -0.3663881522    -2.8379768833
   74      C       1.0005941648    -2.1843657608    -2.6239741133
   75      S       2.6809796257     1.2923483414    -3.4411208283
   76      C       1.1088353368    -0.8115718036    -2.9032617780
   77      C      -0.2871026768    -2.7738845486    -2.6435046744
   78      C       0.9205728247     1.3092019290    -3.9428078337
   79      C       0.2943498761     0.0947996025    -3.5949273825
   80      N      -0.3917772855    -4.1447245000    -2.6380225274
   81      S      -1.7712035483    -2.0281002841    -2.0298423617
   82      C      -1.6132132448    -4.5492256477    -2.3448280202
   83      C      -2.5267980588    -3.5867321253    -2.1736468097
   84      C      12.3614656192     1.1564792210     1.3285915858
   85      H       9.9325278992     2.1981286010     2.0030499772
   86      H       7.6788273222     1.6197525759     1.1075635826
   87      H       9.6198912721    -1.4510771397    -1.1087120319
   88      H       6.4161376774     1.6312817939    -0.8857853427
   89      H       0.5122708924     2.1663850156    -4.4626815569
   90      H      -0.7048320457    -0.2166496562    -3.8796813928
   91      H      -1.7596177314    -5.6169353518    -2.2490537336
   92      H      -3.5496754399    -3.8514293320    -1.9397595463
   93      H      12.3879987626     1.0369752585     2.4182267519
   94      C      12.7734750992     2.5681532235     0.9632332696
   95      H      13.1468949909     0.5227540939     0.8962408425
   96      H      12.1425751358     3.2996601838     1.4825114255
   97      H      12.6757592447     2.8386065553    -0.0962305604
   98      C      14.2717709019     2.9419400134     1.2562556638
   99      H      15.0021344934     2.4030634329     0.6398872228
  100      C      14.6823142605     2.7240885654     2.6719413271
  101      H      14.3225963764     4.0088951267     1.0061405756
  102      H      15.7655112097     2.8959599986     2.6754881081
  103      H      14.4101160522     1.7147834885     3.0026578175
  104      C      14.0979566399     3.7445117773     3.6369831086
  105      H      14.1561699922     4.7820439824     3.2854889706
  106      C      14.7471449134     3.5202349073     5.0371343401
  107      H      13.0349409178     3.5008077050     3.7557261065
  108      H      15.7955685508     3.6197069114     4.7287754632
  109      H      14.5529497975     2.5025876945     5.3963451518
  110      H      14.3800448293     4.2090332927     5.8082350551
 ----------------------------------------------------------------
 Molecular Point Group                 C1    NOp =  1
 Largest Abelian Subgroup              C1    NOp =  1
 Nuclear Repulsion Energy = 10857.6760490858 hartrees
 There are      270 alpha and      270 beta electrons
 Requested basis set is 6-31G(d,p)
 There are 406 shells and 1262 basis functions

 Total QAlloc Memory Limit  20000 MB
 Mega-Array Size      4888 MB
 MEM_STATIC part      5000 MB
 A cutoff of  1.0D-08 yielded  12896 shell pairs
 There are    134317 function pairs
 
 -------------------------------------------------------
 OpenMP Integral Computing Module                       
 Release: version 1.0, May 2013, Q-Chem Inc. Pittsburgh 
 -------------------------------------------------------
 Integral Job Info:
 Integral job number is                      11
 Integral operator is                         1
 short-range coefficients                     0
 long-range coefficients              100000000
 Omega coefficients                           0
 if combine SR and LR in K                    0
 Integral screening is                        0
 Integral computing path is                   2
 max size of driver memory is            800000
 size of driver memory is                593474
 size of scratch memory is             15166112
 max col of scratch BK array               1296
 max len of scratch array in speh3          155
 max len of scratch index in speh4           18
 max int batch size is                      520
 min int batch size is                       52
 fixed nKL is                                52
 max L of basis functions is                  2
 order of int derivative is                   0
 number of shells is                        406
 number of basis is                        1262
 number of cartesian basis is              1262
 number of contracted shell pairs         12896
 number of primitive shell pairs          42068
 maxK2 (contraction) of shell pair           36
 max number of K2 of shell pair               1
 max number of CS2 of shell pair           1297
 max number of PS2 of shell pair           7692
 mem total for path MDJ                  279544
 -------------------------------------------------------
 Smallest overlap matrix eigenvalue = 5.23E-04

 Scale SEOQF with 1.000000e-02/1.000000e-02/1.000000e-02

 Standard Electronic Orientation quadrupole field applied
 Nucleus-field energy     =     0.0000001248 hartrees
 Guess from superposition of atomic densities
 Warning:  Energy on first SCF cycle will be non-variational
 A restricted hybrid HF-DFT SCF calculation will be
 performed using Pulay DIIS extrapolation
 Exchange:     0.2000 Hartree-Fock + 0.0800 Slater + 0.7200 B88
 Correlation:  0.1900 VWN1RPA + 0.8100 LYP
 Using SG-1 standard quadrature grid
 SCF converges when DIIS error is below 1.0E-05
 using 16 threads for integral computing 
 -------------------------------------------------------
 OpenMP BLAS3 based DFT computing Module                
 Release: version 1.0, May 2013, Q-Chem Inc. Pittsburgh 
 -------------------------------------------------------
 ---------------------------------------
  Cycle       Energy         DIIS Error
 ---------------------------------------
    1   -5680.3058477344      2.16E-02
    2   -5662.4726914295      2.18E-03
    3   -5660.8781283219      3.45E-03
    4   -5663.3399801485      8.67E-04
    5   -5663.4826708048      3.37E-04
    6   -5663.4977214815      2.02E-04
    7   -5663.5050953267      7.96E-05
    8   -5663.5062681707      2.73E-05
    9   -5663.5064085401      8.93E-06 Convergence criterion met
 ---------------------------------------
 SCF time:  CPU 950.64 s  wall 78.42 s
 SCF   energy in the final basis set = -5663.5064085401
 Total energy in the final basis set = -5663.5064085401
 
 --------------------------------------------------------------
 
                    Orbital Energies (a.u.)
 --------------------------------------------------------------
 
 Alpha MOs
 -- Occupied --
-88.995 -88.990 -88.933 -88.928 -88.927 -88.926 -88.914 -88.909
-14.396 -14.392 -14.383 -14.374 -14.353 -14.351 -14.349 -14.331
-14.329 -14.324 -10.272 -10.271 -10.266 -10.262 -10.261 -10.259
-10.254 -10.248 -10.247 -10.245 -10.241 -10.239 -10.235 -10.235
-10.235 -10.235 -10.234 -10.234 -10.232 -10.230 -10.229 -10.227
-10.227 -10.225 -10.222 -10.219 -10.216 -10.215 -10.215 -10.214
-10.213 -10.211 -10.207 -10.204 -10.201 -10.201 -10.200 -10.198
-10.186 -10.181 -10.181 -10.178 -10.177 -10.176 -10.176 -10.176
-10.174 -10.174 -10.173 -10.170  -8.050  -8.046  -7.994  -7.987
 -7.987  -7.986  -7.972  -7.968  -6.015  -6.011  -6.009  -6.008
 -6.005  -6.003  -5.958  -5.955  -5.951  -5.951  -5.951  -5.950
 -5.948  -5.947  -5.946  -5.944  -5.943  -5.943  -5.937  -5.933
 -5.933  -5.929  -5.928  -5.924  -1.040  -1.038  -0.987  -0.970
 -0.963  -0.960  -0.950  -0.931  -0.915  -0.915  -0.909  -0.893
 -0.840  -0.840  -0.838  -0.834  -0.818  -0.816  -0.811  -0.808
 -0.804  -0.801  -0.794  -0.793  -0.788  -0.781  -0.766  -0.766
 -0.751  -0.748  -0.739  -0.738  -0.726  -0.724  -0.712  -0.709
 -0.696  -0.693  -0.677  -0.677  -0.658  -0.657  -0.648  -0.645
 -0.640  -0.638  -0.626  -0.624  -0.616  -0.612  -0.600  -0.599
 -0.597  -0.592  -0.591  -0.582  -0.574  -0.574  -0.561  -0.555
 -0.551  -0.546  -0.538  -0.533  -0.530  -0.522  -0.520  -0.516
 -0.509  -0.502  -0.497  -0.497  -0.490  -0.489  -0.480  -0.476
 -0.475  -0.474  -0.471  -0.467  -0.464  -0.463  -0.453  -0.452
 -0.451  -0.445  -0.444  -0.441  -0.437  -0.433  -0.433  -0.431
 -0.430  -0.429  -0.425  -0.424  -0.421  -0.416  -0.416  -0.414
 -0.412  -0.412  -0.408  -0.403  -0.402  -0.401  -0.401  -0.399
 -0.398  -0.395  -0.393  -0.392  -0.391  -0.387  -0.384  -0.382
 -0.381  -0.380  -0.375  -0.375  -0.364  -0.362  -0.360  -0.354
 -0.353  -0.352  -0.351  -0.350  -0.345  -0.344  -0.343  -0.341
 -0.339  -0.337  -0.334  -0.332  -0.329  -0.327  -0.325  -0.322
 -0.317  -0.314  -0.308  -0.307  -0.306  -0.305  -0.302  -0.300
 -0.297  -0.295  -0.295  -0.291  -0.286  -0.284  -0.281  -0.277
 -0.272  -0.270  -0.266  -0.264  -0.256  -0.254  -0.252  -0.250
 -0.247  -0.244  -0.233  -0.232  -0.197  -0.192
 -- Virtual --
 -0.120  -0.111  -0.075  -0.073  -0.044  -0.036  -0.030  -0.026
 -0.024  -0.021  -0.017  -0.014  -0.013  -0.008  -0.006  -0.003
  0.000   0.011   0.012   0.015   0.028   0.030   0.035   0.037
  0.044   0.049   0.065   0.071   0.076   0.077   0.081   0.089
  0.097   0.097   0.100   0.103   0.103   0.105   0.105   0.109
  0.109   0.113   0.117   0.120   0.122   0.122   0.125   0.125
  0.126   0.130   0.132   0.135   0.136   0.141   0.143   0.147
  0.152   0.153   0.154   0.156   0.160   0.163   0.163   0.165
  0.168   0.169   0.173   0.176   0.176   0.180   0.181   0.182
  0.184   0.185   0.188   0.190   0.192   0.193   0.197   0.199
  0.201   0.203   0.207   0.208   0.209   0.210   0.220   0.223
  0.224   0.227   0.229   0.231   0.232   0.234   0.236   0.238
  0.241   0.244   0.246   0.248   0.249   0.253   0.255   0.255
  0.258   0.263   0.263   0.267   0.269   0.271   0.274   0.277
  0.280   0.283   0.285   0.286   0.293   0.295   0.296   0.298
  0.303   0.306   0.308   0.314   0.317   0.318   0.324   0.325
  0.326   0.327   0.333   0.337   0.338   0.342   0.343   0.349
  0.350   0.352   0.354   0.361   0.362   0.366   0.367   0.369
  0.373   0.376   0.380   0.381   0.388   0.391   0.397   0.401
  0.407   0.409   0.415   0.421   0.426   0.431   0.433   0.442
  0.445   0.447   0.450   0.451   0.460   0.464   0.466   0.470
  0.475   0.480   0.482   0.484   0.490   0.495   0.495   0.498
  0.501   0.504   0.505   0.508   0.510   0.511   0.513   0.514
  0.516   0.518   0.521   0.525   0.527   0.528   0.531   0.531
  0.534   0.535   0.535   0.538   0.539   0.542   0.546   0.548
  0.549   0.551   0.552   0.553   0.556   0.557   0.559   0.562
  0.563   0.567   0.569   0.571   0.575   0.577   0.583   0.583
  0.585   0.588   0.589   0.589   0.590   0.592   0.593   0.596
  0.598   0.599   0.601   0.602   0.602   0.606   0.608   0.611
  0.614   0.615   0.619   0.620   0.626   0.628   0.629   0.630
  0.630   0.635   0.637   0.639   0.642   0.643   0.645   0.646
  0.648   0.650   0.651   0.656   0.659   0.662   0.665   0.668
  0.670   0.672   0.673   0.678   0.685   0.686   0.687   0.690
  0.693   0.695   0.695   0.701   0.702   0.709   0.713   0.714
  0.718   0.720   0.722   0.730   0.731   0.735   0.740   0.742
  0.744   0.747   0.750   0.753   0.755   0.758   0.760   0.766
  0.768   0.771   0.773   0.779   0.779   0.782   0.784   0.790
  0.792   0.795   0.798   0.798   0.802   0.804   0.807   0.812
  0.813   0.814   0.815   0.817   0.818   0.820   0.822   0.824
  0.825   0.828   0.832   0.833   0.833   0.835   0.835   0.837
  0.840   0.842   0.845   0.850   0.852   0.853   0.854   0.856
  0.857   0.861   0.862   0.865   0.867   0.868   0.873   0.875
  0.876   0.878   0.880   0.883   0.883   0.885   0.886   0.888
  0.890   0.891   0.893   0.894   0.898   0.901   0.903   0.904
  0.909   0.909   0.911   0.914   0.918   0.919   0.924   0.926
  0.931   0.932   0.934   0.936   0.940   0.943   0.944   0.948
  0.949   0.951   0.955   0.958   0.959   0.959   0.960   0.962
  0.967   0.971   0.972   0.975   0.979   0.981   0.982   0.984
  0.986   0.988   0.996   0.999   1.000   1.001   1.002   1.004
  1.005   1.007   1.007   1.010   1.014   1.015   1.020   1.024
  1.027   1.029   1.030   1.032   1.035   1.038   1.039   1.040
  1.041   1.043   1.050   1.050   1.054   1.058   1.061   1.066
  1.072   1.075   1.078   1.083   1.088   1.089   1.096   1.098
  1.107   1.111   1.112   1.113   1.117   1.128   1.138   1.139
  1.141   1.141   1.157   1.158   1.164   1.167   1.174   1.180
  1.184   1.188   1.190   1.204   1.205   1.208   1.211   1.216
  1.220   1.225   1.236   1.244   1.247   1.251   1.254   1.257
  1.263   1.264   1.269   1.270   1.277   1.281   1.290   1.295
  1.297   1.302   1.305   1.309   1.316   1.324   1.328   1.330
  1.334   1.341   1.345   1.347   1.352   1.360   1.361   1.363
  1.365   1.372   1.380   1.384   1.386   1.397   1.398   1.399
  1.406   1.409   1.410   1.420   1.421   1.422   1.434   1.440
  1.443   1.445   1.446   1.454   1.456   1.460   1.467   1.468
  1.479   1.482   1.483   1.494   1.497   1.506   1.508   1.512
  1.517   1.519   1.537   1.540   1.546   1.551   1.552   1.558
  1.567   1.569   1.580   1.584   1.591   1.594   1.598   1.608
  1.611   1.617   1.625   1.632   1.634   1.647   1.648   1.660
  1.661   1.670   1.674   1.676   1.677   1.685   1.688   1.690
  1.693   1.693   1.699   1.700   1.702   1.707   1.708   1.717
  1.719   1.723   1.726   1.729   1.737   1.738   1.745   1.746
  1.757   1.758   1.763   1.765   1.769   1.771   1.771   1.774
  1.778   1.780   1.788   1.794   1.794   1.805   1.811   1.822
  1.824   1.824   1.828   1.833   1.838   1.843   1.848   1.851
  1.852   1.854   1.856   1.860   1.862   1.865   1.871   1.874
  1.876   1.881   1.881   1.885   1.889   1.891   1.897   1.898
  1.904   1.907   1.914   1.915   1.919   1.922   1.925   1.928
  1.934   1.935   1.942   1.944   1.946   1.949   1.954   1.960
  1.964   1.966   1.973   1.973   1.979   1.984   1.986   1.988
  1.990   1.999   2.004   2.011   2.011   2.023   2.025   2.025
  2.032   2.036   2.040   2.045   2.048   2.052   2.055   2.062
  2.065   2.078   2.079   2.080   2.085   2.087   2.090   2.096
  2.099   2.102   2.102   2.109   2.110   2.117   2.117   2.127
  2.132   2.137   2.138   2.143   2.143   2.147   2.150   2.155
  2.157   2.161   2.163   2.172   2.174   2.176   2.180   2.180
  2.184   2.190   2.192   2.197   2.198   2.205   2.215   2.217
  2.217   2.226   2.230   2.233   2.240   2.240   2.247   2.248
  2.257   2.258   2.262   2.269   2.273   2.279   2.279   2.279
  2.282   2.288   2.294   2.295   2.300   2.300   2.306   2.309
  2.310   2.315   2.316   2.324   2.325   2.328   2.335   2.336
  2.342   2.344   2.345   2.351   2.354   2.356   2.357   2.366
  2.372   2.373   2.374   2.377   2.377   2.385   2.387   2.387
  2.399   2.404   2.406   2.410   2.413   2.419   2.420   2.422
  2.425   2.426   2.429   2.431   2.438   2.440   2.442   2.444
  2.452   2.452   2.458   2.460   2.464   2.471   2.473   2.479
  2.480   2.483   2.484   2.485   2.494   2.498   2.500   2.506
  2.507   2.509   2.510   2.520   2.522   2.523   2.530   2.532
  2.541   2.543   2.548   2.554   2.555   2.556   2.559   2.565
  2.570   2.575   2.576   2.583   2.585   2.587   2.592   2.597
  2.603   2.607   2.615   2.618   2.625   2.633   2.636   2.643
  2.643   2.646   2.653   2.653   2.657   2.661   2.662   2.667
  2.672   2.673   2.676   2.683   2.686   2.686   2.693   2.694
  2.698   2.706   2.709   2.713   2.713   2.725   2.730   2.737
  2.744   2.751   2.753   2.756   2.758   2.769   2.780   2.782
  2.786   2.791   2.796   2.801   2.805   2.808   2.818   2.825
  2.826   2.831   2.835   2.842   2.851   2.859   2.867   2.869
  2.876   2.881   2.886   2.895   2.896   2.899   2.900   2.906
  2.917   2.919   2.932   2.938   2.938   2.941   2.948   2.949
  2.958   2.972   2.984   2.991   2.992   2.997   3.011   3.035
  3.048   3.057   3.073   3.080   3.083   3.100   3.112   3.146
  3.150   3.180   3.189   3.199   3.203   3.207   3.228   3.240
  3.245   3.253   3.258   3.258   3.263   3.267   3.274   3.283
  3.294   3.296   3.301   3.305   3.308   3.314   3.322   3.326
  3.339   3.350   3.364   3.366   3.388   3.389   3.415   3.439
  3.447   3.453   3.460   3.463   3.480   3.486   3.525   3.530
  3.541   3.561   3.565   3.574   3.581   3.583   3.598   3.603
  3.607   3.617   3.707   3.728   3.844   3.865   3.898   3.919
  3.923   3.932   3.940   3.940   3.951   3.959   3.985   3.993
  4.025   4.048   4.071   4.085   4.086   4.096   4.110   4.122
  4.126   4.132   4.134   4.134   4.162   4.164   4.186   4.199
  4.211   4.212   4.241   4.252   4.259   4.261   4.274   4.280
  4.283   4.305   4.345   4.345   4.370   4.377   4.385   4.400
  4.411   4.436   4.443   4.445   4.454   4.459   4.497   4.497
  4.505   4.514   4.539   4.545   4.602   4.631   4.646   4.665
  4.688   4.693   4.712   4.715   4.742   4.747   4.789   4.794
 --------------------------------------------------------------
 
          Ground-State Mulliken Net Atomic Charges

     Atom                 Charge (a.u.)
  ----------------------------------------
      1 C                     0.295033
      2 C                    -0.117512
      3 N                    -0.493338
      4 C                    -0.084166
      5 C                     0.068892
      6 C                     0.049351
      7 C                    -0.005819
      8 C                     0.064838
      9 C                     0.219099
     10 N                    -0.511759
     11 N                    -0.528678
     12 C                     0.236152
     13 C                     0.299859
     14 S                     0.597480
     15 N                    -0.575118
     16 C                    -0.235314
     17 S                     0.314792
     18 C                    -0.101342
     19 C                    -0.205332
     20 S                     0.283977
     21 C                     0.146199
     22 C                     0.024037
     23 C                    -0.320154
     24 C                    -0.037960
     25 N                    -0.403675
     26 S                     0.267789
     27 C                     0.121970
     28 C                    -0.301094
     29 C                    -0.224342
     30 H                     0.096534
     31 H                     0.101911
     32 H                     0.098123
     33 H                     0.123322
     34 H                     0.130180
     35 H                     0.116888
     36 H                     0.117942
     37 H                     0.137403
     38 H                     0.082185
     39 C                    -0.184931
     40 H                     0.120193
     41 H                     0.119427
     42 H                     0.085763
     43 C                    -0.168564
     44 H                     0.092088
     45 C                    -0.178550
     46 H                     0.096698
     47 H                     0.092679
     48 H                     0.104091
     49 C                    -0.190570
     50 H                     0.084792
     51 C                    -0.312525
     52 H                     0.088780
     53 H                     0.106956
     54 H                     0.101891
     55 H                     0.101081
     56 C                     0.272968
     57 C                    -0.123409
     58 N                    -0.475251
     59 C                    -0.085496
     60 C                     0.092389
     61 C                     0.053057
     62 C                     0.029255
     63 C                     0.055468
     64 C                     0.203319
     65 N                    -0.499308
     66 N                    -0.543572
     67 C                     0.234817
     68 C                     0.281977
     69 S                     0.629545
     70 N                    -0.568420
     71 C                    -0.237264
     72 S                     0.379204
     73 C                    -0.116985
     74 C                    -0.169454
     75 S                     0.262707
     76 C                     0.110324
     77 C                    -0.001141
     78 C                    -0.308621
     79 C                    -0.068173
     80 N                    -0.418733
     81 S                     0.275670
     82 C                     0.132807
     83 C                    -0.305715
     84 C                    -0.231495
     85 H                     0.085618
     86 H                     0.101625
     87 H                     0.098505
     88 H                     0.109701
     89 H                     0.131557
     90 H                     0.106854
     91 H                     0.109771
     92 H                     0.140827
     93 H                     0.114953
     94 C                    -0.183554
     95 H                     0.118271
     96 H                     0.093229
     97 H                     0.100776
     98 C                    -0.186530
     99 H                     0.090589
    100 C                    -0.161400
    101 H                     0.088415
    102 H                     0.085234
    103 H                     0.095880
    104 C                    -0.182449
    105 H                     0.093036
    106 C                    -0.310212
    107 H                     0.087536
    108 H                     0.103035
    109 H                     0.102634
    110 H                     0.097969
  ----------------------------------------
  Sum of atomic charges =     0.000000

 -----------------------------------------------------------------
                    Cartesian Multipole Moments
 -----------------------------------------------------------------
    Charge (ESU x 10^10)
                 0.0000
    Dipole Moment (Debye)
         X      -1.2703      Y      -1.0574      Z       0.8342
       Tot       1.8514
    Quadrupole Moments (Debye-Ang)
        XX    -459.5040     XY      36.7566     YY    -399.2104
        XZ      18.4574     YZ     -18.1609     ZZ    -439.5640
    Octopole Moments (Debye-Ang^2)
       XXX     121.5682    XXY     -56.5089    XYY    -145.7041
       YYY    -348.3629    XXZ      35.3785    XYZ      77.5275
       YYZ      33.6681    XZZ     -88.0754    YZZ      -3.2834
       ZZZ      60.3833
    Hexadecapole Moments (Debye-Ang^3)
      XXXX -131298.2107   XXXY    3126.9677   XXYY  -27125.6916
      XYYY    1532.9816   YYYY  -40034.6398   XXXZ     914.1026
      XXYZ    -141.4428   XYYZ      32.1540   YYYZ   -1314.3447
      XXZZ  -23803.4488   XYZZ     111.1818   YYZZ   -9623.8995
      XZZZ    -313.9501   YZZZ    -524.6125   ZZZZ  -14152.8599
 -----------------------------------------------------------------
Archival summary:
1\1\mn246\SP\ProcedureUnspecified\6-31G**\8105042\afmv_a\ThuOct1123:31:032018ThuOct1123:31:032018\0\\#,ProcedureUnspecified,6-31G**,\\0,1\S\C,1,1.73808\H,2,1.08215,1,127.762\C,2,1.33803,1,111.028,3,166.269,0\H,4,1.08195,2,127.312,1,-165.566,0\N,4,1.31966,2,116.097,1,13.0148,0\C,6,1.37484,4,112.147,2,-3.09097,0\C,7,1.41636,6,118.958,4,-165.187,0\C,8,1.40509,7,118.291,6,-167.214,0\C,9,1.37194,8,112.355,7,-179.378,0\C,10,1.38913,9,114.91,8,9.67075,0\C,9,1.40118,8,133.262,7,22.863,0\H,12,1.08464,9,118.642,8,-10.7821,0\C,12,1.40995,9,114.883,8,164.437,0\H,14,1.08247,12,129.273,9,179.272,0\C,11,1.4898,10,125.738,9,163.219,0\N,16,1.32269,11,118.308,10,-15.6566,0\C,17,1.32701,16,118.325,11,-175.366,0\H,18,1.08896,17,117.838,16,-174.991,0\C,18,1.41995,17,124.033,16,-1.96941,0\C,20,1.38428,18,115.802,17,6.85168,0\N,21,1.34749,20,122.999,18,172.004,0\C,21,1.37778,20,121.4,18,-12.1205,0\N,23,1.38661,21,109.987,20,-178.074,0\C,20,1.50331,18,120.08,17,-177.526,0\C,25,1.38851,20,124.894,18,143.642,0\H,26,1.08885,25,115.086,20,5.8649,0\N,26,1.29492,25,129.067,20,-175.632,0\C,28,1.34067,26,118.155,25,-5.18364,0\C,29,1.40365,28,119.227,26,-4.44203,0\H,30,1.08588,29,120.179,28,176.355,0\C,25,1.41674,20,120.834,18,-38.1439,0\H,32,1.08587,25,121.309,20,2.01569,0\C,29,1.51324,28,120.871,26,-175.436,0\H,34,1.09649,29,110.976,28,119.306,0\H,34,1.09792,29,110.601,28,-0.697827,0\C,34,1.51528,29,112.925,28,-117.246,0\H,37,1.09672,34,110.537,29,-68.8483,0\H,37,1.0978,34,115.977,29,49.1414,0\C,37,1.57177,34,115.836,29,168.531,0\H,40,1.09706,37,103.471,34,175.123,0\H,40,1.09715,37,114.396,34,-66.9361,0\C,40,1.49002,37,113.891,34,55.435,0\H,43,1.09643,40,110.657,37,-50.6715,0\H,43,1.09675,40,104.613,37,-172.497,0\C,43,1.5212,40,113.505,37,72.6582,0\H,46,1.097,43,114.254,40,44.9301,0\H,46,1.09704,43,106.971,40,-73.5705,0\C,46,1.55954,43,108.251,40,172.692,0\H,49,1.09652,46,110.723,43,58.9971,0\H,49,1.09718,46,113.667,43,179.529,0\H,49,1.09735,46,97.6077,43,-56.0328,0\S,22,1.59126,21,108.308,20,178.441,0\S,8,1.72162,7,130.445,6,26.9123,0\S,10,1.78645,9,115.545,8,-170.162,0\S,3,3.22789,2,133.407,1,48.612,0\C,56,1.75876,3,122.67,2,81.4992,0\C,57,1.37101,56,108.144,3,-139.117,0\C,58,1.38796,57,116.262,56,11.9441,0\C,59,1.37812,58,113.647,57,-11.3632,0\C,57,1.42356,56,126.274,3,46.5118,0\N,61,1.29478,57,116.304,56,-142.9,0\C,62,1.36487,61,110.539,57,179.357,0\H,63,1.08251,62,121.259,61,179.22,0\C,63,1.36523,62,114.423,61,-2.63746,0\H,65,1.08205,63,130.777,62,-179.017,0\C,58,1.42539,57,129.938,56,-175.988,0\H,67,1.08416,58,122.113,57,0.547044,0\C,67,1.40145,58,111.68,57,-178.103,0\H,69,1.0817,67,122.742,58,168.381,0\C,60,1.45816,59,126.844,58,-164.91,0\N,71,1.34237,60,116.938,59,6.36199,0\C,72,1.33209,71,121.833,60,-179.065,0\H,73,1.08904,72,118.692,71,172.24,0\C,73,1.47085,72,122.125,71,-1.00691,0\C,75,1.40197,73,114.829,72,-4.81146,0\C,76,1.37588,75,124.213,73,8.96008,0\N,77,1.32551,76,117.582,75,-174.11,0\N,76,1.37843,75,121.536,73,-174.891,0\C,75,1.49416,73,119.5,72,-173.098,0\C,80,1.41674,75,122.121,73,34.6408,0\H,81,1.08906,80,116.022,75,2.44603,0\N,81,1.36149,80,125.714,75,179.541,0\C,83,1.36781,81,119.273,80,4.68605,0\C,84,1.37096,83,121.592,81,-7.03128,0\H,85,1.0861,84,122.103,83,178.254,0\C,80,1.42912,75,126.243,73,-151.316,0\H,87,1.0868,80,115.13,75,4.81232,0\C,84,1.48562,83,115.236,81,176.767,0\H,89,1.09674,84,106.099,83,171.745,0\H,89,1.09697,84,105.986,83,64.583,0\C,89,1.53743,84,119.698,83,-57.1689,0\H,92,1.09602,89,105.642,84,48.357,0\H,92,1.09684,89,107.987,84,161.3,0\C,92,1.52824,89,114.292,84,-72.4754,0\H,95,1.09715,92,108.927,89,-63.9397,0\H,95,1.09715,92,103.181,89,173.168,0\C,95,1.57334,92,112.275,89,61.708,0\H,98,1.09701,95,116.772,92,38.4299,0\H,98,1.09709,95,111.393,92,-84.0117,0\C,98,1.57917,95,108.691,92,158.747,0\H,101,1.09622,98,106.635,95,169.973,0\H,101,1.09714,98,113.111,95,51.1766,0\C,101,1.55085,98,115.891,95,-65.6626,0\H,104,1.09647,101,109.798,98,-56.5346,0\H,104,1.09675,101,104.008,98,-172.343,0\H,104,1.09696,101,108.102,98,67.5222,0\S,79,1.62364,76,104.314,75,178.39,0\S,65,1.73177,63,112.601,62,-2.37045,0\S,69,1.78891,67,113.586,58,4.0753,0\\\@

 Total job time:  81.45s(wall), 960.48s(cpu) 
 Thu Oct 11 23:31:03 2018

        *************************************************************
        *                                                           *
        *  Thank you very much for using Q-Chem.  Have a nice day.  *
        *                                                           *
        *************************************************************


