
Running Job 1 of 1 ./7/5.qcin
qchem ./7/5.qcin_61091.0 /tmpu/cab_g/afmv_a/scratch_qchem/qchem61091/ 1
/tmpu/appuserlic/qchem4.4/serial-multicore/exe/qcprog.exe_s ./7/5.qcin_61091.0 /tmpu/cab_g/afmv_a/scratch_qchem/qchem61091/
Check license passed

                  Welcome to Q-Chem
     A Quantum Leap Into The Future Of Chemistry


 Q-Chem 4.4, Q-Chem, Inc., Pleasanton, CA (2016)

 Y. Shao,  Z. Gan,  E. Epifanovsky,  A. T. B. Gilbert,  M. Wormit,  
 J. Kussmann,  A. W. Lange,  A. Behn,  J. Deng,  X. Feng,  D. Ghosh,  
 M. Goldey,  P. R. Horn,  L. D. Jacobson,  I. Kaliman,  F. Rob,  
 R. Z. Khaliullin,  T. Kus,  A. Landau,  J. Liu,  E. I. Proynov,  Y. M. Rhee,  
 R. M. Richard,  M. A. Rohrdanz,  R. P. Steele,  E. J. Sundstrom,  
 H. L. Woodcock III,  P. M. Zimmerman,  D. Zuev,  B. Albrecht,  E. Alguire,  
 B. Austin,  S. A. Baeppler,  G. J. O. Beran,  Y. A. Bernard,  E. Berquist,  
 K. Brandhorst,  K. B. Bravaya,  S. T. Brown,  D. Casanova,  C.-M. Chang,  
 Y. Chen,  S. H. Chien,  K. D. Closser,  M. P. Coons,  D. L. Crittenden,  
 S. Dasgupta,  M. Diedenhofen,  R. A. DiStasio Jr.,  H. Do,  A. D. Dutoi,  
 R. G. Edgar,  P.-T. Fang,  S. Fatehi,  Q. Feng,  L. Fusti-Molnar,  
 A. Ghysels,  A. Golubeva-Zadorozhnaya,  J. Gomes,  A. Gunina,  
 M. W. D. Hanson-Heine,  P. H. P. Harbach,  A. W. Hauser,  J. E. Herr,  
 E. G. Hohenstein,  Z. C. Holden,  K. Hui,  T.-C. Jagau,  H. Ji,  B. Kaduk,  
 K. Khistyaev,  Jaehoon Kim,  Jihan Kim,  R. A. King,  P. Klunzinger,  
 K. Koh,  D. Kosenkov,  T. Kowalczyk,  C. M. Krauter,  A. Kunitsa,  
 K. U. Lao,  A. Laurent,  K. V. Lawler,  J. Lee,  D. Lefrancois,  S. Lehtola,  
 S. V. Levchenko,  C. Y. Lin,  Y.-S. Lin,  F. Liu,  E. Livshits,  
 R. C. Lochan,  A. Luenser,  P. Manohar,  S. F. Manzer,  S.-P. Mao,  Y. Mao,  
 N. Mardirossian,  A. V. Marenich,  L. A. Martinez-Martinez,  S. A. Maurer,  
 N. J. Mayhall,  J.-M. Mewes,  A. F. Morrison,  K. Nanda,  T. S. Nguyen-Beck,  
 C. M. Oana,  R. Olivares-Amaya,  D. P. O'Neill,  J. A. Parkhill,  
 T. M. Perrine,  R. Peverati,  P. A. Pieniazek,  F. Plasser,  A. Prociuk,  
 D. R. Rehn,  E. Rosta,  N. J. Russ,  N. Sergueev,  S. M. Sharada,  
 S. Sharma,  D. W. Small,  A. Sodt,  T. Stauch,  T. Stein,  D. Stuck,  
 Y.-C. Su,  A. J. W. Thom,  T. Tsuchimochi,  L. Vogt,  O. Vydrov,  T. Wang,  
 M. A. Watson,  J. Wenzel,  A. White,  C. F. Williams,  V. Vanovschi,  
 K. Yao,  S. Yeganeh,  S. R. Yost,  Z.-Q. You,  I. Y. Zhang,  X. Zhang,  
 Y. Zhao,  B. R. Brooks,  G. K. L. Chan,  D. M. Chipman,  C. J. Cramer,  
 W. A. Goddard III,  M. S. Gordon,  W. J. Hehre,  A. Klamt,  
 H. F. Schaefer III,  M. W. Schmidt,  C. D. Sherrill,  D. G. Truhlar,  
 A. Warshel,  X. Xu,  A. Aspuru-Guzik,  R. Baer,  A. T. Bell,  N. A. Besley,  
 J.-D. Chai,  A. Dreuw,  B. D. Dunietz,  T. R. Furlani,  S. R. Gwaltney,  
 C.-P. Hsu,  Y. Jung,  J. Kong,  D. S. Lambrecht,  W. Liang,  C. Ochsenfeld,  
 V. A. Rassolov,  L. V. Slipchenko,  J. E. Subotnik,  T. Van Voorhis,  
 J. M. Herbert,  A. I. Krylov,  P. M. W. Gill,  M. Head-Gordon

 Contributors to earlier versions of Q-Chem not listed above: 
 R. D. Adamson,  J. Baker,  E. F. C. Byrd,  A. K. Chakraborty,  C.-L. Cheng,  
 H. Dachsel,  R. J. Doerksen,  G. Hawkins,  A. Heyden,  S. Hirata,  
 G. Kedziora,  F. J. Keil,  C. Kelley,  P. P. Korambath,  W. Kurlancheek,  
 A. M. Lee,  M. S. Lee,  D. Liotard,  I. Lotan,  P. E. Maslen,  N. Nair,  
 D. Neuhauser,  R. Olson,  B. Peters,  J. Ritchie,  N. E. Schultz,  
 N. Shenvi,  A. C. Simmonett,  K. S. Thanthiriwatte,  Q. Wu,  W. Zhang

 Please cite Q-Chem as follows:
 Y. Shao et al., Mol. Phys. 113, 184-215 (2015)
 DOI: 10.1080/00268976.2014.952696

 Q-Chem 4.4.2 for Intel X86 Linux

 Parts of Q-Chem use Armadillo 5.200.1 (Boston Tea Smuggler).
 http://arma.sourceforge.net/

 Q-Chem begins on Thu Oct 11 23:59:53 2018  

Host: 
0

     Scratch files written to /tmpu/cab_g/afmv_a/scratch_qchem/qchem61091//
 Dec716 11556_ 22328  22283 4050   
Processing $rem in /tmpu/appuserlic/qchem4.4/serial-multicore/config/preferences.
 MEM_TOTAL  2000 
FILE_GEOM_ORG=        593

Checking the input file for inconsistencies... 	...done.

--------------------------------------------------------------
User input:
--------------------------------------------------------------
$comment
SP
$end

$rem
MEM_STATIC 5000
MEM_TOTAL 20000
JOBTYPE SP
EXCHANGE B3LYP
BASIS 6-31g(d,p)
$end

$molecule
0 1
C         -23.271000     10.167000     -7.780000
C         -23.575000      8.856000     -8.007000
N         -23.165000     10.677000     -6.566000
C         -23.960000      8.066000     -6.897000
C         -23.380000      9.854000     -5.542000
C         -23.883000      8.538000     -5.572000
C         -24.205000      7.689000     -4.360000
C         -24.708000      8.273000     -3.163000
C         -23.702000      6.401000     -4.215000
N         -24.870000      7.597000     -1.986000
N         -23.051000      5.716000     -5.175000
C         -23.840000      5.725000     -2.986000
C         -24.482000      6.335000     -1.920000
S         -22.606000      4.300000     -4.465000
N         -23.238000      4.502000     -2.932000
C         -24.713000      5.616000     -0.697000
S         -24.726000      3.837000     -0.440000
C         -25.126000      6.204000      0.507000
C         -25.208000      4.014000      1.224000
S         -25.184000      7.902000      0.928000
C         -25.374000      5.331000      1.547000
C         -25.308000      2.876000      2.147000
C         -25.518000      7.484000      2.585000
C         -25.680000      6.121000      2.754000
N         -25.323000      1.677000      1.568000
S         -25.222000      2.941000      3.942000
C         -25.259000      0.733000      2.539000
C         -25.028000      1.173000      3.833000
C         -22.899000     11.077000     -8.940000
H         -23.702000      8.481000     -9.018000
H         -24.165000      7.012000     -7.056000
H         -23.305000     10.358000     -4.579000
H         -25.020000      9.315000     -3.213000
H         -25.639000      8.245000      3.344000
H         -26.065000      5.705000      3.678000
H         -25.257000     -0.322000      2.301000
H         -24.922000      0.486000      4.662000
H         -21.923000     11.557000     -8.798000
C         -23.948000     12.175000     -9.080000
H         -22.840000     10.524000     -9.886000
H         -23.971000     12.771000     -8.159000
H         -24.937000     11.705000     -9.152000
C         -23.750000     13.051000    -10.317000
H         -22.813000     13.611000    -10.205000
C         -24.825000     14.075000    -10.512000
H         -23.642000     12.383000    -11.180000
H         -24.680000     14.770000     -9.675000
H         -25.847000     13.696000    -10.394000
C         -24.681000     14.710000    -11.940000
H         -25.164000     15.693000    -11.880000
C         -25.242000     13.821000    -13.020000
H         -23.667000     15.082000    -12.134000
H         -24.557000     12.990000    -13.228000
H         -25.234000     14.466000    -13.908000
H         -26.256000     13.493000    -12.760000
C         -14.388000     -3.633000    -10.427000
C         -14.822000     -2.951000     -9.238000
N         -15.320000     -3.662000    -11.421000
C         -16.111000     -2.391000     -9.155000
C         -16.508000     -3.089000    -11.401000
C         -17.003000     -2.467000    -10.195000
C         -18.456000     -2.227000     -9.892000
C         -18.835000     -1.136000     -9.103000
C         -19.489000     -3.113000    -10.251000
N         -20.090000     -0.817000     -8.747000
N         -19.403000     -4.157000    -11.069000
C         -20.808000     -2.850000     -9.838000
C         -21.069000     -1.623000     -9.134000
S         -20.851000     -4.937000    -10.977000
N         -21.676000     -3.728000    -10.313000
C         -22.488000     -1.216000     -8.838000
S         -23.954000     -2.146000     -8.946000
C         -22.827000      0.045000     -8.380000
C         -25.018000     -0.790000     -8.588000
S         -21.764000      1.432000     -7.988000
C         -24.184000      0.258000     -8.350000
C         -26.485000     -0.754000     -8.506000
C         -23.329000      2.189000     -7.567000
C         -24.519000      1.534000     -7.902000
N         -26.978000     -1.976000     -8.586000
S         -27.616000      0.575000     -8.715000
C         -28.321000     -1.910000     -8.795000
C         -28.874000     -0.596000     -8.816000
C         -13.046000     -4.318000    -10.526000
H         -14.245000     -2.901000     -8.319000
H         -16.265000     -1.877000     -8.211000
H         -17.148000     -3.183000    -12.277000
H         -18.084000     -0.382000     -8.869000
H         -23.308000      3.110000     -6.999000
H         -25.507000      1.932000     -7.698000
H         -28.832000     -2.851000     -8.952000
H         -29.899000     -0.389000     -9.096000
H         -12.273000     -3.599000    -10.227000
C         -12.750000     -4.957000    -11.927000
H         -13.071000     -5.193000     -9.865000
H         -12.854000     -4.181000    -12.695000
H         -13.424000     -5.749000    -12.277000
C         -11.384000     -5.651000    -11.863000
H         -10.625000     -4.875000    -12.020000
C         -11.298000     -6.818000    -12.861000
H         -11.282000     -5.976000    -10.820000
H         -12.081000     -7.535000    -12.586000
H         -10.376000     -7.399000    -12.737000
C         -11.484000     -6.450000    -14.353000
H         -11.449000     -7.269000    -15.082000
C         -10.312000     -5.496000    -14.829000
H         -12.482000     -6.002000    -14.430000
H         -10.454000     -4.622000    -14.182000
H         -10.481000     -5.325000    -15.900000
H          -9.343000     -5.996000    -14.706000
$end

--------------------------------------------------------------
 ----------------------------------------------------------------
             Standard Nuclear Orientation (Angstroms)
    I     Atom           X                Y                Z
 ----------------------------------------------------------------
    1      C       5.1925079762     5.8652017213    -1.2309177505
    2      C       4.3415805638     5.1574948272    -0.4323318185
    3      N       6.1106055027     5.2889421544    -1.9860030725
    4      C       4.5770151557     3.7693671003    -0.2836813337
    5      C       6.1907406713     3.9611027309    -1.9354974276
    6      C       5.5416095589     3.0817895630    -1.0460019798
    7      C       5.7567249612     1.5845763701    -0.9717926909
    8      C       7.0333779394     1.0092685166    -1.2287986192
    9      C       4.6933171326     0.6900387422    -1.0158860274
   10      N       7.2648775318    -0.3337096522    -1.3354127681
   11      N       3.3931657926     1.0354216729    -0.9455786712
   12      C       4.9391495217    -0.6898630908    -1.1638669983
   13      C       6.2382639999    -1.1630237732    -1.2589487577
   14      S       2.5643062769    -0.3745465743    -1.1249175828
   15      N       3.8215000848    -1.4638222390    -1.2774274363
   16      C       6.5001470834    -2.5753869772    -1.3108951796
   17      S       5.4289872201    -3.9233148055    -0.7944011170
   18      C       7.7362895572    -3.1445494080    -1.6484376389
   19      C       6.6586746834    -5.1130091168    -1.1185078715
   20      S       9.1390359066    -2.3682426009    -2.3509043076
   21      C       7.8078322859    -4.5201095575    -1.5592809619
   22      C       6.4125153896    -6.5573236347    -1.0168507244
   23      C       9.8832203894    -3.9235743619    -2.5939301682
   24      C       9.1272795125    -4.9501622269    -2.0579779819
   25      N       5.3057982584    -6.8981741601    -0.3595341258
   26      S       7.3379375985    -7.8627327986    -1.8373058725
   27      C       5.1310461899    -8.2369553626    -0.4828208105
   28      C       5.9777211733    -8.9067164187    -1.3522796078
   29      C       5.0196996344     7.3675638993    -1.3894395568
   30      H       3.6309903578     5.6658008125     0.2123088447
   31      H       3.8845108623     3.1865133777     0.3154358014
   32      H       6.9914115099     3.5675194251    -2.5608200561
   33      H       7.8789921287     1.6914375158    -1.3008409631
   34      H      10.8555441841    -4.0158138999    -3.0586035007
   35      H       9.5212495780    -5.9554904138    -1.9622710120
   36      H       4.2893697028    -8.7404427376    -0.0270202464
   37      H       5.8827306016    -9.9676074515    -1.5418396451
   38      H       4.9115724193     7.6671449512    -2.4390583918
   39      C       6.2405856342     8.0815934564    -0.8191728059
   40      H       4.1247124403     7.7297256452    -0.8678623409
   41      H       7.1331980863     7.7697110051    -1.3759118353
   42      H       6.3983931443     7.7343346765     0.2097650588
   43      C       6.0954853178     9.6030014553    -0.7873514431
   44      H       6.0466163458     9.9732406955    -1.8191691249
   45      C       7.2511794722    10.3080841893    -0.1474644533
   46      H       5.1395599045     9.8327760814    -0.3014839453
   47      H       8.0803830539    10.1402977501    -0.8466698101
   48      H       7.5860946896     9.8730082720     0.8015296159
   49      C       6.8716715992    11.8123413521     0.0898732014
   50      H       7.8228858032    12.3563924916     0.1386368745
   51      C       6.0016306099    11.9971426974     1.3065568660
   52      H       6.4969523740    12.2995078808    -0.8192309047
   53      H       4.9723598970    11.6832099269     1.0941939335
   54      H       5.9782727211    13.0865936296     1.4376449097
   55      H       6.4403353876    11.4886238644     2.1739245589
   56      C     -10.1864314514    -0.2027240055    -2.9695371614
   57      C      -8.8831354544    -0.7017212890    -3.3154016654
   58      N     -10.2338338070     0.4378065872    -1.7674662082
   59      C      -7.7883750444    -0.5282660695    -2.4474022808
   60      C      -9.2152949036     0.6771974503    -0.9641334522
   61      C      -7.9123064317     0.1204947856    -1.2445762900
   62      C      -6.8364400677    -0.0956621929    -0.2167602912
   63      C      -5.4898120711    -0.0221235229    -0.5877429088
   64      C      -7.0868434896    -0.4999418336     1.1079366925
   65      N      -4.4359059817    -0.2076856865     0.2236575092
   66      N      -8.2639498718    -0.5499104472     1.7230624540
   67      C      -6.0083276356    -0.7711292989     1.9697718921
   68      C      -4.6744241217    -0.5336812797     1.4864646877
   69      S      -7.9935780727    -1.2669818039     3.1812379440
   70      N      -6.3990056702    -1.0663879563     3.1986437318
   71      C      -3.5062318172    -0.6330206047     2.4310727748
   72      S      -3.4317276288    -1.2979537515     4.0366982094
   73      C      -2.2354956146    -0.1953772153     2.1016736747
   74      C      -1.7705867998    -0.7944509360     4.3301126958
   75      S      -1.6427837633     0.5114894751     0.5666055513
   76      C      -1.3687948956    -0.2133665106     3.1676118759
   77      C      -0.9402465487    -0.9771964575     5.5289655399
   78      C      -0.0959663018     0.5301241886     1.4646720792
   79      C      -0.0950925597     0.2419416092     2.8337228590
   80      N      -1.5564138595    -1.7568594320     6.3979859604
   81      S       0.4449063235    -0.0694480576     6.1175463441
   82      C      -0.9203130469    -1.6881620488     7.5989615746
   83      C       0.2507758919    -0.8753640639     7.6264594517
   84      C     -11.4020857718    -0.4398658114    -3.8332143796
   85      H      -8.6753623183    -1.3068677824    -4.1932501976
   86      H      -6.8715110317    -0.9235159652    -2.8742346860
   87      H      -9.3980354259     1.2151667727    -0.0351518002
   88      H      -5.2469326446     0.3633630291    -1.5775321301
   89      H       0.8127916569     0.6997739059     0.9019252926
   90      H       0.7951903794     0.2486129265     3.4530093692
   91      H      -1.3756291150    -2.2293832027     8.4181184220
   92      H       0.7806802918    -0.6304451306     8.5381008521
   93      H     -11.1609418564    -0.1239942295    -4.8559390521
   94      C     -12.7136573359     0.2335787055    -3.2993693506
   95      H     -11.6434790714    -1.5085114040    -3.7793917798
   96      H     -12.5276816999     1.3062438402    -3.1666343832
   97      H     -13.0823092836    -0.0813330206    -2.3150084684
   98      C     -13.8638431933    -0.1301682689    -4.2461790633
   99      H     -13.8118562386     0.5657235439    -5.0923102242
  100      C     -15.2174969432    -0.1238468486    -3.5161992245
  101      H     -13.6000406840    -1.1185923602    -4.6427948116
  102      H     -15.1559759173    -0.8730127228    -2.7175950320
  103      H     -16.0287488592    -0.5033329205    -4.1493513785
  104      C     -15.6399379668     1.2233627253    -2.8816490330
  105      H     -16.5914903217     1.2469160860    -2.3362864427
  106      C     -15.8463482134     2.3161220117    -4.0101648513
  107      H     -14.8553828142     1.4737149423    -2.1574708919
  108      H     -14.8439802433     2.3796317426    -4.4504760669
  109      H     -16.1945099459     3.2193478175    -3.4926616611
  110      H     -16.6274630330     1.9944839476    -4.7105208996
 ----------------------------------------------------------------
 Molecular Point Group                 C1    NOp =  1
 Largest Abelian Subgroup              C1    NOp =  1
 Nuclear Repulsion Energy = 10486.0968065916 hartrees
 There are      270 alpha and      270 beta electrons
 Requested basis set is 6-31G(d,p)
 There are 406 shells and 1262 basis functions

 Total QAlloc Memory Limit  20000 MB
 Mega-Array Size      4888 MB
 MEM_STATIC part      5000 MB
 A cutoff of  1.0D-08 yielded  12299 shell pairs
 There are    128776 function pairs
 
 -------------------------------------------------------
 OpenMP Integral Computing Module                       
 Release: version 1.0, May 2013, Q-Chem Inc. Pittsburgh 
 -------------------------------------------------------
 Integral Job Info:
 Integral job number is                      11
 Integral operator is                         1
 short-range coefficients                     0
 long-range coefficients              100000000
 Omega coefficients                           0
 if combine SR and LR in K                    0
 Integral screening is                        0
 Integral computing path is                   2
 max size of driver memory is            800000
 size of driver memory is                593474
 size of scratch memory is             15166112
 max col of scratch BK array               1296
 max len of scratch array in speh3          155
 max len of scratch index in speh4           18
 max int batch size is                      520
 min int batch size is                       52
 fixed nKL is                                52
 max L of basis functions is                  2
 order of int derivative is                   0
 number of shells is                        406
 number of basis is                        1262
 number of cartesian basis is              1262
 number of contracted shell pairs         12299
 number of primitive shell pairs          40824
 maxK2 (contraction) of shell pair           36
 max number of K2 of shell pair               1
 max number of CS2 of shell pair           1240
 max number of PS2 of shell pair           7440
 mem total for path MDJ                  278296
 -------------------------------------------------------
 Smallest overlap matrix eigenvalue = 4.16E-04

 Scale SEOQF with 1.000000e-02/1.000000e-02/1.000000e-02

 Standard Electronic Orientation quadrupole field applied
 Nucleus-field energy     =     0.0000001235 hartrees
 Guess from superposition of atomic densities
 Warning:  Energy on first SCF cycle will be non-variational
 A restricted hybrid HF-DFT SCF calculation will be
 performed using Pulay DIIS extrapolation
 Exchange:     0.2000 Hartree-Fock + 0.0800 Slater + 0.7200 B88
 Correlation:  0.1900 VWN1RPA + 0.8100 LYP
 Using SG-1 standard quadrature grid
 SCF converges when DIIS error is below 1.0E-05
 using 16 threads for integral computing 
 -------------------------------------------------------
 OpenMP BLAS3 based DFT computing Module                
 Release: version 1.0, May 2013, Q-Chem Inc. Pittsburgh 
 -------------------------------------------------------
 ---------------------------------------
  Cycle       Energy         DIIS Error
 ---------------------------------------
    1   -5680.3993773624      2.16E-02
    2   -5662.5047548915      2.14E-03
    3   -5661.2715447355      3.19E-03
    4   -5663.3559015949      8.42E-04
    5   -5663.4731070247      4.22E-04
    6   -5663.4988225076      2.30E-04
    7   -5663.5083444541      6.86E-05
    8   -5663.5091223589      2.85E-05
    9   -5663.5092702880      1.09E-05
   10   -5663.5092985234      3.50E-06 Convergence criterion met
 ---------------------------------------
 SCF time:  CPU 988.51 s  wall 82.68 s
 SCF   energy in the final basis set = -5663.5092985234
 Total energy in the final basis set = -5663.5092985234
 
 --------------------------------------------------------------
 
                    Orbital Energies (a.u.)
 --------------------------------------------------------------
 
 Alpha MOs
 -- Occupied --
-88.989 -88.986 -88.938 -88.936 -88.927 -88.918 -88.914 -88.910
-14.394 -14.386 -14.381 -14.373 -14.353 -14.352 -14.349 -14.342
-14.325 -14.323 -10.277 -10.271 -10.267 -10.259 -10.256 -10.254
-10.252 -10.250 -10.246 -10.244 -10.239 -10.238 -10.236 -10.235
-10.234 -10.234 -10.234 -10.232 -10.230 -10.229 -10.228 -10.227
-10.226 -10.224 -10.224 -10.224 -10.223 -10.220 -10.216 -10.212
-10.211 -10.209 -10.207 -10.204 -10.200 -10.197 -10.196 -10.195
-10.192 -10.179 -10.176 -10.176 -10.175 -10.175 -10.175 -10.173
-10.171 -10.171 -10.170 -10.169  -8.044  -8.042  -7.999  -7.996
 -7.985  -7.977  -7.972  -7.970  -6.009  -6.007  -6.003  -6.002
 -6.001  -5.999  -5.963  -5.959  -5.959  -5.957  -5.955  -5.952
 -5.949  -5.945  -5.941  -5.941  -5.937  -5.937  -5.935  -5.934
 -5.933  -5.931  -5.929  -5.927  -1.044  -1.033  -0.973  -0.971
 -0.965  -0.965  -0.949  -0.933  -0.916  -0.915  -0.906  -0.904
 -0.848  -0.840  -0.834  -0.833  -0.815  -0.809  -0.808  -0.806
 -0.805  -0.804  -0.796  -0.794  -0.786  -0.780  -0.767  -0.765
 -0.751  -0.745  -0.741  -0.740  -0.728  -0.715  -0.712  -0.707
 -0.697  -0.693  -0.676  -0.675  -0.655  -0.653  -0.648  -0.643
 -0.637  -0.635  -0.629  -0.621  -0.611  -0.610  -0.604  -0.601
 -0.595  -0.591  -0.583  -0.579  -0.577  -0.574  -0.566  -0.550
 -0.544  -0.543  -0.542  -0.542  -0.524  -0.524  -0.521  -0.517
 -0.506  -0.505  -0.499  -0.498  -0.491  -0.483  -0.482  -0.478
 -0.476  -0.473  -0.469  -0.469  -0.465  -0.464  -0.453  -0.450
 -0.445  -0.442  -0.441  -0.437  -0.436  -0.436  -0.433  -0.432
 -0.432  -0.424  -0.423  -0.421  -0.418  -0.417  -0.416  -0.414
 -0.413  -0.406  -0.403  -0.402  -0.400  -0.396  -0.395  -0.394
 -0.393  -0.392  -0.392  -0.390  -0.389  -0.385  -0.383  -0.382
 -0.379  -0.379  -0.374  -0.373  -0.371  -0.366  -0.365  -0.356
 -0.354  -0.353  -0.350  -0.350  -0.348  -0.347  -0.342  -0.339
 -0.338  -0.337  -0.335  -0.330  -0.327  -0.322  -0.319  -0.318
 -0.317  -0.312  -0.309  -0.305  -0.303  -0.301  -0.297  -0.296
 -0.295  -0.295  -0.294  -0.294  -0.292  -0.289  -0.287  -0.283
 -0.279  -0.276  -0.267  -0.260  -0.252  -0.252  -0.251  -0.249
 -0.240  -0.239  -0.232  -0.229  -0.197  -0.194
 -- Virtual --
 -0.117  -0.112  -0.077  -0.068  -0.036  -0.035  -0.024  -0.023
 -0.022  -0.017  -0.015  -0.014  -0.010  -0.008   0.001   0.003
  0.004   0.007   0.012   0.015   0.032   0.035   0.038   0.038
  0.049   0.050   0.054   0.057   0.062   0.077   0.081   0.091
  0.096   0.097   0.102   0.102   0.105   0.108   0.110   0.111
  0.114   0.115   0.115   0.118   0.119   0.121   0.126   0.127
  0.130   0.131   0.131   0.134   0.136   0.141   0.148   0.150
  0.154   0.155   0.156   0.160   0.160   0.161   0.163   0.164
  0.169   0.172   0.172   0.174   0.176   0.179   0.185   0.185
  0.187   0.187   0.191   0.195   0.196   0.198   0.200   0.203
  0.205   0.207   0.211   0.212   0.215   0.216   0.217   0.221
  0.222   0.225   0.228   0.231   0.231   0.232   0.233   0.239
  0.242   0.242   0.245   0.245   0.247   0.254   0.255   0.260
  0.261   0.265   0.269   0.270   0.273   0.276   0.280   0.284
  0.286   0.291   0.292   0.294   0.297   0.300   0.302   0.307
  0.309   0.314   0.316   0.318   0.322   0.323   0.324   0.325
  0.333   0.335   0.337   0.339   0.344   0.346   0.349   0.352
  0.354   0.355   0.356   0.359   0.360   0.363   0.365   0.366
  0.367   0.370   0.375   0.379   0.387   0.394   0.395   0.405
  0.407   0.410   0.420   0.421   0.425   0.429   0.431   0.436
  0.443   0.444   0.446   0.450   0.451   0.455   0.465   0.473
  0.476   0.480   0.484   0.488   0.490   0.491   0.497   0.500
  0.502   0.503   0.507   0.509   0.511   0.512   0.514   0.519
  0.522   0.524   0.524   0.526   0.528   0.533   0.534   0.536
  0.537   0.538   0.539   0.542   0.543   0.550   0.551   0.552
  0.554   0.555   0.558   0.559   0.559   0.562   0.562   0.564
  0.570   0.571   0.572   0.574   0.577   0.579   0.579   0.581
  0.583   0.585   0.587   0.589   0.594   0.595   0.597   0.598
  0.599   0.601   0.606   0.607   0.611   0.612   0.615   0.617
  0.619   0.621   0.621   0.621   0.626   0.626   0.628   0.632
  0.634   0.635   0.638   0.639   0.641   0.644   0.648   0.650
  0.650   0.653   0.657   0.663   0.664   0.667   0.671   0.675
  0.678   0.681   0.682   0.684   0.687   0.688   0.689   0.691
  0.695   0.703   0.706   0.707   0.710   0.713   0.715   0.719
  0.721   0.725   0.727   0.728   0.735   0.735   0.738   0.741
  0.746   0.748   0.749   0.756   0.756   0.760   0.761   0.763
  0.768   0.768   0.774   0.778   0.780   0.783   0.784   0.788
  0.789   0.793   0.794   0.802   0.803   0.807   0.810   0.810
  0.811   0.813   0.815   0.817   0.819   0.820   0.821   0.824
  0.827   0.827   0.828   0.829   0.830   0.831   0.834   0.835
  0.836   0.839   0.841   0.845   0.847   0.850   0.851   0.853
  0.853   0.854   0.858   0.860   0.862   0.865   0.866   0.867
  0.868   0.876   0.879   0.879   0.881   0.884   0.885   0.890
  0.893   0.895   0.896   0.899   0.900   0.903   0.905   0.907
  0.910   0.912   0.913   0.917   0.919   0.921   0.923   0.924
  0.926   0.932   0.934   0.938   0.940   0.941   0.945   0.947
  0.950   0.951   0.954   0.957   0.961   0.962   0.963   0.966
  0.970   0.970   0.972   0.975   0.976   0.979   0.982   0.988
  0.990   0.991   0.992   0.993   0.997   0.999   1.000   1.001
  1.002   1.002   1.013   1.013   1.017   1.020   1.023   1.025
  1.027   1.028   1.032   1.035   1.040   1.044   1.045   1.048
  1.050   1.054   1.058   1.061   1.064   1.068   1.070   1.072
  1.081   1.082   1.087   1.089   1.090   1.094   1.098   1.104
  1.109   1.118   1.121   1.128   1.130   1.135   1.139   1.143
  1.148   1.151   1.156   1.161   1.166   1.170   1.174   1.176
  1.179   1.194   1.199   1.201   1.207   1.209   1.216   1.226
  1.231   1.234   1.242   1.243   1.261   1.262   1.267   1.268
  1.272   1.274   1.278   1.284   1.287   1.290   1.291   1.296
  1.296   1.308   1.317   1.319   1.319   1.323   1.324   1.330
  1.331   1.339   1.341   1.344   1.345   1.354   1.357   1.362
  1.372   1.373   1.374   1.375   1.385   1.388   1.393   1.403
  1.405   1.406   1.419   1.420   1.424   1.427   1.440   1.442
  1.443   1.447   1.451   1.453   1.457   1.457   1.469   1.476
  1.476   1.479   1.487   1.489   1.500   1.509   1.510   1.522
  1.528   1.530   1.533   1.541   1.542   1.552   1.560   1.561
  1.569   1.570   1.577   1.577   1.586   1.594   1.599   1.600
  1.606   1.614   1.624   1.624   1.629   1.632   1.645   1.648
  1.648   1.661   1.666   1.668   1.671   1.677   1.677   1.680
  1.692   1.693   1.699   1.699   1.702   1.706   1.709   1.713
  1.716   1.719   1.723   1.729   1.730   1.740   1.742   1.745
  1.747   1.754   1.761   1.768   1.774   1.779   1.780   1.791
  1.795   1.799   1.800   1.802   1.808   1.808   1.817   1.819
  1.823   1.830   1.832   1.835   1.842   1.845   1.846   1.848
  1.855   1.857   1.859   1.860   1.864   1.864   1.873   1.873
  1.875   1.887   1.889   1.889   1.890   1.890   1.894   1.905
  1.906   1.915   1.918   1.919   1.922   1.924   1.927   1.931
  1.937   1.938   1.943   1.945   1.948   1.948   1.953   1.960
  1.966   1.969   1.971   1.976   1.978   1.980   1.986   1.988
  1.993   2.002   2.004   2.010   2.017   2.021   2.023   2.025
  2.036   2.038   2.038   2.042   2.043   2.046   2.048   2.051
  2.055   2.068   2.074   2.083   2.090   2.091   2.093   2.095
  2.100   2.100   2.104   2.115   2.122   2.122   2.126   2.128
  2.135   2.136   2.138   2.141   2.149   2.150   2.156   2.160
  2.162   2.163   2.165   2.166   2.179   2.181   2.185   2.187
  2.192   2.196   2.201   2.205   2.211   2.211   2.212   2.221
  2.225   2.228   2.232   2.233   2.240   2.244   2.251   2.252
  2.259   2.262   2.265   2.267   2.269   2.271   2.274   2.278
  2.284   2.285   2.289   2.294   2.304   2.307   2.309   2.312
  2.313   2.318   2.321   2.322   2.327   2.327   2.335   2.337
  2.344   2.347   2.351   2.356   2.361   2.363   2.368   2.371
  2.373   2.376   2.380   2.381   2.386   2.393   2.393   2.396
  2.397   2.399   2.402   2.411   2.415   2.415   2.423   2.424
  2.426   2.430   2.437   2.437   2.442   2.442   2.446   2.446
  2.449   2.453   2.457   2.462   2.463   2.463   2.467   2.471
  2.477   2.481   2.483   2.487   2.493   2.497   2.498   2.502
  2.503   2.509   2.518   2.521   2.529   2.535   2.538   2.542
  2.544   2.549   2.554   2.557   2.560   2.561   2.562   2.571
  2.573   2.576   2.586   2.586   2.595   2.598   2.601   2.605
  2.608   2.611   2.617   2.620   2.631   2.631   2.631   2.633
  2.635   2.637   2.641   2.646   2.661   2.663   2.666   2.667
  2.676   2.678   2.679   2.682   2.688   2.691   2.696   2.697
  2.705   2.707   2.710   2.712   2.718   2.720   2.733   2.744
  2.754   2.763   2.764   2.772   2.778   2.781   2.789   2.800
  2.802   2.809   2.812   2.819   2.822   2.827   2.830   2.836
  2.853   2.858   2.862   2.864   2.867   2.874   2.874   2.882
  2.882   2.886   2.891   2.903   2.908   2.910   2.910   2.914
  2.921   2.921   2.925   2.932   2.935   2.940   2.949   2.953
  2.960   2.962   2.968   2.975   2.982   2.994   3.018   3.022
  3.030   3.057   3.070   3.081   3.087   3.087   3.100   3.106
  3.169   3.175   3.203   3.212   3.217   3.219   3.240   3.241
  3.247   3.249   3.254   3.263   3.269   3.274   3.276   3.287
  3.288   3.301   3.308   3.314   3.320   3.322   3.333   3.334
  3.337   3.350   3.355   3.369   3.394   3.395   3.410   3.426
  3.435   3.444   3.445   3.453   3.466   3.488   3.538   3.548
  3.552   3.553   3.553   3.561   3.567   3.572   3.589   3.594
  3.607   3.640   3.725   3.725   3.841   3.843   3.910   3.920
  3.938   3.942   3.952   3.961   3.969   3.987   3.990   4.006
  4.013   4.022   4.068   4.072   4.085   4.101   4.103   4.104
  4.119   4.130   4.138   4.140   4.146   4.162   4.178   4.191
  4.203   4.208   4.238   4.248   4.261   4.265   4.277   4.278
  4.288   4.293   4.302   4.334   4.377   4.379   4.390   4.390
  4.425   4.428   4.449   4.450   4.463   4.476   4.483   4.484
  4.508   4.515   4.545   4.546   4.599   4.622   4.655   4.659
  4.682   4.689   4.705   4.719   4.755   4.774   4.794   4.804
 --------------------------------------------------------------
 
          Ground-State Mulliken Net Atomic Charges

     Atom                 Charge (a.u.)
  ----------------------------------------
      1 C                     0.283230
      2 C                    -0.116476
      3 N                    -0.470843
      4 C                    -0.091211
      5 C                     0.054827
      6 C                     0.058180
      7 C                     0.007723
      8 C                     0.055957
      9 C                     0.261636
     10 N                    -0.544365
     11 N                    -0.565894
     12 C                     0.206951
     13 C                     0.336510
     14 S                     0.604991
     15 N                    -0.560445
     16 C                    -0.228574
     17 S                     0.373262
     18 C                    -0.135371
     19 C                    -0.256413
     20 S                     0.294847
     21 C                     0.176422
     22 C                     0.065367
     23 C                    -0.300226
     24 C                    -0.094303
     25 N                    -0.417496
     26 S                     0.273968
     27 C                     0.126821
     28 C                    -0.304982
     29 C                    -0.218388
     30 H                     0.091757
     31 H                     0.107462
     32 H                     0.085489
     33 H                     0.120548
     34 H                     0.134878
     35 H                     0.107339
     36 H                     0.115072
     37 H                     0.131809
     38 H                     0.113491
     39 C                    -0.179270
     40 H                     0.088778
     41 H                     0.112745
     42 H                     0.085233
     43 C                    -0.163300
     44 H                     0.091349
     45 C                    -0.173322
     46 H                     0.083706
     47 H                     0.087355
     48 H                     0.084999
     49 C                    -0.184851
     50 H                     0.085418
     51 C                    -0.305272
     52 H                     0.089274
     53 H                     0.108050
     54 H                     0.102144
     55 H                     0.106889
     56 C                     0.285688
     57 C                    -0.136551
     58 N                    -0.494290
     59 C                    -0.056651
     60 C                     0.110654
     61 C                    -0.008168
     62 C                     0.036702
     63 C                     0.045838
     64 C                     0.247214
     65 N                    -0.529433
     66 N                    -0.566487
     67 C                     0.215628
     68 C                     0.324852
     69 S                     0.596587
     70 N                    -0.548964
     71 C                    -0.240606
     72 S                     0.344511
     73 C                    -0.103595
     74 C                    -0.216267
     75 S                     0.285545
     76 C                     0.147780
     77 C                     0.044121
     78 C                    -0.311257
     79 C                    -0.084268
     80 N                    -0.404055
     81 S                     0.299130
     82 C                     0.109753
     83 C                    -0.321811
     84 C                    -0.247153
     85 H                     0.079974
     86 H                     0.097870
     87 H                     0.117045
     88 H                     0.112793
     89 H                     0.108016
     90 H                     0.112465
     91 H                     0.115436
     92 H                     0.139672
     93 H                     0.120325
     94 C                    -0.169542
     95 H                     0.125369
     96 H                     0.108104
     97 H                     0.110836
     98 C                    -0.179159
     99 H                     0.093995
    100 C                    -0.186215
    101 H                     0.087334
    102 H                     0.088595
    103 H                     0.084427
    104 C                    -0.185833
    105 H                     0.090219
    106 C                    -0.314086
    107 H                     0.100959
    108 H                     0.109712
    109 H                     0.099435
    110 H                     0.104331
  ----------------------------------------
  Sum of atomic charges =     0.000000

 -----------------------------------------------------------------
                    Cartesian Multipole Moments
 -----------------------------------------------------------------
    Charge (ESU x 10^10)
                 0.0000
    Dipole Moment (Debye)
         X       1.5711      Y      -2.6883      Z       0.5294
       Tot       3.1584
    Quadrupole Moments (Debye-Ang)
        XX    -440.4901     XY     -12.0575     YY    -411.0230
        XZ      11.5549     YZ      16.8575     ZZ    -420.3400
    Octopole Moments (Debye-Ang^2)
       XXX     247.7832    XXY    -364.7020    XYY     225.7733
       YYY    -330.1185    XXZ    -128.9655    XYZ      74.1992
       YYZ     -55.0312    XZZ     -39.8482    YZZ     -45.6774
       ZZZ     241.4532
    Hexadecapole Moments (Debye-Ang^3)
      XXXX -135099.9150   XXXY   -1219.3202   XXYY  -29435.2919
      XYYY   -2005.5334   YYYY  -43192.8799   XXXZ   -1169.6173
      XXYZ    1244.6756   XYYZ    -591.2803   YYYZ     602.2019
      XXZZ  -25630.1737   XYZZ      64.8766   YYZZ  -11809.8855
      XZZZ     477.1631   YZZZ    -172.6884   ZZZZ  -18515.6460
 -----------------------------------------------------------------
Archival summary:
1\1\mn246\SP\ProcedureUnspecified\6-31G**\8105042\afmv_a\FriOct1200:01:192018FriOct1200:01:192018\0\\#,ProcedureUnspecified,6-31G**,\\0,1\S\N,1,1.64535\C,2,1.34708,1,105.118\C,3,1.39032,2,124.862,1,-177.001,0\C,3,1.40942,2,115.141,1,2.05018,0\N,5,1.3642,3,114.916,2,-2.96172,0\C,5,1.38586,3,120.33,2,-179.442,0\N,7,1.32195,5,121.182,3,6.18454,0\C,8,1.36695,7,118.706,5,-4.34395,0\H,9,1.08886,8,118.609,7,179.465,0\C,7,1.43738,5,120.58,3,-175.396,0\C,11,1.40212,7,124.624,5,-167.815,0\C,12,1.3803,11,115.765,7,-176.076,0\C,13,1.36615,12,114.189,11,1.58284,0\C,14,1.46866,13,126.165,12,-175.367,0\N,15,1.33157,14,115.164,13,-169.542,0\C,16,1.35576,15,108.362,14,-172.924,0\H,17,1.08151,16,121.446,15,179.952,0\C,17,1.38614,16,117.093,15,7.81426,0\H,19,1.08187,17,122.011,16,177.466,0\C,13,1.47465,12,108.371,11,-175.159,0\H,21,1.084,13,124.458,12,-169.927,0\C,21,1.38296,13,113.807,12,5.90157,0\H,23,1.08159,21,126.483,13,176.855,0\C,4,1.51441,3,121.729,2,9.34997,0\C,25,1.40867,4,123.595,3,-46.9624,0\H,26,1.08546,25,118.259,4,6.29885,0\C,25,1.40917,4,125.62,3,128.193,0\H,28,1.0895,25,118.385,4,6.69182,0\N,28,1.33121,25,128.216,4,175.007,0\C,30,1.32103,28,117.082,25,9.2811,0\C,31,1.3648,30,122.79,28,0.539136,0\H,32,1.08576,31,120.843,30,-176.985,0\C,31,1.52055,30,116.769,28,174.502,0\H,34,1.09688,31,112.384,30,-49.9845,0\H,34,1.09736,31,111.667,30,-169.618,0\C,34,1.52499,31,109.429,30,69.9818,0\H,37,1.09726,34,109.174,31,-61.1608,0\H,37,1.09736,34,108.517,31,53.4604,0\C,37,1.52864,34,113.44,31,173.493,0\H,40,1.09666,37,107.487,34,-50.755,0\H,40,1.09732,37,108.691,34,65.7626,0\C,40,1.49741,37,113.846,34,-176.228,0\H,43,1.09638,40,114.758,37,46.1649,0\H,43,1.09755,40,103.82,37,-67.9313,0\C,43,1.56944,40,109.227,37,168.707,0\H,46,1.09689,43,105.808,40,156.338,0\H,46,1.09737,43,112.507,40,52.205,0\C,46,1.50713,43,112.284,40,-78.9336,0\H,49,1.09684,46,110.507,43,76.009,0\H,49,1.09699,46,110.524,43,-50.2275,0\H,49,1.09756,46,103.322,43,-170.179,0\S,23,1.74124,21,112.046,13,-7.04254,0\S,14,1.74142,13,110.949,12,0.1006,0\S,19,1.78195,17,110.726,16,-12.3598,0\H,1,2.88618,2,84.8473,3,-140.437,0\C,56,1.08227,1,144.723,2,-176.261,0\C,57,1.39905,56,122.723,1,-110.333,0\H,58,1.08451,57,123.92,56,-5.41496,0\C,58,1.39324,57,107.533,56,166.679,0\C,60,1.36033,58,127.91,57,-169.18,0\C,60,1.37394,58,112.736,57,2.34923,0\C,62,1.38377,60,112.983,58,179.343,0\C,61,1.46973,60,125.684,58,-4.61155,0\N,64,1.32013,61,110.286,60,170.072,0\C,65,1.36077,64,109.45,61,167.146,0\H,66,1.08224,65,116.494,64,-175.616,0\C,66,1.42578,65,115.452,64,2.71309,0\H,68,1.08253,66,123.181,65,-171.963,0\C,63,1.5056,62,122.841,60,-171.662,0\N,70,1.32584,63,118.308,62,-10.6916,0\C,71,1.34295,70,117.922,63,175.058,0\H,72,1.08962,71,115.011,70,-172.735,0\C,72,1.39873,71,126.017,70,-2.33187,0\C,74,1.40747,72,115.85,71,5.02045,0\N,75,1.32908,74,127.155,72,-174.582,0\C,75,1.40695,74,119.704,72,-1.36151,0\N,77,1.32285,75,112.685,74,-176.464,0\C,74,1.50354,72,120.002,71,179.257,0\C,79,1.37224,74,117.815,72,-46.4325,0\H,80,1.08584,79,126.364,74,21.0997,0\C,80,1.40784,79,121.901,74,-161.872,0\H,82,1.08627,80,114.718,79,174.826,0\C,82,1.43778,80,120.918,79,0.122409,0\N,84,1.3629,82,114.004,80,-0.557433,0\C,85,1.31912,84,126.553,82,-3.16724,0\H,86,1.08895,85,118.66,84,-179.124,0\C,84,1.50996,82,122.526,80,176.25,0\H,88,1.09689,84,107.585,82,-68.9052,0\H,88,1.09722,84,108.119,82,52.2357,0\C,88,1.56804,84,114.282,82,177.926,0\H,91,1.09673,88,108.628,84,-55.3826,0\H,91,1.09729,88,117.592,84,61.2936,0\C,91,1.53352,88,108.378,84,178.141,0\H,94,1.09677,91,106.874,88,82.3233,0\H,94,1.09721,91,104.864,88,-30.299,0\C,94,1.53795,91,111.477,88,-152.614,0\H,97,1.09672,94,107.064,91,60.5737,0\H,97,1.09682,94,112.061,91,172.84,0\C,97,1.54793,94,115.999,91,-60.2255,0\H,100,1.09665,97,105.911,94,59.747,0\H,100,1.09701,97,117.336,94,178.677,0\C,100,1.58439,97,110.111,94,-63.9007,0\H,103,1.09665,100,101.938,97,61.7567,0\H,103,1.09731,100,110.193,97,-59.9617,0\H,103,1.09765,100,105.846,97,-177.01,0\S,78,1.60723,77,108.107,75,-10.2418,0\S,68,1.72163,66,110.034,65,-5.49836,0\S,63,1.73946,62,107.535,60,9.49884,0\S,57,1.78872,56,117.82,1,65.395,0\\\@

 Total job time:  85.75s(wall), 998.61s(cpu) 
 Fri Oct 12 00:01:19 2018

        *************************************************************
        *                                                           *
        *  Thank you very much for using Q-Chem.  Have a nice day.  *
        *                                                           *
        *************************************************************


