
Running Job 1 of 1 ./7/53.qcin
qchem ./7/53.qcin_60800.0 /tmpu/cab_g/afmv_a/scratch_qchem/qchem60800/ 1
/tmpu/appuserlic/qchem4.4/serial-multicore/exe/qcprog.exe_s ./7/53.qcin_60800.0 /tmpu/cab_g/afmv_a/scratch_qchem/qchem60800/
Check license passed

                  Welcome to Q-Chem
     A Quantum Leap Into The Future Of Chemistry


 Q-Chem 4.4, Q-Chem, Inc., Pleasanton, CA (2016)

 Y. Shao,  Z. Gan,  E. Epifanovsky,  A. T. B. Gilbert,  M. Wormit,  
 J. Kussmann,  A. W. Lange,  A. Behn,  J. Deng,  X. Feng,  D. Ghosh,  
 M. Goldey,  P. R. Horn,  L. D. Jacobson,  I. Kaliman,  F. Rob,  
 R. Z. Khaliullin,  T. Kus,  A. Landau,  J. Liu,  E. I. Proynov,  Y. M. Rhee,  
 R. M. Richard,  M. A. Rohrdanz,  R. P. Steele,  E. J. Sundstrom,  
 H. L. Woodcock III,  P. M. Zimmerman,  D. Zuev,  B. Albrecht,  E. Alguire,  
 B. Austin,  S. A. Baeppler,  G. J. O. Beran,  Y. A. Bernard,  E. Berquist,  
 K. Brandhorst,  K. B. Bravaya,  S. T. Brown,  D. Casanova,  C.-M. Chang,  
 Y. Chen,  S. H. Chien,  K. D. Closser,  M. P. Coons,  D. L. Crittenden,  
 S. Dasgupta,  M. Diedenhofen,  R. A. DiStasio Jr.,  H. Do,  A. D. Dutoi,  
 R. G. Edgar,  P.-T. Fang,  S. Fatehi,  Q. Feng,  L. Fusti-Molnar,  
 A. Ghysels,  A. Golubeva-Zadorozhnaya,  J. Gomes,  A. Gunina,  
 M. W. D. Hanson-Heine,  P. H. P. Harbach,  A. W. Hauser,  J. E. Herr,  
 E. G. Hohenstein,  Z. C. Holden,  K. Hui,  T.-C. Jagau,  H. Ji,  B. Kaduk,  
 K. Khistyaev,  Jaehoon Kim,  Jihan Kim,  R. A. King,  P. Klunzinger,  
 K. Koh,  D. Kosenkov,  T. Kowalczyk,  C. M. Krauter,  A. Kunitsa,  
 K. U. Lao,  A. Laurent,  K. V. Lawler,  J. Lee,  D. Lefrancois,  S. Lehtola,  
 S. V. Levchenko,  C. Y. Lin,  Y.-S. Lin,  F. Liu,  E. Livshits,  
 R. C. Lochan,  A. Luenser,  P. Manohar,  S. F. Manzer,  S.-P. Mao,  Y. Mao,  
 N. Mardirossian,  A. V. Marenich,  L. A. Martinez-Martinez,  S. A. Maurer,  
 N. J. Mayhall,  J.-M. Mewes,  A. F. Morrison,  K. Nanda,  T. S. Nguyen-Beck,  
 C. M. Oana,  R. Olivares-Amaya,  D. P. O'Neill,  J. A. Parkhill,  
 T. M. Perrine,  R. Peverati,  P. A. Pieniazek,  F. Plasser,  A. Prociuk,  
 D. R. Rehn,  E. Rosta,  N. J. Russ,  N. Sergueev,  S. M. Sharada,  
 S. Sharma,  D. W. Small,  A. Sodt,  T. Stauch,  T. Stein,  D. Stuck,  
 Y.-C. Su,  A. J. W. Thom,  T. Tsuchimochi,  L. Vogt,  O. Vydrov,  T. Wang,  
 M. A. Watson,  J. Wenzel,  A. White,  C. F. Williams,  V. Vanovschi,  
 K. Yao,  S. Yeganeh,  S. R. Yost,  Z.-Q. You,  I. Y. Zhang,  X. Zhang,  
 Y. Zhao,  B. R. Brooks,  G. K. L. Chan,  D. M. Chipman,  C. J. Cramer,  
 W. A. Goddard III,  M. S. Gordon,  W. J. Hehre,  A. Klamt,  
 H. F. Schaefer III,  M. W. Schmidt,  C. D. Sherrill,  D. G. Truhlar,  
 A. Warshel,  X. Xu,  A. Aspuru-Guzik,  R. Baer,  A. T. Bell,  N. A. Besley,  
 J.-D. Chai,  A. Dreuw,  B. D. Dunietz,  T. R. Furlani,  S. R. Gwaltney,  
 C.-P. Hsu,  Y. Jung,  J. Kong,  D. S. Lambrecht,  W. Liang,  C. Ochsenfeld,  
 V. A. Rassolov,  L. V. Slipchenko,  J. E. Subotnik,  T. Van Voorhis,  
 J. M. Herbert,  A. I. Krylov,  P. M. W. Gill,  M. Head-Gordon

 Contributors to earlier versions of Q-Chem not listed above: 
 R. D. Adamson,  J. Baker,  E. F. C. Byrd,  A. K. Chakraborty,  C.-L. Cheng,  
 H. Dachsel,  R. J. Doerksen,  G. Hawkins,  A. Heyden,  S. Hirata,  
 G. Kedziora,  F. J. Keil,  C. Kelley,  P. P. Korambath,  W. Kurlancheek,  
 A. M. Lee,  M. S. Lee,  D. Liotard,  I. Lotan,  P. E. Maslen,  N. Nair,  
 D. Neuhauser,  R. Olson,  B. Peters,  J. Ritchie,  N. E. Schultz,  
 N. Shenvi,  A. C. Simmonett,  K. S. Thanthiriwatte,  Q. Wu,  W. Zhang

 Please cite Q-Chem as follows:
 Y. Shao et al., Mol. Phys. 113, 184-215 (2015)
 DOI: 10.1080/00268976.2014.952696

 Q-Chem 4.4.2 for Intel X86 Linux

 Parts of Q-Chem use Armadillo 5.200.1 (Boston Tea Smuggler).
 http://arma.sourceforge.net/

 Q-Chem begins on Thu Oct 11 23:48:42 2018  

Host: 
0

     Scratch files written to /tmpu/cab_g/afmv_a/scratch_qchem/qchem60800//
 Dec716 11556_ 22328  22283 4050   
Processing $rem in /tmpu/appuserlic/qchem4.4/serial-multicore/config/preferences.
 MEM_TOTAL  2000 
FILE_GEOM_ORG=        593

Checking the input file for inconsistencies... 	...done.

--------------------------------------------------------------
User input:
--------------------------------------------------------------
$comment
SP
$end

$rem
MEM_STATIC 5000
MEM_TOTAL 20000
JOBTYPE SP
EXCHANGE B3LYP
BASIS 6-31g(d,p)
$end

$molecule
0 1
C          12.618000     -0.339000     -9.235000
C          11.723000      0.615000     -8.696000
N          13.685000      0.041000     -9.949000
C          11.879000      1.964000     -9.081000
C          13.856000      1.363000    -10.297000
C          12.990000      2.398000     -9.834000
C          13.153000      3.804000    -10.121000
C          12.109000      4.659000    -10.518000
C          14.421000      4.459000    -10.287000
N          12.192000      6.019000    -10.602000
N          15.594000      3.806000    -10.185000
C          14.494000      5.830000    -10.461000
C          13.361000      6.634000    -10.550000
S          16.711000      4.929000    -10.384000
N          15.776000      6.229000    -10.617000
C          13.496000      8.123000    -10.458000
S          14.891000      9.160000    -10.509000
C          12.404000      8.997000    -10.393000
C          13.993000     10.721000    -10.355000
S          10.715000      8.627000    -10.325000
C          12.675000     10.355000    -10.299000
C          14.483000     11.997000     -9.984000
C          10.285000     10.313000    -10.143000
C          11.427000     11.138000    -10.187000
N          13.723000     13.059000    -10.130000
S          16.148000     12.214000     -9.704000
C          14.458000     14.234000    -10.230000
C          15.787000     13.936000    -10.055000
C          12.465000     -1.827000     -8.808000
H          10.853000      0.327000     -8.113000
H          11.152000      2.705000     -8.760000
H          14.733000      1.583000    -10.903000
H          11.115000      4.222000    -10.605000
H           9.262000     10.648000    -10.036000
H          11.396000     12.221000    -10.158000
H          13.952000     15.165000    -10.449000
H          16.645000     14.584000    -10.177000
H          11.383000     -2.010000     -8.788000
C          13.092000     -2.179000     -7.427000
H          12.764000     -2.491000     -9.629000
H          12.771000     -1.602000     -6.551000
H          14.168000     -1.969000     -7.441000
C          12.987000     -3.705000     -7.192000
H          12.010000     -3.970000     -6.769000
C          14.185000     -4.177000     -6.325000
H          13.036000     -4.314000     -8.103000
H          14.034000     -3.669000     -5.364000
H          15.157000     -3.798000     -6.664000
C          14.324000     -5.696000     -6.272000
H          13.427000     -6.100000     -5.787000
C          15.694000     -6.188000     -5.796000
H          14.159000     -6.113000     -7.273000
H          15.593000     -7.264000     -5.611000
H          16.047000     -5.683000     -4.888000
H          16.499000     -6.005000     -6.518000
C           9.900000     -0.085000     -5.906000
C           9.828000     -1.488000     -5.939000
N           9.103000      0.807000     -6.576000
C           8.903000     -2.059000     -6.866000
C           8.193000      0.213000     -7.375000
C           8.029000     -1.181000     -7.527000
C           7.012000     -1.765000     -8.440000
C           6.996000     -1.492000     -9.814000
C           6.083000     -2.738000     -8.020000
N           6.144000     -1.969000    -10.687000
N           6.025000     -3.295000     -6.776000
C           5.261000     -3.302000     -8.948000
C           5.222000     -2.847000    -10.261000
S           4.802000     -4.384000     -6.791000
N           4.482000     -4.308000     -8.417000
C           4.338000     -3.520000    -11.232000
S           2.923000     -4.631000    -10.910000
C           4.548000     -3.486000    -12.638000
C           2.662000     -4.954000    -12.615000
S           5.760000     -2.705000    -13.586000
C           3.595000     -4.329000    -13.321000
C           1.638000     -5.880000    -13.017000
C           4.877000     -3.383000    -15.004000
C           3.847000     -4.247000    -14.700000
N           1.564000     -6.248000    -14.247000
S           0.380000     -6.313000    -11.914000
C           0.467000     -7.109000    -14.342000
C          -0.272000     -7.303000    -13.189000
C          11.072000      0.440000     -5.167000
H          10.401000     -2.131000     -5.278000
H           8.820000     -3.137000     -6.964000
H           7.484000      0.829000     -7.926000
H           7.822000     -0.846000    -10.107000
H           5.066000     -3.033000    -16.010000
H           3.197000     -4.660000    -15.463000
H           0.281000     -7.561000    -15.307000
H          -1.101000     -7.978000    -13.024000
H          11.806000     -0.362000     -5.019000
C          10.739000      1.231000     -3.841000
H          11.550000      1.177000     -5.824000
H           9.947000      1.982000     -3.951000
H          11.671000      1.774000     -3.645000
C          10.480000      0.186000     -2.713000
H           9.538000     -0.353000     -2.878000
C          10.365000      0.927000     -1.376000
H          11.337000     -0.497000     -2.674000
H           9.592000      1.704000     -1.416000
H          11.300000      1.443000     -1.126000
C           9.864000      0.053000     -0.212000
H           9.664000      0.695000      0.655000
C          10.787000     -1.145000      0.008000
H           8.865000     -0.378000     -0.353000
H          11.809000     -0.788000      0.187000
H          10.887000     -1.765000     -0.891000
H          10.384000     -1.721000      0.850000
$end

--------------------------------------------------------------
 ----------------------------------------------------------------
             Standard Nuclear Orientation (Angstroms)
    I     Atom           X                Y                Z
 ----------------------------------------------------------------
    1      C       0.4311537068    -2.0216875966    -2.4584260106
    2      C       0.7051171714    -1.6044297879    -1.1346050479
    3      N       1.3262166816    -1.8433767530    -3.4380956050
    4      C       1.8655787011    -0.8335492772    -0.9078137865
    5      C       2.4756670087    -1.1193517171    -3.2087908012
    6      C       2.8279959652    -0.6248604392    -1.9177088199
    7      C       4.0438715445     0.0906269780    -1.6086807765
    8      C       4.1000863756     1.2596712905    -0.8284594693
    9      C       5.3085160976    -0.1384353401    -2.2510277301
   10      N       5.2427439235     1.8398254747    -0.3580342886
   11      N       5.4753439997    -1.0617850751    -3.2166030601
   12      C       6.4493497819     0.5202712641    -1.8269403399
   13      C       6.4286662298     1.4757232810    -0.8146609151
   14      S       7.0275428223    -0.9996131515    -3.5843427330
   15      N       7.5159877597     0.1718752934    -2.5805746491
   16      C       7.7155048840     1.9478725532    -0.2105654401
   17      S       9.3694320634     1.7242428222    -0.6989399160
   18      C       7.7837085049     2.7934921368     0.9033648925
   19      C      10.1112023142     2.6870698011     0.6388127158
   20      S       6.4967834274     3.4218241459     1.8745846057
   21      C       9.0447053266     3.1435084003     1.3657679969
   22      C      11.4494471440     2.6829037510     1.1024940928
   23      C       7.6158158928     4.1837691620     2.9826577684
   24      C       8.9503369468     3.9926337522     2.5712628105
   25      N      11.8530968583     3.6039784076     1.9483359131
   26      S      12.6174071323     1.7365003123     0.3038051690
   27      C      13.2283136711     3.7995565238     1.9112155923
   28      C      13.7773880755     2.8885644869     1.0427221801
   29      C      -0.8375558788    -2.8831840909    -2.7193508612
   30      H      -0.0070059960    -1.7415159533    -0.3260130756
   31      H       2.0544381428    -0.4187688964     0.0785635992
   32      H       3.1357426082    -0.9958743038    -4.0654228875
   33      H       3.1588048796     1.6372929877    -0.4310113606
   34      H       7.2914556486     4.7425797937     3.8502545123
   35      H       9.8084033789     4.4288009776     3.0694306030
   36      H      13.6713778828     4.5979782639     2.4917109232
   37      H      14.7980013066     2.8248006516     0.6888368800
   38      H      -1.6196096966    -2.4404592370    -2.0892718742
   39      C      -0.6794840563    -4.3967622745    -2.3902788610
   40      H      -1.2424052683    -2.6716018426    -3.7171824722
   41      H      -0.3548644885    -4.6753520400    -1.3801521963
   42      H       0.1211763261    -4.8300914246    -3.0012132271
   43      C      -1.9610186884    -5.1499850227    -2.8206862006
   44      H      -2.7259914333    -5.1020639244    -2.0357000429
   45      C      -1.5922121110    -6.5991482916    -3.2373209671
   46      H      -2.4730765248    -4.7236262026    -3.6920173252
   47      H      -1.2189342943    -7.0549968767    -2.3114420663
   48      H      -0.7335863818    -6.6624739096    -3.9170986685
   49      C      -2.7346026104    -7.3299091403    -3.9376234223
   50      H      -3.5615360850    -7.4258938271    -3.2234679991
   51      C      -2.3019672112    -8.5716689519    -4.7227343582
   52      H      -3.2220792846    -6.6504452714    -4.6474194091
   53      H      -3.2203869947    -9.1043159748    -4.9965851392
   54      H      -1.6380239235    -9.2362980149    -4.1556845197
   55      H      -1.7202859273    -8.3387715785    -5.6228475164
   56      C      -0.7807440842    -3.1357882333     1.5195589712
   57      C      -1.9579601272    -3.6490937277     0.9491539771
   58      N      -0.5642836387    -1.8635901442     1.9826247307
   59      C      -3.0120955339    -2.7151237787     0.7093755817
   60      C      -1.6213093012    -1.0447322533     1.8051268339
   61      C      -2.8516714121    -1.4176385078     1.2217007450
   62      C      -3.9695744124    -0.4544237767     1.0444318426
   63      C      -3.8323117885     0.7204846491     0.2938253125
   64      C      -5.2783568031    -0.7175607406     1.4961149085
   65      N      -4.7647601317     1.6154865339     0.0815196046
   66      N      -5.6954358077    -1.8723853004     2.0907360821
   67      C      -6.2664131148     0.1693060392     1.1925098364
   68      C      -5.9923808696     1.3831678057     0.5728640178
   69      S      -7.2939145310    -1.7040660539     2.4044388115
   70      N      -7.5078073120    -0.2664762569     1.6046654349
   71      C      -7.1071892834     2.2889975202     0.2353721976
   72      S      -8.8180645440     2.2840534212     0.8781096234
   73      C      -7.0319785303     3.2793604776    -0.7822802751
   74      C      -9.3238210762     3.5899842095    -0.1793543742
   75      S      -5.7404728901     3.7300651595    -1.8341773571
   76      C      -8.3091297421     3.9284118863    -0.9638403232
   77      C     -10.6945980124     4.0242198808    -0.1712319964
   78      C      -6.8827538464     4.9766788375    -2.4596736037
   79      C      -8.1690383162     4.8969908318    -1.9708647612
   80      N     -11.1013719146     4.8547957758    -1.0648083363
   81      S     -11.7237137985     3.6195286090     1.1568522153
   82      C     -12.4460160267     5.1157939322    -0.7862994962
   83      C     -12.9746665832     4.5148514189     0.3417797053
   84      C       0.3711678506    -4.0658536258     1.4611872283
   85      H      -2.1053209152    -4.7021490013     0.7299317407
   86      H      -3.9367696462    -3.0400948179     0.2425259168
   87      H      -1.5697003291    -0.0202213081     2.1704374377
   88      H      -2.8412929094     0.8030031075    -0.1494728776
   89      H      -6.5431533303     5.7994715354    -3.0744423943
   90      H      -8.9252747232     5.6341943778    -2.2155593228
   91      H     -12.9721573639     5.7636295890    -1.4744922418
   92      H     -13.9977481200     4.5202553112     0.6930146224
   93      H       0.1623541633    -4.8692635635     0.7436962416
   94      C       0.8857660146    -4.5965889341     2.8570220187
   95      H       1.2117867941    -3.4951060794     1.0477757745
   96      H       1.0213742313    -3.8146651995     3.6143665141
   97      H       1.8821135554    -4.9840132672     2.6139521436
   98      C      -0.0497137691    -5.7630030705     3.2995665212
   99      H      -1.0470364646    -5.3928259595     3.5705394857
  100      C       0.5530961962    -6.4300296793     4.5411665569
  101      H      -0.0960492219    -6.4945861796     2.4840310037
  102      H       0.7246220003    -5.7005897375     5.3420125283
  103      H       1.5322999870    -6.8714555454     4.3191662398
  104      C      -0.3844333765    -7.4349153790     5.2347197495
  105      H       0.0632496062    -7.7395962712     6.1889746949
  106      C      -0.7982403304    -8.5487690026     4.2736646469
  107      H      -1.3267066189    -7.0109003333     5.6034681430
  108      H       0.0998121989    -9.0435809383     3.8829770442
  109      H      -1.2885917358    -8.1612497194     3.3725623750
  110      H      -1.4548439167    -9.2326687036     4.8253003323
 ----------------------------------------------------------------
 Molecular Point Group                 C1    NOp =  1
 Largest Abelian Subgroup              C1    NOp =  1
 Nuclear Repulsion Energy = 10877.5698456782 hartrees
 There are      270 alpha and      270 beta electrons
 Requested basis set is 6-31G(d,p)
 There are 406 shells and 1262 basis functions

 Total QAlloc Memory Limit  20000 MB
 Mega-Array Size      4888 MB
 MEM_STATIC part      5000 MB
 A cutoff of  1.0D-08 yielded  13857 shell pairs
 There are    139690 function pairs
 
 -------------------------------------------------------
 OpenMP Integral Computing Module                       
 Release: version 1.0, May 2013, Q-Chem Inc. Pittsburgh 
 -------------------------------------------------------
 Integral Job Info:
 Integral job number is                      11
 Integral operator is                         1
 short-range coefficients                     0
 long-range coefficients              100000000
 Omega coefficients                           0
 if combine SR and LR in K                    0
 Integral screening is                        0
 Integral computing path is                   2
 max size of driver memory is            800000
 size of driver memory is                593474
 size of scratch memory is             15166112
 max col of scratch BK array               1296
 max len of scratch array in speh3          155
 max len of scratch index in speh4           18
 max int batch size is                      520
 min int batch size is                       52
 fixed nKL is                                52
 max L of basis functions is                  2
 order of int derivative is                   0
 number of shells is                        406
 number of basis is                        1262
 number of cartesian basis is              1262
 number of contracted shell pairs         13857
 number of primitive shell pairs          43779
 maxK2 (contraction) of shell pair           36
 max number of K2 of shell pair               1
 max number of CS2 of shell pair           1340
 max number of PS2 of shell pair           7752
 mem total for path MDJ                  284952
 -------------------------------------------------------
 Smallest overlap matrix eigenvalue = 4.23E-04

 Scale SEOQF with 1.000000e-02/1.000000e-02/1.000000e-02

 Standard Electronic Orientation quadrupole field applied
 Nucleus-field energy     =     0.0000001203 hartrees
 Guess from superposition of atomic densities
 Warning:  Energy on first SCF cycle will be non-variational
 A restricted hybrid HF-DFT SCF calculation will be
 performed using Pulay DIIS extrapolation
 Exchange:     0.2000 Hartree-Fock + 0.0800 Slater + 0.7200 B88
 Correlation:  0.1900 VWN1RPA + 0.8100 LYP
 Using SG-1 standard quadrature grid
 SCF converges when DIIS error is below 1.0E-05
 using 16 threads for integral computing 
 -------------------------------------------------------
 OpenMP BLAS3 based DFT computing Module                
 Release: version 1.0, May 2013, Q-Chem Inc. Pittsburgh 
 -------------------------------------------------------
 ---------------------------------------
  Cycle       Energy         DIIS Error
 ---------------------------------------
    1   -5680.2364081673      2.15E-02
    2   -5662.4892271337      2.16E-03
    3   -5660.8641685031      3.45E-03
    4   -5663.3374617569      8.85E-04
    5   -5663.4853698804      3.47E-04
    6   -5663.4985029711      2.28E-04
    7   -5663.5083394072      8.38E-05
    8   -5663.5096710197      2.54E-05
    9   -5663.5097873302      1.02E-05
   10   -5663.5098080063      4.05E-06 Convergence criterion met
 ---------------------------------------
 SCF time:  CPU 1059.03 s  wall 87.27 s
 SCF   energy in the final basis set = -5663.5098080063
 Total energy in the final basis set = -5663.5098080063
 
 --------------------------------------------------------------
 
                    Orbital Energies (a.u.)
 --------------------------------------------------------------
 
 Alpha MOs
 -- Occupied --
-88.995 -88.985 -88.928 -88.923 -88.923 -88.921 -88.916 -88.900
-14.387 -14.380 -14.379 -14.376 -14.353 -14.350 -14.347 -14.344
-14.336 -14.324 -10.268 -10.265 -10.263 -10.263 -10.252 -10.250
-10.250 -10.247 -10.246 -10.243 -10.238 -10.238 -10.237 -10.236
-10.235 -10.235 -10.234 -10.234 -10.234 -10.234 -10.230 -10.227
-10.225 -10.223 -10.222 -10.221 -10.220 -10.219 -10.218 -10.217
-10.210 -10.207 -10.205 -10.205 -10.203 -10.193 -10.193 -10.191
-10.187 -10.185 -10.185 -10.184 -10.181 -10.180 -10.178 -10.176
-10.175 -10.175 -10.174 -10.170  -8.050  -8.042  -7.990  -7.986
 -7.981  -7.980  -7.975  -7.960  -6.015  -6.009  -6.008  -6.007
 -6.001  -6.000  -5.954  -5.951  -5.949  -5.947  -5.946  -5.946
 -5.944  -5.942  -5.942  -5.940  -5.939  -5.938  -5.936  -5.936
 -5.931  -5.925  -5.921  -5.916  -1.045  -1.031  -0.982  -0.972
 -0.968  -0.961  -0.944  -0.925  -0.910  -0.909  -0.902  -0.892
 -0.843  -0.840  -0.838  -0.834  -0.817  -0.815  -0.810  -0.806
 -0.804  -0.800  -0.800  -0.793  -0.790  -0.777  -0.768  -0.767
 -0.753  -0.748  -0.744  -0.735  -0.717  -0.716  -0.712  -0.706
 -0.694  -0.690  -0.679  -0.672  -0.656  -0.653  -0.651  -0.642
 -0.640  -0.635  -0.632  -0.623  -0.616  -0.607  -0.600  -0.596
 -0.594  -0.591  -0.583  -0.583  -0.581  -0.578  -0.575  -0.563
 -0.555  -0.545  -0.544  -0.540  -0.524  -0.519  -0.516  -0.511
 -0.505  -0.502  -0.499  -0.498  -0.496  -0.483  -0.482  -0.479
 -0.475  -0.471  -0.470  -0.468  -0.463  -0.461  -0.450  -0.447
 -0.441  -0.441  -0.440  -0.439  -0.436  -0.433  -0.432  -0.430
 -0.428  -0.427  -0.424  -0.423  -0.420  -0.419  -0.417  -0.413
 -0.410  -0.408  -0.406  -0.404  -0.401  -0.400  -0.398  -0.397
 -0.395  -0.392  -0.390  -0.388  -0.387  -0.387  -0.386  -0.383
 -0.381  -0.380  -0.376  -0.372  -0.371  -0.368  -0.362  -0.359
 -0.353  -0.347  -0.347  -0.345  -0.343  -0.342  -0.339  -0.337
 -0.337  -0.334  -0.333  -0.330  -0.328  -0.327  -0.322  -0.322
 -0.319  -0.316  -0.307  -0.306  -0.305  -0.303  -0.300  -0.299
 -0.295  -0.294  -0.292  -0.291  -0.287  -0.287  -0.282  -0.279
 -0.274  -0.273  -0.271  -0.262  -0.261  -0.259  -0.245  -0.243
 -0.241  -0.239  -0.233  -0.229  -0.199  -0.191
 -- Virtual --
 -0.118  -0.107  -0.073  -0.070  -0.044  -0.035  -0.031  -0.022
 -0.021  -0.019  -0.015  -0.013  -0.012  -0.003  -0.002  -0.001
  0.008   0.013   0.019   0.032   0.033   0.038   0.040   0.046
  0.049   0.052   0.059   0.066   0.068   0.079   0.079   0.091
  0.095   0.099   0.100   0.103   0.110   0.111   0.112   0.112
  0.114   0.115   0.117   0.119   0.122   0.124   0.126   0.127
  0.128   0.130   0.131   0.133   0.137   0.138   0.142   0.146
  0.149   0.153   0.156   0.157   0.158   0.159   0.161   0.164
  0.166   0.170   0.174   0.176   0.178   0.181   0.181   0.182
  0.183   0.185   0.186   0.189   0.191   0.196   0.199   0.199
  0.200   0.202   0.204   0.209   0.211   0.212   0.219   0.223
  0.225   0.228   0.228   0.231   0.233   0.237   0.243   0.244
  0.244   0.247   0.251   0.253   0.256   0.257   0.262   0.267
  0.268   0.269   0.269   0.270   0.273   0.276   0.279   0.282
  0.283   0.286   0.287   0.295   0.297   0.302   0.305   0.307
  0.309   0.312   0.315   0.319   0.320   0.321   0.324   0.326
  0.328   0.328   0.332   0.336   0.339   0.340   0.344   0.352
  0.355   0.356   0.360   0.360   0.363   0.364   0.366   0.368
  0.372   0.378   0.383   0.386   0.388   0.389   0.391   0.396
  0.401   0.408   0.411   0.413   0.421   0.427   0.430   0.433
  0.441   0.449   0.453   0.458   0.462   0.466   0.467   0.471
  0.473   0.477   0.481   0.483   0.486   0.489   0.492   0.498
  0.499   0.503   0.503   0.506   0.511   0.511   0.513   0.518
  0.521   0.523   0.524   0.527   0.528   0.531   0.532   0.532
  0.535   0.536   0.537   0.539   0.540   0.543   0.544   0.552
  0.554   0.555   0.557   0.559   0.560   0.563   0.563   0.564
  0.567   0.569   0.569   0.570   0.571   0.576   0.582   0.583
  0.586   0.588   0.591   0.591   0.593   0.593   0.595   0.599
  0.600   0.602   0.603   0.604   0.607   0.613   0.614   0.616
  0.618   0.620   0.622   0.623   0.627   0.628   0.630   0.631
  0.634   0.636   0.638   0.639   0.641   0.647   0.648   0.651
  0.653   0.654   0.657   0.661   0.665   0.666   0.672   0.676
  0.677   0.679   0.685   0.686   0.694   0.696   0.697   0.698
  0.699   0.701   0.705   0.707   0.710   0.714   0.718   0.723
  0.725   0.726   0.737   0.740   0.741   0.747   0.747   0.748
  0.751   0.753   0.755   0.761   0.763   0.765   0.770   0.771
  0.772   0.776   0.777   0.779   0.781   0.784   0.784   0.793
  0.794   0.796   0.797   0.802   0.803   0.805   0.807   0.807
  0.809   0.812   0.813   0.815   0.816   0.821   0.822   0.824
  0.826   0.827   0.828   0.830   0.831   0.835   0.837   0.839
  0.841   0.842   0.844   0.846   0.849   0.850   0.852   0.854
  0.856   0.858   0.859   0.864   0.865   0.867   0.870   0.873
  0.876   0.876   0.878   0.881   0.883   0.886   0.887   0.888
  0.891   0.893   0.895   0.900   0.903   0.906   0.907   0.909
  0.911   0.914   0.916   0.919   0.921   0.924   0.925   0.930
  0.933   0.937   0.940   0.941   0.944   0.944   0.945   0.949
  0.951   0.954   0.955   0.957   0.959   0.961   0.963   0.964
  0.966   0.971   0.976   0.976   0.979   0.982   0.985   0.987
  0.991   0.992   0.995   0.997   1.000   1.001   1.006   1.006
  1.012   1.014   1.016   1.017   1.022   1.024   1.027   1.029
  1.035   1.041   1.043   1.045   1.049   1.051   1.052   1.053
  1.058   1.062   1.067   1.072   1.076   1.080   1.087   1.090
  1.094   1.094   1.099   1.106   1.109   1.117   1.120   1.124
  1.128   1.130   1.137   1.141   1.146   1.146   1.149   1.153
  1.161   1.162   1.165   1.180   1.181   1.182   1.186   1.192
  1.197   1.206   1.214   1.216   1.219   1.228   1.233   1.235
  1.240   1.245   1.246   1.253   1.257   1.266   1.267   1.270
  1.276   1.282   1.284   1.295   1.297   1.298   1.302   1.304
  1.314   1.315   1.323   1.326   1.328   1.331   1.333   1.335
  1.338   1.344   1.352   1.357   1.362   1.365   1.366   1.372
  1.373   1.380   1.383   1.384   1.387   1.392   1.394   1.404
  1.410   1.411   1.414   1.418   1.427   1.430   1.435   1.437
  1.442   1.444   1.446   1.453   1.456   1.458   1.461   1.467
  1.477   1.479   1.486   1.498   1.505   1.508   1.509   1.513
  1.528   1.533   1.536   1.538   1.541   1.548   1.553   1.558
  1.565   1.572   1.576   1.586   1.589   1.593   1.600   1.606
  1.613   1.617   1.618   1.625   1.628   1.641   1.648   1.656
  1.659   1.661   1.666   1.670   1.674   1.677   1.682   1.683
  1.688   1.689   1.693   1.694   1.697   1.700   1.709   1.712
  1.717   1.718   1.721   1.727   1.732   1.733   1.748   1.748
  1.753   1.757   1.765   1.771   1.774   1.779   1.781   1.785
  1.787   1.792   1.795   1.802   1.805   1.809   1.815   1.816
  1.822   1.828   1.829   1.831   1.833   1.834   1.850   1.853
  1.854   1.856   1.858   1.861   1.863   1.864   1.867   1.875
  1.878   1.880   1.885   1.888   1.888   1.891   1.896   1.899
  1.901   1.906   1.911   1.913   1.915   1.918   1.921   1.929
  1.930   1.935   1.939   1.940   1.943   1.946   1.949   1.951
  1.952   1.961   1.970   1.976   1.978   1.983   1.992   1.994
  1.997   2.000   2.010   2.016   2.017   2.018   2.025   2.029
  2.031   2.033   2.034   2.036   2.049   2.053   2.055   2.065
  2.071   2.077   2.078   2.084   2.086   2.091   2.095   2.100
  2.104   2.106   2.108   2.112   2.115   2.122   2.124   2.128
  2.132   2.136   2.141   2.141   2.143   2.144   2.147   2.152
  2.154   2.163   2.166   2.173   2.177   2.181   2.182   2.184
  2.191   2.194   2.198   2.201   2.209   2.211   2.215   2.222
  2.225   2.226   2.237   2.237   2.238   2.243   2.245   2.254
  2.256   2.258   2.259   2.262   2.267   2.269   2.282   2.283
  2.286   2.291   2.294   2.298   2.301   2.305   2.311   2.315
  2.316   2.319   2.326   2.328   2.331   2.339   2.341   2.342
  2.345   2.352   2.355   2.359   2.360   2.360   2.362   2.367
  2.376   2.379   2.381   2.382   2.389   2.391   2.395   2.396
  2.401   2.403   2.405   2.408   2.414   2.416   2.422   2.424
  2.428   2.430   2.437   2.438   2.440   2.443   2.443   2.448
  2.450   2.453   2.458   2.462   2.466   2.470   2.471   2.473
  2.477   2.484   2.486   2.491   2.495   2.498   2.499   2.504
  2.509   2.510   2.514   2.528   2.529   2.530   2.535   2.538
  2.542   2.545   2.546   2.550   2.551   2.557   2.562   2.566
  2.574   2.582   2.584   2.587   2.592   2.594   2.596   2.598
  2.607   2.615   2.617   2.618   2.625   2.633   2.640   2.643
  2.648   2.649   2.661   2.664   2.668   2.670   2.674   2.676
  2.679   2.687   2.689   2.692   2.696   2.699   2.703   2.707
  2.713   2.719   2.722   2.725   2.726   2.729   2.732   2.745
  2.756   2.761   2.763   2.765   2.768   2.772   2.778   2.781
  2.796   2.799   2.802   2.808   2.811   2.821   2.822   2.824
  2.839   2.844   2.845   2.853   2.862   2.863   2.864   2.867
  2.875   2.877   2.880   2.890   2.896   2.901   2.904   2.909
  2.920   2.925   2.930   2.932   2.935   2.941   2.947   2.948
  2.959   2.969   2.975   2.992   2.995   3.000   3.021   3.027
  3.034   3.038   3.056   3.063   3.083   3.090   3.096   3.107
  3.154   3.172   3.200   3.202   3.206   3.211   3.227   3.228
  3.245   3.254   3.262   3.269   3.270   3.272   3.280   3.285
  3.297   3.302   3.303   3.311   3.324   3.327   3.338   3.339
  3.347   3.350   3.358   3.377   3.393   3.395   3.428   3.435
  3.436   3.443   3.452   3.454   3.496   3.508   3.547   3.549
  3.553   3.558   3.578   3.584   3.585   3.588   3.590   3.601
  3.610   3.619   3.712   3.747   3.843   3.858   3.909   3.914
  3.939   3.951   3.951   3.957   3.968   3.973   3.987   3.989
  4.036   4.070   4.072   4.100   4.102   4.113   4.117   4.126
  4.131   4.151   4.153   4.154   4.162   4.167   4.182   4.191
  4.204   4.210   4.231   4.252   4.257   4.261   4.263   4.279
  4.293   4.296   4.325   4.360   4.366   4.374   4.397   4.412
  4.444   4.447   4.450   4.457   4.464   4.474   4.485   4.495
  4.510   4.526   4.531   4.544   4.572   4.603   4.662   4.666
  4.681   4.698   4.715   4.725   4.756   4.766   4.793   4.800
 --------------------------------------------------------------
 
          Ground-State Mulliken Net Atomic Charges

     Atom                 Charge (a.u.)
  ----------------------------------------
      1 C                     0.248705
      2 C                    -0.095586
      3 N                    -0.485848
      4 C                    -0.105857
      5 C                     0.080597
      6 C                     0.050518
      7 C                     0.039891
      8 C                     0.043492
      9 C                     0.195755
     10 N                    -0.523032
     11 N                    -0.542376
     12 C                     0.203715
     13 C                     0.344381
     14 S                     0.604085
     15 N                    -0.554360
     16 C                    -0.215411
     17 S                     0.318535
     18 C                    -0.131687
     19 C                    -0.243232
     20 S                     0.283455
     21 C                     0.148940
     22 C                     0.081033
     23 C                    -0.314994
     24 C                    -0.056068
     25 N                    -0.443141
     26 S                     0.261838
     27 C                     0.142166
     28 C                    -0.324368
     29 C                    -0.221094
     30 H                     0.096171
     31 H                     0.106397
     32 H                     0.121256
     33 H                     0.111397
     34 H                     0.131548
     35 H                     0.124744
     36 H                     0.127888
     37 H                     0.124113
     38 H                     0.096818
     39 C                    -0.179375
     40 H                     0.113856
     41 H                     0.099266
     42 H                     0.113349
     43 C                    -0.185482
     44 H                     0.085922
     45 C                    -0.174853
     46 H                     0.096141
     47 H                     0.085915
     48 H                     0.095166
     49 C                    -0.176612
     50 H                     0.089534
     51 C                    -0.323412
     52 H                     0.093329
     53 H                     0.102662
     54 H                     0.103441
     55 H                     0.108540
     56 C                     0.262400
     57 C                    -0.103802
     58 N                    -0.470512
     59 C                    -0.072414
     60 C                     0.058192
     61 C                     0.052241
     62 C                    -0.029892
     63 C                     0.090732
     64 C                     0.250951
     65 N                    -0.525587
     66 N                    -0.562711
     67 C                     0.216066
     68 C                     0.309347
     69 S                     0.613770
     70 N                    -0.574680
     71 C                    -0.232425
     72 S                     0.307540
     73 C                    -0.108334
     74 C                    -0.240991
     75 S                     0.292431
     76 C                     0.166195
     77 C                     0.102947
     78 C                    -0.313754
     79 C                    -0.054539
     80 N                    -0.441677
     81 S                     0.274490
     82 C                     0.112560
     83 C                    -0.305665
     84 C                    -0.244090
     85 H                     0.107915
     86 H                     0.112382
     87 H                     0.103997
     88 H                     0.110666
     89 H                     0.123601
     90 H                     0.126613
     91 H                     0.111713
     92 H                     0.138628
     93 H                     0.097399
     94 C                    -0.182867
     95 H                     0.115861
     96 H                     0.117098
     97 H                     0.095337
     98 C                    -0.168700
     99 H                     0.100785
    100 C                    -0.172298
    101 H                     0.092466
    102 H                     0.088458
    103 H                     0.091448
    104 C                    -0.182032
    105 H                     0.088044
    106 C                    -0.311988
    107 H                     0.089576
    108 H                     0.098422
    109 H                     0.103741
    110 H                     0.097170
  ----------------------------------------
  Sum of atomic charges =     0.000000

 -----------------------------------------------------------------
                    Cartesian Multipole Moments
 -----------------------------------------------------------------
    Charge (ESU x 10^10)
                 0.0000
    Dipole Moment (Debye)
         X      -2.7124      Y      -1.1910      Z       1.5037
       Tot       3.3222
    Quadrupole Moments (Debye-Ang)
        XX    -350.2620     XY      -4.9232     YY    -430.8419
        XZ      -6.7602     YZ       0.1602     ZZ    -446.8061
    Octopole Moments (Debye-Ang^2)
       XXX     -51.8940    XXY     374.5579    XYY     -92.6890
       YYY      46.0604    XXZ     133.4354    XYZ      87.4775
       YYZ       0.2150    XZZ       7.3486    YZZ      40.4537
       ZZZ      38.5896
    Hexadecapole Moments (Debye-Ang^3)
      XXXX -106093.7295   XXXY   -1312.1054   XXYY  -25946.6765
      XYYY    -493.4846   YYYY  -35880.2639   XXXZ    -669.5935
      XXYZ     709.6051   XYYZ     592.1559   YYYZ      13.5417
      XXZZ  -24351.0941   XYZZ     185.7194   YYZZ   -7918.3175
      XZZZ    -215.8454   YZZZ       0.5470   ZZZZ  -13389.8051
 -----------------------------------------------------------------
Archival summary:
1\1\mn246\SP\ProcedureUnspecified\6-31G**\8105042\afmv_a\ThuOct1123:50:122018ThuOct1123:50:122018\0\\#,ProcedureUnspecified,6-31G**,\\0,1\S\C,1,1.75484\C,2,1.32648,1,109.013\C,3,1.40423,2,132.564,1,179.744,0\H,4,1.08408,3,124.148,2,-5.89875,0\C,4,1.37834,3,112.787,2,-174.918,0\H,6,1.08178,4,122.58,3,166.348,0\C,2,1.43793,1,119.741,3,-174.499,0\N,8,1.286,2,119.515,1,170.916,0\C,9,1.39777,8,106.645,2,178.468,0\H,10,1.08172,9,116.934,8,176.958,0\C,10,1.38317,9,116.683,8,-2.81112,0\H,12,1.08171,10,128.619,9,174.782,0\C,3,1.44407,2,119.176,1,3.49329,0\C,14,1.422,3,110.869,2,-2.53555,0\C,15,1.47554,14,123.455,3,-174.889,0\N,16,1.34255,15,120.06,14,-11.7672,0\C,17,1.30979,16,118.255,15,173.379,0\H,18,1.08878,17,122.019,16,-174.508,0\C,16,1.39015,15,119.279,14,156.613,0\C,20,1.36197,16,121.665,15,-178.38,0\N,21,1.36424,20,115.251,16,179.397,0\N,20,1.37871,16,125.926,15,3.74543,0\C,18,1.40095,17,126.168,16,2.91907,0\C,24,1.48624,18,122.258,17,-179.566,0\C,25,1.40417,24,117.995,18,117.096,0\H,26,1.08562,25,122.06,24,3.26558,0\C,25,1.41182,24,122.249,18,-58.8192,0\H,28,1.08892,25,115.369,24,-3.54805,0\N,28,1.34883,25,125.238,24,179.295,0\C,30,1.37105,28,113.275,25,-0.719337,0\C,31,1.40523,30,127.467,28,2.28626,0\H,32,1.08568,31,123.365,30,171.206,0\C,31,1.48166,30,118.231,28,-170.494,0\H,34,1.09695,31,106.5,30,43.6904,0\H,34,1.09721,31,109.721,30,158.325,0\C,34,1.57951,31,115.429,30,-72.3516,0\H,37,1.09631,34,102.644,31,163.093,0\H,37,1.09698,34,114.26,31,47.623,0\C,37,1.55932,34,107.86,31,-80.6445,0\H,40,1.09657,37,108.26,34,-53.0828,0\H,40,1.09778,37,111.275,34,70.0628,0\C,40,1.53293,37,108.629,34,-171.539,0\H,43,1.09675,40,111.317,37,-55.4832,0\H,43,1.0968,40,111.239,37,62.5089,0\C,43,1.53941,40,114.171,37,-169.748,0\H,46,1.09711,43,114.974,40,60.5545,0\H,46,1.0972,43,108.942,40,171.213,0\C,46,1.52825,43,110.938,40,-58.5163,0\H,49,1.09663,46,112.35,43,57.475,0\H,49,1.09688,46,107.473,43,-179.556,0\H,49,1.09726,46,109.328,43,-56.7853,0\S,22,1.63764,21,107.152,20,6.80671,0\S,14,1.72557,3,117.898,2,-179.223,0\S,8,1.7282,2,120.086,1,-18.0294,0\H,36,2.1945,34,127.808,31,-56.7822,0\C,56,1.09697,36,169.537,34,24.7373,0\H,57,1.09639,56,101.34,36,-141.257,0\C,57,1.54755,56,112.182,36,107.319,0\H,59,1.09691,57,114.728,56,-164.474,0\H,59,1.09712,57,110.925,56,-48.2208,0\C,59,1.55231,57,109.407,56,77.724,0\H,62,1.09697,59,113.965,57,47.4621,0\H,62,1.09745,59,104.013,57,-64.4562,0\C,62,1.52627,59,113.097,57,168.487,0\H,65,1.09684,62,107.906,59,63.3359,0\H,65,1.09687,62,109.449,59,-42.3679,0\C,65,1.53152,62,114.329,59,-162.65,0\H,68,1.09645,65,106.577,62,-168.773,0\H,68,1.09672,65,113.477,62,69.9739,0\H,68,1.09731,65,113.397,62,-47.6283,0\C,57,1.55698,56,118.135,36,-21.1809,0\H,72,1.09742,57,114.648,56,175.252,0\H,72,1.09755,57,110.068,56,62.915,0\C,72,1.5556,57,114.842,56,-55.5003,0\N,75,1.33891,72,119.751,57,-90.5645,0\C,76,1.37769,75,120.395,72,177.879,0\H,77,1.08847,76,115.759,75,178.208,0\C,75,1.4148,72,118.568,57,80.4942,0\H,79,1.08616,75,122.168,72,8.96613,0\C,79,1.41151,75,118.074,72,-179.428,0\H,81,1.08658,79,119.817,75,-174.221,0\C,81,1.41056,79,121.783,75,8.37507,0\C,83,1.44422,81,119.638,79,175.576,0\C,84,1.40662,83,124.338,81,42.8884,0\H,85,1.0893,84,117.127,83,-0.418393,0\N,85,1.36512,84,125.296,83,-169.689,0\C,87,1.32193,85,120.986,84,-12.8661,0\C,88,1.39213,87,116.971,85,-2.51189,0\N,89,1.35169,88,126.444,87,-168.319,0\C,89,1.38392,88,122.496,87,6.89906,0\N,91,1.34638,89,116.362,88,178.468,0\C,88,1.49794,87,122.995,85,171.786,0\C,93,1.4002,88,123.576,87,-1.26136,0\C,94,1.38796,93,117.49,88,-179.467,0\C,95,1.36902,94,116.537,93,-3.59135,0\C,96,1.4163,95,124.279,94,165.328,0\N,97,1.31406,96,119.929,95,30.4725,0\C,98,1.38955,97,112.673,96,156.556,0\H,99,1.08202,98,119.655,97,-174.102,0\C,99,1.3732,98,108.617,97,3.95948,0\H,101,1.08211,99,128.54,98,-172.543,0\C,95,1.47754,94,111.021,93,177.811,0\H,103,1.08383,95,123.76,94,176.442,0\C,103,1.40951,95,112.119,94,-2.66191,0\H,105,1.08176,103,126.017,95,-178.248,0\S,92,1.59638,91,105.009,89,2.69933,0\S,97,1.70227,96,119.758,95,-163.973,0\S,94,1.73039,93,129.02,88,-3.20508,0\S,93,1.73896,88,131.55,87,174.215,0\\\@

 Total job time:  90.36s(wall), 1068.81s(cpu) 
 Thu Oct 11 23:50:12 2018

        *************************************************************
        *                                                           *
        *  Thank you very much for using Q-Chem.  Have a nice day.  *
        *                                                           *
        *************************************************************


