
Running Job 1 of 1 ./7/59.qcin
qchem ./7/59.qcin_61052.0 /tmpu/cab_g/afmv_a/scratch_qchem/qchem61052/ 1
/tmpu/appuserlic/qchem4.4/serial-multicore/exe/qcprog.exe_s ./7/59.qcin_61052.0 /tmpu/cab_g/afmv_a/scratch_qchem/qchem61052/
Check license passed

                  Welcome to Q-Chem
     A Quantum Leap Into The Future Of Chemistry


 Q-Chem 4.4, Q-Chem, Inc., Pleasanton, CA (2016)

 Y. Shao,  Z. Gan,  E. Epifanovsky,  A. T. B. Gilbert,  M. Wormit,  
 J. Kussmann,  A. W. Lange,  A. Behn,  J. Deng,  X. Feng,  D. Ghosh,  
 M. Goldey,  P. R. Horn,  L. D. Jacobson,  I. Kaliman,  F. Rob,  
 R. Z. Khaliullin,  T. Kus,  A. Landau,  J. Liu,  E. I. Proynov,  Y. M. Rhee,  
 R. M. Richard,  M. A. Rohrdanz,  R. P. Steele,  E. J. Sundstrom,  
 H. L. Woodcock III,  P. M. Zimmerman,  D. Zuev,  B. Albrecht,  E. Alguire,  
 B. Austin,  S. A. Baeppler,  G. J. O. Beran,  Y. A. Bernard,  E. Berquist,  
 K. Brandhorst,  K. B. Bravaya,  S. T. Brown,  D. Casanova,  C.-M. Chang,  
 Y. Chen,  S. H. Chien,  K. D. Closser,  M. P. Coons,  D. L. Crittenden,  
 S. Dasgupta,  M. Diedenhofen,  R. A. DiStasio Jr.,  H. Do,  A. D. Dutoi,  
 R. G. Edgar,  P.-T. Fang,  S. Fatehi,  Q. Feng,  L. Fusti-Molnar,  
 A. Ghysels,  A. Golubeva-Zadorozhnaya,  J. Gomes,  A. Gunina,  
 M. W. D. Hanson-Heine,  P. H. P. Harbach,  A. W. Hauser,  J. E. Herr,  
 E. G. Hohenstein,  Z. C. Holden,  K. Hui,  T.-C. Jagau,  H. Ji,  B. Kaduk,  
 K. Khistyaev,  Jaehoon Kim,  Jihan Kim,  R. A. King,  P. Klunzinger,  
 K. Koh,  D. Kosenkov,  T. Kowalczyk,  C. M. Krauter,  A. Kunitsa,  
 K. U. Lao,  A. Laurent,  K. V. Lawler,  J. Lee,  D. Lefrancois,  S. Lehtola,  
 S. V. Levchenko,  C. Y. Lin,  Y.-S. Lin,  F. Liu,  E. Livshits,  
 R. C. Lochan,  A. Luenser,  P. Manohar,  S. F. Manzer,  S.-P. Mao,  Y. Mao,  
 N. Mardirossian,  A. V. Marenich,  L. A. Martinez-Martinez,  S. A. Maurer,  
 N. J. Mayhall,  J.-M. Mewes,  A. F. Morrison,  K. Nanda,  T. S. Nguyen-Beck,  
 C. M. Oana,  R. Olivares-Amaya,  D. P. O'Neill,  J. A. Parkhill,  
 T. M. Perrine,  R. Peverati,  P. A. Pieniazek,  F. Plasser,  A. Prociuk,  
 D. R. Rehn,  E. Rosta,  N. J. Russ,  N. Sergueev,  S. M. Sharada,  
 S. Sharma,  D. W. Small,  A. Sodt,  T. Stauch,  T. Stein,  D. Stuck,  
 Y.-C. Su,  A. J. W. Thom,  T. Tsuchimochi,  L. Vogt,  O. Vydrov,  T. Wang,  
 M. A. Watson,  J. Wenzel,  A. White,  C. F. Williams,  V. Vanovschi,  
 K. Yao,  S. Yeganeh,  S. R. Yost,  Z.-Q. You,  I. Y. Zhang,  X. Zhang,  
 Y. Zhao,  B. R. Brooks,  G. K. L. Chan,  D. M. Chipman,  C. J. Cramer,  
 W. A. Goddard III,  M. S. Gordon,  W. J. Hehre,  A. Klamt,  
 H. F. Schaefer III,  M. W. Schmidt,  C. D. Sherrill,  D. G. Truhlar,  
 A. Warshel,  X. Xu,  A. Aspuru-Guzik,  R. Baer,  A. T. Bell,  N. A. Besley,  
 J.-D. Chai,  A. Dreuw,  B. D. Dunietz,  T. R. Furlani,  S. R. Gwaltney,  
 C.-P. Hsu,  Y. Jung,  J. Kong,  D. S. Lambrecht,  W. Liang,  C. Ochsenfeld,  
 V. A. Rassolov,  L. V. Slipchenko,  J. E. Subotnik,  T. Van Voorhis,  
 J. M. Herbert,  A. I. Krylov,  P. M. W. Gill,  M. Head-Gordon

 Contributors to earlier versions of Q-Chem not listed above: 
 R. D. Adamson,  J. Baker,  E. F. C. Byrd,  A. K. Chakraborty,  C.-L. Cheng,  
 H. Dachsel,  R. J. Doerksen,  G. Hawkins,  A. Heyden,  S. Hirata,  
 G. Kedziora,  F. J. Keil,  C. Kelley,  P. P. Korambath,  W. Kurlancheek,  
 A. M. Lee,  M. S. Lee,  D. Liotard,  I. Lotan,  P. E. Maslen,  N. Nair,  
 D. Neuhauser,  R. Olson,  B. Peters,  J. Ritchie,  N. E. Schultz,  
 N. Shenvi,  A. C. Simmonett,  K. S. Thanthiriwatte,  Q. Wu,  W. Zhang

 Please cite Q-Chem as follows:
 Y. Shao et al., Mol. Phys. 113, 184-215 (2015)
 DOI: 10.1080/00268976.2014.952696

 Q-Chem 4.4.2 for Intel X86 Linux

 Parts of Q-Chem use Armadillo 5.200.1 (Boston Tea Smuggler).
 http://arma.sourceforge.net/

 Q-Chem begins on Thu Oct 11 23:58:23 2018  

Host: 
0

     Scratch files written to /tmpu/cab_g/afmv_a/scratch_qchem/qchem61052//
 Dec716 11556_ 22328  22283 4050   
Processing $rem in /tmpu/appuserlic/qchem4.4/serial-multicore/config/preferences.
 MEM_TOTAL  2000 
FILE_GEOM_ORG=        593

Checking the input file for inconsistencies... 	...done.

--------------------------------------------------------------
User input:
--------------------------------------------------------------
$comment
SP
$end

$rem
MEM_STATIC 5000
MEM_TOTAL 20000
JOBTYPE SP
EXCHANGE B3LYP
BASIS 6-31g(d,p)
$end

$molecule
0 1
C          17.240000     15.391000    -12.756000
C          17.884000     14.135000    -12.850000
N          17.715000     16.429000    -12.030000
C          19.008000     13.934000    -12.074000
C          18.881000     16.244000    -11.319000
C          19.553000     14.980000    -11.280000
C          20.826000     14.796000    -10.505000
C          20.852000     15.243000     -9.161000
C          22.134000     14.446000    -11.051000
N          21.964000     15.245000     -8.419000
N          22.352000     13.903000    -12.315000
C          23.287000     14.474000    -10.259000
C          23.137000     14.781000     -8.864000
S          23.936000     13.537000    -12.423000
N          24.365000     13.990000    -10.930000
C          24.259000     14.556000     -7.859000
S          25.701000     13.655000     -8.098000
C          24.120000     14.941000     -6.534000
C          26.146000     13.758000     -6.358000
S          22.965000     16.006000     -5.632000
C          25.200000     14.502000     -5.678000
C          27.372000     13.270000     -5.754000
C          23.892000     15.834000     -4.141000
C          25.027000     15.002000     -4.303000
N          28.209000     12.613000     -6.602000
S          27.783000     13.139000     -4.073000
C          29.253000     12.056000     -5.979000
C          29.242000     12.341000     -4.630000
C          15.872000     15.580000    -13.434000
H          17.392000     13.354000    -13.422000
H          19.524000     12.979000    -12.119000
H          19.112000     17.093000    -10.678000
H          20.076000     15.810000     -8.650000
H          23.551000     16.341000     -3.248000
H          25.702000     14.755000     -3.491000
H          29.946000     11.402000     -6.493000
H          29.927000     11.889000     -3.924000
H          15.325000     14.631000    -13.378000
C          15.922000     16.132000    -14.863000
H          15.329000     16.336000    -12.854000
H          16.675000     15.537000    -15.393000
H          16.340000     17.147000    -14.853000
C          14.546000     16.078000    -15.583000
H          14.122000     15.067000    -15.619000
C          14.710000     16.489000    -17.080000
H          13.874000     16.690000    -14.968000
H          15.595000     17.109000    -17.271000
H          13.810000     17.064000    -17.328000
C          14.985000     15.229000    -17.938000
H          15.824000     14.710000    -17.458000
C          15.358000     15.610000    -19.379000
H          14.153000     14.516000    -17.989000
H          14.576000     16.239000    -19.822000
H          15.443000     14.668000    -19.935000
H          16.344000     16.087000    -19.329000
C          19.851000     11.572000     -6.268000
C          20.926000     12.165000     -6.987000
N          19.176000     10.550000     -6.769000
C          21.355000     11.623000     -8.213000
C          19.456000     10.109000     -7.972000
C          20.576000     10.649000     -8.813000
C          21.008000      9.947000    -10.125000
C          22.352000      9.962000    -10.547000
C          20.051000      9.308000    -11.046000
N          22.777000      9.304000    -11.699000
N          18.733000      9.222000    -10.818000
C          20.495000      8.713000    -12.230000
C          21.891000      8.625000    -12.502000
S          18.142000      8.606000    -12.216000
N          19.524000      8.255000    -13.009000
C          22.498000      7.730000    -13.507000
S          21.599000      6.958000    -14.830000
C          23.867000      7.636000    -13.794000
C          23.014000      6.350000    -15.555000
S          25.323000      8.349000    -13.058000
C          24.134000      6.857000    -14.935000
C          22.929000      5.640000    -16.787000
C          26.294000      7.532000    -14.346000
C          25.529000      6.790000    -15.261000
N          24.035000      5.488000    -17.505000
S          21.565000      4.646000    -17.139000
C          23.728000      4.649000    -18.512000
C          22.466000      4.129000    -18.507000
C          19.560000     11.859000     -4.734000
H          21.609000     12.897000     -6.566000
H          22.345000     11.980000     -8.483000
H          18.917000      9.210000     -8.265000
H          23.100000     10.446000     -9.921000
H          27.369000      7.628000    -14.265000
H          25.858000      6.132000    -16.057000
H          24.509000      4.456000    -19.236000
H          22.109000      3.304000    -19.109000
H          20.086000     12.725000     -4.314000
C          20.098000     10.693000     -3.842000
H          18.482000     12.007000     -4.596000
H          19.617000      9.744000     -4.110000
H          19.852000     10.968000     -2.809000
C          21.658000     10.477000     -3.977000
H          21.766000      9.592000     -3.336000
C          22.437000     11.640000     -3.581000
H          21.946000     10.181000     -4.993000
H          22.177000     11.948000     -2.561000
H          22.197000     12.550000     -4.145000
C          23.946000     11.375000     -3.630000
H          24.535000     12.244000     -3.311000
C          24.481000     10.792000     -4.971000
H          24.243000     10.605000     -2.907000
H          24.137000     11.392000     -5.823000
H          24.156000      9.749000     -5.069000
H          25.572000     10.908000     -4.999000
$end

--------------------------------------------------------------
 ----------------------------------------------------------------
             Standard Nuclear Orientation (Angstroms)
    I     Atom           X                Y                Z
 ----------------------------------------------------------------
    1      C      -2.4490233463    -5.9589897624     0.2374461243
    2      C      -2.6941674308    -4.5930064576    -0.0366012964
    3      N      -1.3017022780    -6.4241106536     0.7828468237
    4      C      -1.6599467923    -3.7034756910     0.1757090569
    5      C      -0.3025106128    -5.5175110539     1.0639076387
    6      C      -0.4245104899    -4.1287400071     0.7364446489
    7      C       0.6711518286    -3.1523014979     1.0544099323
    8      C       1.9896165061    -3.4863823309     0.6583519931
    9      C       0.5830340749    -2.0104101053     1.9598376263
   10      N       3.0559775062    -2.7554168157     0.9984632001
   11      N      -0.6045185906    -1.4430254476     2.4157568262
   12      C       1.7167501926    -1.2721002699     2.3162690384
   13      C       2.9666802157    -1.6203207745     1.7004838345
   14      S      -0.2136997951    -0.1110030070     3.2687825508
   15      N       1.3891889627    -0.1824134410     3.0591467239
   16      C       4.1904697434    -0.7174901683     1.7827643817
   17      S       4.2395463048     0.9195346343     2.2985427126
   18      C       5.4094313483    -1.1154077854     1.2545928415
   19      C       5.9482350046     1.1157312631     1.7711682632
   20      S       6.0968097716    -2.6920311308     0.6857134784
   21      C       6.4185765823    -0.0793308716     1.2598393138
   22      C       6.7789922769     2.2893426163     1.9674200053
   23      C       7.6840972570    -1.9657355669     0.4307483976
   24      C       7.7053121900    -0.5862223980     0.7519747094
   25      N       6.1500968058     3.3492221829     2.5440202054
   26      S       8.3474445389     2.6377442448     1.3113584175
   27      C       6.9054743079     4.4523132887     2.5741672066
   28      C       8.1613932145     4.2139674807     2.0574409969
   29      C      -3.4953193909    -7.0039776867    -0.1869285040
   30      H      -3.6309884894    -4.3326086525    -0.5200971984
   31      H      -1.8134022686    -2.6476290127    -0.0290962377
   32      H       0.6167267381    -6.0038332047     1.3856784553
   33      H       2.3208335076    -4.4338148628     0.2371004109
   34      H       8.4920398477    -2.5832931281     0.0611128624
   35      H       8.5846289414     0.0370652236     0.6324230831
   36      H       6.5116963131     5.4090644993     2.8931139290
   37      H       8.8860166663     4.9979403592     1.8777958499
   38      H      -3.9644285308    -6.6641645502    -1.1182767993
   39      C      -4.5329298736    -7.3611580946     0.8831330094
   40      H      -2.9540541610    -7.9373327046    -0.3835636012
   41      H      -4.8984718371    -6.4079926350     1.2828687714
   42      H      -4.0343599904    -7.8371812849     1.7374625675
   43      C      -5.6977785604    -8.2301146475     0.3329202814
   44      H      -6.2198286606    -7.7607102005    -0.5098822802
   45      C      -6.7967283045    -8.4052798469     1.4276588863
   46      H      -5.2222886355    -9.1430096009    -0.0477175195
   47      H      -6.4228338682    -8.2726230898     2.4507479026
   48      H      -7.1668975450    -9.4308334711     1.3121448297
   49      C      -7.8448390190    -7.2720948332     1.2982577470
   50      H      -7.2789221360    -6.3322170279     1.2912013565
   51      C      -8.8254774459    -7.2861031821     2.4810185182
   52      H      -8.4382355023    -7.2967526852     0.3760502844
   53      H      -9.3018269585    -8.2702586394     2.5701430249
   54      H      -9.5810671455    -6.5206789607     2.2643737232
   55      H      -8.2511548519    -6.9829721376     3.3644720415
   56      C       2.9155831709    -1.4646589328    -3.5728312028
   57      C       2.8962029345    -1.1775602830    -2.1794777761
   58      N       1.8919630235    -1.1482171400    -4.3494755137
   59      C       1.8222474810    -0.4704927583    -1.6071525193
   60      C       0.8140432919    -0.6161554446    -3.8249858527
   61      C       0.6889777040    -0.2578483149    -2.3726582039
   62      C      -0.5103726290     0.5714680844    -1.8486686155
   63      C      -0.3585723969     1.4641163534    -0.7694185252
   64      C      -1.8800815707     0.4204793560    -2.3716512336
   65      N      -1.4078106881     2.2537721597    -0.3044070028
   66      N      -2.2129703050    -0.3992498885    -3.3784943476
   67      C      -2.9292461916     1.1764079171    -1.8417053790
   68      C      -2.6613964303     2.1783158442    -0.8644740804
   69      S      -3.8484801313    -0.3161334550    -3.4151039987
   70      N      -4.1224542503     0.8794109292    -2.3391923818
   71      C      -3.5913047716     3.2638138980    -0.4950644812
   72      S      -5.3300867078     3.2561726523    -0.8571321404
   73      C      -3.3486758365     4.2523588679     0.4689251672
   74      C      -5.6163723871     4.6640081363     0.0558595133
   75      S      -1.9248183516     4.6842573051     1.4467260686
   76      C      -4.4880123727     5.0263269702     0.7568429229
   77      C      -6.9460827710     5.1527636397     0.2046457791
   78      C      -2.9355074717     5.9588785481     2.2361069586
   79      C      -4.2604275727     6.0127025613     1.7727456506
   80      N      -7.1954876313     6.0148179507     1.1826660143
   81      S      -8.0941625195     4.9859848323    -1.0707105321
   82      C      -8.4571161497     6.4480730623     1.0015514373
   83      C      -9.1030121734     5.9917745524    -0.1109587857
   84      C       4.2255510173    -1.8941508327    -4.3600585838
   85      H       3.7591743977    -1.2717807670    -1.5268241512
   86      H       2.0821112682    -0.0709140146    -0.6308038932
   87      H       0.0622875862    -0.3032900568    -4.5471697684
   88      H       0.6257549747     1.5949431858    -0.3226300232
   89      H      -2.4245717660     6.6044849596     2.9386303148
   90      H      -5.0382015736     6.7332196156     1.9980094469
   91      H      -8.8488939996     7.1235944947     1.7509291196
   92      H     -10.0286908470     6.3755172747    -0.5188049776
   93      H       5.0714939668    -2.1929353435    -3.7290749531
   94      C       4.8225080785    -0.6798012847    -5.1434240428
   95      H       3.9824575459    -2.7263696157    -5.0318840533
   96      H       4.0981936890    -0.2913411237    -5.8702344503
   97      H       5.7122056187    -1.0632594391    -5.6578442317
   98      C       5.2296862519     0.5249713155    -4.2046962245
   99      H       5.5371704080     1.2465265368    -4.9731892669
  100      C       6.2480097182     0.1745839210    -3.2267023636
  101      H       4.3638592123     0.9518725066    -3.6842013537
  102      H       7.1318751254    -0.2425954453    -3.7243039292
  103      H       5.9650047122    -0.6548372943    -2.5665776676
  104      C       6.6942082766     1.3805310087    -2.3922531631
  105      H       7.4777380489     1.1230223827    -1.6686418009
  106      C       5.5477746437     2.1905327054    -1.7184711680
  107      H       7.1821181717     2.1416402540    -3.0139401026
  108      H       4.8749550997     1.5263134820    -1.1613655367
  109      H       4.9993712430     2.7507540371    -2.4855981258
  110      H       5.9770061183     2.8334810210    -0.9394340670
 ----------------------------------------------------------------
 Molecular Point Group                 C1    NOp =  1
 Largest Abelian Subgroup              C1    NOp =  1
 Nuclear Repulsion Energy = 12026.2499522751 hartrees
 There are      270 alpha and      270 beta electrons
 Requested basis set is 6-31G(d,p)
 There are 406 shells and 1262 basis functions

 Total QAlloc Memory Limit  20000 MB
 Mega-Array Size      4888 MB
 MEM_STATIC part      5000 MB
 A cutoff of  1.0D-08 yielded  15073 shell pairs
 There are    154074 function pairs
 
 -------------------------------------------------------
 OpenMP Integral Computing Module                       
 Release: version 1.0, May 2013, Q-Chem Inc. Pittsburgh 
 -------------------------------------------------------
 Integral Job Info:
 Integral job number is                      11
 Integral operator is                         1
 short-range coefficients                     0
 long-range coefficients              100000000
 Omega coefficients                           0
 if combine SR and LR in K                    0
 Integral screening is                        0
 Integral computing path is                   2
 max size of driver memory is            800000
 size of driver memory is                593474
 size of scratch memory is             15166112
 max col of scratch BK array               1296
 max len of scratch array in speh3          155
 max len of scratch index in speh4           18
 max int batch size is                      520
 min int batch size is                       52
 fixed nKL is                                52
 max L of basis functions is                  2
 order of int derivative is                   0
 number of shells is                        406
 number of basis is                        1262
 number of cartesian basis is              1262
 number of contracted shell pairs         15073
 number of primitive shell pairs          46601
 maxK2 (contraction) of shell pair           36
 max number of K2 of shell pair               1
 max number of CS2 of shell pair           1522
 max number of PS2 of shell pair           8586
 mem total for path MDJ                  322808
 -------------------------------------------------------
 Smallest overlap matrix eigenvalue = 4.36E-04

 Scale SEOQF with 1.000000e-02/1.000000e-02/1.000000e-02

 Standard Electronic Orientation quadrupole field applied
 Nucleus-field energy     =     0.0000000791 hartrees
 Guess from superposition of atomic densities
 Warning:  Energy on first SCF cycle will be non-variational
 A restricted hybrid HF-DFT SCF calculation will be
 performed using Pulay DIIS extrapolation
 Exchange:     0.2000 Hartree-Fock + 0.0800 Slater + 0.7200 B88
 Correlation:  0.1900 VWN1RPA + 0.8100 LYP
 Using SG-1 standard quadrature grid
 SCF converges when DIIS error is below 1.0E-05
 using 16 threads for integral computing 
 -------------------------------------------------------
 OpenMP BLAS3 based DFT computing Module                
 Release: version 1.0, May 2013, Q-Chem Inc. Pittsburgh 
 -------------------------------------------------------
 ---------------------------------------
  Cycle       Energy         DIIS Error
 ---------------------------------------
    1   -5679.5150578347      2.12E-02
    2   -5662.5217634148      2.15E-03
    3   -5661.1341444613      3.31E-03
    4   -5663.3981547447      7.79E-04
    5   -5663.5090441449      3.05E-04
    6   -5663.5218347595      1.71E-04
    7   -5663.5269902264      7.12E-05
    8   -5663.5279114479      2.45E-05
    9   -5663.5280245402      7.41E-06 Convergence criterion met
 ---------------------------------------
 SCF time:  CPU 1067.70 s  wall 86.13 s
 SCF   energy in the final basis set = -5663.5280245402
 Total energy in the final basis set = -5663.5280245402
 
 --------------------------------------------------------------
 
                    Orbital Energies (a.u.)
 --------------------------------------------------------------
 
 Alpha MOs
 -- Occupied --
-88.994 -88.986 -88.938 -88.933 -88.930 -88.923 -88.916 -88.912
-14.388 -14.385 -14.382 -14.379 -14.351 -14.349 -14.345 -14.340
-14.330 -14.322 -10.272 -10.272 -10.267 -10.265 -10.261 -10.259
-10.257 -10.255 -10.246 -10.246 -10.244 -10.242 -10.240 -10.239
-10.238 -10.235 -10.233 -10.232 -10.232 -10.230 -10.230 -10.229
-10.229 -10.228 -10.228 -10.228 -10.228 -10.227 -10.222 -10.219
-10.219 -10.217 -10.209 -10.206 -10.206 -10.199 -10.197 -10.192
-10.182 -10.181 -10.179 -10.179 -10.177 -10.177 -10.175 -10.172
-10.171 -10.167 -10.167 -10.166  -8.049  -8.042  -7.998  -7.995
 -7.988  -7.984  -7.974  -7.970  -6.014  -6.008  -6.007  -6.007
 -6.001  -5.999  -5.962  -5.959  -5.959  -5.956  -5.955  -5.953
 -5.952  -5.949  -5.948  -5.945  -5.944  -5.941  -5.939  -5.935
 -5.935  -5.931  -5.931  -5.927  -1.045  -1.031  -0.984  -0.969
 -0.960  -0.942  -0.939  -0.927  -0.913  -0.909  -0.906  -0.887
 -0.842  -0.841  -0.827  -0.821  -0.821  -0.811  -0.806  -0.805
 -0.804  -0.803  -0.795  -0.794  -0.783  -0.772  -0.768  -0.762
 -0.747  -0.743  -0.738  -0.732  -0.726  -0.722  -0.709  -0.703
 -0.693  -0.690  -0.677  -0.670  -0.649  -0.646  -0.641  -0.640
 -0.635  -0.630  -0.625  -0.621  -0.612  -0.608  -0.599  -0.598
 -0.594  -0.592  -0.583  -0.582  -0.578  -0.575  -0.569  -0.555
 -0.548  -0.545  -0.537  -0.536  -0.524  -0.521  -0.517  -0.516
 -0.503  -0.502  -0.499  -0.498  -0.486  -0.478  -0.476  -0.475
 -0.469  -0.466  -0.465  -0.463  -0.461  -0.456  -0.455  -0.449
 -0.445  -0.444  -0.442  -0.441  -0.436  -0.435  -0.431  -0.429
 -0.428  -0.424  -0.422  -0.420  -0.417  -0.415  -0.413  -0.413
 -0.411  -0.410  -0.406  -0.405  -0.402  -0.400  -0.398  -0.395
 -0.394  -0.391  -0.389  -0.389  -0.386  -0.384  -0.383  -0.383
 -0.380  -0.380  -0.373  -0.372  -0.361  -0.360  -0.357  -0.352
 -0.351  -0.349  -0.348  -0.347  -0.344  -0.343  -0.341  -0.340
 -0.336  -0.335  -0.333  -0.332  -0.331  -0.325  -0.323  -0.317
 -0.313  -0.308  -0.305  -0.305  -0.303  -0.302  -0.301  -0.300
 -0.299  -0.296  -0.295  -0.293  -0.291  -0.287  -0.283  -0.278
 -0.276  -0.271  -0.261  -0.258  -0.254  -0.254  -0.253  -0.248
 -0.244  -0.242  -0.234  -0.228  -0.197  -0.194
 -- Virtual --
 -0.113  -0.111  -0.076  -0.073  -0.038  -0.035  -0.025  -0.022
 -0.019  -0.017  -0.016  -0.012  -0.010  -0.005  -0.005  -0.003
  0.000   0.007   0.008   0.018   0.025   0.031   0.035   0.039
  0.051   0.052   0.059   0.063   0.066   0.074   0.087   0.088
  0.090   0.091   0.098   0.099   0.103   0.105   0.107   0.109
  0.111   0.112   0.115   0.118   0.119   0.121   0.124   0.126
  0.127   0.129   0.130   0.132   0.136   0.139   0.139   0.145
  0.148   0.150   0.155   0.156   0.161   0.162   0.163   0.166
  0.168   0.169   0.174   0.175   0.179   0.180   0.182   0.185
  0.188   0.188   0.190   0.191   0.194   0.196   0.197   0.197
  0.200   0.202   0.202   0.205   0.208   0.210   0.214   0.216
  0.218   0.225   0.228   0.228   0.230   0.233   0.236   0.239
  0.239   0.244   0.246   0.251   0.252   0.254   0.258   0.260
  0.262   0.264   0.268   0.269   0.271   0.273   0.276   0.280
  0.282   0.284   0.286   0.290   0.295   0.296   0.299   0.305
  0.307   0.308   0.314   0.317   0.318   0.319   0.322   0.326
  0.328   0.330   0.330   0.333   0.336   0.338   0.345   0.346
  0.348   0.351   0.352   0.361   0.363   0.368   0.368   0.372
  0.375   0.376   0.381   0.384   0.388   0.390   0.395   0.401
  0.402   0.408   0.409   0.414   0.417   0.422   0.430   0.432
  0.438   0.439   0.444   0.449   0.453   0.455   0.463   0.464
  0.465   0.471   0.473   0.480   0.482   0.490   0.496   0.498
  0.500   0.503   0.504   0.505   0.508   0.510   0.513   0.515
  0.520   0.522   0.525   0.527   0.529   0.532   0.533   0.534
  0.535   0.536   0.537   0.538   0.543   0.546   0.547   0.548
  0.550   0.553   0.554   0.557   0.557   0.558   0.562   0.564
  0.565   0.566   0.567   0.573   0.576   0.578   0.580   0.584
  0.585   0.586   0.587   0.589   0.593   0.595   0.597   0.601
  0.602   0.603   0.605   0.606   0.607   0.611   0.613   0.614
  0.616   0.618   0.619   0.622   0.625   0.626   0.628   0.630
  0.632   0.633   0.636   0.638   0.641   0.643   0.648   0.649
  0.651   0.654   0.659   0.662   0.666   0.669   0.669   0.674
  0.676   0.679   0.681   0.681   0.686   0.687   0.693   0.695
  0.696   0.705   0.707   0.709   0.711   0.715   0.716   0.721
  0.723   0.726   0.729   0.731   0.734   0.738   0.739   0.742
  0.743   0.746   0.749   0.751   0.756   0.761   0.765   0.769
  0.774   0.775   0.777   0.780   0.784   0.789   0.792   0.794
  0.797   0.799   0.799   0.802   0.804   0.808   0.811   0.812
  0.813   0.814   0.818   0.819   0.820   0.823   0.825   0.826
  0.828   0.829   0.830   0.831   0.832   0.834   0.836   0.837
  0.839   0.841   0.843   0.845   0.847   0.848   0.855   0.857
  0.860   0.861   0.861   0.863   0.864   0.869   0.870   0.874
  0.879   0.881   0.882   0.884   0.886   0.889   0.893   0.896
  0.897   0.897   0.901   0.902   0.907   0.912   0.913   0.915
  0.917   0.918   0.921   0.923   0.924   0.926   0.929   0.932
  0.933   0.935   0.939   0.941   0.943   0.945   0.948   0.948
  0.950   0.954   0.957   0.959   0.961   0.963   0.965   0.968
  0.971   0.973   0.975   0.978   0.983   0.984   0.988   0.992
  0.994   0.995   0.999   1.000   1.002   1.005   1.007   1.011
  1.013   1.017   1.020   1.023   1.024   1.026   1.029   1.032
  1.034   1.039   1.042   1.047   1.048   1.049   1.055   1.058
  1.060   1.064   1.065   1.071   1.073   1.079   1.082   1.086
  1.088   1.093   1.097   1.100   1.103   1.107   1.111   1.111
  1.116   1.117   1.125   1.129   1.134   1.140   1.145   1.149
  1.153   1.157   1.161   1.164   1.171   1.177   1.181   1.186
  1.191   1.201   1.208   1.213   1.219   1.222   1.225   1.228
  1.237   1.240   1.247   1.251   1.257   1.258   1.263   1.271
  1.276   1.280   1.283   1.286   1.288   1.296   1.297   1.302
  1.305   1.308   1.317   1.323   1.325   1.328   1.331   1.333
  1.337   1.341   1.349   1.349   1.355   1.356   1.362   1.364
  1.365   1.371   1.377   1.380   1.383   1.385   1.390   1.400
  1.402   1.405   1.408   1.410   1.417   1.423   1.426   1.428
  1.431   1.431   1.435   1.441   1.452   1.462   1.465   1.472
  1.473   1.481   1.492   1.497   1.499   1.507   1.512   1.516
  1.522   1.529   1.535   1.542   1.544   1.544   1.550   1.553
  1.562   1.565   1.570   1.578   1.587   1.591   1.595   1.602
  1.608   1.620   1.622   1.630   1.640   1.642   1.650   1.653
  1.657   1.660   1.664   1.668   1.669   1.674   1.676   1.677
  1.683   1.689   1.692   1.693   1.700   1.701   1.704   1.709
  1.711   1.714   1.724   1.724   1.727   1.729   1.743   1.746
  1.750   1.755   1.758   1.758   1.764   1.772   1.774   1.778
  1.783   1.789   1.794   1.799   1.799   1.809   1.815   1.817
  1.821   1.825   1.826   1.828   1.831   1.831   1.842   1.846
  1.852   1.853   1.855   1.857   1.859   1.864   1.867   1.872
  1.875   1.876   1.877   1.878   1.884   1.885   1.890   1.894
  1.901   1.903   1.904   1.906   1.910   1.919   1.921   1.922
  1.926   1.930   1.932   1.936   1.940   1.941   1.948   1.953
  1.956   1.968   1.971   1.972   1.978   1.979   1.982   1.992
  1.996   2.000   2.002   2.005   2.010   2.014   2.025   2.028
  2.033   2.035   2.038   2.042   2.044   2.047   2.055   2.057
  2.062   2.073   2.075   2.082   2.085   2.089   2.091   2.095
  2.104   2.105   2.111   2.115   2.124   2.125   2.129   2.132
  2.136   2.140   2.142   2.142   2.151   2.152   2.154   2.158
  2.164   2.165   2.169   2.172   2.175   2.180   2.182   2.183
  2.187   2.188   2.193   2.197   2.200   2.202   2.206   2.211
  2.216   2.221   2.222   2.228   2.233   2.236   2.242   2.250
  2.251   2.259   2.264   2.264   2.269   2.274   2.276   2.281
  2.283   2.284   2.288   2.289   2.292   2.293   2.296   2.299
  2.302   2.303   2.315   2.316   2.321   2.323   2.325   2.332
  2.335   2.344   2.345   2.346   2.348   2.351   2.357   2.359
  2.361   2.369   2.372   2.375   2.378   2.380   2.384   2.389
  2.392   2.394   2.396   2.397   2.400   2.407   2.412   2.417
  2.419   2.427   2.430   2.432   2.435   2.436   2.443   2.446
  2.450   2.453   2.455   2.458   2.460   2.473   2.474   2.480
  2.482   2.487   2.488   2.491   2.497   2.500   2.502   2.506
  2.508   2.515   2.521   2.526   2.528   2.535   2.536   2.536
  2.539   2.543   2.544   2.547   2.550   2.552   2.553   2.562
  2.563   2.566   2.570   2.572   2.574   2.576   2.583   2.588
  2.599   2.603   2.611   2.612   2.616   2.623   2.628   2.632
  2.636   2.640   2.647   2.651   2.654   2.655   2.656   2.664
  2.668   2.672   2.674   2.678   2.682   2.689   2.692   2.697
  2.699   2.700   2.705   2.712   2.716   2.722   2.723   2.737
  2.739   2.743   2.748   2.754   2.760   2.766   2.768   2.779
  2.792   2.793   2.799   2.810   2.816   2.819   2.825   2.827
  2.833   2.838   2.842   2.853   2.860   2.862   2.867   2.869
  2.869   2.876   2.878   2.893   2.897   2.901   2.903   2.909
  2.911   2.912   2.918   2.920   2.923   2.926   2.936   2.945
  2.946   2.946   2.958   2.967   2.973   2.984   2.987   2.988
  3.017   3.021   3.026   3.045   3.047   3.052   3.088   3.119
  3.151   3.171   3.192   3.198   3.210   3.219   3.223   3.240
  3.240   3.245   3.248   3.249   3.260   3.266   3.268   3.283
  3.287   3.292   3.296   3.305   3.317   3.322   3.328   3.334
  3.348   3.350   3.374   3.383   3.388   3.396   3.420   3.420
  3.434   3.441   3.466   3.472   3.479   3.505   3.514   3.530
  3.537   3.547   3.568   3.575   3.582   3.584   3.586   3.601
  3.608   3.627   3.723   3.726   3.845   3.863   3.916   3.924
  3.932   3.939   3.941   3.946   3.953   3.977   3.991   3.993
  4.020   4.061   4.073   4.083   4.092   4.097   4.104   4.120
  4.122   4.135   4.138   4.148   4.157   4.158   4.174   4.181
  4.195   4.203   4.218   4.252   4.253   4.255   4.269   4.276
  4.285   4.293   4.326   4.346   4.364   4.367   4.377   4.411
  4.422   4.443   4.447   4.453   4.463   4.470   4.496   4.501
  4.511   4.515   4.529   4.566   4.580   4.622   4.667   4.671
  4.676   4.688   4.707   4.707   4.758   4.761   4.771   4.775
 --------------------------------------------------------------
 
          Ground-State Mulliken Net Atomic Charges

     Atom                 Charge (a.u.)
  ----------------------------------------
      1 C                     0.263914
      2 C                    -0.101201
      3 N                    -0.479586
      4 C                    -0.062996
      5 C                     0.068490
      6 C                     0.026301
      7 C                    -0.000793
      8 C                     0.061955
      9 C                     0.218618
     10 N                    -0.511589
     11 N                    -0.549058
     12 C                     0.218097
     13 C                     0.303795
     14 S                     0.640051
     15 N                    -0.572747
     16 C                    -0.229462
     17 S                     0.364498
     18 C                    -0.129965
     19 C                    -0.233440
     20 S                     0.284687
     21 C                     0.144718
     22 C                     0.044568
     23 C                    -0.308893
     24 C                    -0.080672
     25 N                    -0.433244
     26 S                     0.293105
     27 C                     0.142339
     28 C                    -0.324093
     29 C                    -0.226507
     30 H                     0.092923
     31 H                     0.109046
     32 H                     0.107707
     33 H                     0.123755
     34 H                     0.142780
     35 H                     0.110663
     36 H                     0.123865
     37 H                     0.123786
     38 H                     0.095530
     39 C                    -0.177914
     40 H                     0.116512
     41 H                     0.089757
     42 H                     0.111633
     43 C                    -0.181216
     44 H                     0.094082
     45 C                    -0.167487
     46 H                     0.090566
     47 H                     0.093389
     48 H                     0.089035
     49 C                    -0.185175
     50 H                     0.096507
     51 C                    -0.314615
     52 H                     0.091421
     53 H                     0.106785
     54 H                     0.097905
     55 H                     0.104259
     56 C                     0.252923
     57 C                    -0.135788
     58 N                    -0.448397
     59 C                    -0.083601
     60 C                     0.092640
     61 C                     0.004756
     62 C                     0.037714
     63 C                     0.054229
     64 C                     0.219126
     65 N                    -0.550036
     66 N                    -0.543688
     67 C                     0.216671
     68 C                     0.315308
     69 S                     0.586584
     70 N                    -0.558815
     71 C                    -0.239649
     72 S                     0.321654
     73 C                    -0.104644
     74 C                    -0.232280
     75 S                     0.279603
     76 C                     0.144434
     77 C                     0.066930
     78 C                    -0.329120
     79 C                    -0.031371
     80 N                    -0.429241
     81 S                     0.293051
     82 C                     0.128501
     83 C                    -0.310852
     84 C                    -0.214067
     85 H                     0.110742
     86 H                     0.105582
     87 H                     0.117051
     88 H                     0.123492
     89 H                     0.130689
     90 H                     0.126811
     91 H                     0.110247
     92 H                     0.131566
     93 H                     0.097454
     94 C                    -0.189424
     95 H                     0.107797
     96 H                     0.107656
     97 H                     0.089123
     98 C                    -0.174278
     99 H                     0.089620
    100 C                    -0.166896
    101 H                     0.106907
    102 H                     0.081023
    103 H                     0.101707
    104 C                    -0.183287
    105 H                     0.080826
    106 C                    -0.330803
    107 H                     0.088534
    108 H                     0.104494
    109 H                     0.107845
    110 H                     0.106562
  ----------------------------------------
  Sum of atomic charges =     0.000000

 -----------------------------------------------------------------
                    Cartesian Multipole Moments
 -----------------------------------------------------------------
    Charge (ESU x 10^10)
                 0.0000
    Dipole Moment (Debye)
         X      -0.5383      Y       3.1253      Z      -0.2523
       Tot       3.1813
    Quadrupole Moments (Debye-Ang)
        XX    -368.9267     XY      -4.8332     YY    -430.6938
        XZ       6.3156     YZ       7.1772     ZZ    -458.6757
    Octopole Moments (Debye-Ang^2)
       XXX      15.1259    XXY     275.9256    XYY     -80.5688
       YYY     271.4704    XXZ    -103.9645    XYZ      17.9743
       YYZ      32.3974    XZZ     -66.4461    YZZ      46.7476
       ZZZ      36.4571
    Hexadecapole Moments (Debye-Ang^3)
      XXXX  -59161.0696   XXXY   -1737.5062   XXYY  -14749.8616
      XYYY    -400.0900   YYYY  -38901.7283   XXXZ     501.0065
      XXYZ     333.0782   XYYZ     261.0450   YYYZ     797.7815
      XXZZ  -13483.5355   XYZZ     -65.3655   YYZZ   -8606.3281
      XZZZ      25.8373   YZZZ     -16.1063   ZZZZ  -12629.6087
 -----------------------------------------------------------------
Archival summary:
1\1\mn246\SP\ProcedureUnspecified\6-31G**\8105042\afmv_a\ThuOct1123:59:522018ThuOct1123:59:522018\0\\#,ProcedureUnspecified,6-31G**,\\0,1\S\C,1,1.71706\C,2,1.38678,1,111.275\C,3,1.44633,2,113.977,1,0.0441092,0\C,4,1.38234,3,112.535,2,1.22219,0\C,5,1.45122,4,123.669,3,-175.919,0\N,6,1.36063,5,115.003,4,176.86,0\C,7,1.33728,6,113.018,5,173.176,0\H,8,1.08266,7,122.015,6,-172.671,0\C,8,1.37882,7,111.314,6,2.52729,0\H,10,1.08257,8,123.141,7,-172.283,0\C,4,1.47328,3,111.203,2,-177.051,0\H,12,1.08443,4,123.26,3,-177.333,0\C,12,1.41658,4,113.587,3,2.50359,0\H,14,1.08203,12,128.469,4,178.716,0\C,2,1.523,1,127.183,3,171.849,0\N,16,1.33763,2,118.539,1,-164.995,0\C,17,1.33683,16,122.975,2,167.255,0\H,18,1.08848,17,109.37,16,170.934,0\C,18,1.41662,17,122.842,16,2.48583,0\C,16,1.43624,2,122.169,1,13.1044,0\N,21,1.35889,16,129.687,2,1.44791,0\C,21,1.39909,16,117.907,2,-166.881,0\N,23,1.39286,21,113.112,16,168.83,0\C,20,1.50167,18,117.809,17,173.538,0\C,25,1.42182,20,121.534,18,134.136,0\H,26,1.08642,25,119.193,20,-0.126013,0\C,26,1.38056,25,121.256,20,175.888,0\H,28,1.08591,26,124.073,25,175.843,0\C,28,1.41461,26,117.553,25,4.26706,0\N,30,1.35283,28,123.853,26,-4.99561,0\C,31,1.37815,30,118.095,28,1.32761,0\H,32,1.0886,31,112.249,30,173.115,0\C,30,1.53845,28,118.987,26,170.73,0\H,34,1.09672,30,106.97,28,-150.915,0\H,34,1.09679,30,108.341,28,-33.759,0\C,34,1.53272,30,115.221,28,92.6409,0\H,37,1.09633,34,106.121,30,-47.8984,0\H,37,1.09775,34,109.69,30,64.0605,0\C,37,1.55393,34,112.991,30,-170.293,0\H,40,1.0969,37,112.925,34,56.6518,0\H,40,1.09743,37,105.259,34,-59.9737,0\C,40,1.56103,37,110.008,34,173.073,0\H,43,1.09642,40,105.59,37,142.86,0\H,43,1.09732,40,113.604,37,23.4097,0\C,43,1.549,40,109.613,37,-90.8323,0\H,46,1.0969,43,114.824,40,-66.0418,0\H,46,1.09712,43,106.154,40,51.9905,0\C,46,1.53648,43,111.154,40,171.584,0\H,49,1.09646,46,106.464,43,-68.9145,0\H,49,1.097,46,110.356,43,55.5345,0\H,49,1.09714,46,106.331,43,174.863,0\S,22,1.61812,21,110.182,16,-168.591,0\S,6,1.73547,5,128.946,4,-15.9769,0\S,14,1.76408,12,112.435,4,-1.65846,0\H,13,2.77478,12,89.5935,4,76.634,0\C,56,1.0972,13,157.464,12,-17.8065,0\H,57,1.0972,56,102.646,13,-165.321,0\C,57,1.53288,56,112.473,13,74.7085,0\H,59,1.09675,57,108.159,56,56.4954,0\H,59,1.09718,57,110.016,56,-53.1373,0\C,59,1.45473,57,112.349,56,178.767,0\H,62,1.09673,59,109.107,57,58.2987,0\H,62,1.09808,59,115.643,57,-62.7288,0\C,57,1.55705,56,111.254,13,-56.651,0\H,65,1.09685,57,109.341,56,-158.486,0\H,65,1.09738,57,110.869,56,78.8657,0\H,65,1.09751,57,108.903,56,-34.4175,0\C,62,1.58066,59,113.328,57,-176.125,0\H,69,1.09692,62,109.635,59,57.1012,0\H,69,1.09717,62,107.074,59,176.884,0\C,69,1.56354,62,113.127,59,-60.7845,0\H,72,1.09683,69,111.533,62,178.164,0\H,72,1.09683,69,101.849,62,62.6609,0\C,72,1.58752,69,110.694,62,-60.2466,0\N,75,1.3233,72,114.328,69,-67.2225,0\C,76,1.31152,75,119.872,72,171.313,0\H,77,1.08838,76,114.768,75,-174.542,0\C,75,1.42276,72,123.468,69,100.653,0\H,79,1.08607,75,124.068,72,3.01548,0\C,79,1.40744,75,120.664,72,-162.936,0\H,81,1.08648,79,111.572,75,162.644,0\C,81,1.38402,79,118.495,75,-10.6974,0\C,83,1.54944,81,121.938,79,176.833,0\C,84,1.40877,83,120.985,81,-19.228,0\H,85,1.08887,84,119.202,83,-2.11929,0\N,85,1.39309,84,122.258,83,-177.915,0\C,87,1.37508,85,121.303,84,-1.3834,0\C,88,1.42497,87,119.292,85,-6.69484,0\N,89,1.32644,88,125.713,87,-171.058,0\C,89,1.3975,88,119.951,87,9.83923,0\N,91,1.34034,89,115.418,88,173.506,0\C,88,1.47631,87,115.593,85,166.815,0\C,93,1.40192,88,125.557,87,7.31955,0\C,94,1.40713,93,112.856,88,170.682,0\C,95,1.3769,94,114.496,93,-0.574026,0\C,96,1.42448,95,128.427,94,-173.435,0\N,97,1.32735,96,118.372,95,4.29231,0\C,98,1.34619,97,106.618,96,-172.19,0\H,99,1.08231,98,116.549,97,-176.639,0\C,99,1.36494,98,116.458,97,3.60545,0\H,101,1.08189,99,126.41,98,167.092,0\C,95,1.43415,94,113.251,93,-178.141,0\H,103,1.08389,95,119.377,94,-173.519,0\C,103,1.40464,95,110.916,94,0.063425,0\H,105,1.08231,103,129.535,95,-175.046,0\S,90,1.63156,89,105.09,88,-179.456,0\S,96,1.70221,95,110.663,94,-5.76517,0\S,101,1.71771,99,111.915,98,2.11359,0\S,94,1.78045,93,133.4,88,-6.31214,0\\\@

 Total job time:  89.25s(wall), 1077.38s(cpu) 
 Thu Oct 11 23:59:52 2018

        *************************************************************
        *                                                           *
        *  Thank you very much for using Q-Chem.  Have a nice day.  *
        *                                                           *
        *************************************************************


