
Running Job 1 of 1 ./7/6.qcin
qchem ./7/6.qcin_61546.0 /tmpu/cab_g/afmv_a/scratch_qchem/qchem61546/ 1
/tmpu/appuserlic/qchem4.4/serial-multicore/exe/qcprog.exe_s ./7/6.qcin_61546.0 /tmpu/cab_g/afmv_a/scratch_qchem/qchem61546/
Check license passed

                  Welcome to Q-Chem
     A Quantum Leap Into The Future Of Chemistry


 Q-Chem 4.4, Q-Chem, Inc., Pleasanton, CA (2016)

 Y. Shao,  Z. Gan,  E. Epifanovsky,  A. T. B. Gilbert,  M. Wormit,  
 J. Kussmann,  A. W. Lange,  A. Behn,  J. Deng,  X. Feng,  D. Ghosh,  
 M. Goldey,  P. R. Horn,  L. D. Jacobson,  I. Kaliman,  F. Rob,  
 R. Z. Khaliullin,  T. Kus,  A. Landau,  J. Liu,  E. I. Proynov,  Y. M. Rhee,  
 R. M. Richard,  M. A. Rohrdanz,  R. P. Steele,  E. J. Sundstrom,  
 H. L. Woodcock III,  P. M. Zimmerman,  D. Zuev,  B. Albrecht,  E. Alguire,  
 B. Austin,  S. A. Baeppler,  G. J. O. Beran,  Y. A. Bernard,  E. Berquist,  
 K. Brandhorst,  K. B. Bravaya,  S. T. Brown,  D. Casanova,  C.-M. Chang,  
 Y. Chen,  S. H. Chien,  K. D. Closser,  M. P. Coons,  D. L. Crittenden,  
 S. Dasgupta,  M. Diedenhofen,  R. A. DiStasio Jr.,  H. Do,  A. D. Dutoi,  
 R. G. Edgar,  P.-T. Fang,  S. Fatehi,  Q. Feng,  L. Fusti-Molnar,  
 A. Ghysels,  A. Golubeva-Zadorozhnaya,  J. Gomes,  A. Gunina,  
 M. W. D. Hanson-Heine,  P. H. P. Harbach,  A. W. Hauser,  J. E. Herr,  
 E. G. Hohenstein,  Z. C. Holden,  K. Hui,  T.-C. Jagau,  H. Ji,  B. Kaduk,  
 K. Khistyaev,  Jaehoon Kim,  Jihan Kim,  R. A. King,  P. Klunzinger,  
 K. Koh,  D. Kosenkov,  T. Kowalczyk,  C. M. Krauter,  A. Kunitsa,  
 K. U. Lao,  A. Laurent,  K. V. Lawler,  J. Lee,  D. Lefrancois,  S. Lehtola,  
 S. V. Levchenko,  C. Y. Lin,  Y.-S. Lin,  F. Liu,  E. Livshits,  
 R. C. Lochan,  A. Luenser,  P. Manohar,  S. F. Manzer,  S.-P. Mao,  Y. Mao,  
 N. Mardirossian,  A. V. Marenich,  L. A. Martinez-Martinez,  S. A. Maurer,  
 N. J. Mayhall,  J.-M. Mewes,  A. F. Morrison,  K. Nanda,  T. S. Nguyen-Beck,  
 C. M. Oana,  R. Olivares-Amaya,  D. P. O'Neill,  J. A. Parkhill,  
 T. M. Perrine,  R. Peverati,  P. A. Pieniazek,  F. Plasser,  A. Prociuk,  
 D. R. Rehn,  E. Rosta,  N. J. Russ,  N. Sergueev,  S. M. Sharada,  
 S. Sharma,  D. W. Small,  A. Sodt,  T. Stauch,  T. Stein,  D. Stuck,  
 Y.-C. Su,  A. J. W. Thom,  T. Tsuchimochi,  L. Vogt,  O. Vydrov,  T. Wang,  
 M. A. Watson,  J. Wenzel,  A. White,  C. F. Williams,  V. Vanovschi,  
 K. Yao,  S. Yeganeh,  S. R. Yost,  Z.-Q. You,  I. Y. Zhang,  X. Zhang,  
 Y. Zhao,  B. R. Brooks,  G. K. L. Chan,  D. M. Chipman,  C. J. Cramer,  
 W. A. Goddard III,  M. S. Gordon,  W. J. Hehre,  A. Klamt,  
 H. F. Schaefer III,  M. W. Schmidt,  C. D. Sherrill,  D. G. Truhlar,  
 A. Warshel,  X. Xu,  A. Aspuru-Guzik,  R. Baer,  A. T. Bell,  N. A. Besley,  
 J.-D. Chai,  A. Dreuw,  B. D. Dunietz,  T. R. Furlani,  S. R. Gwaltney,  
 C.-P. Hsu,  Y. Jung,  J. Kong,  D. S. Lambrecht,  W. Liang,  C. Ochsenfeld,  
 V. A. Rassolov,  L. V. Slipchenko,  J. E. Subotnik,  T. Van Voorhis,  
 J. M. Herbert,  A. I. Krylov,  P. M. W. Gill,  M. Head-Gordon

 Contributors to earlier versions of Q-Chem not listed above: 
 R. D. Adamson,  J. Baker,  E. F. C. Byrd,  A. K. Chakraborty,  C.-L. Cheng,  
 H. Dachsel,  R. J. Doerksen,  G. Hawkins,  A. Heyden,  S. Hirata,  
 G. Kedziora,  F. J. Keil,  C. Kelley,  P. P. Korambath,  W. Kurlancheek,  
 A. M. Lee,  M. S. Lee,  D. Liotard,  I. Lotan,  P. E. Maslen,  N. Nair,  
 D. Neuhauser,  R. Olson,  B. Peters,  J. Ritchie,  N. E. Schultz,  
 N. Shenvi,  A. C. Simmonett,  K. S. Thanthiriwatte,  Q. Wu,  W. Zhang

 Please cite Q-Chem as follows:
 Y. Shao et al., Mol. Phys. 113, 184-215 (2015)
 DOI: 10.1080/00268976.2014.952696

 Q-Chem 4.4.2 for Intel X86 Linux

 Parts of Q-Chem use Armadillo 5.200.1 (Boston Tea Smuggler).
 http://arma.sourceforge.net/

 Q-Chem begins on Fri Oct 12 00:16:02 2018  

Host: 
0

     Scratch files written to /tmpu/cab_g/afmv_a/scratch_qchem/qchem61546//
 Dec716 11556_ 22328  22283 4050   
Processing $rem in /tmpu/appuserlic/qchem4.4/serial-multicore/config/preferences.
 MEM_TOTAL  2000 
FILE_GEOM_ORG=        593

Checking the input file for inconsistencies... 	...done.

--------------------------------------------------------------
User input:
--------------------------------------------------------------
$comment
SP
$end

$rem
MEM_STATIC 5000
MEM_TOTAL 20000
JOBTYPE SP
EXCHANGE B3LYP
BASIS 6-31g(d,p)
$end

$molecule
0 1
C         -22.262000      0.946000    -12.275000
C         -21.517000      0.034000    -13.049000
N         -21.697000      1.819000    -11.460000
C         -20.148000      0.023000    -12.914000
C         -20.376000      1.886000    -11.440000
C         -19.509000      0.973000    -12.098000
C         -18.012000      0.987000    -11.802000
C         -17.190000      0.147000    -12.644000
C         -17.342000      1.502000    -10.647000
N         -15.908000     -0.194000    -12.439000
N         -17.893000      2.259000     -9.718000
C         -15.969000      1.193000    -10.441000
C         -15.244000      0.313000    -11.326000
S         -16.727000      2.474000     -8.594000
N         -15.467000      1.765000     -9.376000
C         -13.829000     -0.183000    -11.114000
S         -12.869000     -0.019000     -9.639000
C         -13.094000     -0.912000    -12.011000
C         -11.482000     -0.883000    -10.277000
S         -13.449000     -1.382000    -13.595000
C         -11.804000     -1.211000    -11.556000
C         -10.218000     -0.906000     -9.638000
C         -11.775000     -1.963000    -13.736000
C         -11.004000     -1.865000    -12.575000
N          -9.487000     -1.978000     -9.924000
S          -9.768000     -0.008000     -8.239000
C          -8.322000     -1.981000     -9.208000
C          -8.346000     -1.100000     -8.165000
C         -23.804000      1.078000    -12.432000
H         -22.085000     -0.657000    -13.665000
H         -19.621000     -0.849000    -13.288000
H         -19.931000      2.557000    -10.707000
H         -17.633000     -0.330000    -13.517000
H         -11.478000     -2.396000    -14.682000
H          -9.994000     -2.232000    -12.433000
H          -7.510000     -2.639000     -9.487000
H          -7.556000     -0.951000     -7.440000
H         -24.170000      0.104000    -12.780000
C         -24.192000      2.209000    -13.370000
H         -24.224000      1.175000    -11.423000
H         -23.790000      1.949000    -14.357000
H         -23.725000      3.151000    -13.056000
C         -25.686000      2.467000    -13.623000
H         -25.916000      3.296000    -14.304000
C         -26.481000      2.634000    -12.352000
H         -26.113000      1.578000    -14.104000
H         -26.025000      3.522000    -11.897000
H         -26.334000      1.765000    -11.698000
C         -27.953000      2.883000    -12.503000
H         -28.303000      2.057000    -13.135000
C         -28.397000      4.253000    -13.075000
H         -28.419000      2.753000    -11.519000
H         -27.900000      5.037000    -12.492000
H         -29.492000      4.318000    -13.081000
H         -28.000000      4.421000    -14.084000
C         -14.388000     -3.633000    -10.427000
C         -14.822000     -2.951000     -9.238000
N         -15.320000     -3.662000    -11.421000
C         -16.111000     -2.391000     -9.155000
C         -16.508000     -3.089000    -11.401000
C         -17.003000     -2.467000    -10.195000
C         -18.456000     -2.227000     -9.892000
C         -18.835000     -1.136000     -9.103000
C         -19.489000     -3.113000    -10.251000
N         -20.090000     -0.817000     -8.747000
N         -19.403000     -4.157000    -11.069000
C         -20.808000     -2.850000     -9.838000
C         -21.069000     -1.623000     -9.134000
S         -20.851000     -4.937000    -10.977000
N         -21.676000     -3.728000    -10.313000
C         -22.488000     -1.216000     -8.838000
S         -23.954000     -2.146000     -8.946000
C         -22.827000      0.045000     -8.380000
C         -25.018000     -0.790000     -8.588000
S         -21.764000      1.432000     -7.988000
C         -24.184000      0.258000     -8.350000
C         -26.485000     -0.754000     -8.506000
C         -23.329000      2.189000     -7.567000
C         -24.519000      1.534000     -7.902000
N         -26.978000     -1.976000     -8.586000
S         -27.616000      0.575000     -8.715000
C         -28.321000     -1.910000     -8.795000
C         -28.874000     -0.596000     -8.816000
C         -13.046000     -4.318000    -10.526000
H         -14.245000     -2.901000     -8.319000
H         -16.265000     -1.877000     -8.211000
H         -17.148000     -3.183000    -12.277000
H         -18.084000     -0.382000     -8.869000
H         -23.308000      3.110000     -6.999000
H         -25.507000      1.932000     -7.698000
H         -28.832000     -2.851000     -8.952000
H         -29.899000     -0.389000     -9.096000
H         -12.273000     -3.599000    -10.227000
C         -12.750000     -4.957000    -11.927000
H         -13.071000     -5.193000     -9.865000
H         -12.854000     -4.181000    -12.695000
H         -13.424000     -5.749000    -12.277000
C         -11.384000     -5.651000    -11.863000
H         -10.625000     -4.875000    -12.020000
C         -11.298000     -6.818000    -12.861000
H         -11.282000     -5.976000    -10.820000
H         -12.081000     -7.535000    -12.586000
H         -10.376000     -7.399000    -12.737000
C         -11.484000     -6.450000    -14.353000
H         -11.449000     -7.269000    -15.082000
C         -10.312000     -5.496000    -14.829000
H         -12.482000     -6.002000    -14.430000
H         -10.454000     -4.622000    -14.182000
H         -10.481000     -5.325000    -15.900000
H          -9.343000     -5.996000    -14.706000
$end

--------------------------------------------------------------
 ----------------------------------------------------------------
             Standard Nuclear Orientation (Angstroms)
    I     Atom           X                Y                Z
 ----------------------------------------------------------------
    1      C      -4.0576874515     0.3883134332    -2.1471683384
    2      C      -3.0856413313    -0.5106573884    -2.6296854905
    3      N      -3.7471977266     1.5543229646    -1.6090262536
    4      C      -1.7578240324    -0.1785119475    -2.4915275128
    5      C      -2.4751136517     1.9172282976    -1.6033848287
    6      C      -1.3916656557     1.0763172831    -1.9738319987
    7      C       0.0448646202     1.5045108043    -1.6877339828
    8      C       1.0811692340     0.6714513646    -2.2554775143
    9      C       0.5112789030     2.4521655133    -0.7220434168
   10      N       2.3897925181     0.6946394449    -1.9574885661
   11      N      -0.2489844284     3.2918746654    -0.0463369666
   12      C       1.9017256682     2.5258682898    -0.4317475437
   13      C       2.8548622537     1.6219668736    -1.0298636522
   14      S       0.7668787536     4.0610536803     0.9761808271
   15      N       2.1982383554     3.4647100180     0.4308470516
   16      C       4.3256747321     1.5317432908    -0.6809290476
   17      S       5.1281909108     2.3033915310     0.6918956959
   18      C       5.2572011367     0.7680487279    -1.3330825357
   19      C       6.7067563759     1.6298237872     0.3289265966
   20      S       5.1168635971    -0.1847330619    -2.7217845325
   21      C       6.5480089787     0.9007920881    -0.8070404124
   22      C       7.9011724097     2.0653680438     0.9536005426
   23      C       6.8817834502    -0.3933779728    -2.6865253034
   24      C       7.5350581110     0.1883465533    -1.5971241867
   25      N       8.8611084136     1.1472616972     0.9843349631
   26      S       8.0552991545     3.3890723407     2.0445436579
   27      C       9.9496276525     1.6005183340     1.6768479865
   28      C       9.6690651249     2.7050441571     2.4291068345
   29      C      -5.5784441645     0.1247384793    -2.3412411696
   30      H      -3.4510840755    -1.4525637330    -3.0282140826
   31      H      -1.0334694823    -0.9791374570    -2.6024251207
   32      H      -2.2331108033     2.8450280719    -1.0874611909
   33      H       0.8091349004    -0.1127605557    -2.9604001947
   34      H       7.3265842535    -0.9913108546    -3.4708992668
   35      H       8.5882785729     0.1092647470    -1.3533502616
   36      H      10.8998856329     1.0897052007     1.5979257873
   37      H      10.3590701173     3.2192923966     3.0858928412
   38      H      -5.7045804244    -0.9634379314    -2.4020502415
   39      C      -6.1349834955     0.8393001514    -3.5615749722
   40      H      -6.0757865792     0.3981510279    -1.4022065053
   41      H      -5.6219403031     0.4154087352    -4.4336275795
   42      H      -5.9013123436     1.9107626024    -3.5239583677
   43      C      -7.6293836975     0.6780140966    -3.8830774525
   44      H      -7.9847271093     1.2157003945    -4.7710676015
   45      C      -8.5246460967     1.0050065633    -2.7139170002
   46      H      -7.8242159430    -0.3806849119    -4.0956987251
   47      H      -8.2995986369     2.0621188865    -2.5258420766
   48      H      -8.2398905909     0.4039846704    -1.8408918080
   49      C     -10.0024853701     0.8681489365    -2.9349307371
   50      H     -10.1256082876    -0.1557932438    -3.3098749445
   51      C     -10.6889152255     1.8940562517    -3.8717061820
   52      H     -10.4946571805     0.9120882484    -1.9560802654
   53      H     -10.4102876452     2.8980843441    -3.5313412879
   54      H     -11.7697438629     1.7088997108    -3.9002107768
   55      H     -10.2704292065     1.8634229960    -4.8855331176
   56      C       4.4697035809    -1.6323265248     0.9484474873
   57      C       3.8221264461    -0.7654574774     1.8952224918
   58      N       3.6336593959    -2.1396798869    -0.0008278609
   59      C       2.4408370311    -0.5064424402     1.8117913072
   60      C       2.3522549403    -1.8632242176    -0.1479600601
   61      C       1.6568606925    -1.0614400481     0.8317919420
   62      C       0.1691879744    -1.0781206066     1.0489776752
   63      C      -0.4852094456     0.0740795164     1.4969083543
   64      C      -0.6251352930    -2.2358089810     0.9501132494
   65      N      -1.8002336982     0.1900007068     1.7434757746
   66      N      -0.2644247356    -3.4173589958     0.4599260847
   67      C      -1.9944199224    -2.1709433946     1.2668956025
   68      C      -2.5570892374    -0.8884674487     1.5954145370
   69      S      -1.5159278891    -4.4449440398     0.7622120984
   70      N      -2.6218735334    -3.3161062159     1.0551479258
   71      C      -4.0467182423    -0.7432483683     1.7589469397
   72      S      -5.2704870768    -1.9699596890     1.9115548537
   73      C      -4.6762590680     0.4862482833     1.8415443512
   74      C      -6.6203088299    -0.8407460502     1.8684991599
   75      S      -3.9615894481     2.1283620022     1.8309675506
   76      C      -6.0464000239     0.3909500709     1.8048018478
   77      C      -8.0634476507    -1.1119303435     1.9310964687
   78      C      -5.6764097546     2.6026740734     2.0151804049
   79      C      -6.6745694756     1.6326327799     1.8735927631
   80      N      -8.2784344236    -2.3870418341     2.1968113044
   81      S      -9.4350242267    -0.1782346254     1.3513784319
   82      C      -9.5876865813    -2.6822024719     1.9722562210
   83      C     -10.4051800349    -1.5820774506     1.5794771597
   84      C       5.9303441904    -2.0008378206     1.0519773611
   85      H       4.3126515764    -0.3382111733     2.7651855325
   86      H       2.1183129648     0.1986260497     2.5719917091
   87      H       1.8068220703    -2.3339116428    -0.9645188958
   88      H       0.0706716775     1.0111195763     1.5119117932
   89      H      -5.8899546139     3.6245515202     2.3006117922
   90      H      -7.7360167109     1.8403987808     1.9531355531
   91      H      -9.8749292554    -3.7195422663     2.0848119720
   92      H     -11.4297460825    -1.6938249669     1.2483413767
   93      H       6.5107904203    -1.0738275397     1.1392992559
   94      C       6.4483792214    -2.9163409109    -0.1108776592
   95      H       6.0482483415    -2.6439328258     1.9327147939
   96      H       6.2329464000    -2.4239537325    -1.0668899844
   97      H       5.9833834886    -3.9035240187    -0.2261533303
   98      C       7.9234630732    -3.2432687258     0.1516748761
   99      H       8.5085275622    -2.3909630571    -0.2146318135
  100      C       8.3223703673    -4.5891916051    -0.4765397159
  101      H       8.0225619739    -3.2388588530     1.2443953165
  102      H       7.6934782378    -5.3593350020    -0.0137472812
  103      H       9.3365852958    -4.8930387985    -0.1900681432
  104      C       8.1621698303    -4.6951046025    -2.0125091898
  105      H       8.4193146301    -5.6531649476    -2.4809362676
  106      C       9.1331805767    -3.6715058369    -2.7333834489
  107      H       7.0990624154    -4.5197642197    -2.2167036429
  108      H       8.7654883815    -2.7083275805    -2.3595665204
  109      H       9.0034352600    -3.8426037997    -3.8098288213
  110      H      10.1760265369    -3.8893634700    -2.4705139851
 ----------------------------------------------------------------
 Molecular Point Group                 C1    NOp =  1
 Largest Abelian Subgroup              C1    NOp =  1
 Nuclear Repulsion Energy = 12626.9878338595 hartrees
 There are      270 alpha and      270 beta electrons
 Requested basis set is 6-31G(d,p)
 There are 406 shells and 1262 basis functions

 Total QAlloc Memory Limit  20000 MB
 Mega-Array Size      4888 MB
 MEM_STATIC part      5000 MB
 A cutoff of  1.0D-08 yielded  17051 shell pairs
 There are    177909 function pairs
 
 -------------------------------------------------------
 OpenMP Integral Computing Module                       
 Release: version 1.0, May 2013, Q-Chem Inc. Pittsburgh 
 -------------------------------------------------------
 Integral Job Info:
 Integral job number is                      11
 Integral operator is                         1
 short-range coefficients                     0
 long-range coefficients              100000000
 Omega coefficients                           0
 if combine SR and LR in K                    0
 Integral screening is                        0
 Integral computing path is                   2
 max size of driver memory is            800000
 size of driver memory is                593474
 size of scratch memory is             15166112
 max col of scratch BK array               1296
 max len of scratch array in speh3          155
 max len of scratch index in speh4           18
 max int batch size is                      520
 min int batch size is                       52
 fixed nKL is                                52
 max L of basis functions is                  2
 order of int derivative is                   0
 number of shells is                        406
 number of basis is                        1262
 number of cartesian basis is              1262
 number of contracted shell pairs         17051
 number of primitive shell pairs          51459
 maxK2 (contraction) of shell pair           36
 max number of K2 of shell pair               1
 max number of CS2 of shell pair           1900
 max number of PS2 of shell pair          10236
 mem total for path MDJ                  401432
 -------------------------------------------------------
 Smallest overlap matrix eigenvalue = 4.02E-04

 Scale SEOQF with 1.000000e-02/1.000000e-02/1.000000e-01

 Standard Electronic Orientation quadrupole field applied
 Nucleus-field energy     =    -0.0000001110 hartrees
 Guess from superposition of atomic densities
 Warning:  Energy on first SCF cycle will be non-variational
 A restricted hybrid HF-DFT SCF calculation will be
 performed using Pulay DIIS extrapolation
 Exchange:     0.2000 Hartree-Fock + 0.0800 Slater + 0.7200 B88
 Correlation:  0.1900 VWN1RPA + 0.8100 LYP
 Using SG-1 standard quadrature grid
 SCF converges when DIIS error is below 1.0E-05
 using 16 threads for integral computing 
 -------------------------------------------------------
 OpenMP BLAS3 based DFT computing Module                
 Release: version 1.0, May 2013, Q-Chem Inc. Pittsburgh 
 -------------------------------------------------------
 ---------------------------------------
  Cycle       Energy         DIIS Error
 ---------------------------------------
    1   -5680.3690484988      2.16E-02
    2   -5662.4318137522      2.21E-03
    3   -5660.6358073713      3.57E-03
    4   -5663.2673445900      9.86E-04
    5   -5663.4542053621      4.07E-04
    6   -5663.4739390784      2.75E-04
    7   -5663.4891498075      8.63E-05
    8   -5663.4906233325      3.10E-05
    9   -5663.4907865422      1.31E-05
   10   -5663.4908236845      4.59E-06 Convergence criterion met
 ---------------------------------------
 SCF time:  CPU 1382.66 s  wall 112.24 s
 SCF   energy in the final basis set = -5663.4908236845
 Total energy in the final basis set = -5663.4908236845
 
 --------------------------------------------------------------
 
                    Orbital Energies (a.u.)
 --------------------------------------------------------------
 
 Alpha MOs
 -- Occupied --
-88.988 -88.983 -88.936 -88.935 -88.920 -88.914 -88.908 -88.906
-14.388 -14.383 -14.378 -14.370 -14.355 -14.349 -14.344 -14.339
-14.321 -14.316 -10.273 -10.271 -10.268 -10.263 -10.260 -10.260
-10.249 -10.247 -10.245 -10.241 -10.237 -10.236 -10.235 -10.234
-10.232 -10.231 -10.231 -10.230 -10.230 -10.229 -10.225 -10.224
-10.223 -10.221 -10.219 -10.218 -10.218 -10.217 -10.215 -10.209
-10.208 -10.206 -10.200 -10.198 -10.195 -10.193 -10.191 -10.190
-10.183 -10.181 -10.177 -10.173 -10.173 -10.173 -10.171 -10.170
-10.169 -10.167 -10.165 -10.164  -8.044  -8.039  -7.996  -7.996
 -7.980  -7.972  -7.968  -7.964  -6.009  -6.005  -6.003  -6.001
 -5.999  -5.997  -5.960  -5.960  -5.957  -5.956  -5.953  -5.953
 -5.944  -5.940  -5.937  -5.937  -5.933  -5.933  -5.929  -5.929
 -5.929  -5.926  -5.925  -5.920  -1.049  -1.042  -0.976  -0.970
 -0.962  -0.948  -0.944  -0.926  -0.919  -0.916  -0.911  -0.901
 -0.847  -0.834  -0.829  -0.828  -0.812  -0.808  -0.808  -0.806
 -0.804  -0.801  -0.798  -0.790  -0.782  -0.774  -0.767  -0.760
 -0.752  -0.740  -0.740  -0.734  -0.720  -0.710  -0.708  -0.702
 -0.694  -0.688  -0.679  -0.672  -0.657  -0.649  -0.644  -0.639
 -0.638  -0.630  -0.621  -0.616  -0.616  -0.606  -0.599  -0.597
 -0.592  -0.585  -0.584  -0.582  -0.576  -0.569  -0.556  -0.550
 -0.544  -0.540  -0.539  -0.539  -0.526  -0.521  -0.517  -0.514
 -0.506  -0.504  -0.501  -0.494  -0.485  -0.480  -0.479  -0.476
 -0.471  -0.470  -0.467  -0.465  -0.459  -0.453  -0.448  -0.447
 -0.444  -0.443  -0.440  -0.440  -0.435  -0.434  -0.428  -0.428
 -0.427  -0.423  -0.418  -0.417  -0.416  -0.415  -0.412  -0.411
 -0.408  -0.405  -0.402  -0.400  -0.399  -0.398  -0.397  -0.395
 -0.392  -0.390  -0.389  -0.389  -0.387  -0.387  -0.386  -0.383
 -0.379  -0.376  -0.375  -0.367  -0.364  -0.359  -0.358  -0.355
 -0.353  -0.350  -0.348  -0.347  -0.345  -0.342  -0.341  -0.337
 -0.335  -0.332  -0.330  -0.325  -0.320  -0.318  -0.317  -0.314
 -0.310  -0.308  -0.303  -0.303  -0.301  -0.298  -0.297  -0.297
 -0.297  -0.292  -0.291  -0.290  -0.288  -0.286  -0.281  -0.281
 -0.275  -0.275  -0.269  -0.257  -0.254  -0.248  -0.244  -0.240
 -0.234  -0.230  -0.224  -0.222  -0.196  -0.188
 -- Virtual --
 -0.117  -0.109  -0.073  -0.065  -0.039  -0.031  -0.023  -0.019
 -0.017  -0.013  -0.012  -0.010  -0.008  -0.006  -0.001   0.007
  0.009   0.011   0.017   0.028   0.035   0.036   0.039   0.042
  0.044   0.056   0.058   0.061   0.073   0.078   0.084   0.086
  0.091   0.096   0.097   0.105   0.106   0.107   0.110   0.112
  0.114   0.115   0.119   0.122   0.123   0.125   0.128   0.133
  0.133   0.134   0.136   0.137   0.140   0.148   0.148   0.150
  0.154   0.158   0.160   0.162   0.164   0.164   0.165   0.167
  0.175   0.177   0.178   0.181   0.182   0.183   0.186   0.189
  0.190   0.191   0.193   0.196   0.199   0.201   0.203   0.206
  0.207   0.208   0.212   0.213   0.214   0.215   0.219   0.222
  0.224   0.225   0.227   0.232   0.233   0.237   0.240   0.244
  0.246   0.247   0.248   0.252   0.255   0.256   0.259   0.260
  0.264   0.268   0.270   0.275   0.277   0.280   0.282   0.287
  0.288   0.290   0.297   0.298   0.305   0.306   0.309   0.310
  0.313   0.317   0.320   0.321   0.322   0.325   0.326   0.329
  0.332   0.338   0.340   0.343   0.346   0.347   0.350   0.357
  0.359   0.361   0.363   0.365   0.369   0.373   0.375   0.381
  0.383   0.388   0.394   0.394   0.396   0.400   0.401   0.407
  0.410   0.413   0.415   0.419   0.426   0.427   0.430   0.434
  0.440   0.445   0.453   0.454   0.462   0.466   0.471   0.472
  0.476   0.476   0.484   0.487   0.489   0.493   0.495   0.499
  0.503   0.503   0.504   0.508   0.513   0.514   0.516   0.521
  0.522   0.524   0.526   0.527   0.529   0.530   0.533   0.535
  0.536   0.538   0.539   0.542   0.544   0.545   0.548   0.549
  0.553   0.554   0.559   0.562   0.563   0.564   0.566   0.568
  0.572   0.574   0.577   0.579   0.581   0.583   0.588   0.589
  0.592   0.594   0.596   0.601   0.604   0.605   0.608   0.609
  0.611   0.613   0.615   0.617   0.620   0.621   0.622   0.623
  0.626   0.629   0.632   0.633   0.635   0.636   0.638   0.639
  0.645   0.646   0.651   0.653   0.653   0.657   0.660   0.661
  0.669   0.672   0.674   0.677   0.678   0.680   0.683   0.687
  0.690   0.693   0.696   0.696   0.698   0.704   0.708   0.710
  0.713   0.714   0.718   0.722   0.723   0.730   0.730   0.734
  0.737   0.738   0.739   0.741   0.746   0.750   0.751   0.753
  0.754   0.760   0.762   0.764   0.768   0.771   0.772   0.775
  0.780   0.782   0.785   0.791   0.791   0.793   0.796   0.800
  0.802   0.807   0.809   0.814   0.815   0.816   0.819   0.820
  0.823   0.823   0.824   0.826   0.829   0.831   0.831   0.833
  0.836   0.840   0.841   0.844   0.847   0.849   0.850   0.851
  0.853   0.853   0.856   0.859   0.860   0.861   0.862   0.864
  0.865   0.872   0.874   0.875   0.876   0.878   0.880   0.883
  0.883   0.888   0.890   0.893   0.894   0.898   0.902   0.902
  0.905   0.908   0.911   0.912   0.915   0.921   0.924   0.926
  0.930   0.933   0.935   0.939   0.942   0.944   0.945   0.949
  0.951   0.952   0.953   0.955   0.958   0.960   0.963   0.964
  0.968   0.970   0.973   0.974   0.977   0.978   0.981   0.984
  0.985   0.987   0.992   0.994   0.995   0.997   1.002   1.005
  1.006   1.011   1.014   1.017   1.019   1.019   1.023   1.026
  1.030   1.033   1.038   1.038   1.039   1.043   1.046   1.048
  1.050   1.054   1.059   1.065   1.067   1.070   1.074   1.078
  1.081   1.083   1.089   1.091   1.091   1.096   1.100   1.102
  1.106   1.113   1.117   1.122   1.126   1.127   1.131   1.134
  1.138   1.143   1.144   1.146   1.152   1.159   1.161   1.169
  1.170   1.175   1.176   1.187   1.188   1.192   1.196   1.199
  1.201   1.207   1.218   1.220   1.228   1.234   1.237   1.239
  1.247   1.253   1.264   1.265   1.269   1.274   1.278   1.281
  1.281   1.288   1.297   1.300   1.302   1.304   1.309   1.311
  1.316   1.319   1.325   1.329   1.337   1.339   1.344   1.346
  1.351   1.353   1.357   1.361   1.364   1.372   1.378   1.381
  1.384   1.385   1.387   1.395   1.399   1.401   1.410   1.412
  1.419   1.424   1.426   1.428   1.438   1.442   1.446   1.446
  1.452   1.457   1.460   1.463   1.468   1.476   1.479   1.480
  1.482   1.488   1.493   1.500   1.514   1.515   1.522   1.530
  1.535   1.538   1.542   1.551   1.553   1.555   1.560   1.570
  1.575   1.580   1.589   1.594   1.596   1.598   1.610   1.618
  1.623   1.630   1.631   1.640   1.642   1.644   1.653   1.655
  1.661   1.671   1.675   1.678   1.679   1.682   1.688   1.690
  1.693   1.697   1.698   1.703   1.707   1.711   1.718   1.720
  1.727   1.733   1.740   1.742   1.747   1.749   1.750   1.755
  1.759   1.762   1.766   1.773   1.778   1.787   1.792   1.799
  1.802   1.806   1.807   1.812   1.812   1.824   1.828   1.833
  1.835   1.840   1.842   1.848   1.849   1.850   1.854   1.857
  1.860   1.865   1.867   1.867   1.872   1.877   1.879   1.881
  1.883   1.886   1.889   1.892   1.897   1.898   1.902   1.908
  1.918   1.922   1.927   1.927   1.931   1.934   1.936   1.945
  1.947   1.949   1.953   1.956   1.961   1.962   1.963   1.967
  1.976   1.980   1.982   1.988   1.991   1.997   2.006   2.007
  2.009   2.010   2.013   2.018   2.026   2.029   2.033   2.036
  2.043   2.047   2.049   2.052   2.059   2.062   2.065   2.067
  2.070   2.075   2.079   2.090   2.097   2.100   2.104   2.110
  2.113   2.115   2.122   2.128   2.131   2.132   2.133   2.136
  2.140   2.147   2.153   2.155   2.158   2.159   2.164   2.166
  2.170   2.170   2.173   2.179   2.180   2.193   2.195   2.201
  2.206   2.207   2.211   2.215   2.220   2.223   2.224   2.236
  2.242   2.242   2.247   2.252   2.252   2.259   2.260   2.262
  2.267   2.270   2.271   2.273   2.280   2.283   2.286   2.290
  2.293   2.295   2.296   2.300   2.307   2.314   2.317   2.319
  2.321   2.326   2.329   2.331   2.335   2.338   2.342   2.344
  2.345   2.350   2.352   2.355   2.358   2.364   2.368   2.374
  2.380   2.383   2.386   2.393   2.395   2.397   2.398   2.401
  2.403   2.404   2.408   2.415   2.418   2.426   2.428   2.429
  2.435   2.438   2.440   2.445   2.449   2.451   2.454   2.456
  2.462   2.466   2.468   2.472   2.474   2.479   2.485   2.490
  2.494   2.495   2.497   2.501   2.508   2.511   2.512   2.515
  2.520   2.524   2.529   2.534   2.539   2.545   2.546   2.549
  2.551   2.555   2.562   2.564   2.567   2.570   2.574   2.577
  2.581   2.586   2.598   2.601   2.605   2.605   2.607   2.611
  2.614   2.618   2.626   2.631   2.634   2.635   2.640   2.644
  2.649   2.652   2.653   2.660   2.663   2.670   2.674   2.682
  2.684   2.687   2.690   2.691   2.701   2.703   2.705   2.710
  2.712   2.717   2.719   2.727   2.735   2.739   2.742   2.753
  2.756   2.769   2.771   2.775   2.779   2.787   2.793   2.797
  2.803   2.809   2.813   2.819   2.823   2.828   2.834   2.838
  2.849   2.851   2.870   2.871   2.875   2.880   2.881   2.885
  2.892   2.894   2.897   2.901   2.912   2.917   2.924   2.926
  2.930   2.933   2.937   2.941   2.948   2.961   2.962   2.968
  2.970   2.973   2.976   2.980   2.993   3.003   3.025   3.033
  3.044   3.054   3.065   3.074   3.076   3.091   3.093   3.115
  3.182   3.195   3.203   3.213   3.221   3.226   3.228   3.244
  3.247   3.253   3.255   3.267   3.272   3.284   3.288   3.293
  3.298   3.301   3.320   3.327   3.328   3.336   3.343   3.348
  3.349   3.361   3.368   3.387   3.399   3.427   3.433   3.436
  3.438   3.454   3.457   3.469   3.480   3.493   3.516   3.552
  3.556   3.556   3.566   3.573   3.576   3.589   3.591   3.626
  3.633   3.640   3.734   3.748   3.848   3.886   3.906   3.923
  3.950   3.955   3.958   3.976   3.993   4.000   4.008   4.011
  4.025   4.028   4.071   4.080   4.091   4.108   4.118   4.133
  4.148   4.155   4.166   4.182   4.184   4.196   4.205   4.220
  4.222   4.234   4.259   4.265   4.273   4.284   4.288   4.297
  4.322   4.325   4.341   4.355   4.390   4.396   4.407   4.417
  4.436   4.454   4.466   4.482   4.488   4.492   4.495   4.501
  4.522   4.544   4.557   4.574   4.623   4.628   4.665   4.673
  4.689   4.706   4.717   4.729   4.773   4.780   4.806   4.845
 --------------------------------------------------------------
 
          Ground-State Mulliken Net Atomic Charges

     Atom                 Charge (a.u.)
  ----------------------------------------
      1 C                     0.252427
      2 C                    -0.118268
      3 N                    -0.457150
      4 C                    -0.086448
      5 C                     0.060552
      6 C                     0.043271
      7 C                     0.043135
      8 C                     0.051668
      9 C                     0.240487
     10 N                    -0.517211
     11 N                    -0.562573
     12 C                     0.225728
     13 C                     0.302761
     14 S                     0.590697
     15 N                    -0.566731
     16 C                    -0.215436
     17 S                     0.290758
     18 C                    -0.073250
     19 C                    -0.224658
     20 S                     0.301451
     21 C                     0.123414
     22 C                     0.034487
     23 C                    -0.324858
     24 C                    -0.041532
     25 N                    -0.418819
     26 S                     0.278085
     27 C                     0.137959
     28 C                    -0.314966
     29 C                    -0.220706
     30 H                     0.093223
     31 H                     0.102537
     32 H                     0.130208
     33 H                     0.111028
     34 H                     0.130670
     35 H                     0.127147
     36 H                     0.121834
     37 H                     0.130981
     38 H                     0.089606
     39 C                    -0.168159
     40 H                     0.124765
     41 H                     0.088194
     42 H                     0.110881
     43 C                    -0.178024
     44 H                     0.090618
     45 C                    -0.169690
     46 H                     0.080815
     47 H                     0.084222
     48 H                     0.099557
     49 C                    -0.176176
     50 H                     0.085733
     51 C                    -0.318553
     52 H                     0.087423
     53 H                     0.103675
     54 H                     0.103704
     55 H                     0.102911
     56 C                     0.288062
     57 C                    -0.128145
     58 N                    -0.495107
     59 C                    -0.065544
     60 C                     0.131837
     61 C                    -0.017176
     62 C                     0.040114
     63 C                     0.053739
     64 C                     0.244739
     65 N                    -0.533989
     66 N                    -0.567628
     67 C                     0.215571
     68 C                     0.328757
     69 S                     0.590796
     70 N                    -0.550713
     71 C                    -0.241895
     72 S                     0.335133
     73 C                    -0.099683
     74 C                    -0.219449
     75 S                     0.305650
     76 C                     0.144593
     77 C                     0.041095
     78 C                    -0.302077
     79 C                    -0.087149
     80 N                    -0.405181
     81 S                     0.299789
     82 C                     0.108891
     83 C                    -0.323669
     84 C                    -0.254487
     85 H                     0.081768
     86 H                     0.095065
     87 H                     0.108340
     88 H                     0.097154
     89 H                     0.110648
     90 H                     0.109330
     91 H                     0.113966
     92 H                     0.138282
     93 H                     0.138088
     94 C                    -0.172452
     95 H                     0.118073
     96 H                     0.119612
     97 H                     0.101924
     98 C                    -0.181186
     99 H                     0.099349
    100 C                    -0.185956
    101 H                     0.085269
    102 H                     0.087313
    103 H                     0.080732
    104 C                    -0.183612
    105 H                     0.088120
    106 C                    -0.323326
    107 H                     0.100946
    108 H                     0.113378
    109 H                     0.095096
    110 H                     0.103801
  ----------------------------------------
  Sum of atomic charges =     0.000000

 -----------------------------------------------------------------
                    Cartesian Multipole Moments
 -----------------------------------------------------------------
    Charge (ESU x 10^10)
                 0.0000
    Dipole Moment (Debye)
         X       1.0204      Y       1.1460      Z       0.6332
       Tot       1.6599
    Quadrupole Moments (Debye-Ang)
        XX    -379.0661     XY      15.1532     YY    -437.8820
        XZ      19.9524     YZ      13.6766     ZZ    -442.5263
    Octopole Moments (Debye-Ang^2)
       XXX      -1.6021    XXY      71.1174    XYY     -20.3524
       YYY       5.6491    XXZ     131.2682    XYZ      28.6874
       YYZ      42.2701    XZZ      89.8583    YZZ       4.6586
       ZZZ     -14.0579
    Hexadecapole Moments (Debye-Ang^3)
      XXXX  -81629.3146   XXXY    2082.8898   XXYY  -17444.0982
      XYYY     255.4460   YYYY  -13189.1991   XXXZ    1174.2361
      XXYZ     755.9148   XYYZ      74.3179   YYYZ     146.9137
      XXZZ  -17047.6060   XYZZ      20.8940   YYZZ   -3757.9569
      XZZZ     289.4926   YZZZ     176.4084   ZZZZ   -9664.7398
 -----------------------------------------------------------------
Archival summary:
1\1\mn246\SP\ProcedureUnspecified\6-31G**\8105042\afmv_a\FriOct1200:17:572018FriOct1200:17:572018\0\\#,ProcedureUnspecified,6-31G**,\\0,1\S\C,1,1.75423\C,2,1.35908,1,105.891\C,3,1.40019,2,118.2,1,4.66539,0\C,4,1.36977,3,113.279,2,-6.51158,0\C,2,1.41653,1,123.33,3,-166.831,0\N,6,1.32866,2,114.012,1,-154.191,0\C,7,1.36744,6,110.965,2,175.953,0\H,8,1.08173,7,120.385,6,165.061,0\C,8,1.3655,7,112.554,6,-15.2868,0\H,10,1.08256,8,125.981,7,-177.737,0\C,3,1.45123,2,129.713,1,-176.211,0\H,12,1.08395,3,125.047,2,-2.37697,0\C,12,1.39713,3,108.113,2,179.161,0\H,14,1.08195,12,127.097,3,-179.839,0\C,5,1.51433,4,125.735,3,-178.843,0\N,16,1.39166,5,116.006,4,-10.3459,0\C,17,1.34232,16,119.031,5,-176.34,0\H,18,1.08899,17,113.558,16,177.723,0\C,16,1.44335,5,125.677,4,173.333,0\N,20,1.30897,16,124.936,5,-5.27211,0\C,20,1.42234,16,121.906,5,173.519,0\N,22,1.31897,20,115.21,16,-176.361,0\C,22,1.43114,20,119.382,16,3.41332,0\C,24,1.52605,22,128.25,20,-167.977,0\C,25,1.40594,24,124.376,22,152.473,0\H,26,1.08535,25,121.479,24,-8.05049,0\C,26,1.37568,25,120.255,24,-175.443,0\H,28,1.08608,26,124.821,25,-179.415,0\C,28,1.4092,26,118.514,25,4.8296,0\N,30,1.3212,28,122.708,26,-2.31031,0\C,31,1.32285,30,118.024,28,-4.26138,0\H,32,1.08883,31,116.712,30,175.441,0\C,30,1.55558,28,121.57,26,-176.32,0\H,34,1.09715,30,106.7,28,-27.6563,0\H,34,1.09722,30,107.106,28,-138.584,0\C,34,1.51972,30,112.242,28,95.7811,0\H,37,1.09698,34,106.582,30,-63.1553,0\H,37,1.09729,34,110.708,30,53.7654,0\C,37,1.53708,34,118.338,30,179.816,0\H,40,1.09722,37,115.64,34,-179.775,0\H,40,1.09727,37,108.325,34,62.7727,0\C,40,1.50843,37,113.089,34,-52.823,0\H,43,1.09704,40,102.71,37,-61.8979,0\H,43,1.09749,40,110.112,37,54.9541,0\C,43,1.50053,40,116.782,37,179.693,0\H,46,1.0965,43,107.874,40,-167.256,0\H,46,1.09736,43,104.237,40,-53.7776,0\C,46,1.54959,43,117.706,40,69.8986,0\H,49,1.09615,46,107.824,43,51.7384,0\H,49,1.09694,46,109.903,43,177.044,0\H,49,1.09723,46,111.786,43,-60.1208,0\S,23,1.63376,22,105.186,20,3.46376,0\S,4,1.68996,3,116.023,2,178.366,0\S,6,1.72224,2,126.237,1,5.80891,0\H,15,2.50073,14,107.087,12,-48.3276,0\C,56,1.09665,15,130.126,14,-158.706,0\H,57,1.09731,56,114.29,15,-138.815,0\H,57,1.09765,56,115.566,15,-11.9005,0\C,57,1.58439,56,101.938,15,102.337,0\H,60,1.09665,57,113.96,56,-57.0727,0\H,60,1.09701,57,103.078,56,-172.292,0\C,60,1.54793,57,110.111,56,61.7567,0\H,63,1.09672,60,108.139,57,175.879,0\H,63,1.09682,60,109.628,57,64.2397,0\C,63,1.53795,60,115.999,57,-63.9007,0\H,66,1.09677,63,113.909,60,60.814,0\H,66,1.09721,63,112.761,60,-177.873,0\C,66,1.53352,63,111.477,60,-60.2255,0\H,69,1.09673,66,115.715,63,85.1369,0\H,69,1.09729,66,103.522,63,-27.0319,0\C,69,1.56804,66,108.378,63,-152.614,0\H,72,1.09689,69,102.571,66,62.0263,0\H,72,1.09722,69,112.181,66,-58.3286,0\C,72,1.50996,69,114.282,66,178.141,0\N,75,1.3629,72,123.387,69,-5.56782,0\C,76,1.31912,75,126.553,72,-179.943,0\H,77,1.08895,76,118.66,75,-179.124,0\C,75,1.43778,72,122.526,69,177.926,0\H,79,1.08627,75,124.134,72,2.06404,0\C,79,1.40784,75,120.918,72,176.25,0\H,81,1.08584,79,111.679,75,177.547,0\C,81,1.37224,79,121.901,75,0.122409,0\C,83,1.50354,81,117.815,79,-161.872,0\C,84,1.39873,83,120.002,81,-46.4325,0\H,85,1.08962,84,118.303,83,-10.6233,0\N,85,1.34295,84,126.017,83,179.257,0\C,87,1.32584,85,117.922,84,-2.33187,0\C,84,1.40747,83,123.875,81,127.318,0\N,89,1.32908,84,127.155,83,11.4303,0\C,89,1.40695,84,119.704,83,-175.349,0\N,91,1.32285,89,112.685,84,-176.464,0\C,88,1.5056,87,118.308,85,175.058,0\C,93,1.38377,88,122.841,87,-10.6916,0\C,94,1.37394,93,112.983,88,-171.662,0\C,95,1.36033,94,118.834,93,-8.28108,0\C,95,1.39324,94,112.736,93,179.343,0\H,97,1.08451,95,127.998,94,174.021,0\C,97,1.39905,95,107.533,94,2.34923,0\H,99,1.08227,97,122.723,95,166.679,0\C,96,1.46973,95,125.684,94,-175.69,0\N,101,1.32013,96,110.286,95,170.072,0\C,102,1.36077,101,109.45,96,167.146,0\H,103,1.08224,102,116.494,101,-175.616,0\C,103,1.42578,102,115.452,101,2.71309,0\H,105,1.08253,103,123.181,102,-171.963,0\S,92,1.60723,91,108.107,89,-10.2418,0\S,105,1.72163,103,110.034,102,-5.49836,0\S,93,1.73946,88,129.612,87,167.872,0\S,99,1.78872,97,119.321,95,-8.98798,0\\\@

 Total job time:  115.45s(wall), 1391.73s(cpu) 
 Fri Oct 12 00:17:57 2018

        *************************************************************
        *                                                           *
        *  Thank you very much for using Q-Chem.  Have a nice day.  *
        *                                                           *
        *************************************************************


