
Running Job 1 of 1 ./7/7.qcin
qchem ./7/7.qcin_61989.0 /tmpu/cab_g/afmv_a/scratch_qchem/qchem61989/ 1
/tmpu/appuserlic/qchem4.4/serial-multicore/exe/qcprog.exe_s ./7/7.qcin_61989.0 /tmpu/cab_g/afmv_a/scratch_qchem/qchem61989/
Check license passed

                  Welcome to Q-Chem
     A Quantum Leap Into The Future Of Chemistry


 Q-Chem 4.4, Q-Chem, Inc., Pleasanton, CA (2016)

 Y. Shao,  Z. Gan,  E. Epifanovsky,  A. T. B. Gilbert,  M. Wormit,  
 J. Kussmann,  A. W. Lange,  A. Behn,  J. Deng,  X. Feng,  D. Ghosh,  
 M. Goldey,  P. R. Horn,  L. D. Jacobson,  I. Kaliman,  F. Rob,  
 R. Z. Khaliullin,  T. Kus,  A. Landau,  J. Liu,  E. I. Proynov,  Y. M. Rhee,  
 R. M. Richard,  M. A. Rohrdanz,  R. P. Steele,  E. J. Sundstrom,  
 H. L. Woodcock III,  P. M. Zimmerman,  D. Zuev,  B. Albrecht,  E. Alguire,  
 B. Austin,  S. A. Baeppler,  G. J. O. Beran,  Y. A. Bernard,  E. Berquist,  
 K. Brandhorst,  K. B. Bravaya,  S. T. Brown,  D. Casanova,  C.-M. Chang,  
 Y. Chen,  S. H. Chien,  K. D. Closser,  M. P. Coons,  D. L. Crittenden,  
 S. Dasgupta,  M. Diedenhofen,  R. A. DiStasio Jr.,  H. Do,  A. D. Dutoi,  
 R. G. Edgar,  P.-T. Fang,  S. Fatehi,  Q. Feng,  L. Fusti-Molnar,  
 A. Ghysels,  A. Golubeva-Zadorozhnaya,  J. Gomes,  A. Gunina,  
 M. W. D. Hanson-Heine,  P. H. P. Harbach,  A. W. Hauser,  J. E. Herr,  
 E. G. Hohenstein,  Z. C. Holden,  K. Hui,  T.-C. Jagau,  H. Ji,  B. Kaduk,  
 K. Khistyaev,  Jaehoon Kim,  Jihan Kim,  R. A. King,  P. Klunzinger,  
 K. Koh,  D. Kosenkov,  T. Kowalczyk,  C. M. Krauter,  A. Kunitsa,  
 K. U. Lao,  A. Laurent,  K. V. Lawler,  J. Lee,  D. Lefrancois,  S. Lehtola,  
 S. V. Levchenko,  C. Y. Lin,  Y.-S. Lin,  F. Liu,  E. Livshits,  
 R. C. Lochan,  A. Luenser,  P. Manohar,  S. F. Manzer,  S.-P. Mao,  Y. Mao,  
 N. Mardirossian,  A. V. Marenich,  L. A. Martinez-Martinez,  S. A. Maurer,  
 N. J. Mayhall,  J.-M. Mewes,  A. F. Morrison,  K. Nanda,  T. S. Nguyen-Beck,  
 C. M. Oana,  R. Olivares-Amaya,  D. P. O'Neill,  J. A. Parkhill,  
 T. M. Perrine,  R. Peverati,  P. A. Pieniazek,  F. Plasser,  A. Prociuk,  
 D. R. Rehn,  E. Rosta,  N. J. Russ,  N. Sergueev,  S. M. Sharada,  
 S. Sharma,  D. W. Small,  A. Sodt,  T. Stauch,  T. Stein,  D. Stuck,  
 Y.-C. Su,  A. J. W. Thom,  T. Tsuchimochi,  L. Vogt,  O. Vydrov,  T. Wang,  
 M. A. Watson,  J. Wenzel,  A. White,  C. F. Williams,  V. Vanovschi,  
 K. Yao,  S. Yeganeh,  S. R. Yost,  Z.-Q. You,  I. Y. Zhang,  X. Zhang,  
 Y. Zhao,  B. R. Brooks,  G. K. L. Chan,  D. M. Chipman,  C. J. Cramer,  
 W. A. Goddard III,  M. S. Gordon,  W. J. Hehre,  A. Klamt,  
 H. F. Schaefer III,  M. W. Schmidt,  C. D. Sherrill,  D. G. Truhlar,  
 A. Warshel,  X. Xu,  A. Aspuru-Guzik,  R. Baer,  A. T. Bell,  N. A. Besley,  
 J.-D. Chai,  A. Dreuw,  B. D. Dunietz,  T. R. Furlani,  S. R. Gwaltney,  
 C.-P. Hsu,  Y. Jung,  J. Kong,  D. S. Lambrecht,  W. Liang,  C. Ochsenfeld,  
 V. A. Rassolov,  L. V. Slipchenko,  J. E. Subotnik,  T. Van Voorhis,  
 J. M. Herbert,  A. I. Krylov,  P. M. W. Gill,  M. Head-Gordon

 Contributors to earlier versions of Q-Chem not listed above: 
 R. D. Adamson,  J. Baker,  E. F. C. Byrd,  A. K. Chakraborty,  C.-L. Cheng,  
 H. Dachsel,  R. J. Doerksen,  G. Hawkins,  A. Heyden,  S. Hirata,  
 G. Kedziora,  F. J. Keil,  C. Kelley,  P. P. Korambath,  W. Kurlancheek,  
 A. M. Lee,  M. S. Lee,  D. Liotard,  I. Lotan,  P. E. Maslen,  N. Nair,  
 D. Neuhauser,  R. Olson,  B. Peters,  J. Ritchie,  N. E. Schultz,  
 N. Shenvi,  A. C. Simmonett,  K. S. Thanthiriwatte,  Q. Wu,  W. Zhang

 Please cite Q-Chem as follows:
 Y. Shao et al., Mol. Phys. 113, 184-215 (2015)
 DOI: 10.1080/00268976.2014.952696

 Q-Chem 4.4.2 for Intel X86 Linux

 Parts of Q-Chem use Armadillo 5.200.1 (Boston Tea Smuggler).
 http://arma.sourceforge.net/

 Q-Chem begins on Fri Oct 12 00:32:21 2018  

Host: 
0

     Scratch files written to /tmpu/cab_g/afmv_a/scratch_qchem/qchem61989//
 Dec716 11556_ 22328  22283 4050   
Processing $rem in /tmpu/appuserlic/qchem4.4/serial-multicore/config/preferences.
 MEM_TOTAL  2000 
FILE_GEOM_ORG=        593

Checking the input file for inconsistencies... 	...done.

--------------------------------------------------------------
User input:
--------------------------------------------------------------
$comment
SP
$end

$rem
MEM_STATIC 5000
MEM_TOTAL 20000
JOBTYPE SP
EXCHANGE B3LYP
BASIS 6-31g(d,p)
$end

$molecule
0 1
C         -27.509000     -0.549000     -4.751000
C         -26.807000     -1.660000     -4.230000
N         -26.897000      0.612000     -5.137000
C         -25.397000     -1.594000     -4.208000
C         -25.542000      0.662000     -5.067000
C         -24.730000     -0.414000     -4.629000
C         -23.228000     -0.400000     -4.736000
C         -22.595000      0.822000     -4.394000
C         -22.376000     -1.496000     -5.093000
N         -21.273000      0.956000     -4.481000
N         -22.809000     -2.680000     -5.371000
C         -21.048000     -1.287000     -5.289000
C         -20.467000      0.005000     -5.000000
S         -21.506000     -3.477000     -5.919000
N         -20.333000     -2.269000     -5.838000
C         -19.019000      0.241000     -5.186000
S         -17.790000     -1.058000     -5.292000
C         -18.462000      1.505000     -5.077000
C         -16.499000      0.180000     -5.497000
S         -19.179000      3.087000     -4.820000
C         -17.085000      1.442000     -5.426000
C         -15.081000     -0.140000     -5.713000
C         -17.625000      3.795000     -5.303000
C         -16.638000      2.814000     -5.516000
N         -14.296000      0.908000     -5.863000
S         -14.317000     -1.713000     -5.596000
C         -12.955000      0.463000     -5.745000
C         -12.855000     -0.861000     -5.687000
C         -28.907000     -0.563000     -5.106000
H         -27.271000     -2.592000     -3.920000
H         -24.864000     -2.397000     -3.708000
H         -25.041000      1.512000     -5.528000
H         -23.179000      1.670000     -4.040000
H         -17.641000      4.877000     -5.304000
H         -15.612000      3.118000     -5.688000
H         -12.180000      1.219000     -5.741000
H         -11.951000     -1.442000     -5.813000
H         -29.191000      0.497000     -5.111000
C         -29.961000     -1.208000     -4.160000
H         -29.045000     -0.974000     -6.114000
H         -29.728000     -2.254000     -3.924000
H         -30.928000     -1.133000     -4.671000
C         -30.004000     -0.414000     -2.849000
H         -29.105000     -0.561000     -2.237000
C         -31.228000     -0.858000     -2.042000
H         -30.162000      0.652000     -3.054000
H         -31.180000     -1.949000     -1.942000
H         -32.118000     -0.714000     -2.666000
C         -31.291000     -0.187000     -0.637000
H         -31.930000     -0.768000      0.040000
C         -31.797000      1.311000     -0.883000
H         -30.273000     -0.133000     -0.232000
H         -32.860000      1.285000     -1.156000
H         -31.198000      1.823000     -1.646000
H         -31.715000      1.861000      0.062000
C         -14.388000     -3.633000    -10.427000
C         -14.822000     -2.951000     -9.238000
N         -15.320000     -3.662000    -11.421000
C         -16.111000     -2.391000     -9.155000
C         -16.508000     -3.089000    -11.401000
C         -17.003000     -2.467000    -10.195000
C         -18.456000     -2.227000     -9.892000
C         -18.835000     -1.136000     -9.103000
C         -19.489000     -3.113000    -10.251000
N         -20.090000     -0.817000     -8.747000
N         -19.403000     -4.157000    -11.069000
C         -20.808000     -2.850000     -9.838000
C         -21.069000     -1.623000     -9.134000
S         -20.851000     -4.937000    -10.977000
N         -21.676000     -3.728000    -10.313000
C         -22.488000     -1.216000     -8.838000
S         -23.954000     -2.146000     -8.946000
C         -22.827000      0.045000     -8.380000
C         -25.018000     -0.790000     -8.588000
S         -21.764000      1.432000     -7.988000
C         -24.184000      0.258000     -8.350000
C         -26.485000     -0.754000     -8.506000
C         -23.329000      2.189000     -7.567000
C         -24.519000      1.534000     -7.902000
N         -26.978000     -1.976000     -8.586000
S         -27.616000      0.575000     -8.715000
C         -28.321000     -1.910000     -8.795000
C         -28.874000     -0.596000     -8.816000
C         -13.046000     -4.318000    -10.526000
H         -14.245000     -2.901000     -8.319000
H         -16.265000     -1.877000     -8.211000
H         -17.148000     -3.183000    -12.277000
H         -18.084000     -0.382000     -8.869000
H         -23.308000      3.110000     -6.999000
H         -25.507000      1.932000     -7.698000
H         -28.832000     -2.851000     -8.952000
H         -29.899000     -0.389000     -9.096000
H         -12.273000     -3.599000    -10.227000
C         -12.750000     -4.957000    -11.927000
H         -13.071000     -5.193000     -9.865000
H         -12.854000     -4.181000    -12.695000
H         -13.424000     -5.749000    -12.277000
C         -11.384000     -5.651000    -11.863000
H         -10.625000     -4.875000    -12.020000
C         -11.298000     -6.818000    -12.861000
H         -11.282000     -5.976000    -10.820000
H         -12.081000     -7.535000    -12.586000
H         -10.376000     -7.399000    -12.737000
C         -11.484000     -6.450000    -14.353000
H         -11.449000     -7.269000    -15.082000
C         -10.312000     -5.496000    -14.829000
H         -12.482000     -6.002000    -14.430000
H         -10.454000     -4.622000    -14.182000
H         -10.481000     -5.325000    -15.900000
H          -9.343000     -5.996000    -14.706000
$end

--------------------------------------------------------------
 ----------------------------------------------------------------
             Standard Nuclear Orientation (Angstroms)
    I     Atom           X                Y                Z
 ----------------------------------------------------------------
    1      C      -7.1074233571     0.4068601938    -0.6780361601
    2      C      -6.4147138480     0.3784223907    -1.9100713980
    3      N      -6.6555504122    -0.2180249811     0.4519153255
    4      C      -5.1464879414    -0.2411547395    -1.9359021871
    5      C      -5.4509366064    -0.8410160193     0.3870096613
    6      C      -4.6361338969    -0.8736839025    -0.7722976120
    7      C      -3.2282216035    -1.4079088122    -0.7663209839
    8      C      -3.0222049623    -2.5999235271    -0.0263243197
    9      C      -2.0970804059    -0.8729097836    -1.4655095354
   10      N      -1.8108335649    -3.1441484280     0.0716940185
   11      N      -2.1502723797     0.1711815464    -2.2229215160
   12      C      -0.8580479109    -1.3835028308    -1.2424081763
   13      C      -0.6957890843    -2.5560792745    -0.4122982097
   14      S      -0.6026735656     0.4933450192    -2.5896238576
   15      N       0.1906202724    -0.7197368228    -1.7288850288
   16      C       0.6439089579    -3.1373543953    -0.1792222783
   17      S       2.0751015345    -2.8196477462    -1.2087019011
   18      C       0.8524437708    -4.1548418680     0.7378701242
   19      C       3.0692172740    -3.8911794592    -0.1575579126
   20      S      -0.2217260190    -4.9470809192     1.8786499228
   21      C       2.2459495704    -4.4210376297     0.8336845437
   22      C       4.5076136701    -4.1241786596    -0.3486264357
   23      C       1.2196253085    -5.6241804482     2.6619197222
   24      C       2.4003812091    -5.3121684928     1.9616604538
   25      N       5.0594243500    -4.9245386402     0.5412937152
   26      S       5.4932472120    -3.6252002096    -1.7092369705
   27      C       6.3376332912    -5.2963607112     0.0532770656
   28      C       6.6845910530    -4.6290778287    -1.0424847088
   29      C      -8.2600620309     1.2319589149    -0.4110882474
   30      H      -6.7525482311     0.8689939152    -2.8184917351
   31      H      -4.6651798359    -0.3608740845    -2.9017737034
   32      H      -5.0098478136    -1.1913255132     1.3190750749
   33      H      -3.8555688633    -3.1000805186     0.4644134845
   34      H       0.9801095173    -6.2293060490     3.5264636441
   35      H       3.3351085572    -5.7724881153     2.2601007824
   36      H       6.8876956144    -6.0383526755     0.6181278117
   37      H       7.6760119563    -4.5727156399    -1.4720902211
   38      H      -8.7387254120     0.7498166768     0.4507129070
   39      C      -9.4177272089     1.3391912834    -1.4455782449
   40      H      -7.9512948857     2.2457477342    -0.1266166674
   41      H      -9.0687002699     1.6675727233    -2.4327189774
   42      H     -10.1406197429     2.0531205477    -1.0337938477
   43      C     -10.0767993720    -0.0367861268    -1.5982741859
   44      H      -9.4361245844    -0.7553796303    -2.1250693958
   45      C     -11.3836021156     0.1250771844    -2.3809796592
   46      H     -10.3721405678    -0.4289327480    -0.6172850903
   47      H     -11.1472644753     0.6511592553    -3.3136999680
   48      H     -12.0112611266     0.8503933125    -1.8497803742
   49      C     -12.0679483262    -1.2409462099    -2.6873868232
   50      H     -12.7661249509    -1.1429469514    -3.5283128282
   51      C     -12.7572836351    -1.7082386752    -1.3210008661
   52      H     -11.2885181294    -1.9720369846    -2.9348940909
   53      H     -13.6294579903    -1.0699589136    -1.1284266206
   54      H     -12.0515157528    -1.6892031702    -0.4815704963
   55      H     -13.1243634724    -2.7328273474    -1.4541152754
   56      C       7.5026699082     0.9682178720    -0.3334707276
   57      C       6.5515936571    -0.0994767822    -0.4840797905
   58      N       7.0008717303     2.0747089335     0.2840866540
   59      C       5.2273279664     0.0416576156    -0.0275587479
   60      C       5.7881142115     2.2132772351     0.7841776721
   61      C       4.7878435873     1.1917978492     0.5783050350
   62      C       3.3039298140     1.4214841685     0.6548694394
   63      C       2.4566816538     0.3882636498     1.0684742203
   64      C       2.6680232779     2.5962842722     0.2116611433
   65      N       1.1190420044     0.4555494892     1.1670378246
   66      N       3.2475621314     3.7414859384    -0.1334531292
   67      C       1.2637465846     2.6799261096     0.2342445810
   68      C       0.5255776342     1.5835489986     0.8019855706
   69      S       2.0536885850     4.6982770810    -0.7440140720
   70      N       0.8172963835     3.8674421808    -0.1404830515
   71      C      -0.9595757022     1.7101173542     1.0144144260
   72      S      -2.0693570478     2.9030240327     0.4052518685
   73      C      -1.6908838882     0.8029581269     1.7607765858
   74      C      -3.4488623540     2.3053376669     1.3210750602
   75      S      -1.1432668893    -0.6911550414     2.5824477259
   76      C      -2.9867384553     1.2059262338     1.9754755515
   77      C      -4.8265051228     2.8152102500     1.3683968380
   78      C      -2.8781401664    -0.7939969640     3.0057127156
   79      C      -3.7140440675     0.2958723767     2.7396309830
   80      N      -4.9953010327     3.7623420552     0.4644154863
   81      S      -6.0651148562     2.6679682481     2.6066410471
   82      C      -6.1649010014     4.4149547093     0.7048705483
   83      C      -6.9369187855     3.9086573133     1.7913775607
   84      C       8.9069760325     0.8880479278    -0.8825491274
   85      H       6.7503354213    -1.0212479892    -1.0233659420
   86      H       4.6522421189    -0.8670397828    -0.1778694466
   87      H       5.5260052681     3.1542925941     1.2654270834
   88      H       2.9054790389    -0.5085609000     1.4945723709
   89      H      -3.2475489222    -1.7325723372     3.3980383966
   90      H      -4.7712375686     0.3206452719     2.9802389729
   91      H      -6.3819601714     5.2657488545     0.0721892390
   92      H      -7.8204128300     4.4048648285     2.1722848661
   93      H       9.3606476727    -0.0446098159    -0.5244673267
   94      C       9.7963771152     2.1394885517    -0.5638014543
   95      H       8.8371113672     0.9172933119    -1.9768226928
   96      H       9.8059578880     2.2951253302     0.5217865900
   97      H       9.4661263073     3.1104082582    -0.9540441062
   98      C      11.1680023063     1.9374072432    -1.2191605007
   99      H      11.7550793227     1.3064484601    -0.5408260767
  100      C      11.8355428000     3.2818149864    -1.5541926024
  101      H      10.9673820293     1.3293599311    -2.1101756358
  102      H      11.1733285247     3.8040654675    -2.2552843856
  103      H      12.7567626799     3.1509412468    -2.1349223133
  104      C      12.1060338584     4.2225619152    -0.3550621661
  105      H      12.5612396609     5.1968470250    -0.5718182555
  106      C      13.1443727928     3.5546651700     0.6379344075
  107      H      11.1266965453     4.4253842923     0.0948250536
  108      H      12.6082813921     2.6512802241     0.9528163689
  109      H      13.3254775869     4.2969307952     1.4260243739
  110      H      14.0920647551     3.3597962395     0.1202510636
 ----------------------------------------------------------------
 Molecular Point Group                 C1    NOp =  1
 Largest Abelian Subgroup              C1    NOp =  1
 Nuclear Repulsion Energy = 12509.4532967860 hartrees
 There are      270 alpha and      270 beta electrons
 Requested basis set is 6-31G(d,p)
 There are 406 shells and 1262 basis functions

 Total QAlloc Memory Limit  20000 MB
 Mega-Array Size      4888 MB
 MEM_STATIC part      5000 MB
 A cutoff of  1.0D-08 yielded  15506 shell pairs
 There are    167354 function pairs
 
 -------------------------------------------------------
 OpenMP Integral Computing Module                       
 Release: version 1.0, May 2013, Q-Chem Inc. Pittsburgh 
 -------------------------------------------------------
 Integral Job Info:
 Integral job number is                      11
 Integral operator is                         1
 short-range coefficients                     0
 long-range coefficients              100000000
 Omega coefficients                           0
 if combine SR and LR in K                    0
 Integral screening is                        0
 Integral computing path is                   2
 max size of driver memory is            800000
 size of driver memory is                593474
 size of scratch memory is             15166112
 max col of scratch BK array               1296
 max len of scratch array in speh3          155
 max len of scratch index in speh4           18
 max int batch size is                      520
 min int batch size is                       52
 fixed nKL is                                52
 max L of basis functions is                  2
 order of int derivative is                   0
 number of shells is                        406
 number of basis is                        1262
 number of cartesian basis is              1262
 number of contracted shell pairs         15506
 number of primitive shell pairs          48281
 maxK2 (contraction) of shell pair           36
 max number of K2 of shell pair               1
 max number of CS2 of shell pair           1824
 max number of PS2 of shell pair           9672
 mem total for path MDJ                  385624
 -------------------------------------------------------
 Smallest overlap matrix eigenvalue = 3.70E-04

 Scale SEOQF with 1.000000e-02/1.000000e-02/1.000000e-01

 Standard Electronic Orientation quadrupole field applied
 Nucleus-field energy     =    -0.0000000289 hartrees
 Guess from superposition of atomic densities
 Warning:  Energy on first SCF cycle will be non-variational
 A restricted hybrid HF-DFT SCF calculation will be
 performed using Pulay DIIS extrapolation
 Exchange:     0.2000 Hartree-Fock + 0.0800 Slater + 0.7200 B88
 Correlation:  0.1900 VWN1RPA + 0.8100 LYP
 Using SG-1 standard quadrature grid
 SCF converges when DIIS error is below 1.0E-05
 using 16 threads for integral computing 
 -------------------------------------------------------
 OpenMP BLAS3 based DFT computing Module                
 Release: version 1.0, May 2013, Q-Chem Inc. Pittsburgh 
 -------------------------------------------------------
 ---------------------------------------
  Cycle       Energy         DIIS Error
 ---------------------------------------
    1   -5680.0662848148      2.15E-02
    2   -5662.4222378051      2.20E-03
    3   -5660.7950442827      3.51E-03
    4   -5663.3073803853      8.99E-04
    5   -5663.4491627708      3.82E-04
    6   -5663.4672176029      2.32E-04
    7   -5663.4771345079      7.74E-05
    8   -5663.4781970572      2.74E-05
    9   -5663.4783251011      1.18E-05
   10   -5663.4783513204      4.32E-06 Convergence criterion met
 ---------------------------------------
 SCF time:  CPU 1273.58 s  wall 104.80 s
 SCF   energy in the final basis set = -5663.4783513204
 Total energy in the final basis set = -5663.4783513204
 
 --------------------------------------------------------------
 
                    Orbital Energies (a.u.)
 --------------------------------------------------------------
 
 Alpha MOs
 -- Occupied --
-88.984 -88.979 -88.934 -88.933 -88.926 -88.916 -88.911 -88.909
-14.388 -14.380 -14.379 -14.371 -14.349 -14.345 -14.340 -14.340
-14.329 -14.320 -10.273 -10.267 -10.264 -10.257 -10.250 -10.248
-10.247 -10.246 -10.245 -10.241 -10.234 -10.233 -10.233 -10.233
-10.233 -10.232 -10.230 -10.230 -10.229 -10.226 -10.226 -10.225
-10.223 -10.223 -10.222 -10.221 -10.220 -10.218 -10.214 -10.211
-10.208 -10.206 -10.200 -10.199 -10.196 -10.196 -10.194 -10.194
-10.193 -10.182 -10.181 -10.176 -10.175 -10.175 -10.174 -10.174
-10.173 -10.171 -10.171 -10.170  -8.040  -8.035  -7.995  -7.994
 -7.984  -7.975  -7.969  -7.969  -6.005  -6.000  -6.000  -5.997
 -5.995  -5.992  -5.959  -5.958  -5.955  -5.955  -5.952  -5.951
 -5.948  -5.945  -5.940  -5.939  -5.935  -5.933  -5.933  -5.932
 -5.930  -5.930  -5.925  -5.925  -1.048  -1.042  -0.971  -0.971
 -0.962  -0.951  -0.929  -0.929  -0.916  -0.914  -0.902  -0.901
 -0.838  -0.836  -0.829  -0.824  -0.820  -0.811  -0.808  -0.807
 -0.803  -0.799  -0.792  -0.788  -0.780  -0.778  -0.762  -0.762
 -0.746  -0.743  -0.738  -0.734  -0.723  -0.713  -0.706  -0.704
 -0.691  -0.687  -0.673  -0.672  -0.654  -0.652  -0.639  -0.638
 -0.634  -0.632  -0.619  -0.618  -0.609  -0.609  -0.601  -0.600
 -0.591  -0.589  -0.584  -0.580  -0.573  -0.570  -0.566  -0.551
 -0.550  -0.542  -0.541  -0.535  -0.525  -0.521  -0.518  -0.512
 -0.503  -0.498  -0.495  -0.494  -0.485  -0.481  -0.480  -0.477
 -0.474  -0.470  -0.466  -0.463  -0.463  -0.458  -0.451  -0.449
 -0.445  -0.442  -0.438  -0.437  -0.435  -0.435  -0.431  -0.427
 -0.424  -0.424  -0.421  -0.417  -0.417  -0.414  -0.413  -0.409
 -0.409  -0.404  -0.401  -0.400  -0.398  -0.394  -0.393  -0.392
 -0.391  -0.390  -0.389  -0.388  -0.385  -0.381  -0.381  -0.378
 -0.377  -0.375  -0.371  -0.370  -0.369  -0.363  -0.359  -0.353
 -0.353  -0.352  -0.350  -0.348  -0.346  -0.345  -0.339  -0.337
 -0.337  -0.333  -0.331  -0.331  -0.326  -0.326  -0.319  -0.317
 -0.316  -0.309  -0.307  -0.306  -0.303  -0.301  -0.296  -0.294
 -0.294  -0.292  -0.291  -0.289  -0.287  -0.286  -0.283  -0.277
 -0.276  -0.264  -0.257  -0.257  -0.256  -0.255  -0.247  -0.243
 -0.237  -0.228  -0.226  -0.224  -0.193  -0.190
 -- Virtual --
 -0.111  -0.109  -0.074  -0.066  -0.034  -0.032  -0.026  -0.021
 -0.020  -0.011  -0.011  -0.008  -0.007  -0.002   0.005   0.007
  0.010   0.012   0.014   0.018   0.032   0.034   0.037   0.040
  0.044   0.056   0.058   0.059   0.077   0.080   0.081   0.089
  0.096   0.099   0.100   0.102   0.107   0.107   0.109   0.111
  0.113   0.113   0.117   0.117   0.120   0.120   0.124   0.126
  0.128   0.131   0.132   0.136   0.137   0.146   0.149   0.152
  0.153   0.155   0.158   0.160   0.161   0.161   0.165   0.168
  0.168   0.172   0.175   0.176   0.177   0.178   0.184   0.186
  0.187   0.188   0.189   0.190   0.199   0.199   0.201   0.203
  0.205   0.208   0.210   0.213   0.214   0.215   0.219   0.221
  0.222   0.223   0.225   0.231   0.232   0.235   0.239   0.240
  0.244   0.246   0.247   0.248   0.252   0.257   0.259   0.260
  0.265   0.266   0.268   0.269   0.271   0.276   0.277   0.281
  0.284   0.285   0.288   0.290   0.294   0.299   0.301   0.305
  0.307   0.310   0.314   0.319   0.321   0.324   0.325   0.329
  0.331   0.333   0.339   0.340   0.344   0.345   0.349   0.351
  0.356   0.360   0.362   0.364   0.366   0.370   0.373   0.376
  0.381   0.392   0.394   0.396   0.401   0.405   0.406   0.409
  0.415   0.421   0.424   0.429   0.430   0.436   0.439   0.446
  0.448   0.454   0.459   0.464   0.466   0.471   0.473   0.475
  0.479   0.481   0.485   0.490   0.494   0.497   0.503   0.504
  0.506   0.506   0.508   0.510   0.514   0.517   0.521   0.525
  0.526   0.529   0.530   0.532   0.535   0.536   0.537   0.538
  0.539   0.543   0.544   0.548   0.551   0.553   0.553   0.554
  0.556   0.559   0.562   0.563   0.564   0.568   0.569   0.571
  0.575   0.576   0.578   0.583   0.585   0.585   0.587   0.588
  0.589   0.591   0.596   0.598   0.600   0.604   0.604   0.608
  0.611   0.614   0.616   0.617   0.618   0.620   0.621   0.624
  0.626   0.630   0.632   0.634   0.635   0.637   0.638   0.640
  0.643   0.645   0.649   0.650   0.651   0.657   0.660   0.662
  0.663   0.667   0.669   0.675   0.675   0.679   0.683   0.685
  0.686   0.687   0.690   0.691   0.696   0.699   0.700   0.705
  0.708   0.712   0.715   0.719   0.720   0.724   0.724   0.730
  0.732   0.735   0.737   0.739   0.741   0.743   0.745   0.750
  0.752   0.758   0.760   0.762   0.764   0.768   0.768   0.772
  0.779   0.781   0.784   0.789   0.791   0.795   0.796   0.797
  0.800   0.804   0.810   0.812   0.814   0.814   0.816   0.819
  0.820   0.822   0.823   0.824   0.827   0.828   0.830   0.830
  0.831   0.833   0.835   0.837   0.839   0.842   0.844   0.847
  0.847   0.848   0.849   0.852   0.853   0.854   0.858   0.861
  0.865   0.865   0.867   0.869   0.876   0.878   0.879   0.880
  0.883   0.888   0.890   0.894   0.896   0.897   0.899   0.900
  0.907   0.908   0.912   0.913   0.915   0.917   0.920   0.923
  0.925   0.926   0.927   0.929   0.935   0.937   0.939   0.941
  0.944   0.945   0.946   0.947   0.949   0.950   0.951   0.955
  0.957   0.961   0.963   0.968   0.970   0.970   0.974   0.974
  0.979   0.983   0.986   0.993   0.995   0.997   1.000   1.001
  1.002   1.005   1.007   1.009   1.012   1.016   1.021   1.022
  1.024   1.026   1.028   1.030   1.033   1.034   1.037   1.039
  1.042   1.046   1.049   1.052   1.055   1.058   1.062   1.064
  1.071   1.074   1.080   1.085   1.087   1.089   1.091   1.095
  1.098   1.099   1.106   1.110   1.116   1.118   1.121   1.127
  1.130   1.133   1.140   1.142   1.147   1.149   1.152   1.159
  1.163   1.168   1.171   1.178   1.185   1.189   1.193   1.201
  1.203   1.209   1.218   1.219   1.225   1.235   1.241   1.247
  1.248   1.249   1.258   1.264   1.270   1.275   1.277   1.283
  1.284   1.285   1.289   1.290   1.293   1.299   1.306   1.311
  1.314   1.318   1.322   1.325   1.330   1.334   1.341   1.343
  1.346   1.348   1.354   1.357   1.361   1.362   1.369   1.371
  1.378   1.381   1.388   1.391   1.393   1.402   1.408   1.411
  1.413   1.417   1.425   1.428   1.431   1.433   1.445   1.449
  1.456   1.457   1.461   1.464   1.476   1.481   1.484   1.486
  1.493   1.497   1.501   1.511   1.520   1.521   1.526   1.530
  1.535   1.537   1.539   1.541   1.555   1.560   1.566   1.572
  1.576   1.580   1.582   1.584   1.596   1.599   1.603   1.606
  1.608   1.615   1.618   1.632   1.637   1.642   1.644   1.656
  1.663   1.672   1.674   1.676   1.681   1.688   1.700   1.700
  1.703   1.704   1.708   1.713   1.715   1.715   1.720   1.722
  1.723   1.727   1.735   1.739   1.749   1.750   1.753   1.761
  1.762   1.767   1.769   1.773   1.778   1.784   1.787   1.792
  1.796   1.797   1.799   1.806   1.810   1.816   1.818   1.823
  1.828   1.830   1.833   1.840   1.843   1.845   1.849   1.852
  1.854   1.858   1.863   1.865   1.868   1.871   1.876   1.880
  1.881   1.885   1.888   1.893   1.899   1.901   1.901   1.905
  1.912   1.915   1.921   1.923   1.925   1.929   1.930   1.940
  1.944   1.946   1.948   1.950   1.953   1.955   1.956   1.970
  1.974   1.975   1.980   1.982   1.985   1.990   1.994   2.000
  2.002   2.007   2.007   2.014   2.019   2.024   2.026   2.036
  2.036   2.039   2.045   2.048   2.049   2.052   2.055   2.062
  2.069   2.079   2.082   2.088   2.091   2.092   2.097   2.101
  2.103   2.109   2.112   2.121   2.125   2.126   2.131   2.136
  2.139   2.139   2.146   2.153   2.155   2.157   2.161   2.164
  2.168   2.171   2.174   2.176   2.180   2.186   2.190   2.194
  2.197   2.197   2.201   2.208   2.212   2.218   2.224   2.228
  2.231   2.235   2.236   2.240   2.245   2.248   2.255   2.256
  2.260   2.261   2.266   2.267   2.274   2.278   2.280   2.283
  2.286   2.287   2.288   2.292   2.298   2.299   2.304   2.308
  2.312   2.314   2.325   2.328   2.329   2.339   2.342   2.345
  2.350   2.354   2.356   2.358   2.359   2.365   2.372   2.377
  2.378   2.385   2.387   2.390   2.392   2.395   2.396   2.400
  2.402   2.404   2.406   2.409   2.416   2.424   2.426   2.429
  2.430   2.432   2.434   2.443   2.446   2.450   2.453   2.456
  2.457   2.462   2.464   2.467   2.470   2.473   2.477   2.482
  2.489   2.492   2.498   2.502   2.504   2.506   2.506   2.514
  2.516   2.528   2.533   2.537   2.539   2.541   2.547   2.551
  2.551   2.555   2.559   2.562   2.566   2.571   2.574   2.578
  2.586   2.592   2.597   2.600   2.603   2.604   2.609   2.610
  2.615   2.620   2.621   2.624   2.632   2.633   2.636   2.639
  2.643   2.645   2.648   2.663   2.667   2.671   2.673   2.678
  2.681   2.684   2.686   2.689   2.692   2.699   2.700   2.704
  2.709   2.713   2.715   2.718   2.726   2.740   2.743   2.752
  2.754   2.763   2.765   2.783   2.785   2.788   2.794   2.798
  2.806   2.810   2.814   2.817   2.823   2.823   2.825   2.826
  2.833   2.850   2.857   2.862   2.865   2.868   2.873   2.875
  2.878   2.882   2.885   2.889   2.892   2.906   2.912   2.921
  2.925   2.926   2.932   2.934   2.938   2.943   2.950   2.955
  2.956   2.964   2.975   2.981   2.988   3.013   3.016   3.024
  3.033   3.035   3.049   3.070   3.077   3.086   3.093   3.113
  3.162   3.175   3.186   3.198   3.213   3.221   3.222   3.242
  3.243   3.250   3.251   3.266   3.277   3.279   3.289   3.294
  3.298   3.307   3.314   3.317   3.324   3.334   3.336   3.336
  3.346   3.363   3.373   3.382   3.399   3.402   3.411   3.428
  3.438   3.446   3.449   3.462   3.467   3.480   3.520   3.539
  3.554   3.558   3.567   3.571   3.573   3.582   3.597   3.602
  3.609   3.651   3.718   3.738   3.846   3.877   3.910   3.927
  3.943   3.947   3.955   3.957   3.984   3.999   4.011   4.029
  4.042   4.044   4.066   4.089   4.092   4.118   4.130   4.133
  4.136   4.142   4.154   4.165   4.178   4.185   4.186   4.214
  4.228   4.246   4.252   4.267   4.276   4.280   4.283   4.286
  4.304   4.309   4.317   4.355   4.385   4.389   4.400   4.409
  4.433   4.437   4.466   4.470   4.482   4.494   4.508   4.519
  4.522   4.529   4.545   4.556   4.600   4.608   4.642   4.657
  4.691   4.693   4.709   4.744   4.760   4.771   4.808   4.816
 --------------------------------------------------------------
 
          Ground-State Mulliken Net Atomic Charges

     Atom                 Charge (a.u.)
  ----------------------------------------
      1 C                     0.281236
      2 C                    -0.110489
      3 N                    -0.498787
      4 C                    -0.066710
      5 C                     0.082717
      6 C                     0.032557
      7 C                     0.024858
      8 C                     0.065389
      9 C                     0.273877
     10 N                    -0.535084
     11 N                    -0.546443
     12 C                     0.211833
     13 C                     0.332129
     14 S                     0.567296
     15 N                    -0.579342
     16 C                    -0.203361
     17 S                     0.312410
     18 C                    -0.123765
     19 C                    -0.249013
     20 S                     0.285282
     21 C                     0.176480
     22 C                     0.071934
     23 C                    -0.306531
     24 C                    -0.074204
     25 N                    -0.437927
     26 S                     0.270579
     27 C                     0.119779
     28 C                    -0.304499
     29 C                    -0.253089
     30 H                     0.094118
     31 H                     0.105856
     32 H                     0.094712
     33 H                     0.116519
     34 H                     0.137038
     35 H                     0.118995
     36 H                     0.118958
     37 H                     0.132556
     38 H                     0.116808
     39 C                    -0.186807
     40 H                     0.124765
     41 H                     0.090931
     42 H                     0.092721
     43 C                    -0.167725
     44 H                     0.097522
     45 C                    -0.171773
     46 H                     0.096282
     47 H                     0.077999
     48 H                     0.085831
     49 C                    -0.182278
     50 H                     0.092019
     51 C                    -0.321273
     52 H                     0.095941
     53 H                     0.105458
     54 H                     0.109715
     55 H                     0.097201
     56 C                     0.286041
     57 C                    -0.136137
     58 N                    -0.497491
     59 C                    -0.057691
     60 C                     0.110392
     61 C                    -0.013255
     62 C                     0.033110
     63 C                     0.059417
     64 C                     0.248411
     65 N                    -0.532245
     66 N                    -0.566305
     67 C                     0.213532
     68 C                     0.324913
     69 S                     0.591500
     70 N                    -0.551093
     71 C                    -0.252684
     72 S                     0.342523
     73 C                    -0.116152
     74 C                    -0.215052
     75 S                     0.301208
     76 C                     0.156036
     77 C                     0.052292
     78 C                    -0.308581
     79 C                    -0.107858
     80 N                    -0.406980
     81 S                     0.317649
     82 C                     0.103545
     83 C                    -0.321802
     84 C                    -0.246185
     85 H                     0.079049
     86 H                     0.102855
     87 H                     0.115546
     88 H                     0.120423
     89 H                     0.115168
     90 H                     0.130541
     91 H                     0.113043
     92 H                     0.138047
     93 H                     0.117796
     94 C                    -0.169007
     95 H                     0.123328
     96 H                     0.108312
     97 H                     0.110776
     98 C                    -0.178005
     99 H                     0.093017
    100 C                    -0.186218
    101 H                     0.085972
    102 H                     0.088504
    103 H                     0.083811
    104 C                    -0.185994
    105 H                     0.090091
    106 C                    -0.314113
    107 H                     0.101523
    108 H                     0.109845
    109 H                     0.099487
    110 H                     0.103945
  ----------------------------------------
  Sum of atomic charges =     0.000000

 -----------------------------------------------------------------
                    Cartesian Multipole Moments
 -----------------------------------------------------------------
    Charge (ESU x 10^10)
                 0.0000
    Dipole Moment (Debye)
         X      -0.5670      Y      -0.7618      Z      -1.5990
       Tot       1.8597
    Quadrupole Moments (Debye-Ang)
        XX    -409.2692     XY     -33.0423     YY    -435.9643
        XZ     -12.6304     YZ      -5.9596     ZZ    -434.6762
    Octopole Moments (Debye-Ang^2)
       XXX     -40.7208    XXY     -25.7206    XYY       5.1039
       YYY      37.7256    XXZ     -77.6599    XYZ     -14.8286
       YYZ      46.9662    XZZ     -36.8616    YZZ     -17.7809
       ZZZ     -16.9325
    Hexadecapole Moments (Debye-Ang^3)
      XXXX  -92358.6934   XXXY   -2900.0216   XXYY  -18263.8402
      XYYY    -694.6981   YYYY  -21211.9321   XXXZ    -966.0209
      XXYZ     298.9798   XYYZ    -146.9619   YYYZ    -452.1481
      XXZZ  -16620.2861   XYZZ     -71.4956   YYZZ   -4410.9041
      XZZZ     -53.0386   YZZZ    -186.8886   ZZZZ   -6220.4088
 -----------------------------------------------------------------
Archival summary:
1\1\mn246\SP\ProcedureUnspecified\6-31G**\8105042\afmv_a\FriOct1200:34:092018FriOct1200:34:092018\0\\#,ProcedureUnspecified,6-31G**,\\0,1\S\C,1,1.78872\H,2,1.08227,1,117.82\C,2,1.39905,1,119.321,3,175.878,0\H,4,1.08451,2,123.92,1,178.918,0\C,4,1.39324,2,107.533,1,-8.98798,0\C,6,1.36033,4,127.91,2,-169.18,0\C,6,1.37394,4,112.736,2,2.34923,0\C,8,1.38377,6,112.983,4,179.343,0\C,7,1.46973,6,125.684,4,-4.61155,0\N,10,1.32013,7,110.286,6,170.072,0\C,11,1.36077,10,109.45,7,167.146,0\H,12,1.08224,11,116.494,10,-175.616,0\C,12,1.42578,11,115.452,10,2.71309,0\H,14,1.08253,12,123.181,11,-171.963,0\C,9,1.5056,8,122.841,6,-171.662,0\N,16,1.32584,9,118.308,8,-10.6916,0\C,17,1.34295,16,117.922,9,175.058,0\H,18,1.08962,17,115.011,16,-172.735,0\C,18,1.39873,17,126.017,16,-2.33187,0\C,20,1.40747,18,115.85,17,5.02045,0\N,21,1.32908,20,127.155,18,-174.582,0\C,21,1.40695,20,119.704,18,-1.36151,0\N,23,1.32285,21,112.685,20,-176.464,0\C,20,1.50354,18,120.002,17,179.257,0\C,25,1.37224,20,117.815,18,-46.4325,0\H,26,1.08584,25,126.364,20,21.0997,0\C,26,1.40784,25,121.901,20,-161.872,0\H,28,1.08627,26,114.718,25,174.826,0\C,28,1.43778,26,120.918,25,0.122409,0\N,30,1.3629,28,114.004,26,-0.557433,0\C,31,1.31912,30,126.553,28,-3.16724,0\H,32,1.08895,31,118.66,30,-179.124,0\C,30,1.50996,28,122.526,26,176.25,0\H,34,1.09689,30,107.585,28,-68.9052,0\H,34,1.09722,30,108.119,28,52.2357,0\C,34,1.56804,30,114.282,28,177.926,0\H,37,1.09673,34,108.628,30,-55.3826,0\H,37,1.09729,34,117.592,30,61.2936,0\C,37,1.53352,34,108.378,30,178.141,0\H,40,1.09677,37,106.874,34,82.3233,0\H,40,1.09721,37,104.864,34,-30.299,0\C,40,1.53795,37,111.477,34,-152.614,0\H,43,1.09672,40,107.064,37,60.5737,0\H,43,1.09682,40,112.061,37,172.84,0\C,43,1.54793,40,115.999,37,-60.2255,0\H,46,1.09665,43,105.911,40,59.747,0\H,46,1.09701,43,117.336,40,178.677,0\C,46,1.58439,43,110.111,40,-63.9007,0\H,49,1.09665,46,101.938,43,61.7567,0\H,49,1.09731,46,110.193,43,-59.9617,0\H,49,1.09765,46,105.846,43,-177.01,0\S,24,1.60723,23,108.107,21,-10.2418,0\S,14,1.72163,12,110.034,11,-5.49836,0\S,9,1.73946,8,107.535,6,9.49884,0\H,5,2.25886,4,85.6717,2,70.4908,0\C,56,1.08905,5,117.185,4,106.153,0\N,57,1.35773,56,117.777,5,54.1011,0\C,58,1.36801,57,117.592,56,-169.814,0\C,59,1.41371,58,123.284,57,-3.07593,0\H,60,1.08629,59,124.564,58,179.818,0\C,60,1.41172,59,117.708,58,5.00806,0\H,62,1.08577,60,117.574,59,-173.328,0\C,57,1.41738,56,117.373,5,-115.989,0\C,59,1.44244,58,111.862,57,169.147,0\H,65,1.09728,59,110.586,58,-88.9454,0\H,65,1.0974,59,104.038,58,27.9163,0\C,64,1.50587,57,122.847,56,-2.06976,0\C,68,1.41808,64,115.856,57,-42.1537,0\H,69,1.0888,68,120.673,64,-2.36989,0\N,69,1.33162,68,120.938,64,178.495,0\C,71,1.35033,69,123.149,68,-5.93828,0\C,68,1.43338,64,127.118,57,140.472,0\N,73,1.29098,68,123.748,64,0.404361,0\C,73,1.35856,68,119.956,64,-172.751,0\N,75,1.33302,73,118.06,68,168.717,0\C,72,1.47885,71,121.358,69,-174.603,0\C,77,1.38558,72,121.958,71,12.1768,0\C,78,1.42193,77,109.243,72,174.659,0\C,79,1.39323,78,117.384,77,14.1656,0\C,79,1.44578,78,105.821,77,-170.247,0\H,81,1.08382,79,124.662,78,-174.874,0\C,81,1.4078,79,115.791,78,2.31462,0\H,83,1.08212,81,134.99,79,179.396,0\C,80,1.46962,79,127.63,78,173.926,0\N,85,1.31796,80,114.726,79,0.502023,0\C,86,1.41783,85,107.716,80,-166.524,0\H,87,1.08267,86,117.27,85,173.8,0\C,87,1.32904,86,112.797,85,-7.71779,0\H,89,1.08197,87,126.351,86,-165.683,0\C,65,1.55623,59,120.719,58,142.861,0\H,91,1.09628,65,106.601,59,177.406,0\H,91,1.09732,65,112.458,59,55.97,0\C,91,1.5333,65,108.912,59,-64.2092,0\H,94,1.09697,91,110.333,65,-53.1955,0\H,94,1.09743,91,112.611,65,70.9582,0\C,94,1.53185,91,108.829,65,-168.345,0\H,97,1.09645,94,108.102,91,56.5336,0\H,97,1.09662,94,107.543,91,-53.5852,0\C,97,1.55828,94,112.488,91,-175.308,0\H,100,1.09693,97,108.456,94,38.8685,0\H,100,1.09737,97,110.598,94,159.324,0\C,100,1.60017,97,106.098,94,-76.6008,0\H,103,1.09647,100,108.266,97,171.842,0\H,103,1.09687,100,111.792,97,51.8401,0\H,103,1.0978,100,108.799,97,-71.7641,0\S,74,1.62275,73,104.705,68,-171.736,0\S,89,1.69459,87,115.995,86,6.33562,0\S,78,1.75581,77,132.013,72,4.14694,0\S,77,1.79139,72,124.296,71,-157.069,0\\\@

 Total job time:  107.99s(wall), 1282.81s(cpu) 
 Fri Oct 12 00:34:09 2018

        *************************************************************
        *                                                           *
        *  Thank you very much for using Q-Chem.  Have a nice day.  *
        *                                                           *
        *************************************************************


