
Running Job 1 of 1 ./7/72.qcin
qchem ./7/72.qcin_61669.0 /tmpu/cab_g/afmv_a/scratch_qchem/qchem61669/ 1
/tmpu/appuserlic/qchem4.4/serial-multicore/exe/qcprog.exe_s ./7/72.qcin_61669.0 /tmpu/cab_g/afmv_a/scratch_qchem/qchem61669/
Check license passed

                  Welcome to Q-Chem
     A Quantum Leap Into The Future Of Chemistry


 Q-Chem 4.4, Q-Chem, Inc., Pleasanton, CA (2016)

 Y. Shao,  Z. Gan,  E. Epifanovsky,  A. T. B. Gilbert,  M. Wormit,  
 J. Kussmann,  A. W. Lange,  A. Behn,  J. Deng,  X. Feng,  D. Ghosh,  
 M. Goldey,  P. R. Horn,  L. D. Jacobson,  I. Kaliman,  F. Rob,  
 R. Z. Khaliullin,  T. Kus,  A. Landau,  J. Liu,  E. I. Proynov,  Y. M. Rhee,  
 R. M. Richard,  M. A. Rohrdanz,  R. P. Steele,  E. J. Sundstrom,  
 H. L. Woodcock III,  P. M. Zimmerman,  D. Zuev,  B. Albrecht,  E. Alguire,  
 B. Austin,  S. A. Baeppler,  G. J. O. Beran,  Y. A. Bernard,  E. Berquist,  
 K. Brandhorst,  K. B. Bravaya,  S. T. Brown,  D. Casanova,  C.-M. Chang,  
 Y. Chen,  S. H. Chien,  K. D. Closser,  M. P. Coons,  D. L. Crittenden,  
 S. Dasgupta,  M. Diedenhofen,  R. A. DiStasio Jr.,  H. Do,  A. D. Dutoi,  
 R. G. Edgar,  P.-T. Fang,  S. Fatehi,  Q. Feng,  L. Fusti-Molnar,  
 A. Ghysels,  A. Golubeva-Zadorozhnaya,  J. Gomes,  A. Gunina,  
 M. W. D. Hanson-Heine,  P. H. P. Harbach,  A. W. Hauser,  J. E. Herr,  
 E. G. Hohenstein,  Z. C. Holden,  K. Hui,  T.-C. Jagau,  H. Ji,  B. Kaduk,  
 K. Khistyaev,  Jaehoon Kim,  Jihan Kim,  R. A. King,  P. Klunzinger,  
 K. Koh,  D. Kosenkov,  T. Kowalczyk,  C. M. Krauter,  A. Kunitsa,  
 K. U. Lao,  A. Laurent,  K. V. Lawler,  J. Lee,  D. Lefrancois,  S. Lehtola,  
 S. V. Levchenko,  C. Y. Lin,  Y.-S. Lin,  F. Liu,  E. Livshits,  
 R. C. Lochan,  A. Luenser,  P. Manohar,  S. F. Manzer,  S.-P. Mao,  Y. Mao,  
 N. Mardirossian,  A. V. Marenich,  L. A. Martinez-Martinez,  S. A. Maurer,  
 N. J. Mayhall,  J.-M. Mewes,  A. F. Morrison,  K. Nanda,  T. S. Nguyen-Beck,  
 C. M. Oana,  R. Olivares-Amaya,  D. P. O'Neill,  J. A. Parkhill,  
 T. M. Perrine,  R. Peverati,  P. A. Pieniazek,  F. Plasser,  A. Prociuk,  
 D. R. Rehn,  E. Rosta,  N. J. Russ,  N. Sergueev,  S. M. Sharada,  
 S. Sharma,  D. W. Small,  A. Sodt,  T. Stauch,  T. Stein,  D. Stuck,  
 Y.-C. Su,  A. J. W. Thom,  T. Tsuchimochi,  L. Vogt,  O. Vydrov,  T. Wang,  
 M. A. Watson,  J. Wenzel,  A. White,  C. F. Williams,  V. Vanovschi,  
 K. Yao,  S. Yeganeh,  S. R. Yost,  Z.-Q. You,  I. Y. Zhang,  X. Zhang,  
 Y. Zhao,  B. R. Brooks,  G. K. L. Chan,  D. M. Chipman,  C. J. Cramer,  
 W. A. Goddard III,  M. S. Gordon,  W. J. Hehre,  A. Klamt,  
 H. F. Schaefer III,  M. W. Schmidt,  C. D. Sherrill,  D. G. Truhlar,  
 A. Warshel,  X. Xu,  A. Aspuru-Guzik,  R. Baer,  A. T. Bell,  N. A. Besley,  
 J.-D. Chai,  A. Dreuw,  B. D. Dunietz,  T. R. Furlani,  S. R. Gwaltney,  
 C.-P. Hsu,  Y. Jung,  J. Kong,  D. S. Lambrecht,  W. Liang,  C. Ochsenfeld,  
 V. A. Rassolov,  L. V. Slipchenko,  J. E. Subotnik,  T. Van Voorhis,  
 J. M. Herbert,  A. I. Krylov,  P. M. W. Gill,  M. Head-Gordon

 Contributors to earlier versions of Q-Chem not listed above: 
 R. D. Adamson,  J. Baker,  E. F. C. Byrd,  A. K. Chakraborty,  C.-L. Cheng,  
 H. Dachsel,  R. J. Doerksen,  G. Hawkins,  A. Heyden,  S. Hirata,  
 G. Kedziora,  F. J. Keil,  C. Kelley,  P. P. Korambath,  W. Kurlancheek,  
 A. M. Lee,  M. S. Lee,  D. Liotard,  I. Lotan,  P. E. Maslen,  N. Nair,  
 D. Neuhauser,  R. Olson,  B. Peters,  J. Ritchie,  N. E. Schultz,  
 N. Shenvi,  A. C. Simmonett,  K. S. Thanthiriwatte,  Q. Wu,  W. Zhang

 Please cite Q-Chem as follows:
 Y. Shao et al., Mol. Phys. 113, 184-215 (2015)
 DOI: 10.1080/00268976.2014.952696

 Q-Chem 4.4.2 for Intel X86 Linux

 Parts of Q-Chem use Armadillo 5.200.1 (Boston Tea Smuggler).
 http://arma.sourceforge.net/

 Q-Chem begins on Fri Oct 12 00:20:54 2018  

Host: 
0

     Scratch files written to /tmpu/cab_g/afmv_a/scratch_qchem/qchem61669//
 Dec716 11556_ 22328  22283 4050   
Processing $rem in /tmpu/appuserlic/qchem4.4/serial-multicore/config/preferences.
 MEM_TOTAL  2000 
FILE_GEOM_ORG=        593

Checking the input file for inconsistencies... 	...done.

--------------------------------------------------------------
User input:
--------------------------------------------------------------
$comment
SP
$end

$rem
MEM_STATIC 5000
MEM_TOTAL 20000
JOBTYPE SP
EXCHANGE B3LYP
BASIS 6-31g(d,p)
$end

$molecule
0 1
C           1.784000     11.407000     -1.870000
C           3.131000     11.231000     -1.282000
N           0.973000     10.369000     -1.892000
C           3.452000     10.037000     -0.710000
C           1.361000      9.110000     -1.453000
C           2.557000      8.913000     -0.763000
C           2.972000      7.539000     -0.292000
C           4.347000      7.221000     -0.242000
C           2.136000      6.572000      0.180000
N           4.810000      6.101000      0.278000
N           0.829000      6.752000      0.396000
C           2.626000      5.336000      0.702000
C           4.017000      5.124000      0.787000
S           0.269000      5.428000      1.168000
N           1.726000      4.629000      1.376000
C           4.571000      3.773000      1.075000
S           3.647000      2.376000      1.747000
C           5.913000      3.428000      1.029000
C           5.189000      1.581000      2.206000
S           7.224000      4.332000      0.317000
C           6.211000      2.233000      1.680000
C           5.224000      0.232000      2.738000
C           8.309000      3.070000      1.008000
C           7.659000      2.095000      1.753000
N           4.153000     -0.490000      2.511000
S           6.634000     -0.587000      3.242000
C           4.388000     -1.793000      2.955000
C           5.594000     -1.923000      3.519000
C           1.326000     12.641000     -2.624000
H           3.836000     12.049000     -1.173000
H           4.445000      9.847000     -0.313000
H           0.634000      8.303000     -1.526000
H           5.077000      7.979000     -0.521000
H           9.349000      3.037000      0.712000
H           8.202000      1.338000      2.306000
H           3.604000     -2.537000      2.893000
H           5.994000     -2.810000      3.994000
H           0.454000     12.417000     -3.250000
C           2.390000     13.336000     -3.574000
H           0.944000     13.406000     -1.937000
H           3.232000     13.765000     -3.016000
H           1.982000     14.237000     -4.047000
C           2.865000     12.216000     -4.542000
H           3.475000     11.394000     -4.147000
C           3.755000     12.823000     -5.653000
H           2.016000     11.720000     -5.030000
H           4.670000     13.219000     -5.196000
H           3.200000     13.712000     -5.978000
C           4.143000     11.790000     -6.739000
H           4.930000     11.130000     -6.355000
C           4.604000     12.682000     -7.858000
H           3.276000     11.221000     -7.096000
H           3.868000     13.452000     -8.120000
H           4.917000     12.110000     -8.741000
H           5.516000     13.214000     -7.561000
C          -4.132000      2.537000      2.659000
C          -3.105000      3.190000      1.897000
N          -5.351000      3.079000      2.732000
C          -3.392000      4.465000      1.393000
C          -5.561000      4.318000      2.251000
C          -4.645000      5.079000      1.474000
C          -5.066000      6.372000      0.943000
C          -6.472000      6.573000      0.593000
C          -4.217000      7.479000      0.741000
N          -6.961000      7.762000      0.156000
N          -2.836000      7.427000      0.903000
C          -4.806000      8.710000      0.314000
C          -6.177000      8.841000     -0.063000
S          -2.401000      8.966000      0.460000
N          -3.874000      9.604000      0.198000
C          -6.828000     10.044000     -0.574000
S          -8.331000      9.922000     -1.595000
C          -6.613000     11.352000     -0.249000
C          -8.547000     11.657000     -1.547000
S          -5.397000     12.077000      0.699000
C          -7.544000     12.254000     -0.807000
C          -9.797000     12.308000     -1.951000
C          -6.171000     13.632000      0.354000
C          -7.274000     13.568000     -0.412000
N         -10.476000     11.587000     -2.720000
S         -10.393000     13.828000     -1.554000
C         -11.696000     12.091000     -2.958000
C         -11.845000     13.375000     -2.447000
C          -3.901000      1.275000      3.485000
H          -2.083000      2.833000      1.812000
H          -2.599000      4.995000      0.873000
H          -6.582000      4.664000      2.404000
H          -7.208000      5.779000      0.708000
H          -5.769000     14.520000      0.823000
H          -7.930000     14.400000     -0.642000
H         -12.431000     11.450000     -3.426000
H         -12.716000     14.015000     -2.426000
H          -3.657000      1.452000      4.540000
C          -2.772000      0.470000      2.808000
H          -4.837000      0.725000      3.331000
H          -1.813000      0.955000      3.029000
H          -3.021000      0.353000      1.746000
C          -2.652000     -1.023000      3.329000
H          -2.176000     -1.050000      4.317000
C          -1.783000     -1.803000      2.325000
H          -3.648000     -1.474000      3.239000
H          -0.768000     -1.387000      2.322000
H          -2.199000     -1.661000      1.320000
C          -1.619000     -3.382000      2.490000
H          -0.733000     -3.766000      1.970000
C          -2.937000     -4.124000      2.172000
H          -1.484000     -3.602000      3.557000
H          -3.719000     -3.714000      2.823000
H          -2.798000     -5.190000      2.390000
H          -3.183000     -3.872000      1.133000
$end

--------------------------------------------------------------
 ----------------------------------------------------------------
             Standard Nuclear Orientation (Angstroms)
    I     Atom           X                Y                Z
 ----------------------------------------------------------------
    1      C       1.5372492252    -5.5822330763     0.5399198582
    2      C       0.3208167264    -6.1507753851     1.1629612846
    3      N       1.4530721221    -4.3925305621    -0.0196971028
    4      C      -0.8114422438    -5.3949127068     1.2131831519
    5      C       0.2568479144    -3.6928057565    -0.1078948426
    6      C      -0.8843647556    -4.1066718102     0.5788900811
    7      C      -2.1820466962    -3.3404961948     0.4743027621
    8      C      -3.4012176177    -4.0482280850     0.5578900556
    9      C      -2.3030751798    -1.9861859824     0.3850561673
   10      N      -4.5777469860    -3.4547799066     0.6104914345
   11      N      -1.2783287685    -1.1340988845     0.4906372745
   12      C      -3.5755527766    -1.3373390141     0.3939092715
   13      C      -4.7442190354    -2.1087714109     0.5556536151
   14      S      -1.8954353083     0.3750787495     0.5548430953
   15      N      -3.5214128530    -0.0244618630     0.5876809279
   16      C      -6.0904356583    -1.5219743050     0.3139286465
   17      S      -6.4697930460     0.2394525461     0.2117894249
   18      C      -7.2835245131    -2.2278883027     0.2957789209
   19      C      -8.2065953967    -0.1221728967     0.4823714525
   20      S      -7.5001550951    -3.9562638153     0.2026645916
   21      C      -8.4159268116    -1.4251378850     0.4136211946
   22      C      -9.2238513120     0.9081982553     0.3953330005
   23      C      -9.2574676803    -3.6263613072     0.4270901088
   24      C      -9.5752096303    -2.2861171540     0.6029754775
   25      N      -8.8699361828     1.9949723986    -0.2477222404
   26      S     -10.8895155913     0.6681337334     0.6796014191
   27      C      -9.9846014637     2.8273953298    -0.3692268700
   28      C     -11.0633763076     2.3156740852     0.2339465744
   29      C       2.8327912215    -6.3417178577     0.3259343388
   30      H       0.3203596657    -7.0970506888     1.6945559052
   31      H      -1.7401120870    -5.7904125439     1.6143192898
   32      H       0.2731183935    -2.7245908402    -0.6052902059
   33      H      -3.3794057369    -5.1247478551     0.7189317471
   34      H      -9.9752633910    -4.4219020476     0.2781295496
   35      H     -10.5792875099    -1.9616206670     0.8484070192
   36      H      -9.8878875429     3.7987653367    -0.8373323360
   37      H     -12.0323801976     2.7878010560     0.3365213504
   38      H       3.4496069490    -5.8570435444    -0.4402674415
   39      C       2.7081303565    -7.8650607420    -0.1001021922
   40      H       3.4701442332    -6.2969950521     1.2175054292
   41      H       2.2612278819    -8.4846773967     0.6877571730
   42      H       3.6917049825    -8.3398052008    -0.1959805208
   43      C       1.8285844102    -7.8590180554    -1.3820582813
   44      H       0.7656776893    -7.6003925870    -1.2974936919
   45      C       1.8060906606    -9.2725145409    -2.0116547525
   46      H       2.2223708660    -7.1653706187    -2.1362110913
   47      H       1.3052143927    -9.9599431307    -1.3192279346
   48      H       2.8584100584    -9.5830197688    -1.9981866986
   49      C       1.0710292662    -9.3083842987    -3.3737953866
   50      H      -0.0124812308    -9.2750453161    -3.2085122507
   51      C       1.5488898832   -10.6147364212    -3.9442683156
   52      H       1.4032488446    -8.5057760786    -4.0433842132
   53      H       2.6421703327   -10.7040074751    -3.9471902756
   54      H       1.1282867837   -10.8104141053    -4.9390774815
   55      H       1.1720375263   -11.4478096831    -3.3385057868
   56      C      -0.8894607981     5.7369155915     0.1206956953
   57      C      -1.0532899953     4.3380716806    -0.1589070712
   58      N       0.3374199064     6.2467649736     0.2616614517
   59      C       0.0932369987     3.5349171541    -0.1096256492
   60      C       1.3996224419     5.4232619649     0.3260863535
   61      C       1.3903231966     4.0256006097     0.0646245774
   62      C       2.6517120782     3.2909579358     0.0804116291
   63      C       3.8785468569     3.9762351036    -0.3258009126
   64      C       2.7993886341     1.9451172751     0.4727871518
   65      N       5.1020867632     3.3893112694    -0.2780357519
   66      N       1.7268487010     1.1099626839     0.7699132205
   67      C       4.1211398366     1.4031263880     0.5346792927
   68      C       5.2822532182     2.0982427271     0.0790917708
   69      S       2.5079953711    -0.3218373515     1.0761052167
   70      N       4.0513925096     0.1685331102     0.9248468833
   71      C       6.6480761414     1.5829169652     0.0459541556
   72      S       7.8720815169     2.2751046543    -1.1112066127
   73      C       7.2804587012     0.7434225027     0.9166178941
   74      C       9.1544341610     1.3502327817    -0.3632970489
   75      S       6.6748259423    -0.1622688160     2.2265481199
   76      C       8.6628464651     0.5874878614     0.6790942998
   77      C      10.5731870520     1.6268441044    -0.6085385835
   78      C       8.3263439116    -0.7510276542     2.4755007810
   79      C       9.2447372713    -0.2655932963     1.6220559257
   80      N      10.7537739840     2.2377467017    -1.6885521837
   81      S      11.9197933990     1.2289548453     0.3142617653
   82      C      12.0204208665     2.6510444988    -1.8429885981
   83      C      12.8638465843     2.1443864399    -0.8612000924
   84      C      -2.0528775756     6.6950192469     0.3589807920
   85      H      -2.0132859703     3.8402043335    -0.2573643344
   86      H      -0.0304453711     2.4652326269    -0.2532455773
   87      H       2.3377236316     5.9538347214     0.4810854116
   88      H       3.8712470199     5.0155489465    -0.6500391713
   89      H       8.5182704541    -1.3968501403     3.3217788197
   90      H      10.3137691967    -0.4352510669     1.6840799806
   91      H      12.2322620443     3.3666607873    -2.6260254063
   92      H      13.9122082082     2.3379000640    -0.6818334763
   93      H      -2.3314544725     6.8301761532     1.4116049050
   94      C      -3.2621983128     6.1757815296    -0.4465814636
   95      H      -1.6997107213     7.6112429933    -0.1289938177
   96      H      -3.6883936782     5.3109434559     0.0770210734
   97      H      -2.9392934318     6.0036043037    -1.4808065072
   98      C      -4.4332669086     7.2349722448    -0.5935623219
   99      H      -5.0004035073     7.3157258311     0.3420037831
  100      C      -5.3697935586     6.7479851538    -1.7148733434
  101      H      -3.9848118966     8.1544083277    -0.9898480669
  102      H      -5.8358673893     5.8015061715    -1.4144690816
  103      H      -4.7676089502     6.5479779428    -2.6096447181
  104      C      -6.5560064737     7.6929044363    -2.2122549569
  105      H      -7.3452964561     7.1343010908    -2.7297833388
  106      C      -6.0166853199     8.9232963822    -2.9765064551
  107      H      -7.0174128910     8.1554239392    -1.3300453290
  108      H      -5.3130039078     9.4464781570    -2.3173112633
  109      H      -6.8600000078     9.5836628927    -3.2130173617
  110      H      -5.4593005476     8.5264098375    -3.8340286334
 ----------------------------------------------------------------
 Molecular Point Group                 C1    NOp =  1
 Largest Abelian Subgroup              C1    NOp =  1
 Nuclear Repulsion Energy = 11093.3015327018 hartrees
 There are      270 alpha and      270 beta electrons
 Requested basis set is 6-31G(d,p)
 There are 406 shells and 1262 basis functions

 Total QAlloc Memory Limit  20000 MB
 Mega-Array Size      4888 MB
 MEM_STATIC part      5000 MB
 A cutoff of  1.0D-08 yielded  12705 shell pairs
 There are    133213 function pairs
 
 -------------------------------------------------------
 OpenMP Integral Computing Module                       
 Release: version 1.0, May 2013, Q-Chem Inc. Pittsburgh 
 -------------------------------------------------------
 Integral Job Info:
 Integral job number is                      11
 Integral operator is                         1
 short-range coefficients                     0
 long-range coefficients              100000000
 Omega coefficients                           0
 if combine SR and LR in K                    0
 Integral screening is                        0
 Integral computing path is                   2
 max size of driver memory is            800000
 size of driver memory is                593474
 size of scratch memory is             15166112
 max col of scratch BK array               1296
 max len of scratch array in speh3          155
 max len of scratch index in speh4           18
 max int batch size is                      520
 min int batch size is                       52
 fixed nKL is                                52
 max L of basis functions is                  2
 order of int derivative is                   0
 number of shells is                        406
 number of basis is                        1262
 number of cartesian basis is              1262
 number of contracted shell pairs         12705
 number of primitive shell pairs          41789
 maxK2 (contraction) of shell pair           36
 max number of K2 of shell pair               1
 max number of CS2 of shell pair           1284
 max number of PS2 of shell pair           7704
 mem total for path MDJ                  275176
 -------------------------------------------------------
 Smallest overlap matrix eigenvalue = 4.30E-04

 Scale SEOQF with 1.000000e-02/1.000000e-02/1.000000e-01

 Standard Electronic Orientation quadrupole field applied
 Nucleus-field energy     =     0.0000000663 hartrees
 Guess from superposition of atomic densities
 Warning:  Energy on first SCF cycle will be non-variational
 A restricted hybrid HF-DFT SCF calculation will be
 performed using Pulay DIIS extrapolation
 Exchange:     0.2000 Hartree-Fock + 0.0800 Slater + 0.7200 B88
 Correlation:  0.1900 VWN1RPA + 0.8100 LYP
 Using SG-1 standard quadrature grid
 SCF converges when DIIS error is below 1.0E-05
 using 16 threads for integral computing 
 -------------------------------------------------------
 OpenMP BLAS3 based DFT computing Module                
 Release: version 1.0, May 2013, Q-Chem Inc. Pittsburgh 
 -------------------------------------------------------
 ---------------------------------------
  Cycle       Energy         DIIS Error
 ---------------------------------------
    1   -5680.3439947071      2.16E-02
    2   -5662.4748360205      2.16E-03
    3   -5661.2935594520      3.16E-03
    4   -5663.3773048899      7.15E-04
    5   -5663.4696093786      3.22E-04
    6   -5663.4855749126      1.66E-04
    7   -5663.4905891750      6.24E-05
    8   -5663.4912418279      2.70E-05
    9   -5663.4913813106      8.97E-06 Convergence criterion met
 ---------------------------------------
 SCF time:  CPU 946.94 s  wall 78.25 s
 SCF   energy in the final basis set = -5663.4913813106
 Total energy in the final basis set = -5663.4913813106
 
 --------------------------------------------------------------
 
                    Orbital Energies (a.u.)
 --------------------------------------------------------------
 
 Alpha MOs
 -- Occupied --
-88.984 -88.982 -88.931 -88.928 -88.919 -88.915 -88.914 -88.907
-14.384 -14.382 -14.379 -14.375 -14.348 -14.343 -14.342 -14.328
-14.327 -14.322 -10.266 -10.264 -10.259 -10.257 -10.254 -10.251
-10.251 -10.251 -10.241 -10.240 -10.240 -10.240 -10.236 -10.233
-10.232 -10.232 -10.230 -10.230 -10.228 -10.228 -10.228 -10.226
-10.225 -10.223 -10.223 -10.222 -10.222 -10.220 -10.216 -10.211
-10.210 -10.208 -10.208 -10.205 -10.201 -10.200 -10.197 -10.196
-10.191 -10.189 -10.183 -10.181 -10.179 -10.178 -10.177 -10.175
-10.174 -10.172 -10.170 -10.167  -8.039  -8.037  -7.994  -7.991
 -7.976  -7.973  -7.973  -7.969  -6.005  -6.002  -5.999  -5.997
 -5.996  -5.994  -5.957  -5.954  -5.954  -5.951  -5.950  -5.948
 -5.941  -5.938  -5.938  -5.937  -5.934  -5.934  -5.933  -5.933
 -5.930  -5.929  -5.929  -5.925  -1.033  -1.032  -0.995  -0.979
 -0.959  -0.945  -0.934  -0.932  -0.914  -0.913  -0.906  -0.900
 -0.844  -0.839  -0.833  -0.828  -0.817  -0.813  -0.808  -0.805
 -0.802  -0.800  -0.798  -0.791  -0.781  -0.777  -0.770  -0.763
 -0.753  -0.752  -0.744  -0.739  -0.721  -0.719  -0.711  -0.711
 -0.697  -0.690  -0.678  -0.669  -0.650  -0.647  -0.646  -0.641
 -0.632  -0.627  -0.619  -0.615  -0.613  -0.609  -0.603  -0.601
 -0.594  -0.591  -0.585  -0.579  -0.578  -0.576  -0.570  -0.558
 -0.548  -0.544  -0.542  -0.538  -0.529  -0.523  -0.522  -0.521
 -0.508  -0.504  -0.496  -0.494  -0.485  -0.483  -0.476  -0.476
 -0.471  -0.471  -0.468  -0.466  -0.464  -0.461  -0.452  -0.448
 -0.443  -0.443  -0.442  -0.441  -0.439  -0.438  -0.436  -0.435
 -0.431  -0.431  -0.426  -0.425  -0.420  -0.419  -0.417  -0.416
 -0.413  -0.411  -0.403  -0.400  -0.400  -0.397  -0.396  -0.394
 -0.390  -0.390  -0.389  -0.388  -0.387  -0.385  -0.382  -0.378
 -0.375  -0.374  -0.371  -0.370  -0.365  -0.364  -0.361  -0.359
 -0.358  -0.353  -0.350  -0.348  -0.345  -0.345  -0.342  -0.339
 -0.338  -0.335  -0.333  -0.333  -0.329  -0.328  -0.328  -0.321
 -0.313  -0.309  -0.308  -0.307  -0.303  -0.300  -0.298  -0.297
 -0.295  -0.293  -0.291  -0.289  -0.286  -0.280  -0.279  -0.276
 -0.270  -0.264  -0.263  -0.261  -0.257  -0.256  -0.244  -0.242
 -0.240  -0.238  -0.235  -0.228  -0.196  -0.191
 -- Virtual --
 -0.114  -0.108  -0.069  -0.065  -0.039  -0.035  -0.024  -0.020
 -0.017  -0.014  -0.010  -0.007  -0.004  -0.002   0.001   0.003
  0.008   0.013   0.015   0.021   0.023   0.030   0.036   0.040
  0.054   0.060   0.060   0.067   0.068   0.072   0.085   0.086
  0.092   0.097   0.102   0.103   0.104   0.105   0.110   0.113
  0.116   0.117   0.119   0.121   0.121   0.123   0.124   0.126
  0.129   0.131   0.133   0.134   0.138   0.139   0.140   0.149
  0.150   0.156   0.158   0.160   0.161   0.162   0.164   0.166
  0.170   0.170   0.172   0.173   0.174   0.180   0.185   0.186
  0.188   0.192   0.194   0.195   0.198   0.202   0.203   0.204
  0.206   0.206   0.211   0.213   0.213   0.214   0.218   0.222
  0.223   0.225   0.227   0.228   0.232   0.232   0.236   0.239
  0.242   0.244   0.245   0.248   0.253   0.256   0.256   0.259
  0.260   0.264   0.267   0.269   0.274   0.277   0.279   0.280
  0.284   0.286   0.290   0.292   0.295   0.299   0.303   0.304
  0.309   0.315   0.320   0.325   0.327   0.327   0.333   0.337
  0.338   0.340   0.343   0.346   0.350   0.352   0.354   0.356
  0.357   0.359   0.360   0.362   0.366   0.367   0.370   0.372
  0.374   0.382   0.382   0.385   0.387   0.396   0.400   0.404
  0.409   0.412   0.415   0.418   0.428   0.432   0.435   0.442
  0.445   0.447   0.451   0.454   0.457   0.467   0.472   0.473
  0.480   0.483   0.488   0.489   0.492   0.493   0.497   0.500
  0.504   0.505   0.509   0.513   0.519   0.520   0.521   0.524
  0.525   0.527   0.529   0.530   0.530   0.532   0.534   0.536
  0.538   0.539   0.540   0.543   0.545   0.546   0.548   0.550
  0.552   0.555   0.557   0.558   0.560   0.561   0.563   0.565
  0.569   0.570   0.570   0.573   0.576   0.580   0.581   0.583
  0.585   0.587   0.588   0.591   0.595   0.596   0.598   0.601
  0.603   0.604   0.605   0.610   0.611   0.613   0.617   0.618
  0.623   0.624   0.625   0.626   0.627   0.630   0.631   0.632
  0.633   0.636   0.637   0.640   0.645   0.649   0.650   0.651
  0.652   0.654   0.656   0.658   0.664   0.666   0.668   0.670
  0.673   0.681   0.687   0.690   0.691   0.693   0.694   0.701
  0.702   0.708   0.712   0.713   0.717   0.722   0.724   0.725
  0.727   0.729   0.731   0.737   0.738   0.742   0.745   0.749
  0.752   0.754   0.757   0.762   0.764   0.765   0.769   0.772
  0.775   0.779   0.780   0.785   0.786   0.786   0.796   0.797
  0.801   0.802   0.805   0.806   0.807   0.808   0.810   0.812
  0.815   0.816   0.819   0.820   0.823   0.825   0.826   0.826
  0.828   0.830   0.832   0.833   0.835   0.836   0.838   0.840
  0.842   0.843   0.845   0.848   0.851   0.852   0.855   0.857
  0.859   0.860   0.862   0.866   0.868   0.870   0.871   0.873
  0.875   0.878   0.881   0.883   0.886   0.888   0.890   0.892
  0.895   0.899   0.903   0.906   0.908   0.909   0.913   0.915
  0.918   0.919   0.925   0.926   0.927   0.928   0.930   0.931
  0.935   0.935   0.937   0.939   0.941   0.942   0.943   0.948
  0.950   0.952   0.953   0.955   0.957   0.959   0.960   0.962
  0.966   0.971   0.974   0.976   0.977   0.982   0.985   0.989
  0.990   0.995   0.996   0.998   1.000   1.001   1.007   1.010
  1.013   1.015   1.015   1.019   1.020   1.022   1.026   1.028
  1.031   1.034   1.036   1.041   1.044   1.045   1.049   1.050
  1.053   1.056   1.059   1.061   1.064   1.070   1.075   1.077
  1.079   1.082   1.087   1.092   1.097   1.100   1.104   1.108
  1.111   1.116   1.122   1.131   1.135   1.137   1.143   1.150
  1.153   1.158   1.160   1.170   1.176   1.181   1.182   1.190
  1.193   1.194   1.197   1.204   1.206   1.211   1.211   1.216
  1.218   1.225   1.230   1.232   1.236   1.251   1.260   1.268
  1.274   1.281   1.285   1.286   1.287   1.290   1.301   1.302
  1.307   1.315   1.317   1.323   1.327   1.328   1.330   1.334
  1.337   1.342   1.344   1.354   1.355   1.357   1.358   1.366
  1.367   1.374   1.377   1.386   1.388   1.405   1.408   1.408
  1.411   1.414   1.422   1.431   1.433   1.437   1.439   1.449
  1.451   1.455   1.458   1.461   1.464   1.468   1.472   1.477
  1.484   1.489   1.492   1.494   1.498   1.507   1.508   1.509
  1.520   1.524   1.526   1.530   1.536   1.545   1.547   1.554
  1.555   1.565   1.571   1.581   1.590   1.596   1.597   1.604
  1.612   1.618   1.626   1.631   1.643   1.644   1.654   1.655
  1.665   1.667   1.669   1.673   1.677   1.679   1.682   1.683
  1.686   1.687   1.689   1.693   1.706   1.706   1.716   1.718
  1.720   1.721   1.725   1.728   1.729   1.737   1.741   1.746
  1.749   1.756   1.759   1.760   1.763   1.767   1.772   1.776
  1.782   1.782   1.786   1.788   1.795   1.799   1.804   1.810
  1.811   1.826   1.827   1.834   1.838   1.839   1.846   1.850
  1.850   1.850   1.856   1.856   1.864   1.869   1.871   1.873
  1.876   1.880   1.885   1.886   1.888   1.893   1.897   1.900
  1.905   1.907   1.911   1.911   1.914   1.919   1.920   1.927
  1.933   1.936   1.937   1.940   1.949   1.955   1.957   1.960
  1.961   1.961   1.967   1.969   1.974   1.981   1.982   1.987
  1.993   1.996   2.003   2.008   2.010   2.015   2.017   2.019
  2.030   2.031   2.037   2.038   2.048   2.051   2.053   2.057
  2.068   2.072   2.077   2.082   2.084   2.089   2.098   2.099
  2.108   2.109   2.112   2.118   2.123   2.130   2.132   2.132
  2.138   2.139   2.147   2.150   2.150   2.151   2.162   2.162
  2.162   2.169   2.171   2.172   2.176   2.179   2.181   2.187
  2.196   2.197   2.201   2.205   2.207   2.215   2.220   2.225
  2.229   2.231   2.239   2.240   2.244   2.245   2.250   2.256
  2.257   2.260   2.261   2.266   2.270   2.280   2.282   2.285
  2.288   2.291   2.292   2.299   2.302   2.304   2.306   2.308
  2.312   2.314   2.320   2.324   2.330   2.332   2.334   2.335
  2.337   2.340   2.346   2.351   2.354   2.361   2.362   2.363
  2.365   2.368   2.373   2.380   2.382   2.388   2.394   2.396
  2.396   2.398   2.403   2.405   2.418   2.420   2.420   2.425
  2.428   2.432   2.435   2.437   2.440   2.441   2.445   2.448
  2.452   2.454   2.457   2.457   2.462   2.464   2.468   2.480
  2.480   2.482   2.491   2.491   2.492   2.493   2.501   2.502
  2.504   2.512   2.517   2.523   2.524   2.529   2.532   2.536
  2.536   2.540   2.544   2.550   2.556   2.560   2.564   2.564
  2.571   2.572   2.577   2.578   2.585   2.586   2.592   2.595
  2.603   2.609   2.610   2.614   2.629   2.633   2.634   2.639
  2.642   2.650   2.656   2.658   2.663   2.671   2.674   2.676
  2.677   2.679   2.681   2.686   2.691   2.695   2.697   2.702
  2.709   2.709   2.713   2.716   2.722   2.729   2.734   2.744
  2.749   2.752   2.754   2.770   2.780   2.785   2.791   2.799
  2.802   2.807   2.811   2.813   2.824   2.827   2.837   2.840
  2.843   2.852   2.853   2.860   2.862   2.866   2.868   2.869
  2.878   2.885   2.887   2.893   2.896   2.902   2.904   2.908
  2.914   2.918   2.927   2.927   2.929   2.938   2.941   2.958
  2.961   2.962   2.973   2.984   2.988   3.016   3.019   3.032
  3.043   3.066   3.067   3.068   3.077   3.083   3.092   3.145
  3.156   3.180   3.184   3.195   3.206   3.213   3.233   3.234
  3.236   3.237   3.244   3.249   3.265   3.266   3.280   3.280
  3.283   3.285   3.292   3.302   3.305   3.333   3.334   3.344
  3.354   3.356   3.366   3.371   3.376   3.384   3.427   3.432
  3.434   3.441   3.462   3.466   3.471   3.493   3.520   3.532
  3.534   3.540   3.550   3.573   3.591   3.591   3.594   3.611
  3.621   3.657   3.718   3.723   3.835   3.860   3.927   3.933
  3.938   3.948   3.948   3.960   3.972   3.991   4.002   4.009
  4.022   4.062   4.081   4.086   4.087   4.092   4.095   4.120
  4.124   4.131   4.143   4.144   4.152   4.155   4.181   4.188
  4.191   4.217   4.225   4.229   4.235   4.252   4.255   4.257
  4.276   4.276   4.313   4.329   4.359   4.378   4.382   4.401
  4.403   4.416   4.431   4.448   4.456   4.468   4.485   4.499
  4.505   4.516   4.525   4.540   4.580   4.616   4.632   4.642
  4.682   4.684   4.706   4.729   4.757   4.760   4.800   4.807
 --------------------------------------------------------------
 
          Ground-State Mulliken Net Atomic Charges

     Atom                 Charge (a.u.)
  ----------------------------------------
      1 C                     0.289668
      2 C                    -0.126441
      3 N                    -0.486957
      4 C                    -0.075873
      5 C                     0.059797
      6 C                     0.053175
      7 C                     0.044902
      8 C                     0.063787
      9 C                     0.215692
     10 N                    -0.513439
     11 N                    -0.567900
     12 C                     0.184213
     13 C                     0.308403
     14 S                     0.612575
     15 N                    -0.549746
     16 C                    -0.231004
     17 S                     0.344776
     18 C                    -0.115430
     19 C                    -0.242125
     20 S                     0.290200
     21 C                     0.167434
     22 C                     0.064202
     23 C                    -0.302433
     24 C                    -0.085184
     25 N                    -0.429969
     26 S                     0.284492
     27 C                     0.118512
     28 C                    -0.304484
     29 C                    -0.236530
     30 H                     0.092399
     31 H                     0.093960
     32 H                     0.124037
     33 H                     0.107568
     34 H                     0.127284
     35 H                     0.115944
     36 H                     0.120233
     37 H                     0.127823
     38 H                     0.128877
     39 C                    -0.194466
     40 H                     0.104356
     41 H                     0.092549
     42 H                     0.100215
     43 C                    -0.172404
     44 H                     0.100075
     45 C                    -0.178938
     46 H                     0.099135
     47 H                     0.088152
     48 H                     0.086506
     49 C                    -0.174396
     50 H                     0.098389
     51 C                    -0.309565
     52 H                     0.098539
     53 H                     0.105764
     54 H                     0.086621
     55 H                     0.098082
     56 C                     0.249757
     57 C                    -0.108718
     58 N                    -0.473366
     59 C                    -0.099111
     60 C                     0.047476
     61 C                     0.069255
     62 C                     0.017190
     63 C                     0.060946
     64 C                     0.213452
     65 N                    -0.506736
     66 N                    -0.583913
     67 C                     0.239669
     68 C                     0.290396
     69 S                     0.620651
     70 N                    -0.562266
     71 C                    -0.225698
     72 S                     0.339022
     73 C                    -0.095739
     74 C                    -0.218401
     75 S                     0.288229
     76 C                     0.132296
     77 C                     0.086074
     78 C                    -0.315837
     79 C                    -0.060509
     80 N                    -0.408611
     81 S                     0.266759
     82 C                     0.124095
     83 C                    -0.330629
     84 C                    -0.213916
     85 H                     0.096257
     86 H                     0.108183
     87 H                     0.095359
     88 H                     0.123207
     89 H                     0.122622
     90 H                     0.109806
     91 H                     0.118626
     92 H                     0.132750
     93 H                     0.121481
     94 C                    -0.192914
     95 H                     0.121645
     96 H                     0.102880
     97 H                     0.103281
     98 C                    -0.183818
     99 H                     0.094994
    100 C                    -0.177665
    101 H                     0.095740
    102 H                     0.090691
    103 H                     0.085994
    104 C                    -0.188249
    105 H                     0.091334
    106 C                    -0.311758
    107 H                     0.088129
    108 H                     0.106469
    109 H                     0.100401
    110 H                     0.101689
  ----------------------------------------
  Sum of atomic charges =     0.000000

 -----------------------------------------------------------------
                    Cartesian Multipole Moments
 -----------------------------------------------------------------
    Charge (ESU x 10^10)
                 0.0000
    Dipole Moment (Debye)
         X      -2.1909      Y      -3.6796      Z       1.9596
       Tot       4.7095
    Quadrupole Moments (Debye-Ang)
        XX    -337.0019     XY     -11.1908     YY    -432.7830
        XZ       9.9784     YZ     -10.5197     ZZ    -449.7996
    Octopole Moments (Debye-Ang^2)
       XXX      43.7920    XXY     136.4456    XYY    -100.9820
       YYY    -269.6177    XXZ     115.1861    XYZ     -46.0859
       YYZ      47.9982    XZZ      48.2851    YZZ      -4.6773
       ZZZ      19.7808
    Hexadecapole Moments (Debye-Ang^3)
      XXXX  -83774.0139   XXXY     887.1706   XXYY  -24855.9343
      XYYY    -309.5572   YYYY  -49592.1688   XXXZ      66.2392
      XXYZ    -526.0677   XYYZ     -51.5497   YYYZ    -585.7527
      XXZZ  -19109.0360   XYZZ     -56.1611   YYZZ   -9180.3359
      XZZZ     112.5544   YZZZ     -68.9130   ZZZZ   -4316.0243
 -----------------------------------------------------------------
Archival summary:
1\1\mn246\SP\ProcedureUnspecified\6-31G**\8105042\afmv_a\FriOct1200:22:152018FriOct1200:22:152018\0\\#,ProcedureUnspecified,6-31G**,\\0,1\S\N,1,1.63174\C,2,1.3369,1,107.62\C,3,1.36263,2,124.071,1,171.432,0\C,4,1.41218,3,115.17,2,-169.968,0\H,5,1.08872,4,119.144,3,174.707,0\N,5,1.31878,4,123.164,3,3.07271,0\C,7,1.35737,5,123.644,4,-1.74817,0\C,8,1.40963,7,116.464,5,-1.91554,0\N,9,1.3282,8,123.918,7,165.939,0\C,8,1.48831,7,120.562,5,-166.216,0\C,11,1.3864,8,125.435,7,-8.63358,0\C,12,1.39306,11,113.893,8,-163.402,0\C,13,1.32146,12,116.347,11,-2.05009,0\C,14,1.45053,13,125.887,12,-169.637,0\N,15,1.31143,14,115.393,13,142.797,0\C,16,1.39648,15,108.737,14,-173.898,0\H,17,1.08261,16,120.076,15,-177.458,0\C,17,1.3377,16,112.113,15,-2.25479,0\H,19,1.08277,17,126.7,16,-176.044,0\C,13,1.45639,12,108.505,11,170.752,0\H,21,1.08338,13,126.165,12,-171.854,0\C,21,1.38858,13,111.838,12,8.32188,0\H,23,1.08181,21,125.127,13,164.326,0\C,4,1.51061,3,125.798,2,5.8543,0\C,25,1.39475,4,121.218,3,36.4892,0\H,26,1.08863,25,120.074,4,-9.6409,0\N,26,1.38865,25,121.604,4,179.866,0\C,28,1.31744,26,122.483,25,-10.556,0\C,25,1.43778,4,121.908,3,-153.233,0\H,30,1.08617,25,116.476,4,-0.0171795,0\C,30,1.3623,25,121.535,4,-171.949,0\H,32,1.08537,30,117.732,25,-177.757,0\C,29,1.51692,28,116.537,26,-168.338,0\H,34,1.09656,29,110.958,28,11.1059,0\H,34,1.09687,29,111.173,28,-102.756,0\C,34,1.5867,29,116.837,28,133.175,0\H,37,1.09635,34,111.637,29,177.938,0\H,37,1.09744,34,112.414,29,65.7709,0\C,37,1.55469,34,105.196,29,-55.5476,0\H,40,1.09718,37,119.04,34,69.3074,0\H,40,1.09771,37,111.47,34,-52.531,0\C,40,1.54754,37,109.885,34,-171.764,0\H,43,1.09676,40,108.801,37,-65.1377,0\H,43,1.09726,40,103.859,37,45.9086,0\C,43,1.54823,40,112.706,37,173.959,0\H,46,1.09655,43,109.622,40,76.3979,0\H,46,1.09677,43,112.109,40,-48.1961,0\C,46,1.50344,43,101.716,40,-163.263,0\H,49,1.0968,46,109.95,43,-65.9925,0\H,49,1.09692,46,112.862,43,52.6113,0\H,49,1.09765,46,112.148,43,179.43,0\S,15,1.70672,14,125.066,13,-20.4342,0\S,12,1.74439,11,127.739,8,14.2441,0\S,14,1.79457,13,110.13,12,-6.4233,0\H,1,2.91547,2,114.22,3,157.186,0\C,56,1.08635,1,137.911,2,158.413,0\C,57,1.3977,56,117.893,1,-141.496,0\C,57,1.40072,56,117.824,1,40.7375,0\H,59,1.08589,57,117.641,56,-4.8636,0\C,58,1.42194,57,111.966,56,176.255,0\H,61,1.08884,58,120.715,57,179.771,0\N,61,1.34558,58,125.986,57,7.79069,0\C,63,1.33606,61,119.762,58,-9.79813,0\C,58,1.45981,57,128.796,56,-0.15961,0\C,65,1.40963,58,125.03,57,28.1135,0\N,66,1.39144,65,123.486,58,-6.62511,0\C,66,1.4299,65,118.085,58,175.027,0\N,68,1.29666,66,108.917,65,-179.349,0\C,68,1.42791,66,123.595,65,7.32321,0\N,70,1.35161,68,116.162,66,-7.81731,0\C,71,1.35787,70,122.839,68,5.86579,0\H,72,1.08874,71,115.413,70,178.723,0\C,70,1.46018,68,126.587,66,176.545,0\C,74,1.36481,70,129.495,68,35.3653,0\C,75,1.41129,74,114.485,70,171.995,0\C,76,1.38203,75,114.48,74,-2.35132,0\C,76,1.3984,75,111.193,74,-178.961,0\H,78,1.08419,76,122.979,75,173.249,0\C,78,1.34442,76,111.351,75,-2.28813,0\H,80,1.08172,78,126.229,76,177.226,0\C,77,1.46612,76,125.064,75,-164.296,0\N,82,1.25389,77,112.047,76,-173.735,0\C,83,1.34129,82,112.663,77,-171.816,0\H,84,1.08173,83,118.173,82,166.839,0\C,84,1.38996,83,112.296,82,-8.33857,0\H,86,1.08106,84,129.821,83,175.991,0\C,64,1.52587,63,116.364,61,-167.128,0\H,88,1.0965,64,102.099,63,-41.0441,0\H,88,1.09722,64,114.882,63,82.7968,0\C,88,1.54305,64,107.743,63,-154.129,0\H,91,1.09706,88,108.318,64,51.2482,0\H,91,1.09715,88,108.696,64,-75.7598,0\C,91,1.58584,88,113.727,64,165.811,0\H,94,1.09702,91,110.603,88,76.0612,0\H,94,1.09705,91,106.941,88,-52.6701,0\C,94,1.53999,91,107.78,88,-164.558,0\H,97,1.09693,94,108.527,91,52.5836,0\H,97,1.09695,94,109.38,91,-64.3216,0\C,97,1.59605,94,119.45,91,172.998,0\H,100,1.09675,97,112.357,94,159.695,0\H,100,1.09778,97,108.143,94,41.9039,0\C,100,1.54558,97,111.473,94,-69.4928,0\H,103,1.09691,100,108.518,97,174.781,0\H,103,1.09701,100,107.84,97,56.1217,0\H,103,1.09706,100,106.01,97,-59.8585,0\S,69,1.62647,68,111.475,66,-4.55665,0\S,82,1.68025,77,129.717,76,5.25361,0\S,75,1.70381,74,130.747,70,-8.96976,0\S,77,1.74905,76,110.706,75,1.22245,0\\\@

 Total job time:  81.32s(wall), 957.12s(cpu) 
 Fri Oct 12 00:22:15 2018

        *************************************************************
        *                                                           *
        *  Thank you very much for using Q-Chem.  Have a nice day.  *
        *                                                           *
        *************************************************************


