
Running Job 1 of 1 ./7/81.qcin
qchem ./7/81.qcin_62070.0 /tmpu/cab_g/afmv_a/scratch_qchem/qchem62070/ 1
/tmpu/appuserlic/qchem4.4/serial-multicore/exe/qcprog.exe_s ./7/81.qcin_62070.0 /tmpu/cab_g/afmv_a/scratch_qchem/qchem62070/
Check license passed

                  Welcome to Q-Chem
     A Quantum Leap Into The Future Of Chemistry


 Q-Chem 4.4, Q-Chem, Inc., Pleasanton, CA (2016)

 Y. Shao,  Z. Gan,  E. Epifanovsky,  A. T. B. Gilbert,  M. Wormit,  
 J. Kussmann,  A. W. Lange,  A. Behn,  J. Deng,  X. Feng,  D. Ghosh,  
 M. Goldey,  P. R. Horn,  L. D. Jacobson,  I. Kaliman,  F. Rob,  
 R. Z. Khaliullin,  T. Kus,  A. Landau,  J. Liu,  E. I. Proynov,  Y. M. Rhee,  
 R. M. Richard,  M. A. Rohrdanz,  R. P. Steele,  E. J. Sundstrom,  
 H. L. Woodcock III,  P. M. Zimmerman,  D. Zuev,  B. Albrecht,  E. Alguire,  
 B. Austin,  S. A. Baeppler,  G. J. O. Beran,  Y. A. Bernard,  E. Berquist,  
 K. Brandhorst,  K. B. Bravaya,  S. T. Brown,  D. Casanova,  C.-M. Chang,  
 Y. Chen,  S. H. Chien,  K. D. Closser,  M. P. Coons,  D. L. Crittenden,  
 S. Dasgupta,  M. Diedenhofen,  R. A. DiStasio Jr.,  H. Do,  A. D. Dutoi,  
 R. G. Edgar,  P.-T. Fang,  S. Fatehi,  Q. Feng,  L. Fusti-Molnar,  
 A. Ghysels,  A. Golubeva-Zadorozhnaya,  J. Gomes,  A. Gunina,  
 M. W. D. Hanson-Heine,  P. H. P. Harbach,  A. W. Hauser,  J. E. Herr,  
 E. G. Hohenstein,  Z. C. Holden,  K. Hui,  T.-C. Jagau,  H. Ji,  B. Kaduk,  
 K. Khistyaev,  Jaehoon Kim,  Jihan Kim,  R. A. King,  P. Klunzinger,  
 K. Koh,  D. Kosenkov,  T. Kowalczyk,  C. M. Krauter,  A. Kunitsa,  
 K. U. Lao,  A. Laurent,  K. V. Lawler,  J. Lee,  D. Lefrancois,  S. Lehtola,  
 S. V. Levchenko,  C. Y. Lin,  Y.-S. Lin,  F. Liu,  E. Livshits,  
 R. C. Lochan,  A. Luenser,  P. Manohar,  S. F. Manzer,  S.-P. Mao,  Y. Mao,  
 N. Mardirossian,  A. V. Marenich,  L. A. Martinez-Martinez,  S. A. Maurer,  
 N. J. Mayhall,  J.-M. Mewes,  A. F. Morrison,  K. Nanda,  T. S. Nguyen-Beck,  
 C. M. Oana,  R. Olivares-Amaya,  D. P. O'Neill,  J. A. Parkhill,  
 T. M. Perrine,  R. Peverati,  P. A. Pieniazek,  F. Plasser,  A. Prociuk,  
 D. R. Rehn,  E. Rosta,  N. J. Russ,  N. Sergueev,  S. M. Sharada,  
 S. Sharma,  D. W. Small,  A. Sodt,  T. Stauch,  T. Stein,  D. Stuck,  
 Y.-C. Su,  A. J. W. Thom,  T. Tsuchimochi,  L. Vogt,  O. Vydrov,  T. Wang,  
 M. A. Watson,  J. Wenzel,  A. White,  C. F. Williams,  V. Vanovschi,  
 K. Yao,  S. Yeganeh,  S. R. Yost,  Z.-Q. You,  I. Y. Zhang,  X. Zhang,  
 Y. Zhao,  B. R. Brooks,  G. K. L. Chan,  D. M. Chipman,  C. J. Cramer,  
 W. A. Goddard III,  M. S. Gordon,  W. J. Hehre,  A. Klamt,  
 H. F. Schaefer III,  M. W. Schmidt,  C. D. Sherrill,  D. G. Truhlar,  
 A. Warshel,  X. Xu,  A. Aspuru-Guzik,  R. Baer,  A. T. Bell,  N. A. Besley,  
 J.-D. Chai,  A. Dreuw,  B. D. Dunietz,  T. R. Furlani,  S. R. Gwaltney,  
 C.-P. Hsu,  Y. Jung,  J. Kong,  D. S. Lambrecht,  W. Liang,  C. Ochsenfeld,  
 V. A. Rassolov,  L. V. Slipchenko,  J. E. Subotnik,  T. Van Voorhis,  
 J. M. Herbert,  A. I. Krylov,  P. M. W. Gill,  M. Head-Gordon

 Contributors to earlier versions of Q-Chem not listed above: 
 R. D. Adamson,  J. Baker,  E. F. C. Byrd,  A. K. Chakraborty,  C.-L. Cheng,  
 H. Dachsel,  R. J. Doerksen,  G. Hawkins,  A. Heyden,  S. Hirata,  
 G. Kedziora,  F. J. Keil,  C. Kelley,  P. P. Korambath,  W. Kurlancheek,  
 A. M. Lee,  M. S. Lee,  D. Liotard,  I. Lotan,  P. E. Maslen,  N. Nair,  
 D. Neuhauser,  R. Olson,  B. Peters,  J. Ritchie,  N. E. Schultz,  
 N. Shenvi,  A. C. Simmonett,  K. S. Thanthiriwatte,  Q. Wu,  W. Zhang

 Please cite Q-Chem as follows:
 Y. Shao et al., Mol. Phys. 113, 184-215 (2015)
 DOI: 10.1080/00268976.2014.952696

 Q-Chem 4.4.2 for Intel X86 Linux

 Parts of Q-Chem use Armadillo 5.200.1 (Boston Tea Smuggler).
 http://arma.sourceforge.net/

 Q-Chem begins on Fri Oct 12 00:35:41 2018  

Host: 
0

     Scratch files written to /tmpu/cab_g/afmv_a/scratch_qchem/qchem62070//
 Dec716 11556_ 22328  22283 4050   
Processing $rem in /tmpu/appuserlic/qchem4.4/serial-multicore/config/preferences.
 MEM_TOTAL  2000 
FILE_GEOM_ORG=        593

Checking the input file for inconsistencies... 	...done.

--------------------------------------------------------------
User input:
--------------------------------------------------------------
$comment
SP
$end

$rem
MEM_STATIC 5000
MEM_TOTAL 20000
JOBTYPE SP
EXCHANGE B3LYP
BASIS 6-31g(d,p)
$end

$molecule
0 1
C          27.043000     25.676000     -2.177000
C          26.603000     24.361000     -2.260000
N          26.261000     26.728000     -1.807000
C          25.238000     24.133000     -1.970000
C          24.999000     26.475000     -1.513000
C          24.366000     25.206000     -1.596000
C          22.865000     25.049000     -1.475000
C          22.329000     23.924000     -0.789000
C          21.838000     25.894000     -1.978000
N          21.017000     23.662000     -0.579000
N          22.126000     27.063000     -2.597000
C          20.451000     25.652000     -1.787000
C          20.119000     24.431000     -1.157000
S          20.662000     27.686000     -3.033000
N          19.657000     26.579000     -2.395000
C          18.702000     24.023000     -1.121000
S          17.390000     24.570000     -2.169000
C          18.241000     22.945000     -0.315000
C          16.359000     23.285000     -1.685000
S          19.059000     22.055000      0.948000
C          16.971000     22.512000     -0.718000
C          15.005000     23.167000     -2.143000
C          17.592000     21.062000      0.984000
C          16.585000     21.362000      0.028000
N          14.136000     22.731000     -1.298000
S          14.481000     23.420000     -3.773000
C          12.836000     22.601000     -1.875000
C          12.859000     22.973000     -3.210000
C          28.518000     25.987000     -2.519000
H          27.233000     23.595000     -2.701000
H          24.906000     23.104000     -2.071000
H          24.397000     27.370000     -1.357000
H          22.980000     23.235000     -0.254000
H          17.571000     20.253000      1.702000
H          15.643000     20.860000     -0.161000
H          11.978000     22.347000     -1.266000
H          12.054000     23.101000     -3.922000
H          29.074000     25.053000     -2.375000
C          29.328000     26.972000     -1.576000
H          28.511000     26.284000     -3.575000
H          29.225000     26.478000     -0.602000
H          28.820000     27.940000     -1.487000
C          30.812000     27.082000     -1.909000
H          31.164000     27.977000     -1.381000
C          31.198000     27.283000     -3.391000
H          31.373000     26.226000     -1.513000
H          30.643000     28.151000     -3.768000
H          30.850000     26.359000     -3.869000
C          32.680000     27.452000     -3.577000
H          33.039000     28.468000     -3.370000
C          33.296000     27.056000     -4.925000
H          33.169000     26.824000     -2.822000
H          34.237000     27.592000     -5.103000
H          32.617000     27.414000     -5.708000
H          33.410000     25.972000     -5.048000
C          14.422000      9.170000      3.257000
C          15.598000      9.379000      4.028000
N          13.856000     10.141000      2.544000
C          16.209000     10.639000      4.023000
C          14.424000     11.354000      2.502000
C          15.620000     11.629000      3.177000
C          16.181000     13.001000      3.334000
C          17.597000     13.216000      3.338000
C          15.390000     14.192000      3.343000
N          18.159000     14.434000      3.365000
N          14.005000     14.202000      3.374000
C          15.992000     15.443000      3.343000
C          17.399000     15.513000      3.468000
S          13.610000     15.797000      3.176000
N          15.101000     16.474000      3.269000
C          18.164000     16.798000      3.445000
S          19.760000     16.903000      2.712000
C          17.793000     17.990000      3.931000
C          19.848000     18.660000      3.113000
S          16.519000     18.439000      5.109000
C          18.679000     19.013000      3.731000
C          21.001000     19.587000      2.944000
C          17.106000     20.095000      5.033000
C          18.327000     20.236000      4.416000
N          22.015000     19.088000      2.205000
S          21.263000     21.157000      3.638000
C          23.006000     20.007000      2.074000
C          22.738000     21.145000      2.805000
C          13.659000      7.840000      3.251000
H          15.962000      8.602000      4.692000
H          17.115000     10.762000      4.609000
H          14.080000     12.054000      1.742000
H          18.275000     12.366000      3.277000
H          16.575000     20.822000      5.633000
H          18.972000     21.107000      4.433000
H          23.914000     19.835000      1.510000
H          23.324000     22.052000      2.866000
H          13.242000      7.808000      2.237000
C          12.583000      7.633000      4.366000
H          14.323000      6.976000      3.375000
H          11.834000      8.430000      4.287000
H          13.149000      7.685000      5.304000
C          11.917000      6.188000      4.372000
H          12.674000      5.401000      4.262000
C          10.911000      6.071000      3.258000
H          11.470000      5.998000      5.356000
H          11.304000      5.441000      2.450000
H          10.570000      7.057000      2.917000
C           9.541000      5.509000      3.720000
H           9.233000      6.163000      4.546000
C           9.503000      4.042000      4.239000
H           8.797000      5.581000      2.917000
H          10.085000      3.386000      3.580000
H           8.460000      3.707000      4.182000
H           9.806000      3.878000      5.280000
$end

--------------------------------------------------------------
 ----------------------------------------------------------------
             Standard Nuclear Orientation (Angstroms)
    I     Atom           X                Y                Z
 ----------------------------------------------------------------
    1      C     -10.1736028695     2.4841342119    -0.9601654979
    2      C      -8.9393970029     2.7691152171    -1.5304599004
    3      N     -10.4130181804     1.4335607677    -0.1270366079
    4      C      -7.8868984989     1.8713335215    -1.2379809676
    5      C      -9.4005036872     0.6327632521     0.1497787456
    6      C      -8.0886148259     0.7387275989    -0.3846912469
    7      C      -7.0585127290    -0.3562139631    -0.2050147434
    8      C      -5.6954730589    -0.0105334498     0.0097987580
    9      C      -7.2441164885    -1.7657447888    -0.2281900723
   10      N      -4.6706595040    -0.8727183396     0.2110011274
   11      N      -8.4768980564    -2.3133991451    -0.3421651211
   12      C      -6.1961027539    -2.7043594813    -0.0294850869
   13      C      -4.8949470199    -2.1625501116     0.0772920773
   14      S      -8.2194543217    -3.9428347382    -0.3557065928
   15      N      -6.6098379336    -3.9993489644    -0.1355720313
   16      C      -3.7468998634    -3.0886103974     0.0702868262
   17      S      -3.6933654455    -4.7434000079    -0.5442556142
   18      C      -2.4294994003    -2.6696263885     0.4066637280
   19      C      -1.9766361320    -4.7777558609    -0.5341492120
   20      S      -1.8727840219    -1.1744249514     1.1213900041
   21      C      -1.4723520823    -3.5981695575    -0.0228413301
   22      C      -1.2257143240    -5.9502165955    -0.8783239700
   23      C      -0.2503387873    -1.8448495239     0.8813142797
   24      C      -0.1609094141    -3.1005158042     0.2230669252
   25      N      -0.1476455686    -6.1734116005    -0.2095685974
   26      S      -1.5730570637    -6.9976969068    -2.2115992673
   27      C       0.5472404005    -7.3324820930    -0.6716487673
   28      C      -0.1266631572    -7.9088848895    -1.7368960678
   29      C     -11.3681938113     3.4128435943    -1.2760157227
   30      H      -8.8489556553     3.5306958192    -2.2985434565
   31      H      -6.9384958398     2.0932785851    -1.7181255136
   32      H      -9.6860292147    -0.2583244822     0.7085298736
   33      H      -5.4000026561     1.0264022778     0.1588240512
   34      H       0.5805578561    -1.2337180300     1.2077726464
   35      H       0.7177260197    -3.6642646433    -0.0689536575
   36      H       1.4136674317    -7.7107887948    -0.1446295656
   37      H       0.0446907862    -8.8401797023    -2.2609960560
   38      H     -10.9413268678     4.3779474951    -1.5736515290
   39      C     -12.3241979193     3.8554265213    -0.0903722273
   40      H     -11.8886371807     2.9351843760    -2.1152858642
   41      H     -11.6127828394     4.3190098012     0.6041060853
   42      H     -12.7391034666     2.9828445093     0.4287260478
   43      C     -13.3685323770     4.8958375570    -0.4804432688
   44      H     -14.1059325820     4.8879278850     0.3318937146
   45      C     -14.1658041009     4.6540905535    -1.7810728028
   46      H     -12.9327114265     5.9022910928    -0.5176505178
   47      H     -14.6088899518     3.6521962203    -1.7222453111
   48      H     -13.3945358069     4.6951347373    -2.5600622723
   49      C     -15.2123185337     5.7078242800    -2.0133092675
   50      H     -16.1366292838     5.5465405385    -1.4444303769
   51      C     -15.6516701865     5.9945595608    -3.4548809806
   52      H     -14.8064927977     6.6501992692    -1.6250247693
   53      H     -16.6593383036     6.4284814690    -3.4827690327
   54      H     -15.7489933965     5.0269394731    -3.9613724009
   55      H     -14.9280438368     6.5975320867    -4.0169931037
   56      C      11.2932975346     2.3064483086    -1.5978548904
   57      C      10.6655310322     3.3845935725    -0.9162318213
   58      N      10.6832695888     1.1411916655    -1.8018373921
   59      C       9.3484616599     3.2386179332    -0.4635007960
   60      C       9.4166169658     0.9730235891    -1.3980210592
   61      C       8.6998078525     2.0046657115    -0.7786946295
   62      C       7.3724905733     1.8110334104    -0.1287028048
   63      C       6.3832134348     2.8461232147    -0.1635860423
   64      C       6.9305013836     0.5728802004     0.4333160426
   65      N       5.1357635130     2.6916065316     0.3055517704
   66      N       7.7403394078    -0.5403699716     0.5886300120
   67      C       5.6269496657     0.4257189391     0.8877403839
   68      C       4.7874807441     1.5637758418     0.9048405556
   69      S       6.7011599345    -1.7264426177     1.0912150304
   70      N       5.3416524482    -0.8374656458     1.3181915448
   71      C       3.3563786220     1.5239385007     1.3376669670
   72      S       2.1373840819     2.5353865699     0.5717981047
   73      C       2.8032309371     0.7695336476     2.2966257546
   74      C       0.8622212800     1.8396127998     1.6420563396
   75      S       3.5383918288    -0.1267906425     3.6635574392
   76      C       1.4508353141     0.9059699540     2.4513390809
   77      C      -0.5642505798     2.2495234133     1.7622658322
   78      C       1.9138972692    -0.5141236351     4.2146214814
   79      C       0.9192539569     0.2118439806     3.6021945860
   80      N      -0.9854548516     3.0950910366     0.7974236918
   81      S      -1.7158734146     1.8780449452     3.0076366984
   82      C      -2.3005069096     3.3899000597     0.9633415168
   83      C      -2.8034441615     2.8205799235     2.1140620316
   84      C      12.7492807589     2.3618318152    -2.0755059322
   85      H      11.2320132048     4.2737603152    -0.6601040175
   86      H       8.8914990141     4.0860310979     0.0389303622
   87      H       8.8699197432     0.1097052448    -1.7745042370
   88      H       6.6169710719     3.8047163148    -0.6244131635
   89      H       1.8402764356    -1.1276391397     5.1026916917
   90      H      -0.1154073787     0.2968242694     3.9139785998
   91      H      -2.8592084283     4.0378019698     0.2998509533
   92      H      -3.8186155580     2.8531412787     2.4857242357
   93      H      12.7304834506     1.7325758431    -2.9737222663
   94      C      13.8502601851     1.9379965813    -1.0498071472
   95      H      13.0541620352     3.3725766569    -2.3725080743
   96      H      13.6587189057     0.9062699461    -0.7315256860
   97      H      13.7453542326     2.6542144077    -0.2258345953
   98      C      15.3405169943     2.1334958979    -1.5718527964
   99      H      15.4663513950     3.1090341483    -2.0586883186
  100      C      15.7020502312     1.0414803184    -2.5432006705
  101      H      16.0242627326     2.1687224385    -0.7142888885
  102      H      15.7236313055     1.4311847021    -3.5688115863
  103      H      15.0543867752     0.1635406283    -2.4227351227
  104      C      17.0602728183     0.3610576848    -2.2294420955
  105      H      16.9758846026     0.0332859834    -1.1852676173
  106      C      18.3456023547     1.2307578887    -2.3496233687
  107      H      17.2129039892    -0.5204051371    -2.8644665196
  108      H      18.3187338285     1.8315293051    -3.2670615342
  109      H      19.1934312054     0.5412296601    -2.4448077261
  110      H      18.5877573996     1.8754142438    -1.4962974533
 ----------------------------------------------------------------
 Molecular Point Group                 C1    NOp =  1
 Largest Abelian Subgroup              C1    NOp =  1
 Nuclear Repulsion Energy = 10831.2047572346 hartrees
 There are      270 alpha and      270 beta electrons
 Requested basis set is 6-31G(d,p)
 There are 406 shells and 1262 basis functions

 Total QAlloc Memory Limit  20000 MB
 Mega-Array Size      4888 MB
 MEM_STATIC part      5000 MB
 A cutoff of  1.0D-08 yielded  12909 shell pairs
 There are    135515 function pairs
 
 -------------------------------------------------------
 OpenMP Integral Computing Module                       
 Release: version 1.0, May 2013, Q-Chem Inc. Pittsburgh 
 -------------------------------------------------------
 Integral Job Info:
 Integral job number is                      11
 Integral operator is                         1
 short-range coefficients                     0
 long-range coefficients              100000000
 Omega coefficients                           0
 if combine SR and LR in K                    0
 Integral screening is                        0
 Integral computing path is                   2
 max size of driver memory is            800000
 size of driver memory is                593474
 size of scratch memory is             15166112
 max col of scratch BK array               1296
 max len of scratch array in speh3          155
 max len of scratch index in speh4           18
 max int batch size is                      520
 min int batch size is                       52
 fixed nKL is                                52
 max L of basis functions is                  2
 order of int derivative is                   0
 number of shells is                        406
 number of basis is                        1262
 number of cartesian basis is              1262
 number of contracted shell pairs         12909
 number of primitive shell pairs          42103
 maxK2 (contraction) of shell pair           36
 max number of K2 of shell pair               1
 max number of CS2 of shell pair           1312
 max number of PS2 of shell pair           7800
 mem total for path MDJ                  279128
 -------------------------------------------------------
 Smallest overlap matrix eigenvalue = 4.53E-04

 Scale SEOQF with 1.000000e-03/1.000000e-02/1.000000e-01

 Standard Electronic Orientation quadrupole field applied
 Nucleus-field energy     =    -0.0000001015 hartrees
 Guess from superposition of atomic densities
 Warning:  Energy on first SCF cycle will be non-variational
 A restricted hybrid HF-DFT SCF calculation will be
 performed using Pulay DIIS extrapolation
 Exchange:     0.2000 Hartree-Fock + 0.0800 Slater + 0.7200 B88
 Correlation:  0.1900 VWN1RPA + 0.8100 LYP
 Using SG-1 standard quadrature grid
 SCF converges when DIIS error is below 1.0E-05
 using 16 threads for integral computing 
 -------------------------------------------------------
 OpenMP BLAS3 based DFT computing Module                
 Release: version 1.0, May 2013, Q-Chem Inc. Pittsburgh 
 -------------------------------------------------------
 ---------------------------------------
  Cycle       Energy         DIIS Error
 ---------------------------------------
    1   -5679.8472846381      2.14E-02
    2   -5662.4843370074      2.18E-03
    3   -5660.7586052863      3.50E-03
    4   -5663.2730172242      1.04E-03
    5   -5663.4792289687      4.55E-04
    6   -5663.5004193828      3.22E-04
    7   -5663.5195537239      9.82E-05
    8   -5663.5213070602      3.15E-05
    9   -5663.5214744617      1.57E-05
   10   -5663.5215287839      5.33E-06 Convergence criterion met
 ---------------------------------------
 SCF time:  CPU 1041.05 s  wall 86.18 s
 SCF   energy in the final basis set = -5663.5215287839
 Total energy in the final basis set = -5663.5215287839
 
 --------------------------------------------------------------
 
                    Orbital Energies (a.u.)
 --------------------------------------------------------------
 
 Alpha MOs
 -- Occupied --
-88.992 -88.987 -88.934 -88.924 -88.922 -88.921 -88.909 -88.908
-14.389 -14.388 -14.386 -14.380 -14.350 -14.347 -14.340 -14.339
-14.330 -14.328 -10.269 -10.262 -10.262 -10.259 -10.259 -10.257
-10.256 -10.255 -10.242 -10.240 -10.240 -10.236 -10.235 -10.234
-10.234 -10.233 -10.231 -10.230 -10.230 -10.230 -10.228 -10.228
-10.228 -10.224 -10.223 -10.223 -10.223 -10.222 -10.218 -10.217
-10.217 -10.217 -10.206 -10.203 -10.202 -10.200 -10.200 -10.193
-10.187 -10.186 -10.185 -10.180 -10.179 -10.178 -10.176 -10.174
-10.174 -10.173 -10.171 -10.171  -8.047  -8.042  -7.995  -7.986
 -7.981  -7.979  -7.968  -7.968  -6.012  -6.008  -6.006  -6.005
 -6.002  -6.000  -5.959  -5.956  -5.952  -5.950  -5.946  -5.946
 -5.943  -5.942  -5.942  -5.939  -5.938  -5.935  -5.933  -5.932
 -5.929  -5.929  -5.924  -5.924  -1.032  -1.030  -0.967  -0.967
 -0.964  -0.962  -0.944  -0.939  -0.916  -0.907  -0.900  -0.895
 -0.843  -0.839  -0.833  -0.826  -0.816  -0.809  -0.805  -0.805
 -0.804  -0.801  -0.795  -0.793  -0.783  -0.782  -0.765  -0.764
 -0.749  -0.745  -0.740  -0.738  -0.725  -0.717  -0.709  -0.704
 -0.693  -0.690  -0.674  -0.671  -0.658  -0.656  -0.647  -0.641
 -0.635  -0.634  -0.628  -0.623  -0.612  -0.607  -0.600  -0.594
 -0.593  -0.586  -0.585  -0.582  -0.579  -0.575  -0.556  -0.554
 -0.549  -0.545  -0.544  -0.540  -0.526  -0.517  -0.516  -0.511
 -0.510  -0.506  -0.503  -0.496  -0.484  -0.480  -0.476  -0.476
 -0.473  -0.470  -0.467  -0.466  -0.465  -0.464  -0.452  -0.447
 -0.445  -0.441  -0.437  -0.435  -0.433  -0.433  -0.430  -0.430
 -0.426  -0.424  -0.420  -0.420  -0.419  -0.417  -0.414  -0.413
 -0.411  -0.406  -0.405  -0.404  -0.404  -0.401  -0.400  -0.394
 -0.394  -0.394  -0.390  -0.390  -0.389  -0.386  -0.382  -0.382
 -0.379  -0.378  -0.376  -0.373  -0.366  -0.363  -0.360  -0.356
 -0.354  -0.352  -0.346  -0.345  -0.344  -0.343  -0.342  -0.340
 -0.336  -0.333  -0.332  -0.330  -0.328  -0.327  -0.320  -0.319
 -0.315  -0.312  -0.312  -0.311  -0.302  -0.300  -0.297  -0.297
 -0.295  -0.294  -0.292  -0.289  -0.287  -0.284  -0.281  -0.279
 -0.277  -0.274  -0.268  -0.267  -0.254  -0.251  -0.251  -0.249
 -0.246  -0.242  -0.232  -0.226  -0.194  -0.192
 -- Virtual --
 -0.114  -0.109  -0.073  -0.063  -0.040  -0.035  -0.030  -0.023
 -0.019  -0.017  -0.013  -0.011  -0.007  -0.003   0.000   0.001
  0.003   0.005   0.010   0.019   0.027   0.030   0.035   0.039
  0.047   0.053   0.060   0.064   0.065   0.086   0.088   0.090
  0.097   0.097   0.098   0.101   0.106   0.108   0.110   0.111
  0.113   0.115   0.116   0.119   0.122   0.123   0.126   0.128
  0.129   0.133   0.135   0.137   0.142   0.143   0.144   0.147
  0.150   0.151   0.153   0.154   0.154   0.156   0.158   0.160
  0.162   0.166   0.169   0.172   0.173   0.174   0.177   0.178
  0.179   0.182   0.186   0.188   0.192   0.193   0.199   0.202
  0.205   0.206   0.206   0.207   0.211   0.212   0.217   0.220
  0.222   0.223   0.227   0.230   0.232   0.233   0.236   0.239
  0.242   0.244   0.249   0.250   0.254   0.256   0.257   0.260
  0.262   0.267   0.271   0.272   0.275   0.278   0.279   0.280
  0.283   0.287   0.289   0.291   0.293   0.293   0.299   0.301
  0.306   0.309   0.312   0.317   0.319   0.323   0.324   0.324
  0.329   0.329   0.330   0.335   0.336   0.339   0.340   0.341
  0.345   0.350   0.354   0.357   0.362   0.364   0.366   0.369
  0.375   0.377   0.383   0.387   0.389   0.390   0.396   0.398
  0.402   0.406   0.416   0.417   0.426   0.427   0.432   0.438
  0.442   0.444   0.455   0.456   0.459   0.462   0.466   0.471
  0.475   0.478   0.485   0.487   0.492   0.498   0.499   0.500
  0.500   0.503   0.504   0.507   0.512   0.516   0.518   0.519
  0.521   0.526   0.527   0.529   0.531   0.532   0.537   0.538
  0.539   0.540   0.542   0.545   0.546   0.546   0.547   0.550
  0.552   0.554   0.556   0.556   0.560   0.562   0.565   0.566
  0.567   0.571   0.572   0.573   0.576   0.580   0.581   0.584
  0.585   0.586   0.589   0.591   0.594   0.594   0.597   0.598
  0.600   0.600   0.603   0.605   0.606   0.607   0.613   0.613
  0.615   0.619   0.620   0.622   0.626   0.627   0.628   0.631
  0.631   0.633   0.634   0.636   0.640   0.640   0.642   0.643
  0.649   0.651   0.653   0.657   0.661   0.663   0.669   0.671
  0.672   0.676   0.677   0.680   0.683   0.684   0.691   0.693
  0.694   0.695   0.701   0.703   0.705   0.708   0.714   0.719
  0.722   0.727   0.730   0.732   0.734   0.736   0.737   0.745
  0.745   0.752   0.752   0.757   0.760   0.764   0.767   0.771
  0.772   0.775   0.777   0.778   0.783   0.788   0.789   0.794
  0.796   0.798   0.802   0.804   0.806   0.806   0.807   0.810
  0.813   0.814   0.817   0.819   0.820   0.821   0.823   0.824
  0.826   0.829   0.829   0.831   0.833   0.835   0.836   0.837
  0.842   0.843   0.844   0.849   0.849   0.850   0.852   0.855
  0.857   0.860   0.862   0.863   0.865   0.865   0.870   0.871
  0.872   0.873   0.877   0.878   0.880   0.883   0.885   0.889
  0.890   0.891   0.895   0.895   0.898   0.901   0.904   0.905
  0.909   0.914   0.915   0.916   0.919   0.920   0.923   0.927
  0.929   0.932   0.934   0.940   0.940   0.941   0.945   0.947
  0.948   0.950   0.952   0.954   0.956   0.957   0.960   0.960
  0.964   0.965   0.968   0.969   0.971   0.973   0.974   0.979
  0.980   0.982   0.986   0.987   0.991   0.992   0.996   0.999
  1.000   1.003   1.005   1.006   1.008   1.011   1.016   1.019
  1.021   1.025   1.029   1.034   1.039   1.040   1.042   1.043
  1.046   1.054   1.056   1.061   1.068   1.068   1.073   1.076
  1.079   1.085   1.090   1.093   1.094   1.100   1.103   1.105
  1.109   1.118   1.122   1.125   1.130   1.134   1.139   1.141
  1.148   1.149   1.152   1.155   1.164   1.166   1.168   1.178
  1.187   1.190   1.196   1.202   1.205   1.209   1.215   1.223
  1.227   1.234   1.240   1.244   1.246   1.254   1.260   1.263
  1.268   1.274   1.275   1.286   1.289   1.290   1.298   1.302
  1.305   1.309   1.314   1.315   1.320   1.326   1.328   1.333
  1.336   1.340   1.346   1.348   1.351   1.362   1.363   1.366
  1.369   1.371   1.375   1.378   1.382   1.387   1.389   1.391
  1.393   1.399   1.399   1.405   1.407   1.412   1.421   1.421
  1.426   1.428   1.434   1.446   1.448   1.452   1.453   1.458
  1.463   1.471   1.477   1.482   1.495   1.497   1.513   1.521
  1.526   1.531   1.535   1.548   1.553   1.554   1.556   1.558
  1.569   1.580   1.583   1.586   1.588   1.591   1.600   1.606
  1.609   1.620   1.622   1.633   1.645   1.646   1.646   1.656
  1.661   1.662   1.671   1.677   1.679   1.681   1.685   1.688
  1.692   1.696   1.697   1.703   1.710   1.711   1.715   1.717
  1.718   1.721   1.727   1.731   1.735   1.737   1.740   1.741
  1.752   1.755   1.755   1.760   1.760   1.773   1.774   1.776
  1.777   1.789   1.791   1.795   1.795   1.801   1.806   1.810
  1.814   1.826   1.826   1.832   1.835   1.836   1.842   1.843
  1.846   1.846   1.852   1.853   1.858   1.861   1.866   1.867
  1.869   1.871   1.875   1.876   1.880   1.882   1.886   1.889
  1.894   1.898   1.905   1.912   1.920   1.924   1.927   1.928
  1.932   1.934   1.936   1.939   1.946   1.949   1.951   1.952
  1.955   1.961   1.963   1.974   1.981   1.981   1.988   1.991
  1.994   1.997   2.002   2.007   2.013   2.016   2.017   2.024
  2.031   2.033   2.049   2.050   2.054   2.058   2.062   2.063
  2.067   2.071   2.081   2.085   2.086   2.091   2.097   2.099
  2.100   2.102   2.106   2.118   2.119   2.122   2.129   2.130
  2.130   2.133   2.133   2.139   2.140   2.143   2.152   2.155
  2.165   2.172   2.173   2.177   2.180   2.186   2.192   2.196
  2.198   2.200   2.205   2.208   2.211   2.215   2.216   2.224
  2.225   2.229   2.239   2.241   2.242   2.249   2.250   2.254
  2.257   2.258   2.261   2.266   2.270   2.271   2.272   2.278
  2.279   2.285   2.290   2.293   2.295   2.300   2.302   2.308
  2.312   2.313   2.315   2.317   2.322   2.325   2.328   2.332
  2.336   2.338   2.340   2.345   2.348   2.349   2.354   2.359
  2.361   2.366   2.369   2.372   2.377   2.384   2.387   2.388
  2.395   2.400   2.402   2.403   2.405   2.407   2.411   2.418
  2.420   2.424   2.424   2.426   2.431   2.433   2.434   2.441
  2.444   2.445   2.452   2.456   2.462   2.464   2.471   2.472
  2.474   2.477   2.480   2.486   2.491   2.492   2.495   2.496
  2.499   2.511   2.514   2.519   2.526   2.530   2.531   2.531
  2.544   2.545   2.547   2.547   2.551   2.554   2.555   2.556
  2.558   2.564   2.570   2.573   2.583   2.584   2.586   2.589
  2.598   2.599   2.607   2.613   2.623   2.628   2.637   2.638
  2.649   2.652   2.653   2.657   2.658   2.658   2.664   2.669
  2.673   2.675   2.681   2.683   2.686   2.691   2.693   2.695
  2.698   2.700   2.704   2.710   2.717   2.719   2.724   2.732
  2.739   2.741   2.749   2.751   2.760   2.764   2.769   2.771
  2.780   2.781   2.794   2.800   2.804   2.807   2.811   2.819
  2.822   2.825   2.832   2.843   2.851   2.857   2.859   2.860
  2.863   2.884   2.887   2.889   2.895   2.895   2.898   2.901
  2.913   2.919   2.921   2.925   2.927   2.939   2.944   2.957
  2.965   2.966   2.968   2.981   2.982   2.990   3.011   3.016
  3.021   3.035   3.044   3.067   3.076   3.079   3.100   3.117
  3.161   3.166   3.178   3.183   3.191   3.199   3.224   3.226
  3.238   3.241   3.250   3.254   3.262   3.268   3.268   3.270
  3.278   3.294   3.301   3.308   3.311   3.312   3.316   3.321
  3.332   3.335   3.377   3.382   3.389   3.409   3.420   3.428
  3.429   3.439   3.443   3.464   3.465   3.487   3.512   3.528
  3.546   3.547   3.551   3.562   3.567   3.583   3.593   3.603
  3.636   3.639   3.705   3.729   3.839   3.855   3.914   3.933
  3.936   3.941   3.941   3.955   3.960   3.969   3.988   3.991
  4.024   4.062   4.072   4.074   4.083   4.093   4.105   4.112
  4.120   4.127   4.137   4.150   4.162   4.166   4.170   4.194
  4.200   4.236   4.239   4.253   4.254   4.255   4.263   4.268
  4.291   4.299   4.304   4.313   4.375   4.377   4.383   4.386
  4.422   4.430   4.436   4.438   4.460   4.476   4.485   4.492
  4.508   4.518   4.529   4.536   4.583   4.621   4.654   4.670
  4.687   4.705   4.710   4.715   4.721   4.757   4.774   4.779
 --------------------------------------------------------------
 
          Ground-State Mulliken Net Atomic Charges

     Atom                 Charge (a.u.)
  ----------------------------------------
      1 C                     0.254640
      2 C                    -0.109800
      3 N                    -0.472525
      4 C                    -0.085312
      5 C                     0.084510
      6 C                     0.029207
      7 C                     0.047795
      8 C                     0.035130
      9 C                     0.187051
     10 N                    -0.517993
     11 N                    -0.549993
     12 C                     0.234526
     13 C                     0.315080
     14 S                     0.606202
     15 N                    -0.555655
     16 C                    -0.242253
     17 S                     0.325719
     18 C                    -0.128161
     19 C                    -0.231138
     20 S                     0.317840
     21 C                     0.171456
     22 C                     0.063438
     23 C                    -0.326279
     24 C                    -0.052654
     25 N                    -0.427476
     26 S                     0.259912
     27 C                     0.110678
     28 C                    -0.303860
     29 C                    -0.232413
     30 H                     0.098659
     31 H                     0.098041
     32 H                     0.114006
     33 H                     0.104853
     34 H                     0.134421
     35 H                     0.114151
     36 H                     0.124170
     37 H                     0.132404
     38 H                     0.094115
     39 C                    -0.182507
     40 H                     0.121560
     41 H                     0.094615
     42 H                     0.116974
     43 C                    -0.187036
     44 H                     0.093976
     45 C                    -0.165028
     46 H                     0.088684
     47 H                     0.094677
     48 H                     0.094628
     49 C                    -0.175196
     50 H                     0.093608
     51 C                    -0.322645
     52 H                     0.090109
     53 H                     0.101187
     54 H                     0.100763
     55 H                     0.103032
     56 C                     0.266610
     57 C                    -0.111781
     58 N                    -0.478685
     59 C                    -0.072601
     60 C                     0.107824
     61 C                     0.013825
     62 C                     0.029138
     63 C                     0.059136
     64 C                     0.202832
     65 N                    -0.504378
     66 N                    -0.550409
     67 C                     0.239516
     68 C                     0.276007
     69 S                     0.614953
     70 N                    -0.548494
     71 C                    -0.244536
     72 S                     0.343431
     73 C                    -0.088628
     74 C                    -0.212072
     75 S                     0.260824
     76 C                     0.107622
     77 C                     0.036388
     78 C                    -0.296159
     79 C                    -0.068681
     80 N                    -0.432299
     81 S                     0.310453
     82 C                     0.136534
     83 C                    -0.321945
     84 C                    -0.218035
     85 H                     0.090765
     86 H                     0.108398
     87 H                     0.111453
     88 H                     0.113059
     89 H                     0.132874
     90 H                     0.112935
     91 H                     0.117734
     92 H                     0.128208
     93 H                     0.120827
     94 C                    -0.180272
     95 H                     0.091057
     96 H                     0.110695
     97 H                     0.086343
     98 C                    -0.178946
     99 H                     0.091563
    100 C                    -0.163382
    101 H                     0.094898
    102 H                     0.092196
    103 H                     0.101723
    104 C                    -0.187091
    105 H                     0.092215
    106 C                    -0.321736
    107 H                     0.091181
    108 H                     0.098970
    109 H                     0.101221
    110 H                     0.102830
  ----------------------------------------
  Sum of atomic charges =     0.000000

 -----------------------------------------------------------------
                    Cartesian Multipole Moments
 -----------------------------------------------------------------
    Charge (ESU x 10^10)
                 0.0000
    Dipole Moment (Debye)
         X       1.5468      Y      -0.0690      Z       0.1830
       Tot       1.5591
    Quadrupole Moments (Debye-Ang)
        XX    -432.0395     XY      -1.0618     YY    -409.8526
        XZ       9.1338     YZ       3.2170     ZZ    -438.2742
    Octopole Moments (Debye-Ang^2)
       XXX     379.7353    XXY     257.8055    XYY      61.4578
       YYY    -224.4667    XXZ     -17.4254    XYZ      -7.1754
       YYZ    -107.3184    XZZ     -29.4244    YZZ     -32.3955
       ZZZ      55.3669
    Hexadecapole Moments (Debye-Ang^3)
      XXXX -176960.6367   XXXY    2317.7890   XXYY  -32297.7262
      XYYY     -81.7913   YYYY  -26075.3921   XXXZ     732.9220
      XXYZ    -386.6212   XYYZ     119.6475   YYYZ     648.5638
      XXZZ  -31257.2987   XYZZ     -58.1794   YYZZ   -5922.0119
      XZZZ       4.3338   YZZZ     -36.9352   ZZZZ   -7377.7062
 -----------------------------------------------------------------
Archival summary:
1\1\mn246\SP\ProcedureUnspecified\6-31G**\8105042\afmv_a\FriOct1200:37:102018FriOct1200:37:102018\0\\#,ProcedureUnspecified,6-31G**,\\0,1\S\C,1,1.74825\C,2,1.401,1,118.334\C,3,1.381,2,115.477,1,-177.787,0\C,2,1.42276,1,130.044,3,174.129,0\C,3,1.42408,2,110.158,1,0.169676,0\H,6,1.08402,3,121.21,2,178.109,0\C,6,1.42056,3,109.325,2,-2.59303,0\H,8,1.08187,6,126.213,3,-179.081,0\C,4,1.43423,3,126.578,2,171.368,0\N,10,1.28813,4,117.081,3,-29.6916,0\C,11,1.42823,10,112.324,4,177.555,0\H,12,1.08239,11,121.036,10,173.448,0\C,12,1.38605,11,110.462,10,-0.492799,0\H,14,1.08229,12,130.771,11,172.663,0\C,5,1.47501,2,122.322,1,-10.9969,0\N,16,1.316,5,118.893,2,-9.91348,0\C,17,1.35429,16,118.68,5,-169.851,0\H,18,1.08846,17,112.38,16,-179.28,0\C,16,1.41349,5,118.389,2,168.647,0\N,20,1.36361,16,130.481,5,-0.484095,0\C,20,1.42085,16,115.87,5,170.501,0\N,22,1.35376,20,114.596,16,-179.28,0\C,22,1.42189,20,123.8,16,5.6328,0\C,24,1.51403,22,128.768,20,179.191,0\C,25,1.42054,24,121.987,22,-38.1476,0\H,26,1.08985,25,119.725,24,-0.0433696,0\N,26,1.32026,25,125.741,24,169.046,0\C,28,1.36203,26,117.47,25,2.51908,0\C,29,1.38914,28,124.439,26,0.244743,0\H,30,1.08542,29,120.563,28,-170.859,0\C,30,1.41397,29,116.498,28,-1.75826,0\H,32,1.08594,30,115.395,29,-178.133,0\C,29,1.54574,28,116.909,26,-179.97,0\H,34,1.09646,29,106.465,28,-156.65,0\H,34,1.09699,29,105.151,28,85.3644,0\C,34,1.58606,29,118.733,28,-43.6755,0\H,37,1.09682,34,111.088,29,56.1839,0\H,37,1.09696,34,101.554,29,-56.5981,0\C,37,1.52488,34,114.329,29,-173.237,0\H,40,1.09714,37,105.426,34,-164.645,0\H,40,1.09739,37,111.25,34,79.2697,0\C,40,1.54458,37,117.524,34,-46.8729,0\H,43,1.09698,40,103.25,37,63.8634,0\H,43,1.09708,40,107.834,37,-53.5348,0\C,43,1.50316,40,112.318,37,-176.843,0\H,46,1.09706,43,106.855,40,-34.0531,0\H,46,1.09726,43,113.787,40,81.0349,0\C,46,1.53407,43,118.399,40,-153.656,0\H,49,1.09649,46,107.13,43,-41.9151,0\H,49,1.0969,46,113.289,43,76.9239,0\H,49,1.09748,46,111.146,43,-155.874,0\S,21,1.62558,20,106.138,16,175.068,0\S,4,1.7171,3,110.498,2,-1.94004,0\S,10,1.73075,4,125.068,3,144.197,0\C,9,2.62338,8,149.155,6,175.667,0\C,56,1.36804,9,101.128,8,179.782,0\C,57,1.33966,56,115.656,9,-101.306,0\C,56,1.36861,9,97.6676,8,62.0784,0\C,56,1.44529,9,82.168,8,-67.2409,0\H,60,1.08395,56,122.852,9,87.077,0\C,60,1.37529,56,110.005,9,-94.133,0\H,62,1.08189,60,128,56,-179.15,0\C,59,1.48906,56,123.509,9,-81.0427,0\N,64,1.3503,59,114.426,56,174.418,0\C,65,1.35787,64,110.533,59,-178.483,0\H,66,1.08266,65,123.698,64,179.061,0\C,66,1.37885,65,111.443,64,-4.18723,0\H,68,1.08156,66,128.077,65,177.668,0\C,58,1.49565,57,128.114,56,177.885,0\N,70,1.3238,58,113.919,57,157.033,0\C,71,1.34168,70,120.068,58,178.301,0\H,72,1.08899,71,116.675,70,178.525,0\C,70,1.41428,58,123.368,57,-34.9025,0\N,74,1.36467,70,128.094,58,4.43384,0\C,74,1.38831,70,118.424,58,-178.341,0\N,76,1.38538,74,115.277,70,-172.814,0\C,76,1.42977,74,120.712,70,6.18744,0\C,78,1.49055,76,124,74,172.732,0\C,79,1.40059,78,123.565,76,-27.0943,0\H,80,1.08901,79,118.677,78,-24.6233,0\N,80,1.34006,79,121.639,78,170.359,0\C,82,1.331,80,119.795,79,-0.993188,0\C,83,1.42165,82,122.346,80,-2.31361,0\H,84,1.08495,83,120.275,82,-172.42,0\C,84,1.40034,83,119.424,82,1.41419,0\H,86,1.08598,84,117.645,83,179.006,0\C,83,1.53333,82,114.777,80,-178.641,0\H,88,1.09671,83,112.434,82,-150.834,0\H,88,1.09686,83,102.598,82,-34.8688,0\C,88,1.56328,83,117.037,82,89.6797,0\H,91,1.09656,88,108.815,83,-58.7914,0\H,91,1.09677,88,104.39,83,61.3067,0\C,91,1.59111,88,114.271,83,175.224,0\H,94,1.09734,91,109.338,88,-159.701,0\H,94,1.09751,91,111.232,88,-45.0677,0\C,94,1.50556,91,110.333,88,76.4434,0\H,97,1.09737,94,110.495,91,-106.336,0\H,97,1.09761,94,111.571,91,20.8886,0\C,97,1.55119,94,113.448,91,130.753,0\H,100,1.09705,97,110.927,94,-171.511,0\H,100,1.09766,97,104.838,94,-54.2994,0\C,100,1.55656,97,117.537,94,65.2073,0\H,103,1.09653,100,116.792,97,-81.6092,0\H,103,1.09696,100,107.08,97,160.529,0\H,103,1.09697,100,110.508,97,44.4554,0\S,75,1.64014,74,106.545,70,178.462,0\S,68,1.69401,66,115.835,65,1.60597,0\S,62,1.7586,60,114.348,56,-12.4083,0\S,58,1.75941,57,110.442,56,-1.77231,0\\\@

 Total job time:  89.25s(wall), 1050.90s(cpu) 
 Fri Oct 12 00:37:10 2018

        *************************************************************
        *                                                           *
        *  Thank you very much for using Q-Chem.  Have a nice day.  *
        *                                                           *
        *************************************************************


