
Running Job 1 of 1 ./7/85.qcin
qchem ./7/85.qcin_62231.0 /tmpu/cab_g/afmv_a/scratch_qchem/qchem62231/ 1
/tmpu/appuserlic/qchem4.4/serial-multicore/exe/qcprog.exe_s ./7/85.qcin_62231.0 /tmpu/cab_g/afmv_a/scratch_qchem/qchem62231/
Check license passed

                  Welcome to Q-Chem
     A Quantum Leap Into The Future Of Chemistry


 Q-Chem 4.4, Q-Chem, Inc., Pleasanton, CA (2016)

 Y. Shao,  Z. Gan,  E. Epifanovsky,  A. T. B. Gilbert,  M. Wormit,  
 J. Kussmann,  A. W. Lange,  A. Behn,  J. Deng,  X. Feng,  D. Ghosh,  
 M. Goldey,  P. R. Horn,  L. D. Jacobson,  I. Kaliman,  F. Rob,  
 R. Z. Khaliullin,  T. Kus,  A. Landau,  J. Liu,  E. I. Proynov,  Y. M. Rhee,  
 R. M. Richard,  M. A. Rohrdanz,  R. P. Steele,  E. J. Sundstrom,  
 H. L. Woodcock III,  P. M. Zimmerman,  D. Zuev,  B. Albrecht,  E. Alguire,  
 B. Austin,  S. A. Baeppler,  G. J. O. Beran,  Y. A. Bernard,  E. Berquist,  
 K. Brandhorst,  K. B. Bravaya,  S. T. Brown,  D. Casanova,  C.-M. Chang,  
 Y. Chen,  S. H. Chien,  K. D. Closser,  M. P. Coons,  D. L. Crittenden,  
 S. Dasgupta,  M. Diedenhofen,  R. A. DiStasio Jr.,  H. Do,  A. D. Dutoi,  
 R. G. Edgar,  P.-T. Fang,  S. Fatehi,  Q. Feng,  L. Fusti-Molnar,  
 A. Ghysels,  A. Golubeva-Zadorozhnaya,  J. Gomes,  A. Gunina,  
 M. W. D. Hanson-Heine,  P. H. P. Harbach,  A. W. Hauser,  J. E. Herr,  
 E. G. Hohenstein,  Z. C. Holden,  K. Hui,  T.-C. Jagau,  H. Ji,  B. Kaduk,  
 K. Khistyaev,  Jaehoon Kim,  Jihan Kim,  R. A. King,  P. Klunzinger,  
 K. Koh,  D. Kosenkov,  T. Kowalczyk,  C. M. Krauter,  A. Kunitsa,  
 K. U. Lao,  A. Laurent,  K. V. Lawler,  J. Lee,  D. Lefrancois,  S. Lehtola,  
 S. V. Levchenko,  C. Y. Lin,  Y.-S. Lin,  F. Liu,  E. Livshits,  
 R. C. Lochan,  A. Luenser,  P. Manohar,  S. F. Manzer,  S.-P. Mao,  Y. Mao,  
 N. Mardirossian,  A. V. Marenich,  L. A. Martinez-Martinez,  S. A. Maurer,  
 N. J. Mayhall,  J.-M. Mewes,  A. F. Morrison,  K. Nanda,  T. S. Nguyen-Beck,  
 C. M. Oana,  R. Olivares-Amaya,  D. P. O'Neill,  J. A. Parkhill,  
 T. M. Perrine,  R. Peverati,  P. A. Pieniazek,  F. Plasser,  A. Prociuk,  
 D. R. Rehn,  E. Rosta,  N. J. Russ,  N. Sergueev,  S. M. Sharada,  
 S. Sharma,  D. W. Small,  A. Sodt,  T. Stauch,  T. Stein,  D. Stuck,  
 Y.-C. Su,  A. J. W. Thom,  T. Tsuchimochi,  L. Vogt,  O. Vydrov,  T. Wang,  
 M. A. Watson,  J. Wenzel,  A. White,  C. F. Williams,  V. Vanovschi,  
 K. Yao,  S. Yeganeh,  S. R. Yost,  Z.-Q. You,  I. Y. Zhang,  X. Zhang,  
 Y. Zhao,  B. R. Brooks,  G. K. L. Chan,  D. M. Chipman,  C. J. Cramer,  
 W. A. Goddard III,  M. S. Gordon,  W. J. Hehre,  A. Klamt,  
 H. F. Schaefer III,  M. W. Schmidt,  C. D. Sherrill,  D. G. Truhlar,  
 A. Warshel,  X. Xu,  A. Aspuru-Guzik,  R. Baer,  A. T. Bell,  N. A. Besley,  
 J.-D. Chai,  A. Dreuw,  B. D. Dunietz,  T. R. Furlani,  S. R. Gwaltney,  
 C.-P. Hsu,  Y. Jung,  J. Kong,  D. S. Lambrecht,  W. Liang,  C. Ochsenfeld,  
 V. A. Rassolov,  L. V. Slipchenko,  J. E. Subotnik,  T. Van Voorhis,  
 J. M. Herbert,  A. I. Krylov,  P. M. W. Gill,  M. Head-Gordon

 Contributors to earlier versions of Q-Chem not listed above: 
 R. D. Adamson,  J. Baker,  E. F. C. Byrd,  A. K. Chakraborty,  C.-L. Cheng,  
 H. Dachsel,  R. J. Doerksen,  G. Hawkins,  A. Heyden,  S. Hirata,  
 G. Kedziora,  F. J. Keil,  C. Kelley,  P. P. Korambath,  W. Kurlancheek,  
 A. M. Lee,  M. S. Lee,  D. Liotard,  I. Lotan,  P. E. Maslen,  N. Nair,  
 D. Neuhauser,  R. Olson,  B. Peters,  J. Ritchie,  N. E. Schultz,  
 N. Shenvi,  A. C. Simmonett,  K. S. Thanthiriwatte,  Q. Wu,  W. Zhang

 Please cite Q-Chem as follows:
 Y. Shao et al., Mol. Phys. 113, 184-215 (2015)
 DOI: 10.1080/00268976.2014.952696

 Q-Chem 4.4.2 for Intel X86 Linux

 Parts of Q-Chem use Armadillo 5.200.1 (Boston Tea Smuggler).
 http://arma.sourceforge.net/

 Q-Chem begins on Fri Oct 12 00:41:34 2018  

Host: 
0

     Scratch files written to /tmpu/cab_g/afmv_a/scratch_qchem/qchem62231//
 Dec716 11556_ 22328  22283 4050   
Processing $rem in /tmpu/appuserlic/qchem4.4/serial-multicore/config/preferences.
 MEM_TOTAL  2000 
FILE_GEOM_ORG=        593

Checking the input file for inconsistencies... 	...done.

--------------------------------------------------------------
User input:
--------------------------------------------------------------
$comment
SP
$end

$rem
MEM_STATIC 5000
MEM_TOTAL 20000
JOBTYPE SP
EXCHANGE B3LYP
BASIS 6-31g(d,p)
$end

$molecule
0 1
C          14.797000     19.737000     15.106000
C          13.550000     20.192000     14.737000
N          15.827000     19.583000     14.242000
C          13.196000     20.298000     13.342000
C          15.517000     19.770000     12.917000
C          14.204000     19.946000     12.422000
C          13.881000     19.999000     10.958000
C          12.660000     19.451000     10.467000
C          14.756000     20.575000      9.991000
N          12.414000     19.309000      9.210000
N          15.794000     21.416000     10.216000
C          14.463000     20.424000      8.646000
C          13.276000     19.761000      8.266000
S          16.277000     22.016000      8.808000
N          15.282000     21.227000      7.896000
C          12.842000     19.701000      6.873000
S          13.502000     20.457000      5.416000
C          11.930000     18.730000      6.468000
C          12.542000     19.392000      4.329000
S          11.290000     17.447000      7.406000
C          11.725000     18.595000      5.084000
C          12.620000     19.383000      2.828000
C          10.524000     16.757000      5.901000
C          10.860000     17.467000      4.759000
N          11.477000     19.537000      2.166000
S          14.092000     19.321000      1.930000
C          11.727000     19.591000      0.841000
C          13.057000     19.584000      0.507000
C          15.154000     19.424000     16.547000
H          12.798000     20.334000     15.508000
H          12.168000     20.429000     13.019000
H          16.298000     19.437000     12.235000
H          11.902000     19.022000     11.121000
H           9.876000     15.892000      5.955000
H          10.588000     17.164000      3.755000
H          10.909000     19.647000      0.134000
H          13.554000     19.584000     -0.454000
H          15.685000     20.257000     17.023000
C          15.951000     18.110000     16.745000
H          14.167000     19.246000     16.991000
H          16.920000     18.383000     16.307000
H          15.589000     17.309000     16.089000
C          16.037000     17.490000     18.183000
H          16.096000     18.306000     18.913000
C          17.279000     16.611000     18.249000
H          15.059000     17.037000     18.386000
H          18.169000     17.159000     17.918000
H          17.106000     15.770000     17.566000
C          17.432000     15.970000     19.659000
H          17.634000     16.811000     20.333000
C          18.601000     14.960000     19.775000
H          16.496000     15.509000     19.998000
H          18.545000     14.097000     19.100000
H          18.570000     14.578000     20.803000
H          19.582000     15.447000     19.717000
C          27.043000     25.676000     -2.177000
C          26.603000     24.361000     -2.260000
N          26.261000     26.728000     -1.807000
C          25.238000     24.133000     -1.970000
C          24.999000     26.475000     -1.513000
C          24.366000     25.206000     -1.596000
C          22.865000     25.049000     -1.475000
C          22.329000     23.924000     -0.789000
C          21.838000     25.894000     -1.978000
N          21.017000     23.662000     -0.579000
N          22.126000     27.063000     -2.597000
C          20.451000     25.652000     -1.787000
C          20.119000     24.431000     -1.157000
S          20.662000     27.686000     -3.033000
N          19.657000     26.579000     -2.395000
C          18.702000     24.023000     -1.121000
S          17.390000     24.570000     -2.169000
C          18.241000     22.945000     -0.315000
C          16.359000     23.285000     -1.685000
S          19.059000     22.055000      0.948000
C          16.971000     22.512000     -0.718000
C          15.005000     23.167000     -2.143000
C          17.592000     21.062000      0.984000
C          16.585000     21.362000      0.028000
N          14.136000     22.731000     -1.298000
S          14.481000     23.420000     -3.773000
C          12.836000     22.601000     -1.875000
C          12.859000     22.973000     -3.210000
C          28.518000     25.987000     -2.519000
H          27.233000     23.595000     -2.701000
H          24.906000     23.104000     -2.071000
H          24.397000     27.370000     -1.357000
H          22.980000     23.235000     -0.254000
H          17.571000     20.253000      1.702000
H          15.643000     20.860000     -0.161000
H          11.978000     22.347000     -1.266000
H          12.054000     23.101000     -3.922000
H          29.074000     25.053000     -2.375000
C          29.328000     26.972000     -1.576000
H          28.511000     26.284000     -3.575000
H          29.225000     26.478000     -0.602000
H          28.820000     27.940000     -1.487000
C          30.812000     27.082000     -1.909000
H          31.164000     27.977000     -1.381000
C          31.198000     27.283000     -3.391000
H          31.373000     26.226000     -1.513000
H          30.643000     28.151000     -3.768000
H          30.850000     26.359000     -3.869000
C          32.680000     27.452000     -3.577000
H          33.039000     28.468000     -3.370000
C          33.296000     27.056000     -4.925000
H          33.169000     26.824000     -2.822000
H          34.237000     27.592000     -5.103000
H          32.617000     27.414000     -5.708000
H          33.410000     25.972000     -5.048000
$end

--------------------------------------------------------------
 ----------------------------------------------------------------
             Standard Nuclear Orientation (Angstroms)
    I     Atom           X                Y                Z
 ----------------------------------------------------------------
    1      C      11.0698087028    -4.0679253042    -1.6100178533
    2      C      11.2773548468    -2.8856965771    -2.2863719284
    3      N       9.9208125869    -4.3722152694    -0.9632353993
    4      C      10.3552945485    -1.7862670934    -2.1326298820
    5      C       8.9995770580    -3.3560247474    -0.8899147121
    6      C       9.2474700808    -2.0237556276    -1.2943625352
    7      C       8.2755704908    -0.9041689620    -1.0655156752
    8      C       8.7432301311     0.4106199099    -0.7742242693
    9      C       6.8618906433    -1.0824185006    -1.1127003192
   10      N       7.9609186509     1.3619645216    -0.3951976505
   11      N       6.1793649179    -2.1169664831    -1.6597095568
   12      C       6.0401597169    -0.0406391345    -0.7163052673
   13      C       6.6171463771     1.1906329207    -0.3368404863
   14      S       4.6252883090    -1.7219921929    -1.7274901129
   15      N       4.7392604267    -0.3204916908    -1.0440453830
   16      C       5.7995823897     2.3665855198    -0.0520078841
   17      S       4.0575090529     2.6357199377    -0.2027797460
   18      C       6.3252826701     3.4168109074     0.6958395939
   19      C       4.1199242489     4.1348585446     0.7902367596
   20      S       7.8518331575     3.4808705747     1.4711285518
   21      C       5.4214062594     4.4096656968     1.1117155388
   22      C       2.9310286769     4.9593546006     1.1975444721
   23      C       7.3540996535     5.0406559306     2.2756234258
   24      C       6.0411927927     5.3876510727     1.9980807331
   25      N       2.9693194661     6.2555317025     0.9028111417
   26      S       1.4893233249     4.3127859433     1.8907014885
   27      C       1.8016736639     6.8328787357     1.2553940167
   28      C       0.8471781412     5.9627998817     1.7162693633
   29      C      12.1013835680    -5.1801306795    -1.5826043416
   30      H      12.2129180486    -2.7487252527    -2.8212264429
   31      H      10.6013756391    -0.7807510801    -2.4592116388
   32      H       8.1869415693    -3.5533393037    -0.1923012601
   33      H       9.8013742189     0.6678365389    -0.7520500654
   34      H       8.0538417620     5.5992526600     2.8833862705
   35      H       5.5255743865     6.2235309159     2.4555209444
   36      H       1.6700720585     7.9026328557     1.1533345236
   37      H      -0.1517160031     6.1312523606     2.0962223219
   38      H      11.8814682040    -5.9551726229    -2.3264949375
   39      C      12.3144863358    -5.8303575729    -0.1923521351
   40      H      13.0272328024    -4.6354005614    -1.8041021824
   41      H      11.3679283030    -6.3718873128    -0.0654370794
   42      H      12.2955781369    -5.0873097226     0.6141857575
   43      C      13.5990267573    -6.6982873578     0.0449109972
   44      H      13.8288735643    -7.2429667974    -0.8785237614
   45      C      13.3170524065    -7.6631627802     1.1890556055
   46      H      14.4360410128    -5.9961489857     0.1414037035
   47      H      12.3934581932    -8.2267645218     1.0121607046
   48      H      13.1924848331    -7.0526767597     2.0920997563
   49      C      14.5525024170    -8.5666492261     1.4714834964
   50      H      14.6548848207    -9.1951051540     0.5787786235
   51      C      14.3953258413    -9.4918078398     2.7041610955
   52      H      15.4746080491    -7.9778971940     1.5529098317
   53      H      14.2232913302    -8.9782026858     3.6581757038
   54      H      15.3399322017   -10.0429893602     2.7912630773
   55      H      13.6554746235   -10.2847416173     2.5405450815
   56      C     -10.8132261467    -4.1762140278     0.6392898904
   57      C     -10.1633400551    -3.6672053335     1.7565509239
   58      N     -10.5026824355    -3.8521944521    -0.6466735298
   59      C      -9.1380670033    -2.7239710407     1.5148212438
   60      C      -9.5194668840    -2.9919945401    -0.8375459756
   61      C      -8.7847167716    -2.3317547585     0.1833187085
   62      C      -7.8433786604    -1.1852841120    -0.1196311507
   63      C      -6.6227622359    -1.0687346531     0.6014990510
   64      C      -7.9973839581    -0.1322138566    -1.0625459960
   65      N      -5.6743175877    -0.1180533635     0.4261541482
   66      N      -9.0520374263    -0.0927751173    -1.9103765497
   67      C      -7.0313098638     0.8882837770    -1.2725446251
   68      C      -5.9259859748     0.8818973601    -0.3915319612
   69      S      -8.8430456282     1.2896207096    -2.7860621131
   70      N      -7.4186651786     1.8096254368    -2.2001837823
   71      C      -5.0021660172     2.0314860855    -0.4170554484
   72      S      -5.3147725303     3.6594126861    -1.0261442359
   73      C      -3.7462647621     2.0131382542     0.2512381957
   74      C      -3.9295920604     4.3056800514    -0.2438044387
   75      S      -2.8828041416     0.6827233473     0.9866461996
   76      C      -3.2274180892     3.3059712248     0.4001644862
   77      C      -3.5240319648     5.6728764668    -0.3964444418
   78      C      -1.7183621978     1.9199293497     1.4894685012
   79      C      -2.0306833611     3.2686790070     1.1711685596
   80      N      -2.2583520665     5.9069931643    -0.4467014500
   81      S      -4.5905598996     7.0356497750    -0.3672541200
   82      C      -1.9681137389     7.3020792933    -0.5432695912
   83      C      -3.1402731159     8.0417900232    -0.5461732245
   84      C     -11.9667488072    -5.1837970844     0.8477889452
   85      H     -10.5529817925    -3.8504609576     2.7529111463
   86      H      -8.6636566727    -2.3142563816     2.4015764165
   87      H      -9.4103915297    -2.6733861433    -1.8740575561
   88      H      -6.3032005311    -1.8514625121     1.2870385580
   89      H      -0.8603585025     1.5784345000     2.0530791172
   90      H      -1.4953104595     4.1773782933     1.4216290625
   91      H      -0.9558766368     7.6519613872    -0.6998568493
   92      H      -3.3089321141     9.0982162306    -0.7100964096
   93      H     -11.8072332851    -5.6394669575     1.8322419735
   94      C     -12.0312411474    -6.4709685708    -0.0766591619
   95      H     -12.8816679685    -4.5786720285     0.8359316655
   96      H     -11.0490786822    -6.9233623237     0.1077799453
   97      H     -12.0498236825    -6.1941926882    -1.1378183395
   98      C     -13.1089834739    -7.4747821234     0.3184039083
   99      H     -13.2173956530    -8.1418400791    -0.5458839391
  100      C     -14.5225450834    -6.9258470299     0.6120615986
  101      H     -12.7874190301    -8.0896110145     1.1686125551
  102      H     -14.8370961936    -6.3280296087    -0.2523745934
  103      H     -14.3672749827    -6.2891742566     1.4917791531
  104      C     -15.5081124729    -8.0196511344     0.9149320359
  105      H     -15.9107012821    -8.5125865115     0.0211071288
  106      C     -16.7214574978    -7.6860747802     1.7923695928
  107      H     -14.9568047888    -8.8071734700     1.4435135418
  108      H     -17.5502013677    -8.3800036683     1.6023503924
  109      H     -17.0952115405    -6.7075525696     1.4681841538
  110      H     -16.4788192991    -7.6170082642     2.8598608204
 ----------------------------------------------------------------
 Molecular Point Group                 C1    NOp =  1
 Largest Abelian Subgroup              C1    NOp =  1
 Nuclear Repulsion Energy = 10310.5524603031 hartrees
 There are      270 alpha and      270 beta electrons
 Requested basis set is 6-31G(d,p)
 There are 406 shells and 1262 basis functions

 Total QAlloc Memory Limit  20000 MB
 Mega-Array Size      4888 MB
 MEM_STATIC part      5000 MB
 A cutoff of  1.0D-08 yielded  12469 shell pairs
 There are    130541 function pairs
 
 -------------------------------------------------------
 OpenMP Integral Computing Module                       
 Release: version 1.0, May 2013, Q-Chem Inc. Pittsburgh 
 -------------------------------------------------------
 Integral Job Info:
 Integral job number is                      11
 Integral operator is                         1
 short-range coefficients                     0
 long-range coefficients              100000000
 Omega coefficients                           0
 if combine SR and LR in K                    0
 Integral screening is                        0
 Integral computing path is                   2
 max size of driver memory is            800000
 size of driver memory is                593474
 size of scratch memory is             15166112
 max col of scratch BK array               1296
 max len of scratch array in speh3          155
 max len of scratch index in speh4           18
 max int batch size is                      520
 min int batch size is                       52
 fixed nKL is                                52
 max L of basis functions is                  2
 order of int derivative is                   0
 number of shells is                        406
 number of basis is                        1262
 number of cartesian basis is              1262
 number of contracted shell pairs         12469
 number of primitive shell pairs          41163
 maxK2 (contraction) of shell pair           36
 max number of K2 of shell pair               1
 max number of CS2 of shell pair           1256
 max number of PS2 of shell pair           7536
 mem total for path MDJ                  276424
 -------------------------------------------------------
 Smallest overlap matrix eigenvalue = 4.77E-04

 Scale SEOQF with 1.000000e-03/1.000000e-02/1.000000e-01

 Standard Electronic Orientation quadrupole field applied
 Nucleus-field energy     =    -0.0000000081 hartrees
 Guess from superposition of atomic densities
 Warning:  Energy on first SCF cycle will be non-variational
 A restricted hybrid HF-DFT SCF calculation will be
 performed using Pulay DIIS extrapolation
 Exchange:     0.2000 Hartree-Fock + 0.0800 Slater + 0.7200 B88
 Correlation:  0.1900 VWN1RPA + 0.8100 LYP
 Using SG-1 standard quadrature grid
 SCF converges when DIIS error is below 1.0E-05
 using 16 threads for integral computing 
 -------------------------------------------------------
 OpenMP BLAS3 based DFT computing Module                
 Release: version 1.0, May 2013, Q-Chem Inc. Pittsburgh 
 -------------------------------------------------------
 ---------------------------------------
  Cycle       Energy         DIIS Error
 ---------------------------------------
    1   -5680.0023283690      2.14E-02
    2   -5662.5062897815      2.16E-03
    3   -5660.9338636117      3.44E-03
    4   -5663.3526086565      8.97E-04
    5   -5663.4991093326      3.38E-04
    6   -5663.5091738038      2.45E-04
    7   -5663.5205178196      7.00E-05
    8   -5663.5214137940      2.23E-05
    9   -5663.5215061578      8.73E-06 Convergence criterion met
 ---------------------------------------
 SCF time:  CPU 901.44 s  wall 74.95 s
 SCF   energy in the final basis set = -5663.5215061578
 Total energy in the final basis set = -5663.5215061578
 
 --------------------------------------------------------------
 
                    Orbital Energies (a.u.)
 --------------------------------------------------------------
 
 Alpha MOs
 -- Occupied --
-88.994 -88.990 -88.934 -88.929 -88.927 -88.923 -88.916 -88.903
-14.392 -14.383 -14.375 -14.368 -14.351 -14.346 -14.345 -14.344
-14.329 -14.328 -10.274 -10.267 -10.263 -10.261 -10.259 -10.257
-10.249 -10.248 -10.243 -10.242 -10.241 -10.239 -10.239 -10.237
-10.235 -10.234 -10.233 -10.232 -10.231 -10.231 -10.230 -10.228
-10.225 -10.224 -10.224 -10.224 -10.223 -10.223 -10.223 -10.219
-10.215 -10.213 -10.208 -10.206 -10.203 -10.202 -10.201 -10.200
-10.187 -10.181 -10.179 -10.176 -10.176 -10.175 -10.174 -10.174
-10.174 -10.171 -10.171 -10.170  -8.050  -8.045  -7.994  -7.991
 -7.987  -7.981  -7.976  -7.963  -6.015  -6.010  -6.009  -6.008
 -6.005  -6.003  -5.958  -5.955  -5.954  -5.952  -5.951  -5.951
 -5.948  -5.947  -5.946  -5.944  -5.942  -5.940  -5.938  -5.937
 -5.932  -5.928  -5.924  -5.919  -1.046  -1.035  -0.975  -0.972
 -0.968  -0.965  -0.940  -0.931  -0.912  -0.907  -0.903  -0.892
 -0.846  -0.834  -0.830  -0.828  -0.815  -0.809  -0.808  -0.806
 -0.805  -0.798  -0.795  -0.793  -0.784  -0.779  -0.767  -0.762
 -0.752  -0.746  -0.744  -0.737  -0.723  -0.718  -0.710  -0.708
 -0.694  -0.691  -0.675  -0.675  -0.659  -0.650  -0.644  -0.642
 -0.637  -0.633  -0.625  -0.625  -0.609  -0.605  -0.599  -0.594
 -0.590  -0.585  -0.583  -0.581  -0.576  -0.571  -0.569  -0.556
 -0.554  -0.549  -0.544  -0.543  -0.522  -0.519  -0.515  -0.515
 -0.507  -0.504  -0.502  -0.500  -0.483  -0.483  -0.478  -0.476
 -0.476  -0.472  -0.470  -0.467  -0.465  -0.460  -0.451  -0.448
 -0.448  -0.443  -0.441  -0.437  -0.434  -0.431  -0.430  -0.428
 -0.426  -0.421  -0.420  -0.420  -0.418  -0.415  -0.415  -0.414
 -0.412  -0.410  -0.407  -0.405  -0.404  -0.400  -0.398  -0.396
 -0.394  -0.393  -0.391  -0.391  -0.388  -0.386  -0.385  -0.384
 -0.383  -0.381  -0.374  -0.367  -0.366  -0.364  -0.360  -0.357
 -0.354  -0.350  -0.349  -0.346  -0.343  -0.339  -0.339  -0.336
 -0.333  -0.331  -0.331  -0.327  -0.325  -0.323  -0.320  -0.314
 -0.314  -0.312  -0.311  -0.301  -0.301  -0.298  -0.298  -0.297
 -0.295  -0.293  -0.292  -0.291  -0.288  -0.287  -0.283  -0.281
 -0.278  -0.271  -0.269  -0.262  -0.260  -0.254  -0.254  -0.252
 -0.247  -0.241  -0.231  -0.230  -0.197  -0.194
 -- Virtual --
 -0.113  -0.108  -0.068  -0.064  -0.037  -0.037  -0.032  -0.025
 -0.021  -0.020  -0.017  -0.009  -0.008  -0.005  -0.003   0.000
  0.002   0.004   0.013   0.024   0.026   0.032   0.034   0.037
  0.042   0.043   0.061   0.076   0.082   0.085   0.088   0.091
  0.092   0.096   0.097   0.099   0.101   0.106   0.108   0.110
  0.111   0.113   0.117   0.118   0.121   0.125   0.126   0.127
  0.129   0.131   0.133   0.134   0.136   0.138   0.143   0.143
  0.148   0.151   0.153   0.153   0.157   0.158   0.158   0.161
  0.166   0.170   0.172   0.172   0.173   0.176   0.178   0.184
  0.185   0.186   0.190   0.191   0.193   0.195   0.198   0.200
  0.204   0.205   0.205   0.206   0.207   0.210   0.216   0.219
  0.222   0.223   0.223   0.227   0.231   0.231   0.236   0.238
  0.239   0.243   0.244   0.248   0.251   0.252   0.255   0.256
  0.259   0.263   0.267   0.270   0.274   0.276   0.276   0.278
  0.283   0.285   0.289   0.292   0.292   0.298   0.302   0.305
  0.308   0.312   0.316   0.318   0.319   0.322   0.322   0.325
  0.328   0.329   0.330   0.332   0.335   0.335   0.338   0.343
  0.351   0.352   0.356   0.358   0.361   0.364   0.365   0.366
  0.373   0.374   0.377   0.383   0.388   0.391   0.395   0.395
  0.402   0.405   0.410   0.417   0.421   0.424   0.426   0.438
  0.439   0.443   0.453   0.456   0.457   0.461   0.465   0.468
  0.473   0.479   0.481   0.489   0.492   0.495   0.497   0.498
  0.501   0.502   0.503   0.504   0.506   0.510   0.512   0.516
  0.517   0.520   0.523   0.524   0.525   0.532   0.533   0.538
  0.539   0.539   0.541   0.543   0.544   0.546   0.547   0.549
  0.551   0.551   0.554   0.557   0.558   0.561   0.564   0.565
  0.566   0.567   0.573   0.574   0.574   0.578   0.579   0.584
  0.587   0.589   0.591   0.591   0.594   0.596   0.597   0.598
  0.599   0.603   0.604   0.605   0.606   0.609   0.610   0.611
  0.616   0.616   0.618   0.621   0.622   0.623   0.626   0.631
  0.632   0.633   0.635   0.636   0.638   0.638   0.642   0.646
  0.650   0.653   0.654   0.656   0.662   0.664   0.667   0.669
  0.670   0.672   0.675   0.680   0.681   0.683   0.686   0.687
  0.690   0.695   0.700   0.701   0.705   0.707   0.710   0.712
  0.714   0.717   0.728   0.730   0.733   0.735   0.736   0.743
  0.749   0.751   0.754   0.757   0.760   0.762   0.764   0.765
  0.766   0.772   0.777   0.778   0.783   0.786   0.787   0.791
  0.794   0.795   0.797   0.798   0.800   0.802   0.803   0.805
  0.807   0.810   0.812   0.815   0.817   0.821   0.822   0.824
  0.826   0.827   0.829   0.830   0.832   0.836   0.836   0.837
  0.838   0.841   0.845   0.845   0.847   0.850   0.851   0.852
  0.854   0.855   0.857   0.860   0.862   0.865   0.868   0.869
  0.871   0.875   0.876   0.877   0.879   0.881   0.882   0.887
  0.888   0.889   0.890   0.895   0.897   0.900   0.901   0.902
  0.906   0.908   0.915   0.916   0.916   0.921   0.922   0.926
  0.927   0.931   0.933   0.938   0.938   0.939   0.940   0.942
  0.942   0.948   0.953   0.953   0.955   0.957   0.958   0.960
  0.962   0.964   0.966   0.967   0.968   0.968   0.971   0.976
  0.978   0.983   0.986   0.989   0.991   0.997   0.998   1.001
  1.001   1.003   1.004   1.006   1.009   1.011   1.012   1.013
  1.017   1.021   1.027   1.036   1.038   1.041   1.042   1.043
  1.047   1.050   1.054   1.058   1.061   1.065   1.068   1.069
  1.071   1.079   1.081   1.084   1.093   1.094   1.097   1.102
  1.108   1.111   1.114   1.124   1.130   1.131   1.135   1.139
  1.140   1.145   1.147   1.151   1.160   1.163   1.170   1.172
  1.182   1.186   1.192   1.199   1.202   1.204   1.208   1.210
  1.224   1.227   1.237   1.243   1.248   1.251   1.257   1.261
  1.273   1.275   1.279   1.283   1.285   1.287   1.294   1.298
  1.300   1.305   1.307   1.313   1.314   1.320   1.321   1.326
  1.329   1.336   1.338   1.341   1.346   1.356   1.359   1.364
  1.366   1.369   1.371   1.380   1.382   1.385   1.390   1.391
  1.395   1.398   1.403   1.407   1.409   1.416   1.418   1.422
  1.426   1.431   1.432   1.435   1.440   1.451   1.459   1.466
  1.469   1.475   1.476   1.481   1.494   1.496   1.508   1.519
  1.520   1.533   1.545   1.547   1.551   1.554   1.565   1.566
  1.573   1.579   1.581   1.583   1.585   1.592   1.604   1.606
  1.607   1.616   1.625   1.638   1.642   1.646   1.651   1.653
  1.664   1.666   1.672   1.673   1.674   1.676   1.679   1.681
  1.683   1.687   1.692   1.696   1.696   1.707   1.709   1.714
  1.716   1.717   1.718   1.721   1.729   1.731   1.737   1.737
  1.747   1.752   1.756   1.759   1.761   1.763   1.770   1.775
  1.775   1.788   1.793   1.794   1.798   1.800   1.804   1.807
  1.811   1.821   1.825   1.826   1.831   1.838   1.839   1.844
  1.845   1.849   1.850   1.856   1.859   1.860   1.863   1.868
  1.871   1.875   1.876   1.885   1.886   1.887   1.893   1.897
  1.901   1.903   1.910   1.912   1.916   1.919   1.923   1.925
  1.930   1.931   1.935   1.936   1.946   1.949   1.951   1.953
  1.955   1.962   1.968   1.970   1.971   1.983   1.987   1.990
  1.992   2.000   2.004   2.012   2.016   2.018   2.020   2.024
  2.030   2.035   2.046   2.047   2.056   2.061   2.064   2.070
  2.070   2.075   2.080   2.082   2.084   2.089   2.091   2.097
  2.101   2.102   2.106   2.107   2.108   2.118   2.123   2.125
  2.129   2.131   2.132   2.135   2.137   2.137   2.141   2.146
  2.149   2.164   2.165   2.167   2.168   2.176   2.183   2.188
  2.192   2.195   2.196   2.203   2.208   2.209   2.213   2.215
  2.221   2.224   2.234   2.234   2.237   2.241   2.244   2.246
  2.247   2.257   2.258   2.266   2.273   2.277   2.278   2.283
  2.287   2.288   2.295   2.301   2.302   2.304   2.307   2.309
  2.310   2.312   2.323   2.324   2.327   2.334   2.335   2.336
  2.342   2.343   2.345   2.346   2.355   2.358   2.363   2.365
  2.368   2.369   2.372   2.376   2.381   2.382   2.386   2.391
  2.394   2.397   2.401   2.403   2.406   2.408   2.413   2.415
  2.420   2.423   2.428   2.429   2.430   2.431   2.435   2.440
  2.441   2.449   2.456   2.461   2.462   2.466   2.468   2.472
  2.473   2.478   2.480   2.489   2.490   2.491   2.495   2.495
  2.503   2.509   2.512   2.517   2.521   2.522   2.527   2.530
  2.530   2.537   2.540   2.542   2.544   2.552   2.555   2.556
  2.566   2.569   2.575   2.583   2.584   2.585   2.596   2.598
  2.600   2.610   2.611   2.620   2.622   2.634   2.634   2.648
  2.649   2.651   2.653   2.654   2.662   2.666   2.669   2.669
  2.671   2.680   2.683   2.688   2.690   2.695   2.696   2.697
  2.702   2.704   2.709   2.718   2.719   2.726   2.731   2.733
  2.738   2.748   2.750   2.762   2.766   2.769   2.771   2.776
  2.784   2.790   2.794   2.798   2.799   2.804   2.815   2.821
  2.825   2.830   2.844   2.848   2.857   2.858   2.860   2.874
  2.876   2.882   2.884   2.887   2.888   2.895   2.900   2.901
  2.921   2.925   2.928   2.931   2.934   2.938   2.939   2.953
  2.956   2.961   2.965   2.979   2.990   3.002   3.009   3.010
  3.017   3.019   3.042   3.045   3.075   3.084   3.099   3.114
  3.155   3.165   3.183   3.185   3.188   3.189   3.223   3.225
  3.229   3.247   3.249   3.255   3.262   3.264   3.269   3.269
  3.274   3.275   3.291   3.303   3.305   3.311   3.315   3.332
  3.337   3.344   3.353   3.381   3.388   3.393   3.417   3.428
  3.433   3.438   3.443   3.465   3.469   3.486   3.524   3.528
  3.545   3.566   3.566   3.573   3.583   3.593   3.596   3.602
  3.611   3.628   3.704   3.713   3.852   3.876   3.908   3.910
  3.937   3.939   3.945   3.956   3.956   3.963   3.980   3.987
  4.003   4.061   4.070   4.080   4.081   4.091   4.101   4.113
  4.117   4.120   4.128   4.151   4.157   4.162   4.167   4.168
  4.189   4.189   4.224   4.237   4.253   4.254   4.256   4.258
  4.273   4.289   4.302   4.312   4.367   4.373   4.379   4.379
  4.418   4.419   4.433   4.435   4.447   4.466   4.486   4.486
  4.502   4.507   4.521   4.524   4.581   4.582   4.637   4.653
  4.684   4.685   4.701   4.706   4.756   4.758   4.772   4.787
 --------------------------------------------------------------
 
          Ground-State Mulliken Net Atomic Charges

     Atom                 Charge (a.u.)
  ----------------------------------------
      1 C                     0.280688
      2 C                    -0.119966
      3 N                    -0.478540
      4 C                    -0.083584
      5 C                     0.083988
      6 C                     0.043000
      7 C                     0.002485
      8 C                     0.072357
      9 C                     0.219553
     10 N                    -0.492855
     11 N                    -0.557678
     12 C                     0.189825
     13 C                     0.264702
     14 S                     0.630346
     15 N                    -0.539348
     16 C                    -0.183613
     17 S                     0.320303
     18 C                    -0.132671
     19 C                    -0.254985
     20 S                     0.277607
     21 C                     0.180090
     22 C                     0.009933
     23 C                    -0.314829
     24 C                    -0.049510
     25 N                    -0.390863
     26 S                     0.293666
     27 C                     0.121156
     28 C                    -0.303734
     29 C                    -0.232402
     30 H                     0.089134
     31 H                     0.105306
     32 H                     0.103923
     33 H                     0.111457
     34 H                     0.126049
     35 H                     0.114085
     36 H                     0.113335
     37 H                     0.136849
     38 H                     0.118658
     39 C                    -0.181379
     40 H                     0.086292
     41 H                     0.115887
     42 H                     0.092115
     43 C                    -0.182394
     44 H                     0.086728
     45 C                    -0.161415
     46 H                     0.092534
     47 H                     0.099367
     48 H                     0.092428
     49 C                    -0.179383
     50 H                     0.092143
     51 C                    -0.322020
     52 H                     0.093140
     53 H                     0.103444
     54 H                     0.097504
     55 H                     0.103361
     56 C                     0.255300
     57 C                    -0.109069
     58 N                    -0.471828
     59 C                    -0.084499
     60 C                     0.085308
     61 C                     0.030800
     62 C                     0.048867
     63 C                     0.036465
     64 C                     0.187061
     65 N                    -0.520402
     66 N                    -0.548789
     67 C                     0.236186
     68 C                     0.316362
     69 S                     0.609628
     70 N                    -0.556647
     71 C                    -0.240412
     72 S                     0.331700
     73 C                    -0.115382
     74 C                    -0.230002
     75 S                     0.302810
     76 C                     0.171163
     77 C                     0.061570
     78 C                    -0.326509
     79 C                    -0.038801
     80 N                    -0.429135
     81 S                     0.261582
     82 C                     0.104718
     83 C                    -0.303628
     84 C                    -0.233108
     85 H                     0.098924
     86 H                     0.098066
     87 H                     0.114174
     88 H                     0.111025
     89 H                     0.125450
     90 H                     0.099916
     91 H                     0.127584
     92 H                     0.134228
     93 H                     0.094598
     94 C                    -0.182685
     95 H                     0.121439
     96 H                     0.095583
     97 H                     0.117088
     98 C                    -0.187045
     99 H                     0.094245
    100 C                    -0.164769
    101 H                     0.088915
    102 H                     0.094638
    103 H                     0.094255
    104 C                    -0.175796
    105 H                     0.093910
    106 C                    -0.323004
    107 H                     0.090439
    108 H                     0.101456
    109 H                     0.100740
    110 H                     0.103042
  ----------------------------------------
  Sum of atomic charges =     0.000000

 -----------------------------------------------------------------
                    Cartesian Multipole Moments
 -----------------------------------------------------------------
    Charge (ESU x 10^10)
                 0.0000
    Dipole Moment (Debye)
         X      -1.4796      Y       3.0533      Z       2.3609
       Tot       4.1335
    Quadrupole Moments (Debye-Ang)
        XX    -426.1196     XY      -5.3748     YY    -416.6283
        XZ     -14.3596     YZ       2.9423     ZZ    -437.3458
    Octopole Moments (Debye-Ang^2)
       XXX     328.8547    XXY      35.6524    XYY    -195.9359
       YYY     424.9689    XXZ      39.5056    XYZ     146.2926
       YYZ      75.4490    XZZ     -19.8887    YZZ       6.4835
       ZZZ     -13.4142
    Hexadecapole Moments (Debye-Ang^3)
      XXXX -182329.3158   XXXY     -95.8120   XXYY  -40496.1552
      XYYY    -500.8569   YYYY  -52042.4181   XXXZ   -2025.8900
      XXYZ    -203.3688   XYYZ      96.3784   YYYZ     244.4003
      XXZZ  -31493.9828   XYZZ     251.5322   YYZZ  -10068.2349
      XZZZ      94.1803   YZZZ       7.6312   ZZZZ   -5027.3681
 -----------------------------------------------------------------
Archival summary:
1\1\mn246\SP\ProcedureUnspecified\6-31G**\8105042\afmv_a\FriOct1200:42:522018FriOct1200:42:522018\0\\#,ProcedureUnspecified,6-31G**,\\0,1\S\C,1,1.76918\C,2,1.39234,1,107.626\C,3,1.4056,2,116.674,1,1.36108,0\C,4,1.36847,3,113.592,2,-4.4664,0\C,4,1.45816,3,112.351,2,-174.168,0\H,6,1.08342,4,124.877,3,178.477,0\C,6,1.38606,4,110.881,3,3.78741,0\H,8,1.08215,6,126.565,4,-178.323,0\C,2,1.46028,1,131.085,3,-166.951,0\N,10,1.35591,2,117.484,1,-166.316,0\C,11,1.28869,10,121.4,2,172.822,0\H,12,1.08918,11,114.169,10,178.472,0\C,10,1.41171,2,121.733,1,5.28575,0\N,14,1.37043,10,129.077,2,-9.10627,0\C,14,1.3848,10,119.377,2,-173.158,0\N,16,1.35475,14,113.024,10,169.52,0\C,12,1.42556,11,122.807,10,4.55342,0\C,18,1.50014,12,120.462,11,170.446,0\C,19,1.40939,18,118.309,12,45.4741,0\H,20,1.08548,19,120.879,18,-10.9085,0\C,19,1.4142,18,123.085,12,-144.943,0\H,22,1.08902,19,118.992,18,14.1809,0\N,22,1.37357,19,124.342,18,173.136,0\C,24,1.35319,22,115.381,19,7.75009,0\C,25,1.37775,24,123.746,22,6.96974,0\H,26,1.08633,25,118.661,24,176.824,0\C,5,1.50305,4,125.342,3,-175.083,0\N,28,1.32982,5,116.862,4,-53.5428,0\C,29,1.34946,28,109.523,5,-176.146,0\H,30,1.08264,29,120.218,28,-175.852,0\C,30,1.37132,29,114.748,28,4.86418,0\H,32,1.08191,30,131.443,29,-177.598,0\C,25,1.5172,24,113.819,22,-175.775,0\H,34,1.09655,25,111.686,24,-79.5489,0\H,34,1.09681,25,101.901,24,160.094,0\C,34,1.54952,25,114.667,24,46.2428,0\H,37,1.0968,34,111.908,25,39.4791,0\H,37,1.09788,34,101.077,25,-70.1575,0\S,15,1.56342,14,110.904,10,-166.188,0\C,37,1.56832,34,118.725,25,163.662,0\H,41,1.09647,37,108.614,34,36.0695,0\H,41,1.09677,37,106.505,34,-74.7408,0\C,41,1.52301,37,108.217,34,156.547,0\H,44,1.09634,41,111.127,37,-52.238,0\H,44,1.09713,41,106.669,37,66.2777,0\C,44,1.5564,41,110.923,37,-179.564,0\H,47,1.09652,44,105.016,41,66.5985,0\H,47,1.09706,44,111.662,41,-48.811,0\C,47,1.54923,44,114.237,41,-174.82,0\H,50,1.09677,47,112.425,44,-69.1901,0\H,50,1.09706,47,115.357,44,59.8195,0\H,50,1.09712,47,106.012,44,178.684,0\S,3,1.71334,2,127.42,1,-163.622,0\S,28,1.72541,5,124.349,4,131.831,0\H,33,2.46535,32,106.48,30,-146.943,0\C,56,1.08402,33,175.373,32,-60.2073,0\C,57,1.42056,56,129.46,33,3.92573,0\H,58,1.08187,57,126.213,56,0.141307,0\C,57,1.42408,56,121.21,33,-176.933,0\C,60,1.381,57,134.323,56,-4.46883,0\C,60,1.401,57,110.158,56,178.109,0\C,62,1.42276,60,111.404,57,-175.005,0\C,61,1.43423,60,126.578,57,-5.95088,0\N,64,1.28813,61,117.081,60,-29.6916,0\C,65,1.42823,64,112.324,61,177.555,0\H,66,1.08239,65,121.036,64,173.448,0\C,66,1.38605,65,110.462,64,-0.492799,0\H,68,1.08229,66,130.771,65,172.663,0\C,63,1.47501,62,122.322,60,163.453,0\N,70,1.316,63,118.893,62,-9.91348,0\C,71,1.35429,70,118.68,63,-169.851,0\H,72,1.08846,71,112.38,70,-179.28,0\C,70,1.41349,63,118.389,62,168.647,0\N,74,1.36361,70,130.481,63,-0.484095,0\C,74,1.42085,70,115.87,63,170.501,0\N,76,1.35376,74,114.596,70,-179.28,0\C,76,1.42189,74,123.8,70,5.6328,0\C,78,1.51403,76,128.768,74,179.191,0\C,79,1.42054,78,121.987,76,-38.1476,0\H,80,1.08985,79,119.725,78,-0.0433696,0\N,80,1.32026,79,125.741,78,169.046,0\C,82,1.36203,80,117.47,79,2.51908,0\C,83,1.38914,82,124.439,80,0.244743,0\H,84,1.08542,83,120.563,82,-170.859,0\C,84,1.41397,83,116.498,82,-1.75826,0\H,86,1.08594,84,115.395,83,-178.133,0\C,83,1.54574,82,116.909,80,-179.97,0\H,88,1.09646,83,106.465,82,-156.65,0\H,88,1.09699,83,105.151,82,85.3644,0\C,88,1.58606,83,118.733,82,-43.6755,0\H,91,1.09682,88,111.088,83,56.1839,0\H,91,1.09696,88,101.554,83,-56.5981,0\C,91,1.52488,88,114.329,83,-173.237,0\H,94,1.09714,91,105.426,88,-164.645,0\H,94,1.09739,91,111.25,88,79.2697,0\C,94,1.54458,91,117.524,88,-46.8729,0\H,97,1.09698,94,103.25,91,63.8634,0\H,97,1.09708,94,107.834,91,-53.5348,0\C,97,1.50316,94,112.318,91,-176.843,0\H,100,1.09706,97,106.855,94,-34.0531,0\H,100,1.09726,97,113.787,94,81.0349,0\C,100,1.53407,97,118.399,94,-153.656,0\H,103,1.09649,100,107.13,97,-41.9151,0\H,103,1.0969,100,113.289,97,76.9239,0\H,103,1.09748,100,111.146,97,-155.874,0\S,75,1.62558,74,106.138,70,175.068,0\S,61,1.7171,60,110.498,57,-179.259,0\S,64,1.73075,61,125.068,60,144.197,0\S,62,1.74825,60,118.334,57,0.169676,0\\\@

 Total job time:  78.00s(wall), 911.48s(cpu) 
 Fri Oct 12 00:42:52 2018

        *************************************************************
        *                                                           *
        *  Thank you very much for using Q-Chem.  Have a nice day.  *
        *                                                           *
        *************************************************************


