
Running Job 1 of 1 ./7/96.qcin
qchem ./7/96.qcin_62714.0 /tmpu/cab_g/afmv_a/scratch_qchem/qchem62714/ 1
/tmpu/appuserlic/qchem4.4/serial-multicore/exe/qcprog.exe_s ./7/96.qcin_62714.0 /tmpu/cab_g/afmv_a/scratch_qchem/qchem62714/
Check license passed

                  Welcome to Q-Chem
     A Quantum Leap Into The Future Of Chemistry


 Q-Chem 4.4, Q-Chem, Inc., Pleasanton, CA (2016)

 Y. Shao,  Z. Gan,  E. Epifanovsky,  A. T. B. Gilbert,  M. Wormit,  
 J. Kussmann,  A. W. Lange,  A. Behn,  J. Deng,  X. Feng,  D. Ghosh,  
 M. Goldey,  P. R. Horn,  L. D. Jacobson,  I. Kaliman,  F. Rob,  
 R. Z. Khaliullin,  T. Kus,  A. Landau,  J. Liu,  E. I. Proynov,  Y. M. Rhee,  
 R. M. Richard,  M. A. Rohrdanz,  R. P. Steele,  E. J. Sundstrom,  
 H. L. Woodcock III,  P. M. Zimmerman,  D. Zuev,  B. Albrecht,  E. Alguire,  
 B. Austin,  S. A. Baeppler,  G. J. O. Beran,  Y. A. Bernard,  E. Berquist,  
 K. Brandhorst,  K. B. Bravaya,  S. T. Brown,  D. Casanova,  C.-M. Chang,  
 Y. Chen,  S. H. Chien,  K. D. Closser,  M. P. Coons,  D. L. Crittenden,  
 S. Dasgupta,  M. Diedenhofen,  R. A. DiStasio Jr.,  H. Do,  A. D. Dutoi,  
 R. G. Edgar,  P.-T. Fang,  S. Fatehi,  Q. Feng,  L. Fusti-Molnar,  
 A. Ghysels,  A. Golubeva-Zadorozhnaya,  J. Gomes,  A. Gunina,  
 M. W. D. Hanson-Heine,  P. H. P. Harbach,  A. W. Hauser,  J. E. Herr,  
 E. G. Hohenstein,  Z. C. Holden,  K. Hui,  T.-C. Jagau,  H. Ji,  B. Kaduk,  
 K. Khistyaev,  Jaehoon Kim,  Jihan Kim,  R. A. King,  P. Klunzinger,  
 K. Koh,  D. Kosenkov,  T. Kowalczyk,  C. M. Krauter,  A. Kunitsa,  
 K. U. Lao,  A. Laurent,  K. V. Lawler,  J. Lee,  D. Lefrancois,  S. Lehtola,  
 S. V. Levchenko,  C. Y. Lin,  Y.-S. Lin,  F. Liu,  E. Livshits,  
 R. C. Lochan,  A. Luenser,  P. Manohar,  S. F. Manzer,  S.-P. Mao,  Y. Mao,  
 N. Mardirossian,  A. V. Marenich,  L. A. Martinez-Martinez,  S. A. Maurer,  
 N. J. Mayhall,  J.-M. Mewes,  A. F. Morrison,  K. Nanda,  T. S. Nguyen-Beck,  
 C. M. Oana,  R. Olivares-Amaya,  D. P. O'Neill,  J. A. Parkhill,  
 T. M. Perrine,  R. Peverati,  P. A. Pieniazek,  F. Plasser,  A. Prociuk,  
 D. R. Rehn,  E. Rosta,  N. J. Russ,  N. Sergueev,  S. M. Sharada,  
 S. Sharma,  D. W. Small,  A. Sodt,  T. Stauch,  T. Stein,  D. Stuck,  
 Y.-C. Su,  A. J. W. Thom,  T. Tsuchimochi,  L. Vogt,  O. Vydrov,  T. Wang,  
 M. A. Watson,  J. Wenzel,  A. White,  C. F. Williams,  V. Vanovschi,  
 K. Yao,  S. Yeganeh,  S. R. Yost,  Z.-Q. You,  I. Y. Zhang,  X. Zhang,  
 Y. Zhao,  B. R. Brooks,  G. K. L. Chan,  D. M. Chipman,  C. J. Cramer,  
 W. A. Goddard III,  M. S. Gordon,  W. J. Hehre,  A. Klamt,  
 H. F. Schaefer III,  M. W. Schmidt,  C. D. Sherrill,  D. G. Truhlar,  
 A. Warshel,  X. Xu,  A. Aspuru-Guzik,  R. Baer,  A. T. Bell,  N. A. Besley,  
 J.-D. Chai,  A. Dreuw,  B. D. Dunietz,  T. R. Furlani,  S. R. Gwaltney,  
 C.-P. Hsu,  Y. Jung,  J. Kong,  D. S. Lambrecht,  W. Liang,  C. Ochsenfeld,  
 V. A. Rassolov,  L. V. Slipchenko,  J. E. Subotnik,  T. Van Voorhis,  
 J. M. Herbert,  A. I. Krylov,  P. M. W. Gill,  M. Head-Gordon

 Contributors to earlier versions of Q-Chem not listed above: 
 R. D. Adamson,  J. Baker,  E. F. C. Byrd,  A. K. Chakraborty,  C.-L. Cheng,  
 H. Dachsel,  R. J. Doerksen,  G. Hawkins,  A. Heyden,  S. Hirata,  
 G. Kedziora,  F. J. Keil,  C. Kelley,  P. P. Korambath,  W. Kurlancheek,  
 A. M. Lee,  M. S. Lee,  D. Liotard,  I. Lotan,  P. E. Maslen,  N. Nair,  
 D. Neuhauser,  R. Olson,  B. Peters,  J. Ritchie,  N. E. Schultz,  
 N. Shenvi,  A. C. Simmonett,  K. S. Thanthiriwatte,  Q. Wu,  W. Zhang

 Please cite Q-Chem as follows:
 Y. Shao et al., Mol. Phys. 113, 184-215 (2015)
 DOI: 10.1080/00268976.2014.952696

 Q-Chem 4.4.2 for Intel X86 Linux

 Parts of Q-Chem use Armadillo 5.200.1 (Boston Tea Smuggler).
 http://arma.sourceforge.net/

 Q-Chem begins on Fri Oct 12 00:59:33 2018  

Host: 
0

     Scratch files written to /tmpu/cab_g/afmv_a/scratch_qchem/qchem62714//
 Dec716 11556_ 22328  22283 4050   
Processing $rem in /tmpu/appuserlic/qchem4.4/serial-multicore/config/preferences.
 MEM_TOTAL  2000 
FILE_GEOM_ORG=        593

Checking the input file for inconsistencies... 	...done.

--------------------------------------------------------------
User input:
--------------------------------------------------------------
$comment
SP
$end

$rem
MEM_STATIC 5000
MEM_TOTAL 20000
JOBTYPE SP
EXCHANGE B3LYP
BASIS 6-31g(d,p)
$end

$molecule
0 1
C          -3.156000     -9.386000      1.158000
C          -2.421000     -8.866000      0.031000
N          -4.273000     -8.823000      1.557000
C          -2.874000     -7.755000     -0.686000
C          -4.648000     -7.659000      0.944000
C          -3.999000     -7.038000     -0.191000
C          -4.539000     -5.783000     -0.858000
C          -5.885000     -5.488000     -0.832000
C          -3.718000     -4.826000     -1.481000
N          -6.425000     -4.401000     -1.479000
N          -2.390000     -4.834000     -1.470000
C          -4.229000     -3.691000     -2.094000
C          -5.635000     -3.462000     -2.062000
S          -1.911000     -3.524000     -2.349000
N          -3.338000     -2.910000     -2.769000
C          -6.305000     -2.357000     -2.712000
S          -5.548000     -1.034000     -3.675000
C          -7.649000     -2.015000     -2.664000
C          -7.084000     -0.173000     -3.956000
S          -8.902000     -2.946000     -1.903000
C          -8.021000     -0.827000     -3.262000
C          -7.303000      0.995000     -4.691000
C          -9.944000     -1.549000     -2.291000
C          -9.351000     -0.556000     -3.030000
N          -8.421000      1.149000     -5.374000
S          -6.178000      2.331000     -4.749000
C          -8.533000      2.460000     -5.860000
C          -7.378000      3.161000     -5.665000
C          -2.753000    -10.680000      1.919000
H          -1.564000     -9.449000     -0.292000
H          -2.380000     -7.572000     -1.636000
H          -5.524000     -7.199000      1.399000
H          -6.615000     -6.215000     -0.480000
H         -10.971000     -1.607000     -1.955000
H          -9.867000      0.328000     -3.387000
H          -9.457000      2.719000     -6.361000
H          -7.119000      4.182000     -5.912000
H          -1.717000    -10.852000      1.600000
C          -3.714000    -11.919000      1.698000
H          -2.718000    -10.508000      3.002000
H          -3.110000    -12.801000      1.946000
H          -3.923000    -12.009000      0.625000
C          -5.037000    -11.825000      2.447000
H          -4.701000    -11.652000      3.477000
C          -5.842000    -13.160000      2.401000
H          -5.657000    -11.045000      1.987000
H          -5.500000    -13.846000      3.186000
H          -5.480000    -13.717000      1.528000
C          -7.376000    -13.046000      2.484000
H          -7.665000    -12.302000      1.731000
C          -7.855000    -12.565000      3.844000
H          -7.782000    -14.003000      2.135000
H          -7.945000    -13.433000      4.509000
H          -8.853000    -12.111000      3.867000
H          -7.228000    -11.818000      4.347000
C         -22.262000      0.946000    -12.275000
C         -21.517000      0.034000    -13.049000
N         -21.697000      1.819000    -11.460000
C         -20.148000      0.023000    -12.914000
C         -20.376000      1.886000    -11.440000
C         -19.509000      0.973000    -12.098000
C         -18.012000      0.987000    -11.802000
C         -17.190000      0.147000    -12.644000
C         -17.342000      1.502000    -10.647000
N         -15.908000     -0.194000    -12.439000
N         -17.893000      2.259000     -9.718000
C         -15.969000      1.193000    -10.441000
C         -15.244000      0.313000    -11.326000
S         -16.727000      2.474000     -8.594000
N         -15.467000      1.765000     -9.376000
C         -13.829000     -0.183000    -11.114000
S         -12.869000     -0.019000     -9.639000
C         -13.094000     -0.912000    -12.011000
C         -11.482000     -0.883000    -10.277000
S         -13.449000     -1.382000    -13.595000
C         -11.804000     -1.211000    -11.556000
C         -10.218000     -0.906000     -9.638000
C         -11.775000     -1.963000    -13.736000
C         -11.004000     -1.865000    -12.575000
N          -9.487000     -1.978000     -9.924000
S          -9.768000     -0.008000     -8.239000
C          -8.322000     -1.981000     -9.208000
C          -8.346000     -1.100000     -8.165000
C         -23.804000      1.078000    -12.432000
H         -22.085000     -0.657000    -13.665000
H         -19.621000     -0.849000    -13.288000
H         -19.931000      2.557000    -10.707000
H         -17.633000     -0.330000    -13.517000
H         -11.478000     -2.396000    -14.682000
H          -9.994000     -2.232000    -12.433000
H          -7.510000     -2.639000     -9.487000
H          -7.556000     -0.951000     -7.440000
H         -24.170000      0.104000    -12.780000
C         -24.192000      2.209000    -13.370000
H         -24.224000      1.175000    -11.423000
H         -23.790000      1.949000    -14.357000
H         -23.725000      3.151000    -13.056000
C         -25.686000      2.467000    -13.623000
H         -25.916000      3.296000    -14.304000
C         -26.481000      2.634000    -12.352000
H         -26.113000      1.578000    -14.104000
H         -26.025000      3.522000    -11.897000
H         -26.334000      1.765000    -11.698000
C         -27.953000      2.883000    -12.503000
H         -28.303000      2.057000    -13.135000
C         -28.397000      4.253000    -13.075000
H         -28.419000      2.753000    -11.519000
H         -27.900000      5.037000    -12.492000
H         -29.492000      4.318000    -13.081000
H         -28.000000      4.421000    -14.084000
$end

--------------------------------------------------------------
 ----------------------------------------------------------------
             Standard Nuclear Orientation (Angstroms)
    I     Atom           X                Y                Z
 ----------------------------------------------------------------
    1      C      12.9807568639    -2.7120554467    -0.6676717999
    2      C      12.7032746998    -1.5002890494    -1.3993683538
    3      N      12.1535602691    -3.1535181569     0.2514122382
    4      C      11.5411849681    -0.7585547347    -1.1691583151
    5      C      11.0854605335    -2.3617001064     0.5730908509
    6      C      10.7005405164    -1.1302128429    -0.0829142559
    7      C       9.4452722504    -0.3592353074     0.2931299173
    8      C       8.3489432950    -1.0031626263     0.8249545401
    9      C       9.3369731281     1.0388471098     0.1851676329
   10      N       7.1702708991    -0.3567342276     1.1158835842
   11      N      10.3281558302     1.8597896308    -0.1425200661
   12      C       8.1796335851     1.7253201445     0.5234499929
   13      C       7.0680090403     0.9955871656     1.0353891016
   14      S       9.6887047411     3.3794069673    -0.1494088548
   15      N       8.1633466100     3.0618065781     0.2532542361
   16      C       5.7845278838     1.5743726497     1.3672150866
   17      S       5.2995218520     3.3058346129     1.2347174672
   18      C       4.6833777877     0.9570392646     1.9433851634
   19      C       3.6732708182     3.0452192977     1.9180660111
   20      S       4.5377207597    -0.7404531179     2.2798292772
   21      C       3.6163440227     1.7623778252     2.2900849574
   22      C       2.6520830750     3.9793809058     2.1102317805
   23      C       3.0087163234    -0.2799537170     3.0785800116
   24      C       2.6541577884     1.0407224148     2.9605893342
   25      N       1.3907441661     3.6233566991     1.9605657481
   26      S       2.9302736053     5.6384605837     2.5834649697
   27      C       0.5293248680     4.6388467161     2.4012445632
   28      C       1.2164723273     5.7848397427     2.6804923961
   29      C      14.2014859946    -3.6283699641    -0.9611919776
   30      H      13.3876856477    -1.2615648056    -2.2076129886
   31      H      11.3141783633     0.0055603700    -1.9071428056
   32      H      10.5074172102    -2.7438963642     1.4132056865
   33      H       8.2861125023    -2.0899587703     0.8410614579
   34      H       2.4561357049    -1.0783881942     3.5562263722
   35      H       1.7315237512     1.4601370948     3.3452954033
   36      H      -0.5297971733     4.4150005751     2.4046219801
   37      H       0.8737182334     6.7469037547     3.0375406672
   38      H      14.8598941703    -2.9912479085    -1.5655223181
   39      C      13.8537197216    -5.0209159831    -1.6300396465
   40      H      14.7539057908    -3.8588836822    -0.0417389910
   41      H      14.7808895438    -5.3463806217    -2.1185812412
   42      H      13.1460787100    -4.8452077745    -2.4494789818
   43      C      13.2492914774    -6.0401576194    -0.6729717364
   44      H      13.9948473750    -6.0635233626     0.1315936405
   45      C      13.1503274530    -7.4626509453    -1.3047033722
   46      H      12.2339130277    -5.7231467231    -0.4029519307
   47      H      14.1015831524    -7.9995391590    -1.2015111227
   48      H      13.1570135820    -7.3258582606    -2.3931265699
   49      C      12.0169355743    -8.3705180100    -0.7906593645
   50      H      11.0997571192    -7.7708868005    -0.8480361373
   51      C      12.2204083776    -8.8013612686     0.6527307092
   52      H      11.8992395127    -9.1744748740    -1.5270607482
   53      H      12.8575226333    -9.6945120027     0.6635099184
   54      H      11.3176577770    -9.1153085382     1.1904364513
   55      H      12.6679954721    -8.0593234333     1.3259265527
   56      C     -12.5483957026    -2.7969904798     0.0324026785
   57      C     -12.0655296333    -2.7034451997    -1.2881784965
   58      N     -12.0248322694    -2.1128880462     1.0341332769
   59      C     -10.9748759472    -1.9016600794    -1.5333766972
   60      C     -11.0631915360    -1.2468925527     0.7598543951
   61      C     -10.4261239155    -1.1177043334    -0.5033467967
   62      C      -9.1623187282    -0.2738078556    -0.6428322203
   63      C      -8.6879201148    -0.0582796224    -1.9914394783
   64      C      -8.2348550841     0.1081533227     0.3779845346
   65      N      -7.4943063855     0.4338840950    -2.3587147710
   66      N      -8.4287342338    -0.0260162792     1.6757134713
   67      C      -6.9859018191     0.6792826280     0.0078858199
   68      C      -6.5911799282     0.8209507886    -1.3731915715
   69      S      -7.0342858307     0.4666288204     2.3699551131
   70      N      -6.2542788605     1.0271090259     1.0360675370
   71      C      -5.2348253335     1.2853043208    -1.8609035875
   72      S      -3.7803572514     1.4925839644    -0.8782140395
   73      C      -4.8982774384     1.5431134146    -3.1634184571
   74      C      -2.7669389116     1.9743352158    -2.2266234730
   75      S      -5.8455755385     1.5373220905    -4.5629089966
   76      C      -3.5780984579     1.9836233344    -3.3170559199
   77      C      -1.4729350596     2.5285440501    -2.0686595566
   78      C      -4.4580146508     2.2256166022    -5.4350577499
   79      C      -3.2896681088     2.3766049843    -4.6839686298
   80      N      -0.6703799422     2.3332635710    -3.1093861384
   81      S      -0.7240124319     2.9571887276    -0.5781953208
   82      C       0.5848159644     2.8130700827    -2.8560899727
   83      C       0.7946977231     3.0560056307    -1.5288680746
   84      C     -13.8263102892    -3.6146239685     0.3762729847
   85      H     -12.5533144948    -3.3304677323    -2.0287658800
   86      H     -10.4495509972    -2.0541189615    -2.4708088207
   87      H     -10.5944064363    -0.7510649160     1.6083533550
   88      H      -9.3077668316    -0.3687834152    -2.8312516253
   89      H      -4.5878574562     2.4337477242    -6.4888301551
   90      H      -2.3215736193     2.7021808037    -5.0469375612
   91      H       1.2893721579     2.9559811365    -3.6643758138
   92      H       1.7181427213     3.4047019832    -1.0843613941
   93      H     -13.9072377372    -4.4058215142    -0.3795002563
   94      C     -15.0693058031    -2.7421534805     0.4337742877
   95      H     -13.6216222797    -4.1566777704     1.3080296561
   96      H     -15.2115654020    -2.3330900110    -0.5740958848
   97      H     -14.9198296573    -1.8985119644     1.1193214225
   98      C     -16.4135788935    -3.4084758760     0.7677702813
   99      H     -17.2808619619    -2.7372114421     0.8013282739
  100      C     -16.3699055358    -4.2261752973     2.0345833277
  101      H     -16.6457352682    -4.1324915045    -0.0233781165
  102      H     -16.1301675884    -3.4757763292     2.7980832329
  103      H     -15.5631748328    -4.9680548824     1.9772574688
  104      C     -17.6384747888    -4.9201628124     2.4354565983
  105      H     -17.9210856642    -5.4999230956     1.5476451841
  106      C     -18.8155975857    -4.0413250530     2.9286564702
  107      H     -17.3928281214    -5.6413566447     3.2240307363
  108      H     -18.4347388316    -3.3821987503     3.7173599167
  109      H     -19.6540085106    -4.6783841232     3.2360794070
  110      H     -19.1408191381    -3.3280520000     2.1609413578
 ----------------------------------------------------------------
 Molecular Point Group                 C1    NOp =  1
 Largest Abelian Subgroup              C1    NOp =  1
 Nuclear Repulsion Energy = 10314.9262495419 hartrees
 There are      270 alpha and      270 beta electrons
 Requested basis set is 6-31G(d,p)
 There are 406 shells and 1262 basis functions

 Total QAlloc Memory Limit  20000 MB
 Mega-Array Size      4888 MB
 MEM_STATIC part      5000 MB
 A cutoff of  1.0D-08 yielded  12570 shell pairs
 There are    131765 function pairs
 
 -------------------------------------------------------
 OpenMP Integral Computing Module                       
 Release: version 1.0, May 2013, Q-Chem Inc. Pittsburgh 
 -------------------------------------------------------
 Integral Job Info:
 Integral job number is                      11
 Integral operator is                         1
 short-range coefficients                     0
 long-range coefficients              100000000
 Omega coefficients                           0
 if combine SR and LR in K                    0
 Integral screening is                        0
 Integral computing path is                   2
 max size of driver memory is            800000
 size of driver memory is                593474
 size of scratch memory is             15166112
 max col of scratch BK array               1296
 max len of scratch array in speh3          155
 max len of scratch index in speh4           18
 max int batch size is                      520
 min int batch size is                       52
 fixed nKL is                                52
 max L of basis functions is                  2
 order of int derivative is                   0
 number of shells is                        406
 number of basis is                        1262
 number of cartesian basis is              1262
 number of contracted shell pairs         12570
 number of primitive shell pairs          41383
 maxK2 (contraction) of shell pair           36
 max number of K2 of shell pair               1
 max number of CS2 of shell pair           1265
 max number of PS2 of shell pair           7554
 mem total for path MDJ                  279544
 -------------------------------------------------------
 Smallest overlap matrix eigenvalue = 3.99E-04

 Scale SEOQF with 1.000000e-03/1.000000e-02/1.000000e-02

 Standard Electronic Orientation quadrupole field applied
 Nucleus-field energy     =     0.0000000332 hartrees
 Guess from superposition of atomic densities
 Warning:  Energy on first SCF cycle will be non-variational
 A restricted hybrid HF-DFT SCF calculation will be
 performed using Pulay DIIS extrapolation
 Exchange:     0.2000 Hartree-Fock + 0.0800 Slater + 0.7200 B88
 Correlation:  0.1900 VWN1RPA + 0.8100 LYP
 Using SG-1 standard quadrature grid
 SCF converges when DIIS error is below 1.0E-05
 using 16 threads for integral computing 
 -------------------------------------------------------
 OpenMP BLAS3 based DFT computing Module                
 Release: version 1.0, May 2013, Q-Chem Inc. Pittsburgh 
 -------------------------------------------------------
 ---------------------------------------
  Cycle       Energy         DIIS Error
 ---------------------------------------
    1   -5680.4734414082      2.16E-02
    2   -5662.5173789972      2.16E-03
    3   -5660.9223030665      3.42E-03
    4   -5663.3436600639      9.37E-04
    5   -5663.5060619797      3.85E-04
    6   -5663.5223672904      2.54E-04
    7   -5663.5345279344      7.29E-05
    8   -5663.5354519009      2.75E-05
    9   -5663.5355932461      1.11E-05
   10   -5663.5356222879      3.57E-06 Convergence criterion met
 ---------------------------------------
 SCF time:  CPU 1003.92 s  wall 83.76 s
 SCF   energy in the final basis set = -5663.5356222879
 Total energy in the final basis set = -5663.5356222879
 
 --------------------------------------------------------------
 
                    Orbital Energies (a.u.)
 --------------------------------------------------------------
 
 Alpha MOs
 -- Occupied --
-88.993 -88.984 -88.934 -88.926 -88.925 -88.916 -88.910 -88.906
-14.395 -14.385 -14.385 -14.380 -14.354 -14.353 -14.352 -14.335
-14.332 -14.321 -10.274 -10.270 -10.269 -10.261 -10.260 -10.258
-10.257 -10.256 -10.246 -10.244 -10.241 -10.241 -10.239 -10.238
-10.238 -10.235 -10.233 -10.233 -10.230 -10.230 -10.228 -10.228
-10.226 -10.224 -10.224 -10.222 -10.222 -10.219 -10.216 -10.216
-10.215 -10.208 -10.203 -10.203 -10.203 -10.196 -10.196 -10.194
-10.191 -10.183 -10.183 -10.178 -10.176 -10.172 -10.172 -10.172
-10.171 -10.171 -10.168 -10.165  -8.048  -8.040  -7.996  -7.986
 -7.983  -7.976  -7.970  -7.967  -6.014  -6.008  -6.006  -6.005
 -5.999  -5.997  -5.960  -5.957  -5.954  -5.950  -5.948  -5.947
 -5.944  -5.943  -5.940  -5.940  -5.936  -5.934  -5.933  -5.931
 -5.931  -5.927  -5.926  -5.923  -1.049  -1.045  -0.979  -0.967
 -0.956  -0.946  -0.944  -0.941  -0.923  -0.915  -0.914  -0.912
 -0.847  -0.843  -0.834  -0.826  -0.819  -0.815  -0.808  -0.805
 -0.804  -0.798  -0.797  -0.796  -0.783  -0.782  -0.772  -0.764
 -0.757  -0.748  -0.743  -0.738  -0.720  -0.716  -0.712  -0.707
 -0.695  -0.692  -0.679  -0.675  -0.656  -0.656  -0.652  -0.644
 -0.642  -0.634  -0.628  -0.620  -0.613  -0.613  -0.603  -0.600
 -0.594  -0.587  -0.585  -0.582  -0.580  -0.578  -0.564  -0.560
 -0.551  -0.550  -0.543  -0.536  -0.533  -0.526  -0.522  -0.507
 -0.506  -0.505  -0.504  -0.499  -0.492  -0.482  -0.480  -0.478
 -0.474  -0.474  -0.468  -0.466  -0.453  -0.453  -0.453  -0.445
 -0.444  -0.442  -0.440  -0.439  -0.435  -0.434  -0.434  -0.432
 -0.427  -0.426  -0.423  -0.420  -0.420  -0.417  -0.415  -0.413
 -0.410  -0.407  -0.406  -0.405  -0.399  -0.399  -0.398  -0.397
 -0.396  -0.395  -0.394  -0.393  -0.393  -0.391  -0.387  -0.384
 -0.382  -0.379  -0.378  -0.377  -0.365  -0.363  -0.360  -0.357
 -0.356  -0.353  -0.353  -0.349  -0.348  -0.347  -0.339  -0.338
 -0.337  -0.333  -0.332  -0.329  -0.328  -0.325  -0.320  -0.318
 -0.313  -0.312  -0.310  -0.307  -0.304  -0.303  -0.303  -0.302
 -0.299  -0.298  -0.294  -0.292  -0.290  -0.288  -0.285  -0.274
 -0.274  -0.271  -0.269  -0.267  -0.262  -0.253  -0.250  -0.248
 -0.244  -0.240  -0.235  -0.228  -0.202  -0.192
 -- Virtual --
 -0.117  -0.113  -0.076  -0.067  -0.041  -0.035  -0.030  -0.025
 -0.020  -0.015  -0.013  -0.010  -0.005  -0.003  -0.003   0.000
  0.001   0.011   0.017   0.027   0.034   0.035   0.041   0.042
  0.045   0.049   0.057   0.064   0.073   0.079   0.089   0.093
  0.094   0.098   0.098   0.102   0.106   0.109   0.111   0.112
  0.117   0.118   0.121   0.122   0.123   0.124   0.127   0.130
  0.131   0.133   0.133   0.134   0.135   0.138   0.144   0.147
  0.151   0.152   0.155   0.156   0.160   0.163   0.164   0.166
  0.169   0.173   0.174   0.175   0.177   0.179   0.180   0.180
  0.183   0.184   0.192   0.192   0.196   0.196   0.197   0.201
  0.205   0.206   0.212   0.213   0.215   0.216   0.217   0.220
  0.221   0.222   0.228   0.229   0.233   0.236   0.237   0.239
  0.242   0.247   0.247   0.248   0.249   0.253   0.257   0.259
  0.262   0.263   0.264   0.269   0.273   0.276   0.278   0.281
  0.282   0.284   0.285   0.290   0.298   0.299   0.305   0.307
  0.308   0.310   0.313   0.314   0.317   0.320   0.322   0.324
  0.326   0.329   0.332   0.333   0.335   0.343   0.349   0.349
  0.351   0.354   0.361   0.364   0.366   0.367   0.367   0.371
  0.376   0.379   0.381   0.386   0.391   0.394   0.399   0.403
  0.405   0.409   0.411   0.416   0.420   0.428   0.429   0.436
  0.441   0.451   0.454   0.460   0.461   0.465   0.470   0.471
  0.475   0.477   0.480   0.482   0.494   0.498   0.499   0.500
  0.502   0.504   0.506   0.509   0.509   0.511   0.516   0.518
  0.519   0.519   0.523   0.526   0.526   0.528   0.530   0.532
  0.533   0.536   0.536   0.538   0.542   0.542   0.546   0.548
  0.550   0.550   0.551   0.554   0.556   0.557   0.560   0.562
  0.564   0.566   0.569   0.571   0.572   0.576   0.578   0.579
  0.585   0.586   0.589   0.590   0.591   0.595   0.596   0.598
  0.598   0.600   0.601   0.602   0.606   0.608   0.612   0.613
  0.615   0.617   0.618   0.619   0.621   0.624   0.625   0.629
  0.630   0.633   0.635   0.638   0.641   0.642   0.645   0.648
  0.653   0.655   0.657   0.661   0.663   0.665   0.667   0.671
  0.671   0.674   0.675   0.685   0.687   0.687   0.690   0.696
  0.699   0.701   0.703   0.706   0.709   0.712   0.714   0.717
  0.720   0.722   0.724   0.725   0.732   0.737   0.744   0.746
  0.748   0.752   0.753   0.756   0.757   0.762   0.765   0.770
  0.775   0.776   0.779   0.781   0.784   0.785   0.793   0.795
  0.799   0.799   0.804   0.805   0.807   0.808   0.812   0.813
  0.815   0.816   0.820   0.821   0.826   0.827   0.828   0.829
  0.830   0.831   0.832   0.835   0.836   0.838   0.840   0.841
  0.843   0.843   0.844   0.846   0.848   0.850   0.853   0.854
  0.856   0.859   0.861   0.862   0.864   0.868   0.870   0.872
  0.874   0.876   0.877   0.878   0.881   0.883   0.887   0.888
  0.892   0.894   0.901   0.902   0.902   0.904   0.907   0.912
  0.917   0.917   0.919   0.920   0.921   0.925   0.929   0.930
  0.932   0.936   0.940   0.941   0.943   0.944   0.945   0.947
  0.949   0.950   0.953   0.958   0.961   0.963   0.967   0.968
  0.971   0.972   0.975   0.976   0.978   0.980   0.981   0.986
  0.987   0.991   0.995   0.998   0.999   1.003   1.003   1.005
  1.008   1.009   1.012   1.016   1.018   1.021   1.023   1.024
  1.028   1.029   1.033   1.036   1.039   1.039   1.045   1.052
  1.053   1.054   1.062   1.065   1.071   1.077   1.079   1.081
  1.082   1.083   1.087   1.091   1.100   1.102   1.107   1.113
  1.117   1.120   1.128   1.129   1.134   1.140   1.141   1.150
  1.151   1.153   1.155   1.161   1.162   1.166   1.171   1.182
  1.185   1.192   1.203   1.204   1.209   1.213   1.221   1.224
  1.233   1.234   1.240   1.250   1.251   1.259   1.261   1.262
  1.270   1.272   1.273   1.280   1.287   1.295   1.298   1.301
  1.305   1.308   1.310   1.316   1.328   1.335   1.336   1.338
  1.344   1.345   1.356   1.361   1.365   1.367   1.369   1.374
  1.376   1.379   1.382   1.384   1.391   1.399   1.404   1.405
  1.411   1.415   1.420   1.424   1.427   1.432   1.432   1.442
  1.445   1.450   1.455   1.458   1.459   1.461   1.467   1.473
  1.477   1.478   1.483   1.493   1.498   1.506   1.518   1.520
  1.529   1.530   1.537   1.541   1.543   1.550   1.553   1.554
  1.562   1.569   1.576   1.581   1.594   1.598   1.603   1.612
  1.615   1.623   1.624   1.630   1.637   1.645   1.647   1.648
  1.650   1.656   1.658   1.666   1.669   1.672   1.675   1.679
  1.685   1.687   1.689   1.691   1.693   1.697   1.707   1.708
  1.716   1.719   1.731   1.734   1.735   1.737   1.745   1.746
  1.751   1.756   1.758   1.761   1.764   1.768   1.773   1.776
  1.780   1.786   1.789   1.798   1.803   1.807   1.809   1.823
  1.825   1.830   1.832   1.833   1.837   1.838   1.840   1.847
  1.852   1.853   1.856   1.858   1.866   1.870   1.872   1.873
  1.876   1.881   1.882   1.888   1.892   1.896   1.898   1.902
  1.906   1.907   1.908   1.910   1.913   1.921   1.921   1.923
  1.931   1.931   1.938   1.941   1.942   1.943   1.950   1.954
  1.956   1.958   1.960   1.964   1.966   1.974   1.982   1.994
  1.995   2.007   2.008   2.010   2.016   2.018   2.019   2.022
  2.037   2.039   2.045   2.048   2.053   2.060   2.063   2.066
  2.076   2.082   2.086   2.087   2.092   2.098   2.103   2.105
  2.108   2.114   2.119   2.122   2.125   2.126   2.133   2.137
  2.139   2.143   2.150   2.151   2.156   2.157   2.161   2.165
  2.168   2.169   2.174   2.179   2.180   2.181   2.183   2.187
  2.195   2.198   2.200   2.203   2.208   2.210   2.212   2.213
  2.217   2.221   2.234   2.240   2.241   2.248   2.249   2.254
  2.255   2.256   2.268   2.270   2.273   2.275   2.276   2.285
  2.286   2.287   2.291   2.293   2.301   2.303   2.304   2.307
  2.313   2.314   2.318   2.320   2.325   2.330   2.333   2.335
  2.340   2.341   2.345   2.347   2.350   2.358   2.359   2.363
  2.364   2.367   2.369   2.374   2.377   2.383   2.395   2.398
  2.401   2.404   2.405   2.406   2.414   2.415   2.419   2.420
  2.421   2.425   2.434   2.434   2.438   2.440   2.440   2.448
  2.450   2.456   2.462   2.462   2.467   2.471   2.474   2.476
  2.478   2.485   2.489   2.493   2.494   2.494   2.495   2.503
  2.512   2.514   2.520   2.521   2.527   2.532   2.537   2.539
  2.543   2.543   2.549   2.554   2.554   2.557   2.558   2.566
  2.567   2.571   2.576   2.579   2.583   2.588   2.597   2.603
  2.607   2.608   2.614   2.614   2.624   2.628   2.634   2.638
  2.648   2.648   2.652   2.653   2.663   2.665   2.668   2.674
  2.675   2.678   2.683   2.690   2.694   2.697   2.704   2.708
  2.712   2.713   2.715   2.727   2.735   2.736   2.737   2.744
  2.749   2.752   2.754   2.764   2.768   2.775   2.782   2.787
  2.791   2.795   2.803   2.807   2.811   2.816   2.825   2.827
  2.834   2.840   2.850   2.855   2.856   2.872   2.873   2.876
  2.883   2.893   2.895   2.900   2.901   2.910   2.911   2.915
  2.918   2.919   2.931   2.936   2.938   2.942   2.955   2.960
  2.968   2.973   2.979   2.980   2.986   2.994   3.004   3.025
  3.029   3.052   3.063   3.063   3.075   3.077   3.095   3.117
  3.151   3.177   3.188   3.203   3.210   3.213   3.221   3.234
  3.239   3.249   3.253   3.255   3.264   3.269   3.273   3.276
  3.281   3.289   3.316   3.320   3.325   3.333   3.333   3.340
  3.343   3.346   3.357   3.388   3.391   3.408   3.412   3.422
  3.433   3.454   3.469   3.481   3.482   3.487   3.514   3.514
  3.549   3.551   3.566   3.569   3.588   3.605   3.622   3.622
  3.628   3.668   3.703   3.745   3.842   3.848   3.909   3.914
  3.945   3.949   3.959   3.964   3.970   3.982   3.992   4.004
  4.011   4.045   4.070   4.072   4.080   4.084   4.097   4.115
  4.122   4.130   4.145   4.152   4.161   4.176   4.176   4.182
  4.202   4.203   4.245   4.245   4.254   4.259   4.261   4.271
  4.273   4.276   4.318   4.335   4.369   4.375   4.381   4.393
  4.409   4.424   4.452   4.469   4.470   4.475   4.498   4.502
  4.508   4.526   4.542   4.544   4.603   4.624   4.658   4.664
  4.676   4.682   4.715   4.741   4.749   4.769   4.785   4.792
 --------------------------------------------------------------
 
          Ground-State Mulliken Net Atomic Charges

     Atom                 Charge (a.u.)
  ----------------------------------------
      1 C                     0.270512
      2 C                    -0.127210
      3 N                    -0.464322
      4 C                    -0.052848
      5 C                     0.054933
      6 C                     0.032612
      7 C                     0.061919
      8 C                     0.044501
      9 C                     0.250027
     10 N                    -0.547661
     11 N                    -0.557184
     12 C                     0.170335
     13 C                     0.323244
     14 S                     0.602382
     15 N                    -0.542018
     16 C                    -0.217584
     17 S                     0.294766
     18 C                    -0.124873
     19 C                    -0.235409
     20 S                     0.292570
     21 C                     0.217276
     22 C                     0.026309
     23 C                    -0.316517
     24 C                    -0.048976
     25 N                    -0.431588
     26 S                     0.284080
     27 C                     0.115636
     28 C                    -0.302436
     29 C                    -0.227973
     30 H                     0.088748
     31 H                     0.111616
     32 H                     0.101604
     33 H                     0.123091
     34 H                     0.121311
     35 H                     0.114452
     36 H                     0.130339
     37 H                     0.136934
     38 H                     0.086314
     39 C                    -0.187947
     40 H                     0.115860
     41 H                     0.094940
     42 H                     0.092514
     43 C                    -0.147093
     44 H                     0.092379
     45 C                    -0.188674
     46 H                     0.118006
     47 H                     0.085068
     48 H                     0.082463
     49 C                    -0.175605
     50 H                     0.092638
     51 C                    -0.320284
     52 H                     0.093598
     53 H                     0.101370
     54 H                     0.098741
     55 H                     0.113404
     56 C                     0.245380
     57 C                    -0.116294
     58 N                    -0.461850
     59 C                    -0.081603
     60 C                     0.053821
     61 C                     0.042258
     62 C                     0.037566
     63 C                     0.056118
     64 C                     0.246168
     65 N                    -0.524692
     66 N                    -0.559753
     67 C                     0.221052
     68 C                     0.298513
     69 S                     0.584472
     70 N                    -0.563561
     71 C                    -0.226740
     72 S                     0.295825
     73 C                    -0.080622
     74 C                    -0.210987
     75 S                     0.289247
     76 C                     0.128959
     77 C                     0.018053
     78 C                    -0.324010
     79 C                    -0.037153
     80 N                    -0.418427
     81 S                     0.290743
     82 C                     0.133834
     83 C                    -0.308404
     84 C                    -0.212758
     85 H                     0.090288
     86 H                     0.102203
     87 H                     0.127604
     88 H                     0.109230
     89 H                     0.121098
     90 H                     0.125248
     91 H                     0.117392
     92 H                     0.137301
     93 H                     0.085035
     94 C                    -0.167637
     95 H                     0.117896
     96 H                     0.088761
     97 H                     0.111899
     98 C                    -0.178196
     99 H                     0.091551
    100 C                    -0.163997
    101 H                     0.080157
    102 H                     0.085305
    103 H                     0.090516
    104 C                    -0.174536
    105 H                     0.085023
    106 C                    -0.319014
    107 H                     0.090404
    108 H                     0.104083
    109 H                     0.105155
    110 H                     0.101782
  ----------------------------------------
  Sum of atomic charges =     0.000000

 -----------------------------------------------------------------
                    Cartesian Multipole Moments
 -----------------------------------------------------------------
    Charge (ESU x 10^10)
                 0.0000
    Dipole Moment (Debye)
         X       3.0171      Y       3.0679      Z      -0.6853
       Tot       4.3571
    Quadrupole Moments (Debye-Ang)
        XX    -438.1206     XY      20.7684     YY    -424.7503
        XZ      -5.0675     YZ      10.6540     ZZ    -433.3372
    Octopole Moments (Debye-Ang^2)
       XXX     405.7310    XXY       8.8112    XYY       1.3350
       YYY     156.1897    XXZ    -475.0860    XYZ     -47.1034
       YYZ      43.4653    XZZ       6.3562    YZZ      55.7078
       ZZZ     -45.3038
    Hexadecapole Moments (Debye-Ang^3)
      XXXX -219710.5240   XXXY    2166.2472   XXYY  -41573.4536
      XYYY     750.7022   YYYY  -27666.9717   XXXZ    -161.1318
      XXYZ    1139.1305   XYYZ     -28.1865   YYYZ     542.5425
      XXZZ  -38987.1329   XYZZ     -31.3524   YYZZ   -6374.5807
      XZZZ     124.7496   YZZZ    -176.1514   ZZZZ  -10775.3471
 -----------------------------------------------------------------
Archival summary:
1\1\mn246\SP\ProcedureUnspecified\6-31G**\8105042\afmv_a\FriOct1201:01:002018FriOct1201:01:002018\0\\#,ProcedureUnspecified,6-31G**,\\0,1\S\C,1,1.75423\C,2,1.35908,1,105.891\C,3,1.40019,2,118.2,1,4.66539,0\C,4,1.36977,3,113.279,2,-6.51158,0\C,2,1.41653,1,123.33,3,-166.831,0\N,6,1.32866,2,114.012,1,-154.191,0\C,7,1.36744,6,110.965,2,175.953,0\H,8,1.08173,7,120.385,6,165.061,0\C,8,1.3655,7,112.554,6,-15.2868,0\H,10,1.08256,8,125.981,7,-177.737,0\C,3,1.45123,2,129.713,1,-176.211,0\H,12,1.08395,3,125.047,2,-2.37697,0\C,12,1.39713,3,108.113,2,179.161,0\H,14,1.08195,12,127.097,3,-179.839,0\C,5,1.51433,4,125.735,3,-178.843,0\N,16,1.39166,5,116.006,4,-10.3459,0\C,17,1.34232,16,119.031,5,-176.34,0\H,18,1.08899,17,113.558,16,177.723,0\C,16,1.44335,5,125.677,4,173.333,0\N,20,1.30897,16,124.936,5,-5.27211,0\C,20,1.42234,16,121.906,5,173.519,0\N,22,1.31897,20,115.21,16,-176.361,0\C,22,1.43114,20,119.382,16,3.41332,0\C,24,1.52605,22,128.25,20,-167.977,0\C,25,1.40594,24,124.376,22,152.473,0\H,26,1.08535,25,121.479,24,-8.05049,0\C,26,1.37568,25,120.255,24,-175.443,0\H,28,1.08608,26,124.821,25,-179.415,0\C,28,1.4092,26,118.514,25,4.8296,0\N,30,1.3212,28,122.708,26,-2.31031,0\C,31,1.32285,30,118.024,28,-4.26138,0\H,32,1.08883,31,116.712,30,175.441,0\C,30,1.55558,28,121.57,26,-176.32,0\H,34,1.09715,30,106.7,28,-27.6563,0\H,34,1.09722,30,107.106,28,-138.584,0\C,34,1.51972,30,112.242,28,95.7811,0\H,37,1.09698,34,106.582,30,-63.1553,0\H,37,1.09729,34,110.708,30,53.7654,0\C,37,1.53708,34,118.338,30,179.816,0\H,40,1.09722,37,115.64,34,-179.775,0\H,40,1.09727,37,108.325,34,62.7727,0\C,40,1.50843,37,113.089,34,-52.823,0\H,43,1.09704,40,102.71,37,-61.8979,0\H,43,1.09749,40,110.112,37,54.9541,0\C,43,1.50053,40,116.782,37,179.693,0\H,46,1.0965,43,107.874,40,-167.256,0\H,46,1.09736,43,104.237,40,-53.7776,0\C,46,1.54959,43,117.706,40,69.8986,0\H,49,1.09615,46,107.824,43,51.7384,0\H,49,1.09694,46,109.903,43,177.044,0\H,49,1.09723,46,111.786,43,-60.1208,0\S,23,1.63376,22,105.186,20,3.46376,0\S,4,1.68996,3,116.023,2,178.366,0\S,6,1.72224,2,126.237,1,5.80891,0\N,11,3.07027,10,109.828,8,178.4,0\C,56,1.31914,11,91.7065,10,-177.066,0\C,57,1.39729,56,120.184,11,71.3078,0\C,58,1.33691,57,124.899,56,38.3793,0\C,59,1.37701,58,131.923,57,2.78198,0\H,60,1.08405,59,124.384,58,2.21057,0\C,60,1.37252,59,111.446,58,-177.65,0\H,62,1.08212,60,128.025,59,-179.754,0\C,59,1.38106,58,117.18,57,-175.86,0\C,64,1.38766,59,117.252,58,-6.72936,0\C,56,1.40266,11,115.38,10,68.8211,0\H,66,1.08252,56,116.881,11,-82.7931,0\C,66,1.36508,56,111.279,11,93.6389,0\H,68,1.08191,66,130.885,56,179.883,0\C,65,1.44652,64,128.414,59,-173.382,0\N,70,1.35857,65,116.839,64,-10.1439,0\C,71,1.37542,70,121.319,65,179.795,0\H,72,1.08873,71,114.618,70,174.959,0\C,72,1.37819,71,122.938,70,7.59111,0\C,74,1.40642,72,115.647,71,-6.1042,0\N,75,1.32807,74,125.166,72,-171.286,0\C,75,1.38749,74,122.503,72,3.28534,0\N,77,1.36362,75,116.524,74,173.995,0\C,74,1.52037,72,121.017,71,176.61,0\C,79,1.42293,74,122.966,72,-147.464,0\H,80,1.08629,79,125.372,74,8.73254,0\C,80,1.39772,79,118.575,74,-177.373,0\H,82,1.08566,80,122.01,79,179.569,0\C,82,1.44248,80,121.479,79,-7.36818,0\N,84,1.31296,82,121.087,80,0.646151,0\C,85,1.36795,84,117.51,82,5.78916,0\H,86,1.08904,85,113.123,84,173.878,0\C,84,1.55434,82,123.403,80,-175.178,0\H,88,1.09713,84,111.165,82,-129.931,0\H,88,1.09756,84,103.468,82,-16.1675,0\C,88,1.5835,84,115.196,82,109.157,0\H,91,1.09686,88,108.443,84,-46.1449,0\H,91,1.09738,88,105.266,84,-158.177,0\C,91,1.52321,88,114.217,84,75.2251,0\H,94,1.09714,91,101.851,88,54.0105,0\H,94,1.09745,91,109.174,88,-70.3628,0\C,94,1.5596,91,112.395,88,170.173,0\H,97,1.09701,94,106.724,91,22.3587,0\H,97,1.09717,94,110.684,91,-83.8896,0\C,97,1.54047,94,116.683,91,151.338,0\H,100,1.09658,97,106.676,94,-163.031,0\H,100,1.0973,97,105.99,94,-50.3657,0\C,100,1.52,97,112.671,94,68.0871,0\H,103,1.09665,100,115.884,97,-158.002,0\H,103,1.09715,100,108.53,97,85.6278,0\H,103,1.09734,100,116.455,97,-36.32,0\S,78,1.60926,77,103.396,75,9.89254,0\S,68,1.72278,66,114.702,56,6.07545,0\S,64,1.73663,59,117.165,58,173.829,0\S,58,1.78314,57,128.428,56,-145.121,0\\\@

 Total job time:  86.84s(wall), 1014.00s(cpu) 
 Fri Oct 12 01:01:00 2018

        *************************************************************
        *                                                           *
        *  Thank you very much for using Q-Chem.  Have a nice day.  *
        *                                                           *
        *************************************************************


