
Running Job 1 of 1 ./6/16.qcin
qchem ./6/16.qcin_20297.0 /tmpu/cab_g/afmv_a/scratch_qchem/qchem20297/ 1
/tmpu/appuserlic/qchem4.4/serial-multicore/exe/qcprog.exe_s ./6/16.qcin_20297.0 /tmpu/cab_g/afmv_a/scratch_qchem/qchem20297/
Check license passed

                  Welcome to Q-Chem
     A Quantum Leap Into The Future Of Chemistry


 Q-Chem 4.4, Q-Chem, Inc., Pleasanton, CA (2016)

 Y. Shao,  Z. Gan,  E. Epifanovsky,  A. T. B. Gilbert,  M. Wormit,  
 J. Kussmann,  A. W. Lange,  A. Behn,  J. Deng,  X. Feng,  D. Ghosh,  
 M. Goldey,  P. R. Horn,  L. D. Jacobson,  I. Kaliman,  F. Rob,  
 R. Z. Khaliullin,  T. Kus,  A. Landau,  J. Liu,  E. I. Proynov,  Y. M. Rhee,  
 R. M. Richard,  M. A. Rohrdanz,  R. P. Steele,  E. J. Sundstrom,  
 H. L. Woodcock III,  P. M. Zimmerman,  D. Zuev,  B. Albrecht,  E. Alguire,  
 B. Austin,  S. A. Baeppler,  G. J. O. Beran,  Y. A. Bernard,  E. Berquist,  
 K. Brandhorst,  K. B. Bravaya,  S. T. Brown,  D. Casanova,  C.-M. Chang,  
 Y. Chen,  S. H. Chien,  K. D. Closser,  M. P. Coons,  D. L. Crittenden,  
 S. Dasgupta,  M. Diedenhofen,  R. A. DiStasio Jr.,  H. Do,  A. D. Dutoi,  
 R. G. Edgar,  P.-T. Fang,  S. Fatehi,  Q. Feng,  L. Fusti-Molnar,  
 A. Ghysels,  A. Golubeva-Zadorozhnaya,  J. Gomes,  A. Gunina,  
 M. W. D. Hanson-Heine,  P. H. P. Harbach,  A. W. Hauser,  J. E. Herr,  
 E. G. Hohenstein,  Z. C. Holden,  K. Hui,  T.-C. Jagau,  H. Ji,  B. Kaduk,  
 K. Khistyaev,  Jaehoon Kim,  Jihan Kim,  R. A. King,  P. Klunzinger,  
 K. Koh,  D. Kosenkov,  T. Kowalczyk,  C. M. Krauter,  A. Kunitsa,  
 K. U. Lao,  A. Laurent,  K. V. Lawler,  J. Lee,  D. Lefrancois,  S. Lehtola,  
 S. V. Levchenko,  C. Y. Lin,  Y.-S. Lin,  F. Liu,  E. Livshits,  
 R. C. Lochan,  A. Luenser,  P. Manohar,  S. F. Manzer,  S.-P. Mao,  Y. Mao,  
 N. Mardirossian,  A. V. Marenich,  L. A. Martinez-Martinez,  S. A. Maurer,  
 N. J. Mayhall,  J.-M. Mewes,  A. F. Morrison,  K. Nanda,  T. S. Nguyen-Beck,  
 C. M. Oana,  R. Olivares-Amaya,  D. P. O'Neill,  J. A. Parkhill,  
 T. M. Perrine,  R. Peverati,  P. A. Pieniazek,  F. Plasser,  A. Prociuk,  
 D. R. Rehn,  E. Rosta,  N. J. Russ,  N. Sergueev,  S. M. Sharada,  
 S. Sharma,  D. W. Small,  A. Sodt,  T. Stauch,  T. Stein,  D. Stuck,  
 Y.-C. Su,  A. J. W. Thom,  T. Tsuchimochi,  L. Vogt,  O. Vydrov,  T. Wang,  
 M. A. Watson,  J. Wenzel,  A. White,  C. F. Williams,  V. Vanovschi,  
 K. Yao,  S. Yeganeh,  S. R. Yost,  Z.-Q. You,  I. Y. Zhang,  X. Zhang,  
 Y. Zhao,  B. R. Brooks,  G. K. L. Chan,  D. M. Chipman,  C. J. Cramer,  
 W. A. Goddard III,  M. S. Gordon,  W. J. Hehre,  A. Klamt,  
 H. F. Schaefer III,  M. W. Schmidt,  C. D. Sherrill,  D. G. Truhlar,  
 A. Warshel,  X. Xu,  A. Aspuru-Guzik,  R. Baer,  A. T. Bell,  N. A. Besley,  
 J.-D. Chai,  A. Dreuw,  B. D. Dunietz,  T. R. Furlani,  S. R. Gwaltney,  
 C.-P. Hsu,  Y. Jung,  J. Kong,  D. S. Lambrecht,  W. Liang,  C. Ochsenfeld,  
 V. A. Rassolov,  L. V. Slipchenko,  J. E. Subotnik,  T. Van Voorhis,  
 J. M. Herbert,  A. I. Krylov,  P. M. W. Gill,  M. Head-Gordon

 Contributors to earlier versions of Q-Chem not listed above: 
 R. D. Adamson,  J. Baker,  E. F. C. Byrd,  A. K. Chakraborty,  C.-L. Cheng,  
 H. Dachsel,  R. J. Doerksen,  G. Hawkins,  A. Heyden,  S. Hirata,  
 G. Kedziora,  F. J. Keil,  C. Kelley,  P. P. Korambath,  W. Kurlancheek,  
 A. M. Lee,  M. S. Lee,  D. Liotard,  I. Lotan,  P. E. Maslen,  N. Nair,  
 D. Neuhauser,  R. Olson,  B. Peters,  J. Ritchie,  N. E. Schultz,  
 N. Shenvi,  A. C. Simmonett,  K. S. Thanthiriwatte,  Q. Wu,  W. Zhang

 Please cite Q-Chem as follows:
 Y. Shao et al., Mol. Phys. 113, 184-215 (2015)
 DOI: 10.1080/00268976.2014.952696

 Q-Chem 4.4.2 for Intel X86 Linux

 Parts of Q-Chem use Armadillo 5.200.1 (Boston Tea Smuggler).
 http://arma.sourceforge.net/

 Q-Chem begins on Sun Oct  7 03:39:46 2018  

Host: 
0

     Scratch files written to /tmpu/cab_g/afmv_a/scratch_qchem/qchem20297//
 Dec716 11556_ 22328  22283 4050   
Processing $rem in /tmpu/appuserlic/qchem4.4/serial-multicore/config/preferences.
 MEM_TOTAL  2000 
FILE_GEOM_ORG=        593

Checking the input file for inconsistencies... 	...done.

--------------------------------------------------------------
User input:
--------------------------------------------------------------
$comment
SP
$end

$rem
MEM_STATIC 5000
MEM_TOTAL 20000
JOBTYPE SP
EXCHANGE B3LYP
BASIS 6-31g(d,p)
$end

$molecule
0 1
C           2.875000    -31.196000      0.969000
C           2.037000    -30.609000      1.979000
N           4.020000    -30.645000      0.580000
C           2.375000    -29.378000      2.513000
C           4.323000    -29.439000      1.054000
C           3.558000    -28.740000      2.006000
C           3.881000    -27.328000      2.493000
C           2.882000    -26.329000      2.681000
C           5.196000    -26.868000      2.760000
N           3.098000    -25.102000      3.131000
N           6.280000    -27.603000      2.607000
C           5.432000    -25.572000      3.209000
C           4.380000    -24.697000      3.445000
S           7.518000    -26.626000      3.033000
N           6.686000    -25.378000      3.560000
C           4.608000    -23.309000      3.999000
S           6.197000    -22.524000      4.381000
C           3.543000    -22.401000      4.252000
C           5.378000    -21.172000      5.112000
S           1.809000    -22.474000      4.066000
C           4.029000    -21.235000      4.864000
C           6.103000    -20.124000      5.766000
C           1.762000    -20.856000      4.870000
C           2.993000    -20.349000      5.249000
N           7.361000    -19.999000      5.608000
S           5.372000    -18.896000      6.692000
C           7.862000    -18.881000      6.204000
C           6.912000    -18.093000      6.746000
C           2.453000    -32.440000      0.268000
H           1.083000    -31.034000      2.276000
H           1.798000    -28.921000      3.312000
H           5.235000    -29.020000      0.632000
H           1.856000    -26.603000      2.442000
H           0.810000    -20.355000      4.985000
H           3.020000    -19.377000      5.728000
H           8.910000    -18.714000      5.993000
H           7.027000    -17.041000      6.968000
H           1.359000    -32.485000      0.196000
C           3.139000    -33.723000      0.723000
H           2.741000    -32.281000     -0.779000
H           2.833000    -33.775000      1.776000
H           4.235000    -33.760000      0.716000
C           2.594000    -34.955000      0.018000
H           1.501000    -34.930000      0.113000
C           3.076000    -36.239000      0.661000
H           2.711000    -34.894000     -1.071000
H           2.831000    -36.275000      1.730000
H           4.165000    -36.141000      0.750000
C           2.677000    -37.503000     -0.118000
H           1.631000    -37.450000     -0.443000
C           2.917000    -38.794000      0.674000
H           3.313000    -37.502000     -1.012000
H           3.895000    -38.857000      1.167000
H           2.821000    -39.697000      0.058000
H           2.239000    -38.919000      1.527000
C           2.552000    -19.423000      0.911000
C           1.615000    -19.367000      1.903000
N           2.292000    -20.010000     -0.274000
C           0.356000    -20.027000      1.772000
C           1.119000    -20.647000     -0.442000
C           0.127000    -20.790000      0.559000
C          -1.119000    -21.663000      0.426000
C          -1.605000    -21.781000     -0.928000
C          -1.774000    -22.445000      1.425000
N          -2.690000    -22.546000     -1.296000
N          -1.449000    -22.446000      2.737000
C          -2.752000    -23.271000      1.047000
C          -3.232000    -23.320000     -0.304000
S          -2.524000    -23.585000      3.354000
N          -3.238000    -24.069000      1.963000
C          -4.539000    -23.977000     -0.688000
S          -5.912000    -24.214000      0.427000
C          -4.799000    -24.658000     -1.851000
C          -6.764000    -25.270000     -0.721000
S          -3.693000    -25.021000     -3.115000
C          -5.997000    -25.329000     -1.880000
C          -8.061000    -25.851000     -0.404000
C          -4.928000    -26.001000     -3.868000
C          -6.131000    -26.039000     -3.093000
N          -8.822000    -26.186000     -1.383000
S          -8.635000    -25.902000      1.234000
C          -9.936000    -26.668000     -0.786000
C          -9.882000    -26.891000      0.540000
C           3.973000    -18.827000      1.046000
H           1.844000    -18.807000      2.805000
H          -0.336000    -19.917000      2.602000
H           0.904000    -21.108000     -1.405000
H          -1.137000    -21.222000     -1.737000
H          -4.586000    -26.563000     -4.728000
H          -6.993000    -26.659000     -3.311000
H         -10.790000    -26.726000     -1.448000
H         -10.625000    -27.292000      1.216000
H           4.116000    -18.583000      2.106000
C           4.462000    -17.774000      0.089000
H           4.488000    -19.787000      0.922000
H           3.808000    -16.896000      0.161000
H           4.343000    -18.123000     -0.944000
C           5.879000    -17.374000      0.321000
H           6.005000    -17.236000      1.402000
C           6.327000    -16.045000     -0.486000
H           6.540000    -18.195000      0.018000
H           5.503000    -15.327000     -0.391000
H           6.367000    -16.277000     -1.558000
C           7.716000    -15.512000      0.065000
H           7.675000    -15.414000      1.157000
C           8.136000    -14.252000     -0.730000
H           8.459000    -16.272000     -0.207000
H           7.336000    -13.529000     -0.533000
H           8.176000    -14.473000     -1.804000
H           9.095000    -13.794000     -0.458000
$end

--------------------------------------------------------------
 ----------------------------------------------------------------
             Standard Nuclear Orientation (Angstroms)
    I     Atom           X                Y                Z
 ----------------------------------------------------------------
    1      C       3.6726070016     6.0546744655    -0.6597680572
    2      C       3.5838370594     5.2235837385     0.5099845239
    3      N       2.6143213603     6.3585007328    -1.4038568294
    4      C       2.3746130049     4.6358991864     0.8373452626
    5      C       1.4615996988     5.7563602352    -1.1217565064
    6      C       1.2614821935     4.8835601998    -0.0362598080
    7      C      -0.0488558063     4.1468507343     0.2385410101
    8      C      -0.0961973823     2.7813320340     0.6440819505
    9      C      -1.3308676228     4.7318303671     0.0761879027
   10      N      -1.1975635644     2.1020743793     0.9274308015
   11      N      -1.5308517221     5.9673891866    -0.3386503352
   12      C      -2.4927371868     4.0155578205     0.3480808138
   13      C      -2.4316306076     2.7122998597     0.8232751672
   14      S      -3.1541442418     6.1491845365    -0.3614723866
   15      N      -3.5732328847     4.7663709920     0.3015874981
   16      C      -3.6779606935     1.9399402150     1.1914679105
   17      S      -5.3988284472     2.4891896271     1.0365187010
   18      C      -3.6348814550     0.6066038284     1.6844752730
   19      C      -5.9505194504     1.0708786263     1.8833108491
   20      S      -2.3514433551    -0.5274773282     2.0211168837
   21      C      -4.9211003781     0.1771583639     2.0471231390
   22      C      -7.3304735250     0.8934842820     2.2237561437
   23      C      -3.6313499841    -1.6123506103     2.6930082312
   24      C      -4.9169614616    -1.1003983805     2.6589635055
   25      N      -8.2350217517     1.6185598290     1.6953519834
   26      S      -7.9081224821    -0.3456550910     3.2389784329
   27      C      -9.4946027549     1.2316013727     2.0415597960
   28      C      -9.5229733514     0.1070853019     2.7844371182
   29      C       4.9913087033     6.5699021846    -1.1208398729
   30      H       4.4493348477     4.9414411578     1.1018114771
   31      H       2.2506651113     4.0412075865     1.7379882666
   32      H       0.6612287195     5.9954993822    -1.8200456756
   33      H       0.8540539015     2.2583761040     0.7358021393
   34      H      -3.3521001639    -2.5952716683     3.0485581316
   35      H      -5.7225854887    -1.7158420503     3.0425687927
   36      H     -10.2705342081     1.7776186783     1.5214545356
   37      H     -10.3769140619    -0.5474970092     2.8917695967
   38      H       5.7885987286     5.8606344689    -0.8652759419
   39      C       5.2802211261     8.0323519303    -0.8022800618
   40      H       4.9565827117     6.4848396858    -2.2144542825
   41      H       5.2526820331     8.0284345345     0.2951602566
   42      H       4.5579475620     8.7904361421    -1.1282604700
   43      C       6.6758626537     8.4560514080    -1.2318583192
   44      H       7.3815232517     7.7223004059    -0.8220393502
   45      C       7.0563273902     9.8119801379    -0.6740654689
   46      H       6.8357860844     8.3215862245    -2.3087402119
   47      H       6.9720271940     9.8396426653     0.4196485072
   48      H       6.2218917562    10.4819570025    -0.9155073328
   49      C       8.3931184414    10.3450815482    -1.2149264229
   50      H       9.1561217634     9.5574677461    -1.2212848330
   51      C       8.9052934974    11.5674438445    -0.4435302028
   52      H       8.1887341581    10.6311549248    -2.2542156454
   53      H       8.1521721227    12.3428589413    -0.2563361251
   54      H       9.7464240537    12.0654021241    -0.9421462264
   55      H       9.2336148691    11.3372312004     0.5773151407
   56      C      -4.1258596170    -2.7391796373    -1.4102814938
   57      C      -3.7799173078    -3.2526989357    -0.1929931759
   58      N      -3.2411452841    -2.6686945814    -2.4245331421
   59      C      -2.4348665451    -3.6336832379     0.0960248294
   60      C      -1.9610227663    -3.0146792000    -2.1975904553
   61      C      -1.4439994857    -3.4187093132    -0.9422177637
   62      C       0.0380387238    -3.6362830867    -0.6446301317
   63      C       0.8008997190    -4.0842622991    -1.7851535762
   64      C       0.7612481028    -3.3503706467     0.5527721694
   65      N       2.1599153433    -4.3091850404    -1.7661721828
   66      N       0.2005306621    -2.9298280798     1.7085013336
   67      C       2.0913218336    -3.4609523300     0.5348958734
   68      C       2.8022170835    -3.9546818622    -0.6091587987
   69      S       1.5532826689    -2.7236833503     2.6889101047
   70      N       2.7313635448    -3.0633078368     1.6046067993
   71      C       4.2434474184    -4.4090028804    -0.5475022148
   72      S       5.0556355747    -4.9815480688     0.9347479011
   73      C       5.1866227831    -4.2667003137    -1.5344673666
   74      C       6.6555950988    -4.9594943249     0.1610637578
   75      S       5.0049642326    -3.4588391147    -3.0401437775
   76      C       6.4711041525    -4.5831668398    -1.1653568824
   77      C       7.8568904278    -5.3541584429     0.8831363070
   78      C       6.7127939040    -3.6869628690    -3.3298183643
   79      C       7.3608508654    -4.3433002528    -2.2350483367
   80      N       8.8589060307    -5.7699872636     0.1955040480
   81      S       7.8606570791    -5.4474806505     2.6170330103
   82      C       9.7951337938    -6.0711921893     1.1242032288
   83      C       9.5675794721    -5.6679562740     2.3877461949
   84      C      -5.5390278691    -2.2027625620    -1.7387540384
   85      H      -4.5518458683    -3.3679617653     0.5623119132
   86      H      -2.2513990963    -4.0478495341     1.0832785832
   87      H      -1.2504563197    -2.9715446957    -3.0218172077
   88      H       0.3086030737    -4.3034441583    -2.7315093896
   89      H       7.0848371164    -3.1822723635    -4.2125863643
   90      H       8.4296685735    -4.5016043997    -2.1482352966
   91      H      10.5897435118    -6.7017999183     0.7475690718
   92      H      10.1744537311    -5.7680494982     3.2774152235
   93      H      -6.0773577394    -2.1210694584    -0.7863296648
   94      C      -6.3445414260    -2.7903409684    -2.8655541653
   95      H      -5.2039374698    -1.1791025838    -1.9437800697
   96      H      -6.5151943445    -3.8552151178    -2.6638002875
   97      H      -5.7579451841    -2.7754033403    -3.7922324893
   98      C      -7.6462957035    -2.0989507256    -3.0872032872
   99      H      -8.1060939267    -1.9482179285    -2.1026494706
  100      C      -8.6509096797    -2.8916379471    -4.0774516034
  101      H      -7.4596058303    -1.1065737383    -3.5151119297
  102      H      -8.6020907372    -3.9500778873    -3.7931162313
  103      H      -8.2427833925    -2.8616573542    -5.0958533403
  104      C     -10.1067567986    -2.2664794384    -3.9956163705
  105      H     -10.4279239232    -2.1965051765    -2.9488574294
  106      C     -11.0482416913    -3.0257972230    -4.9615706649
  107      H     -10.0257732512    -1.2589289323    -4.4221332431
  108      H     -11.0456142489    -4.0560847555    -4.5873532186
  109      H     -10.6471051088    -3.0041320608    -5.9826177073
  110      H     -12.0867847093    -2.6764321307    -5.0144992210
 ----------------------------------------------------------------
 Molecular Point Group                 C1    NOp =  1
 Largest Abelian Subgroup              C1    NOp =  1
 Nuclear Repulsion Energy = 11270.9972035305 hartrees
 There are      270 alpha and      270 beta electrons
 Requested basis set is 6-31G(d,p)
 There are 406 shells and 1262 basis functions

 Total QAlloc Memory Limit  20000 MB
 Mega-Array Size      4888 MB
 MEM_STATIC part      5000 MB
 A cutoff of  1.0D-08 yielded  13012 shell pairs
 There are    136088 function pairs
 
 -------------------------------------------------------
 OpenMP Integral Computing Module                       
 Release: version 1.0, May 2013, Q-Chem Inc. Pittsburgh 
 -------------------------------------------------------
 Integral Job Info:
 Integral job number is                      11
 Integral operator is                         1
 short-range coefficients                     0
 long-range coefficients              100000000
 Omega coefficients                           0
 if combine SR and LR in K                    0
 Integral screening is                        0
 Integral computing path is                   2
 max size of driver memory is            800000
 size of driver memory is                593474
 size of scratch memory is             15166112
 max col of scratch BK array               1296
 max len of scratch array in speh3          155
 max len of scratch index in speh4           18
 max int batch size is                      520
 min int batch size is                       52
 fixed nKL is                                52
 max L of basis functions is                  2
 order of int derivative is                   0
 number of shells is                        406
 number of basis is                        1262
 number of cartesian basis is              1262
 number of contracted shell pairs         13012
 number of primitive shell pairs          42324
 maxK2 (contraction) of shell pair           36
 max number of K2 of shell pair               1
 max number of CS2 of shell pair           1312
 max number of PS2 of shell pair           7716
 mem total for path MDJ                  279544
 -------------------------------------------------------
 Smallest overlap matrix eigenvalue = 4.03E-04

 Scale SEOQF with 1.000000e-02/1.000000e-02/1.000000e-02

 Standard Electronic Orientation quadrupole field applied
 Nucleus-field energy     =     0.0000001204 hartrees
 Guess from superposition of atomic densities
 Warning:  Energy on first SCF cycle will be non-variational
 A restricted hybrid HF-DFT SCF calculation will be
 performed using Pulay DIIS extrapolation
 Exchange:     0.2000 Hartree-Fock + 0.0800 Slater + 0.7200 B88
 Correlation:  0.1900 VWN1RPA + 0.8100 LYP
 Using SG-1 standard quadrature grid
 SCF converges when DIIS error is below 1.0E-05
 using 16 threads for integral computing 
 -------------------------------------------------------
 OpenMP BLAS3 based DFT computing Module                
 Release: version 1.0, May 2013, Q-Chem Inc. Pittsburgh 
 -------------------------------------------------------
 ---------------------------------------
  Cycle       Energy         DIIS Error
 ---------------------------------------
    1   -5680.4464511686      2.17E-02
    2   -5662.4485782351      2.19E-03
    3   -5660.6773136063      3.51E-03
    4   -5663.2651317223      9.85E-04
    5   -5663.4626074219      3.90E-04
    6   -5663.4786257109      2.78E-04
    7   -5663.4925848979      1.04E-04
    8   -5663.4946118751      3.44E-05
    9   -5663.4948036741      1.65E-05
   10   -5663.4948608479      5.58E-06 Convergence criterion met
 ---------------------------------------
 SCF time:  CPU 1007.97 s  wall 88.77 s
 SCF   energy in the final basis set = -5663.4948608479
 Total energy in the final basis set = -5663.4948608479
 
 --------------------------------------------------------------
 
                    Orbital Energies (a.u.)
 --------------------------------------------------------------
 
 Alpha MOs
 -- Occupied --
-88.990 -88.984 -88.926 -88.924 -88.923 -88.922 -88.914 -88.907
-14.393 -14.391 -14.378 -14.372 -14.356 -14.348 -14.342 -14.333
-14.326 -14.324 -10.268 -10.268 -10.261 -10.261 -10.258 -10.254
-10.246 -10.245 -10.244 -10.243 -10.243 -10.239 -10.237 -10.234
-10.233 -10.232 -10.229 -10.229 -10.228 -10.228 -10.226 -10.226
-10.225 -10.225 -10.223 -10.223 -10.221 -10.221 -10.221 -10.216
-10.214 -10.210 -10.209 -10.206 -10.205 -10.201 -10.198 -10.192
-10.182 -10.182 -10.181 -10.180 -10.179 -10.178 -10.175 -10.173
-10.173 -10.172 -10.171 -10.171  -8.046  -8.041  -7.988  -7.987
 -7.981  -7.981  -7.972  -7.968  -6.010  -6.006  -6.005  -6.003
 -6.000  -5.998  -5.952  -5.950  -5.949  -5.947  -5.945  -5.945
 -5.945  -5.943  -5.942  -5.941  -5.938  -5.937  -5.937  -5.933
 -5.932  -5.929  -5.929  -5.924  -1.052  -1.050  -0.995  -0.988
 -0.951  -0.948  -0.942  -0.935  -0.917  -0.914  -0.912  -0.908
 -0.844  -0.841  -0.828  -0.824  -0.820  -0.811  -0.811  -0.808
 -0.808  -0.800  -0.794  -0.790  -0.784  -0.779  -0.768  -0.764
 -0.752  -0.752  -0.743  -0.741  -0.722  -0.722  -0.712  -0.704
 -0.695  -0.688  -0.676  -0.674  -0.655  -0.653  -0.644  -0.641
 -0.636  -0.632  -0.623  -0.621  -0.611  -0.611  -0.605  -0.596
 -0.593  -0.593  -0.587  -0.581  -0.579  -0.577  -0.576  -0.572
 -0.557  -0.543  -0.540  -0.534  -0.530  -0.524  -0.521  -0.520
 -0.504  -0.503  -0.502  -0.495  -0.486  -0.486  -0.480  -0.478
 -0.475  -0.471  -0.467  -0.466  -0.466  -0.456  -0.449  -0.445
 -0.442  -0.442  -0.441  -0.437  -0.436  -0.432  -0.431  -0.431
 -0.430  -0.423  -0.423  -0.419  -0.417  -0.415  -0.414  -0.411
 -0.410  -0.408  -0.403  -0.402  -0.401  -0.400  -0.398  -0.396
 -0.396  -0.392  -0.392  -0.390  -0.386  -0.385  -0.382  -0.380
 -0.378  -0.377  -0.375  -0.372  -0.367  -0.359  -0.357  -0.356
 -0.355  -0.354  -0.351  -0.351  -0.349  -0.345  -0.342  -0.339
 -0.337  -0.336  -0.334  -0.332  -0.329  -0.325  -0.321  -0.318
 -0.317  -0.315  -0.310  -0.308  -0.307  -0.305  -0.302  -0.300
 -0.300  -0.298  -0.295  -0.290  -0.288  -0.285  -0.284  -0.277
 -0.274  -0.271  -0.266  -0.265  -0.258  -0.254  -0.250  -0.248
 -0.242  -0.242  -0.231  -0.229  -0.194  -0.190
 -- Virtual --
 -0.117  -0.110  -0.078  -0.069  -0.042  -0.033  -0.031  -0.025
 -0.019  -0.019  -0.011  -0.008  -0.005  -0.003   0.000   0.008
  0.011   0.014   0.016   0.024   0.028   0.033   0.035   0.038
  0.050   0.052   0.057   0.066   0.078   0.081   0.085   0.094
  0.094   0.099   0.101   0.104   0.107   0.110   0.112   0.113
  0.114   0.116   0.119   0.120   0.121   0.123   0.125   0.126
  0.127   0.131   0.134   0.135   0.138   0.141   0.144   0.146
  0.150   0.153   0.157   0.160   0.162   0.162   0.163   0.165
  0.169   0.172   0.174   0.177   0.178   0.178   0.180   0.183
  0.184   0.187   0.190   0.192   0.194   0.197   0.199   0.200
  0.202   0.205   0.207   0.208   0.209   0.213   0.216   0.217
  0.219   0.224   0.229   0.231   0.233   0.234   0.237   0.238
  0.241   0.245   0.245   0.247   0.249   0.251   0.252   0.255
  0.263   0.263   0.268   0.273   0.276   0.277   0.279   0.281
  0.282   0.285   0.286   0.292   0.295   0.298   0.304   0.306
  0.309   0.315   0.316   0.318   0.320   0.321   0.322   0.324
  0.324   0.330   0.332   0.334   0.335   0.347   0.348   0.353
  0.354   0.355   0.357   0.359   0.364   0.364   0.366   0.367
  0.368   0.378   0.380   0.383   0.391   0.397   0.398   0.404
  0.407   0.409   0.412   0.416   0.422   0.427   0.435   0.435
  0.445   0.446   0.448   0.455   0.461   0.464   0.465   0.471
  0.475   0.478   0.485   0.486   0.489   0.493   0.498   0.500
  0.502   0.504   0.506   0.511   0.512   0.517   0.518   0.518
  0.522   0.524   0.525   0.527   0.528   0.532   0.533   0.534
  0.537   0.538   0.540   0.543   0.545   0.546   0.548   0.549
  0.550   0.555   0.558   0.559   0.562   0.562   0.564   0.566
  0.568   0.573   0.574   0.575   0.575   0.577   0.578   0.580
  0.584   0.585   0.587   0.589   0.593   0.596   0.599   0.600
  0.601   0.602   0.603   0.608   0.609   0.610   0.611   0.614
  0.618   0.619   0.621   0.622   0.627   0.629   0.629   0.632
  0.634   0.637   0.639   0.642   0.643   0.646   0.647   0.652
  0.657   0.659   0.659   0.661   0.664   0.669   0.672   0.673
  0.676   0.678   0.683   0.684   0.685   0.689   0.696   0.699
  0.704   0.706   0.710   0.714   0.716   0.716   0.721   0.722
  0.727   0.730   0.733   0.738   0.740   0.746   0.748   0.753
  0.756   0.757   0.759   0.760   0.765   0.765   0.767   0.769
  0.775   0.778   0.781   0.785   0.785   0.787   0.788   0.792
  0.794   0.797   0.798   0.799   0.801   0.803   0.804   0.806
  0.812   0.814   0.815   0.816   0.820   0.823   0.824   0.826
  0.829   0.830   0.831   0.831   0.833   0.833   0.836   0.837
  0.838   0.840   0.842   0.847   0.849   0.852   0.855   0.856
  0.858   0.859   0.859   0.864   0.865   0.869   0.870   0.872
  0.873   0.877   0.877   0.881   0.884   0.888   0.890   0.893
  0.895   0.898   0.900   0.902   0.908   0.912   0.913   0.915
  0.915   0.919   0.920   0.921   0.922   0.923   0.927   0.928
  0.930   0.931   0.935   0.936   0.940   0.941   0.942   0.944
  0.945   0.948   0.950   0.953   0.954   0.958   0.960   0.961
  0.963   0.965   0.968   0.970   0.972   0.974   0.978   0.979
  0.982   0.983   0.984   0.987   0.993   0.994   1.000   1.000
  1.003   1.007   1.010   1.012   1.015   1.019   1.021   1.024
  1.027   1.028   1.034   1.036   1.038   1.042   1.045   1.046
  1.051   1.055   1.057   1.060   1.062   1.065   1.070   1.073
  1.074   1.088   1.091   1.092   1.098   1.101   1.108   1.111
  1.119   1.122   1.129   1.133   1.134   1.138   1.148   1.150
  1.151   1.156   1.159   1.165   1.169   1.174   1.179   1.188
  1.191   1.200   1.202   1.214   1.218   1.226   1.227   1.232
  1.233   1.240   1.245   1.251   1.261   1.264   1.268   1.271
  1.279   1.282   1.288   1.289   1.293   1.296   1.303   1.307
  1.310   1.312   1.319   1.322   1.323   1.326   1.332   1.339
  1.340   1.347   1.353   1.354   1.356   1.361   1.365   1.370
  1.371   1.377   1.378   1.387   1.388   1.389   1.390   1.398
  1.401   1.410   1.413   1.416   1.423   1.425   1.430   1.438
  1.438   1.446   1.449   1.452   1.457   1.458   1.462   1.464
  1.473   1.476   1.479   1.481   1.486   1.490   1.498   1.503
  1.514   1.517   1.521   1.524   1.528   1.535   1.547   1.559
  1.565   1.566   1.572   1.577   1.586   1.599   1.606   1.611
  1.622   1.624   1.627   1.630   1.640   1.642   1.651   1.653
  1.654   1.660   1.666   1.670   1.675   1.676   1.679   1.683
  1.689   1.690   1.693   1.694   1.704   1.705   1.708   1.715
  1.717   1.723   1.725   1.727   1.732   1.733   1.736   1.738
  1.738   1.745   1.757   1.759   1.771   1.772   1.778   1.778
  1.783   1.785   1.791   1.797   1.801   1.804   1.806   1.813
  1.824   1.834   1.834   1.836   1.842   1.846   1.847   1.850
  1.851   1.856   1.861   1.865   1.869   1.870   1.874   1.878
  1.880   1.885   1.889   1.891   1.896   1.897   1.901   1.903
  1.906   1.909   1.914   1.915   1.924   1.925   1.930   1.932
  1.937   1.942   1.943   1.944   1.947   1.949   1.950   1.952
  1.959   1.962   1.963   1.967   1.971   1.987   1.988   1.999
  2.005   2.009   2.013   2.014   2.017   2.027   2.031   2.033
  2.036   2.046   2.047   2.048   2.049   2.050   2.059   2.070
  2.073   2.076   2.077   2.079   2.088   2.092   2.093   2.101
  2.107   2.111   2.121   2.122   2.127   2.130   2.130   2.134
  2.135   2.139   2.140   2.143   2.151   2.151   2.156   2.163
  2.167   2.167   2.173   2.178   2.181   2.182   2.188   2.192
  2.194   2.196   2.202   2.204   2.205   2.212   2.223   2.225
  2.227   2.237   2.238   2.239   2.242   2.243   2.249   2.253
  2.253   2.262   2.267   2.269   2.274   2.279   2.282   2.287
  2.292   2.293   2.297   2.299   2.301   2.309   2.313   2.315
  2.316   2.320   2.322   2.326   2.327   2.329   2.334   2.339
  2.341   2.342   2.343   2.346   2.353   2.361   2.367   2.370
  2.372   2.376   2.376   2.383   2.389   2.390   2.394   2.400
  2.405   2.411   2.412   2.415   2.417   2.420   2.423   2.427
  2.428   2.433   2.437   2.440   2.443   2.445   2.449   2.450
  2.455   2.456   2.459   2.461   2.465   2.469   2.475   2.478
  2.481   2.484   2.486   2.489   2.490   2.494   2.499   2.503
  2.509   2.510   2.515   2.520   2.528   2.530   2.533   2.533
  2.541   2.542   2.547   2.549   2.552   2.552   2.558   2.560
  2.562   2.573   2.586   2.588   2.598   2.599   2.600   2.606
  2.618   2.623   2.623   2.631   2.634   2.650   2.654   2.655
  2.659   2.662   2.667   2.672   2.672   2.677   2.678   2.682
  2.684   2.688   2.690   2.692   2.694   2.699   2.702   2.702
  2.703   2.704   2.712   2.725   2.727   2.744   2.747   2.749
  2.754   2.756   2.770   2.778   2.784   2.787   2.791   2.794
  2.796   2.804   2.805   2.810   2.813   2.831   2.835   2.837
  2.848   2.850   2.864   2.865   2.870   2.874   2.880   2.884
  2.893   2.894   2.895   2.898   2.902   2.904   2.908   2.914
  2.921   2.922   2.927   2.938   2.945   2.948   2.951   2.955
  2.965   2.966   2.970   2.971   2.985   2.995   3.004   3.034
  3.036   3.046   3.050   3.074   3.082   3.090   3.123   3.139
  3.157   3.180   3.186   3.193   3.207   3.220   3.226   3.236
  3.240   3.247   3.261   3.267   3.276   3.278   3.281   3.287
  3.291   3.294   3.298   3.301   3.309   3.321   3.325   3.328
  3.336   3.337   3.352   3.360   3.385   3.392   3.418   3.426
  3.428   3.447   3.472   3.487   3.490   3.504   3.530   3.546
  3.548   3.557   3.568   3.578   3.591   3.608   3.609   3.621
  3.626   3.631   3.726   3.733   3.836   3.855   3.902   3.932
  3.943   3.949   3.951   3.962   3.979   3.980   3.989   3.994
  4.056   4.067   4.074   4.084   4.089   4.096   4.115   4.119
  4.126   4.134   4.144   4.161   4.165   4.170   4.177   4.190
  4.192   4.207   4.245   4.251   4.252   4.262   4.267   4.270
  4.274   4.281   4.324   4.339   4.372   4.373   4.379   4.387
  4.404   4.425   4.451   4.458   4.462   4.472   4.481   4.489
  4.516   4.518   4.528   4.530   4.567   4.572   4.646   4.662
  4.678   4.689   4.713   4.720   4.757   4.779   4.782   4.788
 --------------------------------------------------------------
 
          Ground-State Mulliken Net Atomic Charges

     Atom                 Charge (a.u.)
  ----------------------------------------
      1 C                     0.264018
      2 C                    -0.120320
      3 N                    -0.468610
      4 C                    -0.075460
      5 C                     0.088999
      6 C                     0.028396
      7 C                     0.022318
      8 C                     0.068934
      9 C                     0.230538
     10 N                    -0.529280
     11 N                    -0.557812
     12 C                     0.208694
     13 C                     0.295927
     14 S                     0.596772
     15 N                    -0.539864
     16 C                    -0.241013
     17 S                     0.356933
     18 C                    -0.105330
     19 C                    -0.208295
     20 S                     0.309626
     21 C                     0.118909
     22 C                     0.080529
     23 C                    -0.315231
     24 C                    -0.082030
     25 N                    -0.425620
     26 S                     0.252232
     27 C                     0.121675
     28 C                    -0.316302
     29 C                    -0.231679
     30 H                     0.089440
     31 H                     0.104106
     32 H                     0.112615
     33 H                     0.105741
     34 H                     0.121544
     35 H                     0.123850
     36 H                     0.115525
     37 H                     0.134745
     38 H                     0.096533
     39 C                    -0.169915
     40 H                     0.116380
     41 H                     0.091394
     42 H                     0.112397
     43 C                    -0.174506
     44 H                     0.086586
     45 C                    -0.173660
     46 H                     0.092453
     47 H                     0.089403
     48 H                     0.088935
     49 C                    -0.169663
     50 H                     0.095073
     51 C                    -0.325887
     52 H                     0.099525
     53 H                     0.101773
     54 H                     0.098248
     55 H                     0.101698
     56 C                     0.259546
     57 C                    -0.103637
     58 N                    -0.492064
     59 C                    -0.074881
     60 C                     0.088661
     61 C                     0.025983
     62 C                     0.017308
     63 C                     0.049011
     64 C                     0.287288
     65 N                    -0.480097
     66 N                    -0.578967
     67 C                     0.203184
     68 C                     0.238453
     69 S                     0.586011
     70 N                    -0.531821
     71 C                    -0.197586
     72 S                     0.297604
     73 C                    -0.111335
     74 C                    -0.252483
     75 S                     0.280601
     76 C                     0.189606
     77 C                     0.084878
     78 C                    -0.309599
     79 C                    -0.081500
     80 N                    -0.414034
     81 S                     0.265022
     82 C                     0.117234
     83 C                    -0.299320
     84 C                    -0.217930
     85 H                     0.081742
     86 H                     0.106071
     87 H                     0.096909
     88 H                     0.121853
     89 H                     0.136639
     90 H                     0.118639
     91 H                     0.108713
     92 H                     0.128070
     93 H                     0.088333
     94 C                    -0.165886
     95 H                     0.127135
     96 H                     0.087289
     97 H                     0.114760
     98 C                    -0.176869
     99 H                     0.086472
    100 C                    -0.184654
    101 H                     0.097816
    102 H                     0.089697
    103 H                     0.095363
    104 C                    -0.177133
    105 H                     0.095773
    106 C                    -0.316381
    107 H                     0.098784
    108 H                     0.101859
    109 H                     0.104615
    110 H                     0.097271
  ----------------------------------------
  Sum of atomic charges =     0.000000

 -----------------------------------------------------------------
                    Cartesian Multipole Moments
 -----------------------------------------------------------------
    Charge (ESU x 10^10)
                 0.0000
    Dipole Moment (Debye)
         X       0.3099      Y      -2.1085      Z       4.2449
       Tot       4.7498
    Quadrupole Moments (Debye-Ang)
        XX    -387.8042     XY       6.1739     YY    -453.4142
        XZ       5.6800     YZ     -19.5393     ZZ    -437.2164
    Octopole Moments (Debye-Ang^2)
       XXX     -17.4245    XXY    -171.5384    XYY      11.0624
       YYY      -8.5022    XXZ     191.5978    XYZ     -13.9276
       YYZ     138.9049    XZZ      68.7256    YZZ     -48.6537
       ZZZ      18.5523
    Hexadecapole Moments (Debye-Ang^3)
      XXXX  -77398.9835   XXXY   -1496.0291   XXYY  -22591.7275
      XYYY    -590.0232   YYYY  -57514.0057   XXXZ      34.6764
      XXYZ   -1297.5293   XYYZ     720.0826   YYYZ    -553.8265
      XXZZ  -15199.6834   XYZZ    -294.4644   YYZZ  -11218.9118
      XZZZ     144.6622   YZZZ    -264.5944   ZZZZ  -10594.1732
 -----------------------------------------------------------------
Archival summary:
1\1\mn426\SP\ProcedureUnspecified\6-31G**\8105042\afmv_a\SunOct703:41:182018SunOct703:41:182018\0\\#,ProcedureUnspecified,6-31G**,\\0,1\S\C,1,1.74547\C,2,1.40367,1,115.161\C,3,1.37305,2,117.196,1,-175.783,0\C,3,1.41652,2,112.634,1,-1.64066,0\H,5,1.08395,3,131.511,2,179.393,0\C,5,1.38421,3,110.298,2,2.16053,0\H,7,1.08191,5,125.719,3,175.936,0\C,2,1.42222,1,134.287,3,-175.031,0\C,4,1.43236,3,127.831,2,177.397,0\N,10,1.27403,4,120.994,3,160.041,0\C,11,1.3624,10,112.915,4,-174.381,0\H,12,1.082,11,113.424,10,174.259,0\C,12,1.34804,11,113.355,10,4.73795,0\H,14,1.0813,12,125.191,11,158.66,0\C,9,1.51177,2,122.576,1,0.0717412,0\N,16,1.38063,9,119.519,2,-1.89964,0\C,17,1.32465,16,120.026,9,178.072,0\H,18,1.08852,17,117.481,16,179.728,0\C,16,1.38853,9,121.775,2,179.752,0\N,20,1.31657,16,125.694,9,-7.89033,0\C,20,1.39173,16,120.876,9,-176.855,0\N,22,1.31859,20,114.652,16,178.455,0\C,22,1.41849,20,121.326,16,-1.76302,0\C,24,1.52815,22,123.75,20,179.661,0\C,25,1.40717,24,124.034,22,40.1739,0\H,26,1.08876,25,121.765,24,-2.75963,0\N,26,1.33076,25,124.567,24,176.975,0\C,28,1.32889,26,117.884,25,-4.28093,0\C,25,1.43652,24,118.162,22,-142.15,0\H,30,1.08636,25,120.673,24,7.6116,0\C,30,1.38375,25,117.391,24,-174.736,0\H,32,1.08579,30,117.211,25,172.9,0\C,29,1.48897,28,116.924,26,-170.644,0\H,34,1.09729,29,110.348,28,146.784,0\H,34,1.09747,29,104.698,28,37.9216,0\C,34,1.52437,29,115.793,28,-79.3459,0\H,37,1.09665,34,118.441,29,54.5414,0\H,37,1.09779,34,101.58,29,-61.5386,0\C,37,1.52048,34,112.474,29,-176.582,0\H,40,1.09696,37,112.149,34,-59.1219,0\H,40,1.09741,37,107.362,34,50.9509,0\C,40,1.51474,37,112.084,34,168.692,0\H,43,1.09702,40,105.938,37,50.3081,0\H,43,1.09731,40,111.735,37,-55.7601,0\C,43,1.53745,40,113.531,37,173.436,0\H,46,1.09661,43,110.976,40,44.2502,0\H,46,1.09715,43,105.17,40,-72.4601,0\C,46,1.53347,43,112.944,40,168.392,0\H,49,1.09678,46,113.633,43,-69.4447,0\H,49,1.09704,46,114.833,43,46.4733,0\H,49,1.09731,46,112.903,43,168.752,0\S,21,1.5898,20,107.123,16,178.144,0\S,10,1.70289,4,123.961,3,-14.8991,0\S,4,1.74156,3,110.524,2,-7.79972,0\H,8,2.68027,7,110.94,5,-117.93,0\C,56,1.08622,8,112.981,7,15.5805,0\C,57,1.42753,56,116.418,8,47.517,0\H,58,1.08611,57,120.036,56,-1.01271,0\C,58,1.36571,57,121.297,56,179.043,0\N,60,1.34774,58,121.611,57,-5.3874,0\C,61,1.34533,60,118.962,58,5.33431,0\H,62,1.08909,61,118.879,60,-179.09,0\C,62,1.41651,61,124.761,60,2.01771,0\C,64,1.5272,62,124.578,61,171.694,0\C,65,1.42778,64,128.788,62,-143.438,0\C,66,1.33478,65,118.484,64,171.416,0\N,67,1.30846,66,116.828,65,-173.318,0\N,66,1.35165,65,124.699,64,-6.37075,0\C,67,1.43457,66,122.208,65,4.95607,0\N,70,1.37,67,122.021,66,-1.77608,0\C,71,1.37763,70,115.587,67,-3.76406,0\H,72,1.08903,71,115.154,70,-175.925,0\C,70,1.5124,67,122.895,66,164.45,0\C,74,1.37256,70,126.468,67,145.349,0\C,75,1.37342,74,115.184,70,-170.848,0\C,76,1.39106,75,116.272,74,2.10608,0\C,76,1.41189,75,110.28,74,177.363,0\H,78,1.08396,76,122.404,75,-178.317,0\C,78,1.43153,76,111.84,75,-7.36412,0\H,80,1.08278,78,132.972,76,-166.292,0\C,77,1.45611,76,130.964,75,-179.962,0\N,82,1.28444,77,117.766,76,20.7445,0\C,83,1.35267,82,104.151,77,179.255,0\H,84,1.08209,83,113.519,82,-163.011,0\C,84,1.3457,83,117.444,82,11.1557,0\H,86,1.08158,84,130.521,83,178.111,0\C,60,1.54683,58,123.442,57,174.786,0\H,88,1.09645,60,94.8338,58,-118.274,0\H,88,1.09708,60,106.844,58,-12.0039,0\C,88,1.50459,60,120.845,58,121.445,0\H,91,1.09684,88,109.943,60,53.5636,0\H,91,1.09717,88,108.941,60,-60.4949,0\C,91,1.49054,88,113.44,60,176.648,0\H,94,1.09671,91,109.213,88,-70.9203,0\H,94,1.09703,91,107.237,88,45.0328,0\C,94,1.61808,91,113.954,88,168.131,0\H,97,1.09705,94,106.643,91,-42.919,0\H,97,1.09755,94,108.881,91,69.3116,0\C,97,1.58651,94,110.189,91,-167.199,0\H,100,1.0971,97,105.908,94,-67.0185,0\H,100,1.09715,97,110.057,94,51.2576,0\C,100,1.54791,97,109.43,94,-179.307,0\H,103,1.09615,100,104.275,97,-61.4364,0\H,103,1.09701,100,116.724,97,178.857,0\H,103,1.09723,100,110.405,97,56.2009,0\S,68,1.63674,67,104.63,66,-6.84355,0\S,75,1.71834,74,127.313,70,-4.07848,0\S,86,1.73631,84,109.164,83,-23.4013,0\S,77,1.77734,76,107.4,75,-3.09004,0\\\@

 Total job time:  92.43s(wall), 1018.12s(cpu) 
 Sun Oct  7 03:41:18 2018

        *************************************************************
        *                                                           *
        *  Thank you very much for using Q-Chem.  Have a nice day.  *
        *                                                           *
        *************************************************************


