
Running Job 1 of 1 ./6/25.qcin
qchem ./6/25.qcin_20754.0 /tmpu/cab_g/afmv_a/scratch_qchem/qchem20754/ 1
/tmpu/appuserlic/qchem4.4/serial-multicore/exe/qcprog.exe_s ./6/25.qcin_20754.0 /tmpu/cab_g/afmv_a/scratch_qchem/qchem20754/
Check license passed

                  Welcome to Q-Chem
     A Quantum Leap Into The Future Of Chemistry


 Q-Chem 4.4, Q-Chem, Inc., Pleasanton, CA (2016)

 Y. Shao,  Z. Gan,  E. Epifanovsky,  A. T. B. Gilbert,  M. Wormit,  
 J. Kussmann,  A. W. Lange,  A. Behn,  J. Deng,  X. Feng,  D. Ghosh,  
 M. Goldey,  P. R. Horn,  L. D. Jacobson,  I. Kaliman,  F. Rob,  
 R. Z. Khaliullin,  T. Kus,  A. Landau,  J. Liu,  E. I. Proynov,  Y. M. Rhee,  
 R. M. Richard,  M. A. Rohrdanz,  R. P. Steele,  E. J. Sundstrom,  
 H. L. Woodcock III,  P. M. Zimmerman,  D. Zuev,  B. Albrecht,  E. Alguire,  
 B. Austin,  S. A. Baeppler,  G. J. O. Beran,  Y. A. Bernard,  E. Berquist,  
 K. Brandhorst,  K. B. Bravaya,  S. T. Brown,  D. Casanova,  C.-M. Chang,  
 Y. Chen,  S. H. Chien,  K. D. Closser,  M. P. Coons,  D. L. Crittenden,  
 S. Dasgupta,  M. Diedenhofen,  R. A. DiStasio Jr.,  H. Do,  A. D. Dutoi,  
 R. G. Edgar,  P.-T. Fang,  S. Fatehi,  Q. Feng,  L. Fusti-Molnar,  
 A. Ghysels,  A. Golubeva-Zadorozhnaya,  J. Gomes,  A. Gunina,  
 M. W. D. Hanson-Heine,  P. H. P. Harbach,  A. W. Hauser,  J. E. Herr,  
 E. G. Hohenstein,  Z. C. Holden,  K. Hui,  T.-C. Jagau,  H. Ji,  B. Kaduk,  
 K. Khistyaev,  Jaehoon Kim,  Jihan Kim,  R. A. King,  P. Klunzinger,  
 K. Koh,  D. Kosenkov,  T. Kowalczyk,  C. M. Krauter,  A. Kunitsa,  
 K. U. Lao,  A. Laurent,  K. V. Lawler,  J. Lee,  D. Lefrancois,  S. Lehtola,  
 S. V. Levchenko,  C. Y. Lin,  Y.-S. Lin,  F. Liu,  E. Livshits,  
 R. C. Lochan,  A. Luenser,  P. Manohar,  S. F. Manzer,  S.-P. Mao,  Y. Mao,  
 N. Mardirossian,  A. V. Marenich,  L. A. Martinez-Martinez,  S. A. Maurer,  
 N. J. Mayhall,  J.-M. Mewes,  A. F. Morrison,  K. Nanda,  T. S. Nguyen-Beck,  
 C. M. Oana,  R. Olivares-Amaya,  D. P. O'Neill,  J. A. Parkhill,  
 T. M. Perrine,  R. Peverati,  P. A. Pieniazek,  F. Plasser,  A. Prociuk,  
 D. R. Rehn,  E. Rosta,  N. J. Russ,  N. Sergueev,  S. M. Sharada,  
 S. Sharma,  D. W. Small,  A. Sodt,  T. Stauch,  T. Stein,  D. Stuck,  
 Y.-C. Su,  A. J. W. Thom,  T. Tsuchimochi,  L. Vogt,  O. Vydrov,  T. Wang,  
 M. A. Watson,  J. Wenzel,  A. White,  C. F. Williams,  V. Vanovschi,  
 K. Yao,  S. Yeganeh,  S. R. Yost,  Z.-Q. You,  I. Y. Zhang,  X. Zhang,  
 Y. Zhao,  B. R. Brooks,  G. K. L. Chan,  D. M. Chipman,  C. J. Cramer,  
 W. A. Goddard III,  M. S. Gordon,  W. J. Hehre,  A. Klamt,  
 H. F. Schaefer III,  M. W. Schmidt,  C. D. Sherrill,  D. G. Truhlar,  
 A. Warshel,  X. Xu,  A. Aspuru-Guzik,  R. Baer,  A. T. Bell,  N. A. Besley,  
 J.-D. Chai,  A. Dreuw,  B. D. Dunietz,  T. R. Furlani,  S. R. Gwaltney,  
 C.-P. Hsu,  Y. Jung,  J. Kong,  D. S. Lambrecht,  W. Liang,  C. Ochsenfeld,  
 V. A. Rassolov,  L. V. Slipchenko,  J. E. Subotnik,  T. Van Voorhis,  
 J. M. Herbert,  A. I. Krylov,  P. M. W. Gill,  M. Head-Gordon

 Contributors to earlier versions of Q-Chem not listed above: 
 R. D. Adamson,  J. Baker,  E. F. C. Byrd,  A. K. Chakraborty,  C.-L. Cheng,  
 H. Dachsel,  R. J. Doerksen,  G. Hawkins,  A. Heyden,  S. Hirata,  
 G. Kedziora,  F. J. Keil,  C. Kelley,  P. P. Korambath,  W. Kurlancheek,  
 A. M. Lee,  M. S. Lee,  D. Liotard,  I. Lotan,  P. E. Maslen,  N. Nair,  
 D. Neuhauser,  R. Olson,  B. Peters,  J. Ritchie,  N. E. Schultz,  
 N. Shenvi,  A. C. Simmonett,  K. S. Thanthiriwatte,  Q. Wu,  W. Zhang

 Please cite Q-Chem as follows:
 Y. Shao et al., Mol. Phys. 113, 184-215 (2015)
 DOI: 10.1080/00268976.2014.952696

 Q-Chem 4.4.2 for Intel X86 Linux

 Parts of Q-Chem use Armadillo 5.200.1 (Boston Tea Smuggler).
 http://arma.sourceforge.net/

 Q-Chem begins on Sun Oct  7 03:55:21 2018  

Host: 
0

     Scratch files written to /tmpu/cab_g/afmv_a/scratch_qchem/qchem20754//
 Dec716 11556_ 22328  22283 4050   
Processing $rem in /tmpu/appuserlic/qchem4.4/serial-multicore/config/preferences.
 MEM_TOTAL  2000 
FILE_GEOM_ORG=        593

Checking the input file for inconsistencies... 	...done.

--------------------------------------------------------------
User input:
--------------------------------------------------------------
$comment
SP
$end

$rem
MEM_STATIC 5000
MEM_TOTAL 20000
JOBTYPE SP
EXCHANGE B3LYP
BASIS 6-31g(d,p)
$end

$molecule
0 1
C           3.672000     -4.668000     -8.719000
C           3.577000     -3.858000     -7.604000
N           3.065000     -4.437000     -9.861000
C           2.744000     -2.722000     -7.649000
C           2.394000     -3.270000     -9.967000
C           2.147000     -2.408000     -8.863000
C           1.328000     -1.167000     -9.001000
C           1.505000     -0.056000     -8.121000
C           0.330000     -1.085000     -9.925000
N           0.744000      1.049000     -8.195000
N           0.038000     -2.019000    -10.922000
C          -0.492000      0.049000     -9.943000
C          -0.277000      1.204000     -9.134000
S          -1.239000     -1.298000    -11.709000
N          -1.446000      0.077000    -10.916000
C          -1.091000      2.502000     -9.291000
S          -2.447000      2.911000    -10.287000
C          -0.673000      3.650000     -8.661000
C          -2.392000      4.651000     -9.950000
S           0.453000      3.918000     -7.416000
C          -1.388000      4.808000     -9.081000
C          -3.426000      5.533000    -10.324000
C          -0.134000      5.648000     -7.325000
C          -0.958000      5.942000     -8.336000
N          -3.510000      6.730000     -9.815000
S          -4.636000      5.132000    -11.493000
C          -4.489000      7.466000    -10.382000
C          -5.078000      6.840000    -11.437000
C           4.597000     -5.937000     -8.671000
H           4.261000     -4.120000     -6.802000
H           2.684000     -2.113000     -6.752000
H           2.001000     -3.128000    -10.973000
H           2.288000     -0.065000     -7.364000
H           0.341000      6.309000     -6.613000
H          -1.357000      6.940000     -8.472000
H          -4.629000      8.517000    -10.167000
H          -5.708000      7.275000    -12.203000
H           4.877000     -6.224000     -9.692000
C           3.985000     -7.246000     -8.034000
H           5.478000     -5.582000     -8.121000
H           3.204000     -6.881000     -7.356000
H           4.709000     -7.769000     -7.397000
C           3.334000     -8.244000     -8.957000
H           2.788000     -8.945000     -8.314000
C           4.357000     -9.127000     -9.660000
H           2.628000     -7.848000     -9.697000
H           4.987000     -9.731000     -8.996000
H           5.083000     -8.485000    -10.176000
C           3.793000    -10.134000    -10.684000
H           2.852000     -9.777000    -11.119000
C           3.617000    -11.570000    -10.093000
H           4.468000    -10.150000    -11.549000
H           2.726000    -11.693000     -9.465000
H           4.546000    -11.872000     -9.594000
H           3.544000    -12.181000    -11.001000
C           2.610000     -0.662000     -3.224000
C           2.432000      0.312000     -2.261000
N           1.956000     -0.821000     -4.389000
C           1.406000      1.233000     -2.431000
C           1.017000      0.117000     -4.602000
C           0.667000      1.169000     -3.681000
C          -0.447000      2.153000     -3.965000
C          -0.359000      3.416000     -3.439000
C          -1.637000      1.884000     -4.761000
N          -1.212000      4.396000     -3.726000
N          -1.953000      0.697000     -5.318000
C          -2.498000      2.908000     -5.061000
C          -2.198000      4.184000     -4.573000
S          -3.323000      0.902000     -6.174000
N          -3.545000      2.537000     -5.817000
C          -2.928000      5.414000     -5.055000
S          -4.283000      5.556000     -6.127000
C          -2.656000      6.732000     -4.700000
C          -4.606000      7.230000     -5.955000
S          -1.513000      7.357000     -3.471000
C          -3.583000      7.697000     -5.169000
C          -5.941000      7.787000     -6.037000
C          -2.439000      8.941000     -3.553000
C          -3.526000      8.915000     -4.442000
N          -6.152000      9.081000     -5.985000
S          -7.371000      6.739000     -6.006000
C          -7.464000      9.344000     -5.939000
C          -8.323000      8.233000     -6.004000
C           3.685000     -1.728000     -2.875000
H           2.838000      0.231000     -1.257000
H           1.267000      1.984000     -1.659000
H           0.400000      0.072000     -5.498000
H           0.531000      3.663000     -2.863000
H          -2.216000      9.722000     -2.838000
H          -4.210000      9.756000     -4.423000
H          -7.797000     10.372000     -5.869000
H          -9.387000      8.189000     -6.196000
H           4.034000     -1.556000     -1.849000
C           4.981000     -1.747000     -3.814000
H           3.242000     -2.731000     -2.916000
H           5.471000     -0.766000     -3.790000
H           4.527000     -1.854000     -4.807000
C           5.897000     -2.963000     -3.537000
H           6.534000     -2.927000     -4.429000
C           5.154000     -4.310000     -3.750000
H           6.544000     -2.835000     -2.660000
H           4.353000     -4.174000     -4.487000
H           4.700000     -4.641000     -2.808000
C           6.212000     -5.482000     -4.014000
H           7.048000     -5.497000     -3.303000
C           6.749000     -5.711000     -5.399000
H           5.708000     -6.430000     -3.790000
H           7.413000     -6.577000     -5.510000
H           7.279000     -4.869000     -5.861000
H           5.933000     -6.043000     -6.053000
$end

--------------------------------------------------------------
 ----------------------------------------------------------------
             Standard Nuclear Orientation (Angstroms)
    I     Atom           X                Y                Z
 ----------------------------------------------------------------
    1      C       7.4885723899    -0.9958394989    -0.5850463176
    2      C       6.6896490610     0.1289495844    -0.5148962453
    3      N       7.0363439440    -2.2252640773    -0.6849394552
    4      C       5.2885374891    -0.0231873328    -0.5026193860
    5      C       5.7023782318    -2.3714057061    -0.8350863935
    6      C       4.7773195835    -1.3020270324    -0.6815782522
    7      C       3.3024480915    -1.5179659382    -0.7710794870
    8      C       2.4174614740    -0.4650824957    -1.1561575874
    9      C       2.7453745355    -2.7086218812    -0.4125945102
   10      N       1.0836125472    -0.6235272514    -1.1930940163
   11      N       3.4272861366    -3.8813463259    -0.0789136071
   12      C       1.3502299910    -2.8323161020    -0.3972504688
   13      C       0.4540621772    -1.8243379657    -0.8615718296
   14      S       2.1757778771    -4.9410668468     0.2050907837
   15      N       0.8654814858    -4.0613121109    -0.0622628618
   16      C      -1.0643129562    -2.0468149676    -0.9923003186
   17      S      -2.0858531834    -3.3774211920    -0.5633765029
   18      C      -1.8315290497    -1.1332431159    -1.6751575054
   19      C      -3.5267430449    -2.7664272366    -1.3968732296
   20      S      -1.5163821147     0.4549501055    -2.1928926704
   21      C      -3.1618967528    -1.5857382536    -1.9074481100
   22      C      -4.8054926215    -3.3337460002    -1.2239427785
   23      C      -3.2858656077     0.6109383556    -2.6291790831
   24      C      -3.9182848041    -0.5642131389    -2.5479514715
   25      N      -5.8815834774    -2.7010243668    -1.5989598509
   26      S      -5.0609274164    -4.9030426659    -0.5431175142
   27      C      -6.9960295774    -3.4503590191    -1.4642992817
   28      C      -6.7301400120    -4.7316614750    -1.0909512465
   29      C       9.0508325095    -0.8299323557    -0.5954452855
   30      H       7.2319758314     1.0672329880    -0.5870760814
   31      H       4.6903540941     0.8806026758    -0.4360592910
   32      H       5.4331029059    -3.4143106400    -0.9978411101
   33      H       2.8063620276     0.5075489285    -1.4544250380
   34      H      -3.6214028663     1.5415515764    -3.0660586790
   35      H      -4.9600644966    -0.6692509640    -2.8260937506
   36      H      -7.9622935539    -3.1319231809    -1.8322103371
   37      H      -7.3892180746    -5.5897619650    -1.1374341094
   38      H       9.5097141136    -1.7183068827    -1.0464756317
   39      C       9.7637044854    -0.6704172225     0.8046127377
   40      H       9.2037626921     0.0453313359    -1.2398146123
   41      H       8.9866811569    -0.2624380528     1.4623799792
   42      H      10.5560731250     0.0877840717     0.7771038933
   43      C      10.2968563330    -1.9120477485     1.4723228127
   44      H      10.5391723988    -1.6255050542     2.5029256502
   45      C      11.6399586993    -2.3412728836     0.8958951792
   46      H       9.6268182910    -2.7793226078     1.5139802346
   47      H      12.4463950845    -1.6044633740     0.9927667597
   48      H      11.5375035335    -2.4567502051    -0.1911484847
   49      C      12.2349419691    -3.6467125113     1.4638241249
   50      H      11.4485441098    -4.3221954849     1.8208341517
   51      C      13.2961757730    -3.3961462656     2.5833563351
   52      H      12.6750887712    -4.2080841012     0.6300143561
   53      H      12.8684150343    -3.1518986161     3.5635388876
   54      H      14.0260324319    -2.6570393426     2.2308280187
   55      H      13.8236451098    -4.3573588706     2.6143470853
   56      C       3.2131859254     4.3400053645     0.2028211666
   57      C       2.2418624194     5.3218993080     0.1908240664
   58      N       3.0614679664     3.0098035554     0.3361133566
   59      C       0.9218472374     4.9516980657     0.4151630055
   60      C       1.7778809835     2.6334415807     0.4691175723
   61      C       0.6497765174     3.5284943964     0.5299926140
   62      C      -0.7637122582     3.0323392529     0.7439728815
   63      C      -1.8013534073     3.7521198878     0.2103009941
   64      C      -1.1421991200     1.8351572879     1.4826067814
   65      N      -3.0678833759     3.3447139107     0.2276275189
   66      N      -0.2911584581     1.0185757076     2.1368225825
   67      C      -2.4489359988     1.4200525852     1.4777266856
   68      C      -3.3784460108     2.1817720093     0.7621048185
   69      S      -1.1595116588    -0.2209049138     2.7379145120
   70      N      -2.6664587336     0.2937526302     2.1773825091
   71      C      -4.7730253548     1.6784730528     0.4793282044
   72      S      -5.5667071403     0.2350617338     1.0197039882
   73      C      -5.7443164447     2.3145239278    -0.2882432275
   74      C      -7.1496949972     0.5498696617     0.4441743074
   75      S      -5.7161598740     3.9516316673    -1.0139156444
   76      C      -7.0272632884     1.7108455882    -0.2766303643
   77      C      -8.3420090091     0.0928682640     1.1288165641
   78      C      -7.5391553969     3.8049123727    -1.1824883948
   79      C      -8.0574402937     2.5976419075    -0.6860563354
   80      N      -9.5391717569     0.2752679586     0.6236505450
   81      S      -8.2569307870    -0.5527554830     2.7780881225
   82      C     -10.4822239304    -0.1031367430     1.4954827994
   83      C     -10.0246740762    -0.6457813403     2.7089950457
   84      C       4.6693463196     4.8690463765     0.0866552775
   85      H       2.4676006360     6.3774031523     0.3106860381
   86      H       0.1700429973     5.7353338614     0.4185281559
   87      H       1.5341641073     1.5826100420     0.6170539153
   88      H      -1.5551970997     4.6370792611    -0.3737700459
   89      H      -8.1133286872     4.6686886462    -1.4909208542
   90      H      -9.1350796078     2.5094525783    -0.6059679406
   91      H     -11.5260277396     0.0098124644     1.2303619132
   92      H     -10.5603461981    -1.2055243126     3.4644016798
   93      H       4.6516005099     5.9655573861     0.1242011433
   94      C       5.4580438521     4.4582730957    -1.2441037218
   95      H       5.2640002861     4.5128517158     0.9372145193
   96      H       4.9086419948     4.8118443506    -2.1251156212
   97      H       5.3618128270     3.3655947820    -1.2239123244
   98      C       6.9564197694     4.8405945432    -1.1880597999
   99      H       7.3341136973     4.2493216121    -2.0309551776
  100      C       7.6838554634     4.1644073777     0.0058561219
  101      H       7.1487148928     5.8979146186    -1.4099130032
  102      H       7.1779853960     3.2243617228     0.2581964511
  103      H       7.6492228571     4.8187318316     0.8854589253
  104      C       9.2585615880     4.1054225330    -0.2760399743
  105      H       9.6845573780     5.0534085565    -0.6288743349
  106      C       9.8338778420     2.9817220844    -1.0917258880
  107      H       9.7567634164     3.9807792726     0.6930601216
  108      H      10.9272924775     2.9740301434    -1.1786641926
  109      H       9.4536307360     2.8791002936    -2.1155368601
  110      H       9.7042280259     2.0372844948    -0.5485642505
 ----------------------------------------------------------------
 Molecular Point Group                 C1    NOp =  1
 Largest Abelian Subgroup              C1    NOp =  1
 Nuclear Repulsion Energy = 12264.7209251413 hartrees
 There are      270 alpha and      270 beta electrons
 Requested basis set is 6-31G(d,p)
 There are 406 shells and 1262 basis functions

 Total QAlloc Memory Limit  20000 MB
 Mega-Array Size      4888 MB
 MEM_STATIC part      5000 MB
 A cutoff of  1.0D-08 yielded  15303 shell pairs
 There are    159449 function pairs
 
 -------------------------------------------------------
 OpenMP Integral Computing Module                       
 Release: version 1.0, May 2013, Q-Chem Inc. Pittsburgh 
 -------------------------------------------------------
 Integral Job Info:
 Integral job number is                      11
 Integral operator is                         1
 short-range coefficients                     0
 long-range coefficients              100000000
 Omega coefficients                           0
 if combine SR and LR in K                    0
 Integral screening is                        0
 Integral computing path is                   2
 max size of driver memory is            800000
 size of driver memory is                593474
 size of scratch memory is             15166112
 max col of scratch BK array               1296
 max len of scratch array in speh3          155
 max len of scratch index in speh4           18
 max int batch size is                      520
 min int batch size is                       52
 fixed nKL is                                52
 max L of basis functions is                  2
 order of int derivative is                   0
 number of shells is                        406
 number of basis is                        1262
 number of cartesian basis is              1262
 number of contracted shell pairs         15303
 number of primitive shell pairs          47231
 maxK2 (contraction) of shell pair           36
 max number of K2 of shell pair               1
 max number of CS2 of shell pair           1636
 max number of PS2 of shell pair           8964
 mem total for path MDJ                  346520
 -------------------------------------------------------
 Smallest overlap matrix eigenvalue = 3.69E-04

 Scale SEOQF with 1.000000e-02/1.000000e-02/1.000000e-01

 Standard Electronic Orientation quadrupole field applied
 Nucleus-field energy     =    -0.0000000023 hartrees
 Guess from superposition of atomic densities
 Warning:  Energy on first SCF cycle will be non-variational
 A restricted hybrid HF-DFT SCF calculation will be
 performed using Pulay DIIS extrapolation
 Exchange:     0.2000 Hartree-Fock + 0.0800 Slater + 0.7200 B88
 Correlation:  0.1900 VWN1RPA + 0.8100 LYP
 Using SG-1 standard quadrature grid
 SCF converges when DIIS error is below 1.0E-05
 using 16 threads for integral computing 
 -------------------------------------------------------
 OpenMP BLAS3 based DFT computing Module                
 Release: version 1.0, May 2013, Q-Chem Inc. Pittsburgh 
 -------------------------------------------------------
 ---------------------------------------
  Cycle       Energy         DIIS Error
 ---------------------------------------
    1   -5680.2279106985      2.15E-02
    2   -5662.4720486354      2.17E-03
    3   -5659.2259335015      4.00E-03
    4   -5661.5903763179      2.16E-03
    5   -5663.4297291461      5.22E-04
    6   -5663.4480290266      4.68E-04
    7   -5663.4871456575      2.08E-04
    8   -5663.4949840037      6.30E-05
    9   -5663.4956607799      2.88E-05
   10   -5663.4958138476      1.07E-05
   11   -5663.4958327537      6.89E-06 Convergence criterion met
 ---------------------------------------
 SCF time:  CPU 1313.61 s  wall 114.95 s
 SCF   energy in the final basis set = -5663.4958327537
 Total energy in the final basis set = -5663.4958327537
 
 --------------------------------------------------------------
 
                    Orbital Energies (a.u.)
 --------------------------------------------------------------
 
 Alpha MOs
 -- Occupied --
-88.989 -88.988 -88.923 -88.923 -88.920 -88.912 -88.905 -88.902
-14.389 -14.385 -14.384 -14.382 -14.352 -14.350 -14.344 -14.340
-14.338 -14.318 -10.273 -10.269 -10.266 -10.265 -10.255 -10.253
-10.252 -10.249 -10.246 -10.242 -10.241 -10.235 -10.234 -10.234
-10.232 -10.230 -10.230 -10.229 -10.229 -10.227 -10.226 -10.226
-10.226 -10.225 -10.222 -10.220 -10.219 -10.216 -10.216 -10.215
-10.209 -10.207 -10.203 -10.203 -10.200 -10.194 -10.190 -10.188
-10.187 -10.186 -10.186 -10.184 -10.184 -10.179 -10.176 -10.173
-10.172 -10.170 -10.169 -10.165  -8.044  -8.043  -7.985  -7.984
 -7.980  -7.973  -7.963  -7.962  -6.009  -6.008  -6.004  -6.002
 -6.002  -6.001  -5.949  -5.948  -5.945  -5.944  -5.944  -5.942
 -5.941  -5.940  -5.938  -5.936  -5.933  -5.930  -5.928  -5.926
 -5.924  -5.923  -5.919  -5.918  -1.034  -1.032  -0.980  -0.974
 -0.971  -0.947  -0.945  -0.937  -0.917  -0.913  -0.902  -0.896
 -0.844  -0.832  -0.831  -0.830  -0.811  -0.808  -0.805  -0.803
 -0.800  -0.800  -0.798  -0.798  -0.784  -0.776  -0.767  -0.763
 -0.749  -0.749  -0.739  -0.735  -0.719  -0.710  -0.708  -0.703
 -0.693  -0.691  -0.677  -0.672  -0.662  -0.650  -0.647  -0.644
 -0.637  -0.632  -0.626  -0.621  -0.613  -0.613  -0.598  -0.594
 -0.589  -0.589  -0.586  -0.580  -0.575  -0.572  -0.564  -0.556
 -0.551  -0.549  -0.543  -0.533  -0.523  -0.519  -0.512  -0.510
 -0.509  -0.501  -0.499  -0.497  -0.485  -0.480  -0.478  -0.475
 -0.471  -0.470  -0.467  -0.463  -0.460  -0.454  -0.450  -0.450
 -0.445  -0.442  -0.440  -0.436  -0.435  -0.434  -0.433  -0.430
 -0.426  -0.425  -0.422  -0.421  -0.420  -0.416  -0.415  -0.412
 -0.411  -0.408  -0.406  -0.402  -0.401  -0.400  -0.399  -0.395
 -0.393  -0.392  -0.391  -0.389  -0.388  -0.384  -0.384  -0.382
 -0.378  -0.377  -0.373  -0.371  -0.371  -0.359  -0.352  -0.351
 -0.350  -0.347  -0.345  -0.344  -0.342  -0.341  -0.336  -0.334
 -0.334  -0.333  -0.331  -0.328  -0.326  -0.324  -0.320  -0.320
 -0.311  -0.309  -0.306  -0.305  -0.302  -0.301  -0.301  -0.297
 -0.296  -0.293  -0.290  -0.289  -0.288  -0.285  -0.282  -0.280
 -0.277  -0.271  -0.267  -0.264  -0.260  -0.253  -0.245  -0.241
 -0.240  -0.238  -0.230  -0.227  -0.196  -0.195
 -- Virtual --
 -0.114  -0.111  -0.072  -0.071  -0.043  -0.033  -0.030  -0.023
 -0.017  -0.014  -0.013  -0.013  -0.008   0.001   0.002   0.007
  0.011   0.013   0.022   0.034   0.038   0.038   0.046   0.050
  0.054   0.056   0.062   0.066   0.067   0.071   0.079   0.083
  0.085   0.091   0.097   0.102   0.105   0.110   0.114   0.116
  0.117   0.117   0.118   0.121   0.123   0.125   0.127   0.128
  0.130   0.131   0.133   0.134   0.136   0.141   0.145   0.148
  0.151   0.153   0.153   0.156   0.160   0.161   0.162   0.164
  0.168   0.169   0.172   0.172   0.176   0.177   0.180   0.181
  0.186   0.187   0.189   0.190   0.192   0.194   0.202   0.203
  0.204   0.209   0.213   0.218   0.219   0.220   0.222   0.225
  0.227   0.228   0.231   0.233   0.237   0.238   0.240   0.243
  0.246   0.248   0.251   0.255   0.257   0.259   0.264   0.264
  0.266   0.268   0.270   0.273   0.273   0.278   0.281   0.285
  0.287   0.290   0.293   0.297   0.299   0.303   0.306   0.309
  0.312   0.313   0.316   0.322   0.323   0.326   0.327   0.330
  0.332   0.334   0.336   0.340   0.343   0.347   0.348   0.351
  0.355   0.358   0.360   0.363   0.368   0.368   0.371   0.373
  0.380   0.385   0.389   0.392   0.392   0.397   0.398   0.403
  0.413   0.414   0.419   0.421   0.424   0.429   0.432   0.440
  0.447   0.451   0.453   0.463   0.468   0.474   0.475   0.477
  0.479   0.485   0.492   0.495   0.496   0.500   0.503   0.506
  0.509   0.509   0.511   0.515   0.515   0.518   0.520   0.520
  0.522   0.525   0.526   0.528   0.532   0.533   0.536   0.536
  0.538   0.540   0.542   0.546   0.547   0.548   0.551   0.555
  0.557   0.558   0.561   0.563   0.563   0.564   0.566   0.572
  0.573   0.574   0.578   0.579   0.580   0.583   0.585   0.589
  0.590   0.592   0.593   0.594   0.595   0.597   0.603   0.604
  0.606   0.608   0.610   0.614   0.617   0.618   0.619   0.620
  0.626   0.629   0.630   0.630   0.633   0.635   0.636   0.639
  0.640   0.641   0.642   0.645   0.648   0.651   0.652   0.656
  0.657   0.661   0.663   0.664   0.672   0.674   0.676   0.680
  0.682   0.683   0.687   0.687   0.690   0.694   0.694   0.698
  0.701   0.705   0.706   0.709   0.714   0.715   0.716   0.721
  0.724   0.728   0.731   0.734   0.736   0.740   0.740   0.744
  0.748   0.750   0.752   0.756   0.760   0.763   0.766   0.770
  0.774   0.776   0.777   0.783   0.786   0.789   0.790   0.792
  0.793   0.798   0.802   0.806   0.807   0.810   0.812   0.814
  0.816   0.818   0.820   0.821   0.824   0.828   0.830   0.833
  0.833   0.835   0.837   0.837   0.840   0.841   0.842   0.843
  0.844   0.847   0.851   0.851   0.853   0.855   0.857   0.859
  0.860   0.865   0.867   0.869   0.870   0.872   0.875   0.878
  0.881   0.882   0.884   0.888   0.891   0.892   0.897   0.898
  0.900   0.902   0.904   0.907   0.910   0.911   0.915   0.917
  0.920   0.925   0.929   0.932   0.933   0.933   0.938   0.938
  0.941   0.943   0.946   0.948   0.953   0.955   0.958   0.964
  0.965   0.966   0.969   0.972   0.975   0.977   0.979   0.981
  0.982   0.985   0.987   0.988   0.990   0.993   0.995   0.999
  1.004   1.005   1.007   1.010   1.013   1.015   1.015   1.018
  1.020   1.024   1.025   1.030   1.032   1.036   1.039   1.041
  1.048   1.050   1.052   1.058   1.060   1.062   1.064   1.068
  1.074   1.075   1.078   1.084   1.088   1.092   1.098   1.099
  1.103   1.105   1.108   1.113   1.118   1.119   1.124   1.125
  1.131   1.133   1.134   1.141   1.142   1.146   1.156   1.160
  1.164   1.168   1.171   1.178   1.179   1.183   1.193   1.202
  1.209   1.210   1.216   1.220   1.222   1.223   1.228   1.231
  1.233   1.244   1.250   1.253   1.258   1.262   1.264   1.268
  1.272   1.277   1.281   1.286   1.296   1.298   1.307   1.309
  1.313   1.314   1.318   1.319   1.320   1.328   1.330   1.332
  1.337   1.346   1.350   1.352   1.359   1.362   1.366   1.368
  1.371   1.374   1.385   1.388   1.390   1.392   1.397   1.398
  1.405   1.410   1.415   1.417   1.424   1.428   1.431   1.436
  1.437   1.446   1.451   1.457   1.460   1.460   1.471   1.474
  1.481   1.485   1.486   1.490   1.494   1.500   1.506   1.519
  1.523   1.531   1.538   1.546   1.549   1.552   1.559   1.576
  1.579   1.583   1.588   1.592   1.596   1.599   1.604   1.609
  1.626   1.627   1.631   1.637   1.640   1.642   1.649   1.652
  1.658   1.664   1.669   1.672   1.679   1.682   1.683   1.691
  1.692   1.698   1.702   1.705   1.709   1.716   1.720   1.720
  1.723   1.725   1.727   1.730   1.735   1.739   1.745   1.747
  1.751   1.753   1.760   1.764   1.771   1.774   1.778   1.783
  1.786   1.793   1.803   1.804   1.806   1.808   1.809   1.817
  1.825   1.829   1.835   1.838   1.841   1.843   1.847   1.848
  1.856   1.858   1.859   1.862   1.865   1.867   1.869   1.870
  1.873   1.880   1.881   1.885   1.889   1.892   1.898   1.901
  1.904   1.906   1.910   1.913   1.914   1.918   1.919   1.926
  1.930   1.934   1.936   1.942   1.943   1.944   1.952   1.953
  1.959   1.961   1.966   1.967   1.983   1.986   1.989   1.991
  1.992   2.004   2.006   2.012   2.015   2.019   2.026   2.028
  2.030   2.031   2.043   2.047   2.052   2.055   2.059   2.069
  2.071   2.073   2.074   2.085   2.097   2.100   2.108   2.111
  2.112   2.115   2.116   2.120   2.123   2.126   2.127   2.132
  2.135   2.147   2.149   2.156   2.159   2.164   2.166   2.168
  2.174   2.177   2.180   2.183   2.188   2.188   2.195   2.198
  2.201   2.202   2.208   2.209   2.213   2.215   2.217   2.222
  2.226   2.228   2.236   2.237   2.239   2.242   2.244   2.248
  2.260   2.262   2.263   2.269   2.273   2.276   2.281   2.283
  2.288   2.289   2.292   2.294   2.300   2.306   2.307   2.311
  2.314   2.315   2.318   2.325   2.330   2.331   2.333   2.335
  2.340   2.347   2.349   2.351   2.352   2.357   2.358   2.359
  2.367   2.369   2.375   2.376   2.383   2.385   2.387   2.397
  2.400   2.402   2.405   2.412   2.417   2.422   2.429   2.432
  2.435   2.436   2.438   2.443   2.445   2.448   2.449   2.457
  2.458   2.460   2.465   2.466   2.469   2.475   2.476   2.477
  2.482   2.487   2.488   2.500   2.501   2.510   2.513   2.514
  2.516   2.518   2.527   2.531   2.534   2.537   2.540   2.548
  2.550   2.555   2.561   2.563   2.569   2.573   2.574   2.578
  2.585   2.585   2.586   2.587   2.598   2.600   2.605   2.608
  2.610   2.616   2.625   2.628   2.636   2.640   2.642   2.645
  2.648   2.651   2.656   2.661   2.666   2.668   2.671   2.677
  2.678   2.684   2.686   2.688   2.692   2.694   2.699   2.707
  2.708   2.717   2.722   2.724   2.731   2.735   2.744   2.748
  2.751   2.752   2.757   2.764   2.768   2.769   2.787   2.789
  2.792   2.796   2.799   2.802   2.808   2.822   2.828   2.832
  2.836   2.842   2.845   2.846   2.852   2.857   2.860   2.872
  2.880   2.881   2.886   2.889   2.892   2.894   2.906   2.910
  2.912   2.916   2.917   2.920   2.926   2.935   2.942   2.949
  2.957   2.965   2.976   2.980   2.991   3.000   3.016   3.019
  3.027   3.035   3.057   3.058   3.071   3.099   3.110   3.124
  3.154   3.178   3.185   3.190   3.204   3.208   3.220   3.239
  3.245   3.253   3.267   3.279   3.283   3.285   3.289   3.306
  3.310   3.316   3.319   3.322   3.330   3.331   3.339   3.342
  3.361   3.368   3.371   3.385   3.399   3.411   3.445   3.448
  3.458   3.462   3.467   3.469   3.496   3.497   3.529   3.544
  3.564   3.565   3.569   3.581   3.586   3.591   3.606   3.606
  3.609   3.654   3.705   3.782   3.843   3.876   3.912   3.914
  3.943   3.951   3.960   3.968   3.970   3.990   4.001   4.008
  4.070   4.081   4.086   4.100   4.100   4.107   4.116   4.122
  4.132   4.133   4.154   4.167   4.174   4.179   4.187   4.190
  4.205   4.229   4.242   4.243   4.255   4.261   4.272   4.275
  4.281   4.305   4.319   4.326   4.374   4.381   4.391   4.397
  4.427   4.433   4.449   4.451   4.479   4.484   4.491   4.499
  4.504   4.515   4.548   4.554   4.635   4.653   4.658   4.668
  4.681   4.710   4.718   4.733   4.736   4.757   4.786   4.818
 --------------------------------------------------------------
 
          Ground-State Mulliken Net Atomic Charges

     Atom                 Charge (a.u.)
  ----------------------------------------
      1 C                     0.265514
      2 C                    -0.121711
      3 N                    -0.477173
      4 C                    -0.103666
      5 C                     0.070200
      6 C                     0.027274
      7 C                     0.014149
      8 C                     0.080719
      9 C                     0.268010
     10 N                    -0.544499
     11 N                    -0.566422
     12 C                     0.140132
     13 C                     0.303434
     14 S                     0.612231
     15 N                    -0.527486
     16 C                    -0.218265
     17 S                     0.303290
     18 C                    -0.106186
     19 C                    -0.228543
     20 S                     0.251850
     21 C                     0.145865
     22 C                     0.089776
     23 C                    -0.317508
     24 C                    -0.031230
     25 N                    -0.439113
     26 S                     0.254531
     27 C                     0.133610
     28 C                    -0.307297
     29 C                    -0.235013
     30 H                     0.094669
     31 H                     0.136027
     32 H                     0.130233
     33 H                     0.131824
     34 H                     0.136691
     35 H                     0.131807
     36 H                     0.121314
     37 H                     0.131130
     38 H                     0.114307
     39 C                    -0.174514
     40 H                     0.098264
     41 H                     0.090996
     42 H                     0.091917
     43 C                    -0.175078
     44 H                     0.090486
     45 C                    -0.170350
     46 H                     0.109567
     47 H                     0.082025
     48 H                     0.086786
     49 C                    -0.187046
     50 H                     0.091870
     51 C                    -0.316979
     52 H                     0.091092
     53 H                     0.108577
     54 H                     0.102358
     55 H                     0.101145
     56 C                     0.281961
     57 C                    -0.116744
     58 N                    -0.497633
     59 C                    -0.076628
     60 C                     0.091654
     61 C                     0.008892
     62 C                     0.067599
     63 C                     0.052208
     64 C                     0.238652
     65 N                    -0.534573
     66 N                    -0.562658
     67 C                     0.260889
     68 C                     0.336663
     69 S                     0.606759
     70 N                    -0.591734
     71 C                    -0.204700
     72 S                     0.309258
     73 C                    -0.126760
     74 C                    -0.204168
     75 S                     0.251045
     76 C                     0.115328
     77 C                     0.048318
     78 C                    -0.307749
     79 C                    -0.052351
     80 N                    -0.415749
     81 S                     0.274664
     82 C                     0.121976
     83 C                    -0.318952
     84 C                    -0.231286
     85 H                     0.101698
     86 H                     0.104638
     87 H                     0.134678
     88 H                     0.109207
     89 H                     0.122670
     90 H                     0.129164
     91 H                     0.109401
     92 H                     0.133936
     93 H                     0.087129
     94 C                    -0.196865
     95 H                     0.114752
     96 H                     0.091068
     97 H                     0.110260
     98 C                    -0.172605
     99 H                     0.102732
    100 C                    -0.186011
    101 H                     0.097767
    102 H                     0.108588
    103 H                     0.100803
    104 C                    -0.189747
    105 H                     0.097194
    106 C                    -0.330102
    107 H                     0.091605
    108 H                     0.101874
    109 H                     0.101520
    110 H                     0.114874
  ----------------------------------------
  Sum of atomic charges =     0.000000

 -----------------------------------------------------------------
                    Cartesian Multipole Moments
 -----------------------------------------------------------------
    Charge (ESU x 10^10)
                 0.0000
    Dipole Moment (Debye)
         X      -2.5823      Y       1.6456      Z       1.2587
       Tot       3.3107
    Quadrupole Moments (Debye-Ang)
        XX    -411.4930     XY      32.8639     YY    -413.3024
        XZ      -6.0948     YZ      -7.2311     ZZ    -446.2342
    Octopole Moments (Debye-Ang^2)
       XXX    -529.6070    XXY       4.1267    XYY     -72.3204
       YYY      42.6571    XXZ      70.8829    XYZ      16.7468
       YYZ     -13.5163    XZZ     -52.3766    YZZ     -19.7621
       ZZZ      45.7380
    Hexadecapole Moments (Debye-Ang^3)
      XXXX  -91641.5877   XXXY    2281.8898   XXYY  -19201.0544
      XYYY     651.7092   YYYY  -21253.3421   XXXZ   -1168.5709
      XXYZ    -283.7807   XYYZ     182.4238   YYYZ     -87.6681
      XXZZ  -17063.4113   XYZZ     100.3383   YYZZ   -4710.2675
      XZZZ    -197.3804   YZZZ    -120.8677   ZZZZ   -5246.0025
 -----------------------------------------------------------------
Archival summary:
1\1\mn426\SP\ProcedureUnspecified\6-31G**\8105042\afmv_a\SunOct703:57:192018SunOct703:57:192018\0\\#,ProcedureUnspecified,6-31G**,\\0,1\S\C,1,1.69992\C,2,1.3746,1,131.971\C,2,1.42429,1,114.854,3,-175.235,0\C,4,1.3371,2,118.238,1,172.755,0\C,5,1.40959,4,130.524,2,-165.313,0\N,6,1.30344,5,121.217,4,-0.839992,0\C,7,1.34968,6,112.549,5,-174.361,0\H,8,1.08186,7,122.693,6,172.712,0\C,8,1.36082,7,112.879,6,5.88691,0\H,10,1.083,8,127.978,7,164.224,0\C,4,1.42333,2,109.984,1,-0.532961,0\H,12,1.08337,4,123.846,2,179.836,0\C,12,1.33699,4,114.004,2,7.98721,0\H,14,1.08143,12,129.357,4,-179.538,0\C,3,1.54015,2,119.763,1,14.8511,0\N,16,1.39577,3,123.283,2,-11.7671,0\C,17,1.34373,16,122.863,3,175.68,0\H,18,1.08914,17,116.886,16,-178.766,0\C,16,1.42644,3,123.02,2,167.818,0\N,20,1.36295,16,119.587,3,-0.762176,0\C,20,1.4007,16,124.042,3,-172.427,0\C,22,1.36254,20,119.162,16,-6.42473,0\N,22,1.39701,20,114.17,16,171.876,0\C,23,1.49328,22,120.958,20,-174.347,0\C,25,1.38881,23,120.294,22,153.347,0\H,26,1.08586,25,124.858,23,1.2085,0\C,26,1.4094,25,117.659,23,175.864,0\H,28,1.08614,26,126.172,25,-167.014,0\C,28,1.38143,26,119.175,25,5.57481,0\N,30,1.31376,28,124.523,26,-2.23815,0\C,31,1.35032,30,116.73,28,-5.49599,0\H,32,1.08933,31,111.372,30,-174.923,0\C,30,1.57108,28,119.304,26,179.855,0\H,34,1.09691,30,109.462,28,157.418,0\H,34,1.09758,30,103.1,28,40.084,0\C,34,1.57918,30,116.98,28,-83.4797,0\H,37,1.09675,34,104.446,30,24.963,0\H,37,1.09703,34,111.94,30,138.79,0\C,37,1.50723,34,117.984,30,-93.5653,0\H,40,1.09675,37,116.881,34,47.3007,0\H,40,1.0968,37,106.213,34,167.601,0\C,40,1.52329,37,112.109,34,-79.9671,0\H,43,1.09664,40,115.191,37,-60.3742,0\H,43,1.09795,40,108.784,37,54.7549,0\C,43,1.54296,40,116.047,37,176.92,0\H,46,1.09643,43,111.378,40,-27.5019,0\H,46,1.09732,43,107.928,40,-139.519,0\C,46,1.5628,43,112.947,40,97.7297,0\H,49,1.09687,46,101.905,43,161.975,0\H,49,1.09693,46,109.246,43,49.8732,0\H,49,1.09699,46,114.267,43,-78.3101,0\S,21,1.60073,20,104.211,16,-172.503,0\S,6,1.72958,5,123.192,4,-179.537,0\S,3,1.73148,2,107.728,1,-170.844,0\H,36,2.16706,34,125.304,30,-104.098,0\C,56,1.09718,36,131.346,34,176.878,0\H,57,1.09689,56,98.6845,36,97.6455,0\H,57,1.09695,56,109.911,36,-12.6463,0\C,57,1.50301,56,109.248,36,-141.432,0\H,60,1.09677,57,102.75,56,-52.9872,0\H,60,1.09756,57,108.827,56,-160.456,0\C,60,1.60083,57,119.977,56,65.71,0\H,63,1.09683,60,101.201,57,-159.565,0\H,63,1.09693,60,117.553,57,-42.0293,0\C,63,1.55301,60,109.964,57,84.1495,0\H,66,1.09669,63,101.233,60,-52.5565,0\H,66,1.09732,63,119.53,60,65.3752,0\C,66,1.5474,63,111.952,60,-158.197,0\H,69,1.09683,66,115.752,63,173.534,0\H,69,1.09709,66,109.29,63,52.7236,0\C,69,1.60053,66,112.559,63,-59.0853,0\H,72,1.09724,69,107.106,66,48.4436,0\H,72,1.0973,69,107.031,66,-67.0123,0\C,72,1.55364,69,115.889,66,171.41,0\N,75,1.34544,72,116.728,69,-67.1377,0\C,76,1.34422,75,113.222,72,-178.193,0\H,77,1.08882,76,119.828,75,178.004,0\C,75,1.38121,72,114.607,69,114.559,0\H,79,1.08601,75,122.942,72,12.829,0\C,79,1.38918,75,118.515,72,174.08,0\H,81,1.08596,79,117.777,75,-179.064,0\C,77,1.44133,76,125.288,75,2.71268,0\C,83,1.51324,77,122.239,76,177.158,0\C,84,1.37098,83,118.671,77,150.518,0\H,85,1.08852,84,117.681,83,-1.8991,0\N,85,1.33056,84,123.684,83,-173.42,0\C,87,1.31702,85,120.008,84,0.996814,0\C,88,1.39869,87,122.128,85,-8.58419,0\N,89,1.34365,88,127.976,87,-172.893,0\C,89,1.37109,88,118.054,87,7.6289,0\N,91,1.34873,89,114.822,88,176.894,0\C,88,1.50935,87,115.867,85,167.583,0\C,93,1.39181,88,126.565,87,-0.408051,0\C,94,1.41793,93,115.617,88,173.025,0\C,95,1.37201,94,116.443,93,2.35195,0\C,95,1.41961,94,112.847,93,-160.454,0\H,97,1.0842,95,130.479,94,166.82,0\C,97,1.40448,95,111.784,94,-8.26336,0\H,99,1.08209,97,126.235,95,175.36,0\C,96,1.44886,95,126.057,94,-149.029,0\N,101,1.31212,96,121.672,95,-37.2702,0\C,102,1.33889,101,110.65,96,173.529,0\H,103,1.08285,102,119.344,101,-178.54,0\C,103,1.40585,102,116.227,101,2.24232,0\H,105,1.08208,103,129.877,102,165.379,0\S,92,1.62839,91,107.663,89,0.848298,0\S,96,1.71353,95,104.447,94,2.84466,0\S,105,1.77154,103,109.765,102,-4.38952,0\S,94,1.79095,93,129.067,88,7.06098,0\\\@

 Total job time:  118.69s(wall), 1323.77s(cpu) 
 Sun Oct  7 03:57:19 2018

        *************************************************************
        *                                                           *
        *  Thank you very much for using Q-Chem.  Have a nice day.  *
        *                                                           *
        *************************************************************


