
Running Job 1 of 1 ./6/3.qcin
qchem ./6/3.qcin_21548.0 /tmpu/cab_g/afmv_a/scratch_qchem/qchem21548/ 1
/tmpu/appuserlic/qchem4.4/serial-multicore/exe/qcprog.exe_s ./6/3.qcin_21548.0 /tmpu/cab_g/afmv_a/scratch_qchem/qchem21548/
Check license passed

                  Welcome to Q-Chem
     A Quantum Leap Into The Future Of Chemistry


 Q-Chem 4.4, Q-Chem, Inc., Pleasanton, CA (2016)

 Y. Shao,  Z. Gan,  E. Epifanovsky,  A. T. B. Gilbert,  M. Wormit,  
 J. Kussmann,  A. W. Lange,  A. Behn,  J. Deng,  X. Feng,  D. Ghosh,  
 M. Goldey,  P. R. Horn,  L. D. Jacobson,  I. Kaliman,  F. Rob,  
 R. Z. Khaliullin,  T. Kus,  A. Landau,  J. Liu,  E. I. Proynov,  Y. M. Rhee,  
 R. M. Richard,  M. A. Rohrdanz,  R. P. Steele,  E. J. Sundstrom,  
 H. L. Woodcock III,  P. M. Zimmerman,  D. Zuev,  B. Albrecht,  E. Alguire,  
 B. Austin,  S. A. Baeppler,  G. J. O. Beran,  Y. A. Bernard,  E. Berquist,  
 K. Brandhorst,  K. B. Bravaya,  S. T. Brown,  D. Casanova,  C.-M. Chang,  
 Y. Chen,  S. H. Chien,  K. D. Closser,  M. P. Coons,  D. L. Crittenden,  
 S. Dasgupta,  M. Diedenhofen,  R. A. DiStasio Jr.,  H. Do,  A. D. Dutoi,  
 R. G. Edgar,  P.-T. Fang,  S. Fatehi,  Q. Feng,  L. Fusti-Molnar,  
 A. Ghysels,  A. Golubeva-Zadorozhnaya,  J. Gomes,  A. Gunina,  
 M. W. D. Hanson-Heine,  P. H. P. Harbach,  A. W. Hauser,  J. E. Herr,  
 E. G. Hohenstein,  Z. C. Holden,  K. Hui,  T.-C. Jagau,  H. Ji,  B. Kaduk,  
 K. Khistyaev,  Jaehoon Kim,  Jihan Kim,  R. A. King,  P. Klunzinger,  
 K. Koh,  D. Kosenkov,  T. Kowalczyk,  C. M. Krauter,  A. Kunitsa,  
 K. U. Lao,  A. Laurent,  K. V. Lawler,  J. Lee,  D. Lefrancois,  S. Lehtola,  
 S. V. Levchenko,  C. Y. Lin,  Y.-S. Lin,  F. Liu,  E. Livshits,  
 R. C. Lochan,  A. Luenser,  P. Manohar,  S. F. Manzer,  S.-P. Mao,  Y. Mao,  
 N. Mardirossian,  A. V. Marenich,  L. A. Martinez-Martinez,  S. A. Maurer,  
 N. J. Mayhall,  J.-M. Mewes,  A. F. Morrison,  K. Nanda,  T. S. Nguyen-Beck,  
 C. M. Oana,  R. Olivares-Amaya,  D. P. O'Neill,  J. A. Parkhill,  
 T. M. Perrine,  R. Peverati,  P. A. Pieniazek,  F. Plasser,  A. Prociuk,  
 D. R. Rehn,  E. Rosta,  N. J. Russ,  N. Sergueev,  S. M. Sharada,  
 S. Sharma,  D. W. Small,  A. Sodt,  T. Stauch,  T. Stein,  D. Stuck,  
 Y.-C. Su,  A. J. W. Thom,  T. Tsuchimochi,  L. Vogt,  O. Vydrov,  T. Wang,  
 M. A. Watson,  J. Wenzel,  A. White,  C. F. Williams,  V. Vanovschi,  
 K. Yao,  S. Yeganeh,  S. R. Yost,  Z.-Q. You,  I. Y. Zhang,  X. Zhang,  
 Y. Zhao,  B. R. Brooks,  G. K. L. Chan,  D. M. Chipman,  C. J. Cramer,  
 W. A. Goddard III,  M. S. Gordon,  W. J. Hehre,  A. Klamt,  
 H. F. Schaefer III,  M. W. Schmidt,  C. D. Sherrill,  D. G. Truhlar,  
 A. Warshel,  X. Xu,  A. Aspuru-Guzik,  R. Baer,  A. T. Bell,  N. A. Besley,  
 J.-D. Chai,  A. Dreuw,  B. D. Dunietz,  T. R. Furlani,  S. R. Gwaltney,  
 C.-P. Hsu,  Y. Jung,  J. Kong,  D. S. Lambrecht,  W. Liang,  C. Ochsenfeld,  
 V. A. Rassolov,  L. V. Slipchenko,  J. E. Subotnik,  T. Van Voorhis,  
 J. M. Herbert,  A. I. Krylov,  P. M. W. Gill,  M. Head-Gordon

 Contributors to earlier versions of Q-Chem not listed above: 
 R. D. Adamson,  J. Baker,  E. F. C. Byrd,  A. K. Chakraborty,  C.-L. Cheng,  
 H. Dachsel,  R. J. Doerksen,  G. Hawkins,  A. Heyden,  S. Hirata,  
 G. Kedziora,  F. J. Keil,  C. Kelley,  P. P. Korambath,  W. Kurlancheek,  
 A. M. Lee,  M. S. Lee,  D. Liotard,  I. Lotan,  P. E. Maslen,  N. Nair,  
 D. Neuhauser,  R. Olson,  B. Peters,  J. Ritchie,  N. E. Schultz,  
 N. Shenvi,  A. C. Simmonett,  K. S. Thanthiriwatte,  Q. Wu,  W. Zhang

 Please cite Q-Chem as follows:
 Y. Shao et al., Mol. Phys. 113, 184-215 (2015)
 DOI: 10.1080/00268976.2014.952696

 Q-Chem 4.4.2 for Intel X86 Linux

 Parts of Q-Chem use Armadillo 5.200.1 (Boston Tea Smuggler).
 http://arma.sourceforge.net/

 Q-Chem begins on Sun Oct  7 04:23:25 2018  

Host: 
0

     Scratch files written to /tmpu/cab_g/afmv_a/scratch_qchem/qchem21548//
 Dec716 11556_ 22328  22283 4050   
Processing $rem in /tmpu/appuserlic/qchem4.4/serial-multicore/config/preferences.
 MEM_TOTAL  2000 
FILE_GEOM_ORG=        593

Checking the input file for inconsistencies... 	...done.

--------------------------------------------------------------
User input:
--------------------------------------------------------------
$comment
SP
$end

$rem
MEM_STATIC 5000
MEM_TOTAL 20000
JOBTYPE SP
EXCHANGE B3LYP
BASIS 6-31g(d,p)
$end

$molecule
0 1
C           3.672000     -4.668000     -8.719000
C           3.577000     -3.858000     -7.604000
N           3.065000     -4.437000     -9.861000
C           2.744000     -2.722000     -7.649000
C           2.394000     -3.270000     -9.967000
C           2.147000     -2.408000     -8.863000
C           1.328000     -1.167000     -9.001000
C           1.505000     -0.056000     -8.121000
C           0.330000     -1.085000     -9.925000
N           0.744000      1.049000     -8.195000
N           0.038000     -2.019000    -10.922000
C          -0.492000      0.049000     -9.943000
C          -0.277000      1.204000     -9.134000
S          -1.239000     -1.298000    -11.709000
N          -1.446000      0.077000    -10.916000
C          -1.091000      2.502000     -9.291000
S          -2.447000      2.911000    -10.287000
C          -0.673000      3.650000     -8.661000
C          -2.392000      4.651000     -9.950000
S           0.453000      3.918000     -7.416000
C          -1.388000      4.808000     -9.081000
C          -3.426000      5.533000    -10.324000
C          -0.134000      5.648000     -7.325000
C          -0.958000      5.942000     -8.336000
N          -3.510000      6.730000     -9.815000
S          -4.636000      5.132000    -11.493000
C          -4.489000      7.466000    -10.382000
C          -5.078000      6.840000    -11.437000
C           4.597000     -5.937000     -8.671000
H           4.261000     -4.120000     -6.802000
H           2.684000     -2.113000     -6.752000
H           2.001000     -3.128000    -10.973000
H           2.288000     -0.065000     -7.364000
H           0.341000      6.309000     -6.613000
H          -1.357000      6.940000     -8.472000
H          -4.629000      8.517000    -10.167000
H          -5.708000      7.275000    -12.203000
H           4.877000     -6.224000     -9.692000
C           3.985000     -7.246000     -8.034000
H           5.478000     -5.582000     -8.121000
H           3.204000     -6.881000     -7.356000
H           4.709000     -7.769000     -7.397000
C           3.334000     -8.244000     -8.957000
H           2.788000     -8.945000     -8.314000
C           4.357000     -9.127000     -9.660000
H           2.628000     -7.848000     -9.697000
H           4.987000     -9.731000     -8.996000
H           5.083000     -8.485000    -10.176000
C           3.793000    -10.134000    -10.684000
H           2.852000     -9.777000    -11.119000
C           3.617000    -11.570000    -10.093000
H           4.468000    -10.150000    -11.549000
H           2.726000    -11.693000     -9.465000
H           4.546000    -11.872000     -9.594000
H           3.544000    -12.181000    -11.001000
C           4.271000      6.032000     -9.452000
C           4.213000      4.672000     -9.056000
N           3.445000      6.452000    -10.418000
C           3.201000      3.773000     -9.577000
C           2.524000      5.594000    -10.975000
C           2.317000      4.242000    -10.612000
C           1.505000      3.307000    -11.479000
C           0.347000      3.729000    -12.099000
C           1.901000      1.982000    -11.810000
N          -0.414000      2.970000    -13.016000
N           2.930000      1.296000    -11.283000
C           1.156000      1.226000    -12.764000
C           0.002000      1.752000    -13.450000
S           2.869000     -0.261000    -11.907000
N           1.591000     -0.029000    -12.941000
C          -0.774000      1.050000    -14.460000
S          -0.117000      0.102000    -15.766000
C          -2.137000      1.053000    -14.477000
C          -1.732000     -0.533000    -16.165000
S          -3.156000      1.960000    -13.436000
C          -2.623000      0.136000    -15.393000
C          -2.091000     -1.517000    -17.185000
C          -4.450000      1.014000    -14.131000
C          -4.024000      0.134000    -15.211000
N          -1.085000     -1.992000    -17.865000
S          -3.619000     -2.381000    -17.435000
C          -1.422000     -3.159000    -18.561000
C          -2.744000     -3.499000    -18.441000
C           5.171000      7.105000     -8.879000
H           4.914000      4.361000     -8.287000
H           3.198000      2.747000     -9.219000
H           1.886000      6.023000    -11.747000
H           0.136000      4.771000    -11.866000
H          -5.446000      1.030000    -13.709000
H          -4.704000     -0.500000    -15.769000
H          -0.785000     -3.763000    -19.194000
H          -3.447000     -4.191000    -18.887000
H           4.680000      8.085000     -8.818000
C           6.521000      7.329000     -9.731000
H           5.474000      7.009000     -7.829000
H           7.153000      8.112000     -9.295000
H           6.347000      7.802000    -10.706000
C           7.325000      6.047000     -9.913000
H           7.501000      5.661000     -8.901000
C           8.748000      6.283000    -10.639000
H           6.660000      5.366000    -10.458000
H           8.549000      6.943000    -11.492000
H           9.039000      5.306000    -11.045000
C          10.035000      6.637000     -9.809000
H          10.254000      5.730000     -9.232000
C          10.058000      7.896000     -8.972000
H          10.919000      6.560000    -10.455000
H          10.891000      7.799000     -8.264000
H           9.168000      8.035000     -8.346000
H          10.239000      8.729000     -9.663000
$end

--------------------------------------------------------------
 ----------------------------------------------------------------
             Standard Nuclear Orientation (Angstroms)
    I     Atom           X                Y                Z
 ----------------------------------------------------------------
    1      C       5.0439910164     4.4331963558     1.3296312138
    2      C       4.0580687341     4.8356605582     2.2095913373
    3      N       5.0299009094     3.3014516276     0.6626009753
    4      C       2.9714150098     3.9750145203     2.4643109494
    5      C       3.9184346107     2.5431360972     0.7764703003
    6      C       2.8876311227     2.8049872973     1.7207939303
    7      C       1.7130993256     1.8960662047     1.8764329518
    8      C       0.4630687748     2.3731684882     2.3762799615
    9      C       1.8198215581     0.5624540218     1.6183769293
   10      N      -0.5901928417     1.5621801026     2.5726464699
   11      N       2.9189521513    -0.0930460932     1.0581443542
   12      C       0.7301901224    -0.2746756729     1.8901879088
   13      C      -0.5521174905     0.1929022747     2.3046623334
   14      S       2.3810828484    -1.6660741917     0.9792886996
   15      N       0.8971993279    -1.5900725103     1.5748022947
   16      C      -1.7796727942    -0.7281576990     2.4342983681
   17      S      -1.9721745588    -2.4403127982     2.2625398548
   18      C      -3.0303534516    -0.1800825194     2.5922207876
   19      C      -3.7450374063    -2.4197445274     2.2895263304
   20      S      -3.5404854380     1.3877365916     3.0062661857
   21      C      -4.0778748541    -1.1369765139     2.4671536276
   22      C      -4.5193160296    -3.5917078099     2.4076393195
   23      C      -5.2425895717     0.7376987061     3.1676423471
   24      C      -5.3348216042    -0.5176733437     2.7170124895
   25      N      -5.7828476640    -3.5376608676     2.7230957138
   26      S      -3.8887735450    -5.1761971016     2.1190706803
   27      C      -6.3818903039    -4.7459141253     2.6692628165
   28      C      -5.5674543889    -5.7187877698     2.1772943091
   29      C       6.2584175572     5.3887448492     1.0461082804
   30      H       4.1586866113     5.8605662389     2.5547701148
   31      H       2.2197593560     4.3176317192     3.1690926413
   32      H       3.9624348777     1.6734633678     0.1219610794
   33      H       0.3193529425     3.4296797405     2.5984257098
   34      H      -6.0293965099     1.4325597122     3.4276289317
   35      H      -6.2826705335    -1.0413034122     2.6839223290
   36      H      -7.4496377723    -4.8745204999     2.7867436413
   37      H      -5.8461854329    -6.6991898561     1.8112318085
   38      H       6.7077874807     5.1316063279     0.0790734037
   39      C       7.4562507430     5.3494685390     2.0744307155
   40      H       5.7888410607     6.3795092496     0.9954149204
   41      H       7.0034759229     4.9953501905     3.0084891492
   42      H       7.8409957851     6.3530671297     2.2940556719
   43      C       8.6162226289     4.4350383476     1.7744029687
   44      H       9.2123518704     4.3848738236     2.6936849972
   45      C       9.5763236564     5.0411451971     0.7588895498
   46      H       8.3736650390     3.4080914787     1.4754080790
   47      H      10.0389577581     5.9882802847     1.0614070102
   48      H       9.0112770689     5.3164348205    -0.1413515164
   49      C      10.7599193672     4.1493524812     0.3293223897
   50      H      10.5103832428     3.0851791298     0.4154722637
   51      C      12.0779567117     4.4707806589     1.1050894197
   52      H      10.9041415183     4.2767324511    -0.7509925248
   53      H      12.1175364598     4.0536725078     2.1189179229
   54      H      12.2627158847     5.5515220711     1.0718020648
   55      H      12.8373539804     4.0098834232     0.4616583617
   56      C      -5.3850937878     3.3309731238    -0.9953169780
   57      C      -4.1119406431     3.6429700081    -0.4553919699
   58      N      -5.6090593589     2.0826604670    -1.4235539846
   59      C      -3.1077826339     2.6186772577    -0.2402709479
   60      C      -4.6417695628     1.1122384962    -1.2920790862
   61      C      -3.3664858148     1.2798609192    -0.7020993533
   62      C      -2.2734433804     0.2505454076    -0.8782408146
   63      C      -2.5489525633    -1.1008079103    -0.8409997033
   64      C      -0.9234749898     0.5679007478    -1.1926814805
   65      N      -1.6221560750    -2.1329585516    -1.1089629894
   66      N      -0.3682798975     1.7921409357    -1.2053452797
   67      C       0.0062384811    -0.4701454502    -1.5005287687
   68      C      -0.3604974531    -1.8641870403    -1.5343044953
   69      S       1.2737134247     1.5970864801    -1.4937160293
   70      N       1.2597483412    -0.0481688780    -1.7155352870
   71      C       0.5265380998    -2.9636891185    -1.8797652133
   72      S       1.6646562502    -2.9722382614    -3.1990843513
   73      C       0.5663357050    -4.1290644076    -1.1738023346
   74      C       2.4055557449    -4.4753908128    -2.5972111536
   75      S      -0.4754245446    -4.5598472930     0.1199722548
   76      C       1.6405182353    -4.9092285657    -1.5657420978
   77      C       3.5598242035    -5.1938602147    -3.1348011868
   78      C       0.6130712165    -5.9078841386     0.3443617398
   79      C       1.6522569519    -6.0034122820    -0.6721240600
   80      N       4.1146910096    -4.6372458546    -4.1751685650
   81      S       4.4981683154    -6.5198436472    -2.4241266730
   82      C       5.3930223327    -5.1485329464    -4.4287992772
   83      C       5.7459300276    -6.1688425996    -3.5849341396
   84      C      -6.5662388792     4.2671047536    -1.1302682456
   85      H      -3.9579116953     4.6708807388    -0.1404989516
   86      H      -2.1586436456     2.9192493953     0.1952064579
   87      H      -4.9133301419     0.1226394558    -1.6581632174
   88      H      -3.6088455618    -1.2793051155    -0.6697117014
   89      H       0.5541282428    -6.5365324885     1.2228166208
   90      H       2.3920828759    -6.7956901108    -0.6980748633
   91      H       6.0776592430    -4.8658053512    -5.2178565678
   92      H       6.5243572200    -6.9160695760    -3.4972303662
   93      H      -7.5274235170     3.7693201763    -0.9471382186
   94      C      -6.6803211197     4.9461887844    -2.5878038786
   95      H      -6.6604467057     5.0778765157    -0.3972614003
   96      H      -7.5445748699     5.6175438473    -2.6582086709
   97      H      -6.9739956252     4.2402212701    -3.3752015885
   98      C      -5.4101511360     5.6817143140    -2.9985768179
   99      H      -5.2085500324     6.3984884016    -2.1925322147
  100      C      -5.5597713246     6.4864659298    -4.3905860262
  101      H      -4.6267061555     4.9142895178    -3.0154334093
  102      H      -6.0577706987     5.8008228758    -5.0867901817
  103      H      -4.5365883551     6.6359327339    -4.7577403336
  104      C      -6.0882008666     7.9664745328    -4.4209464272
  105      H      -5.3002596976     8.5548634157    -3.9346479215
  106      C      -7.4721107716     8.2736791215    -3.8950208473
  107      H      -5.9275359681     8.3913602964    -5.4201260298
  108      H      -7.5222324510     9.3574087875    -3.7289490904
  109      H      -7.6902302361     7.8262307732    -2.9175184817
  110      H      -8.1793388828     7.9742102829    -4.6787796197
 ----------------------------------------------------------------
 Molecular Point Group                 C1    NOp =  1
 Largest Abelian Subgroup              C1    NOp =  1
 Nuclear Repulsion Energy = 12611.2114323172 hartrees
 There are      270 alpha and      270 beta electrons
 Requested basis set is 6-31G(d,p)
 There are 406 shells and 1262 basis functions

 Total QAlloc Memory Limit  20000 MB
 Mega-Array Size      4888 MB
 MEM_STATIC part      5000 MB
 A cutoff of  1.0D-08 yielded  15023 shell pairs
 There are    165283 function pairs
 
 -------------------------------------------------------
 OpenMP Integral Computing Module                       
 Release: version 1.0, May 2013, Q-Chem Inc. Pittsburgh 
 -------------------------------------------------------
 Integral Job Info:
 Integral job number is                      11
 Integral operator is                         1
 short-range coefficients                     0
 long-range coefficients              100000000
 Omega coefficients                           0
 if combine SR and LR in K                    0
 Integral screening is                        0
 Integral computing path is                   2
 max size of driver memory is            800000
 size of driver memory is                593474
 size of scratch memory is             15166112
 max col of scratch BK array               1296
 max len of scratch array in speh3          155
 max len of scratch index in speh4           18
 max int batch size is                      520
 min int batch size is                       52
 fixed nKL is                                52
 max L of basis functions is                  2
 order of int derivative is                   0
 number of shells is                        406
 number of basis is                        1262
 number of cartesian basis is              1262
 number of contracted shell pairs         15023
 number of primitive shell pairs          47259
 maxK2 (contraction) of shell pair           36
 max number of K2 of shell pair               1
 max number of CS2 of shell pair           1808
 max number of PS2 of shell pair           9732
 mem total for path MDJ                  382296
 -------------------------------------------------------
 Smallest overlap matrix eigenvalue = 3.78E-04

 Scale SEOQF with 1.000000e-02/1.000000e-02/1.000000e-02

 Standard Electronic Orientation quadrupole field applied
 Nucleus-field energy     =     0.0000000715 hartrees
 Guess from superposition of atomic densities
 Warning:  Energy on first SCF cycle will be non-variational
 A restricted hybrid HF-DFT SCF calculation will be
 performed using Pulay DIIS extrapolation
 Exchange:     0.2000 Hartree-Fock + 0.0800 Slater + 0.7200 B88
 Correlation:  0.1900 VWN1RPA + 0.8100 LYP
 Using SG-1 standard quadrature grid
 SCF converges when DIIS error is below 1.0E-05
 using 16 threads for integral computing 
 -------------------------------------------------------
 OpenMP BLAS3 based DFT computing Module                
 Release: version 1.0, May 2013, Q-Chem Inc. Pittsburgh 
 -------------------------------------------------------
 ---------------------------------------
  Cycle       Energy         DIIS Error
 ---------------------------------------
    1   -5679.8854040922      2.14E-02
    2   -5662.4473740340      2.16E-03
    3   -5660.1404936516      3.73E-03
    4   -5662.9860299913      1.38E-03
    5   -5663.4309794584      3.84E-04
    6   -5663.4350033351      3.68E-04
    7   -5663.4579951676      1.43E-04
    8   -5663.4616388510      5.32E-05
    9   -5663.4621570480      2.16E-05
   10   -5663.4622462573      8.05E-06 Convergence criterion met
 ---------------------------------------
 SCF time:  CPU 1266.59 s  wall 115.53 s
 SCF   energy in the final basis set = -5663.4622462573
 Total energy in the final basis set = -5663.4622462573
 
 --------------------------------------------------------------
 
                    Orbital Energies (a.u.)
 --------------------------------------------------------------
 
 Alpha MOs
 -- Occupied --
-88.989 -88.982 -88.926 -88.924 -88.922 -88.920 -88.914 -88.902
-14.389 -14.385 -14.383 -14.379 -14.355 -14.355 -14.340 -14.340
-14.325 -14.325 -10.276 -10.269 -10.267 -10.266 -10.256 -10.255
-10.255 -10.254 -10.249 -10.246 -10.239 -10.238 -10.235 -10.235
-10.232 -10.232 -10.230 -10.230 -10.229 -10.228 -10.228 -10.225
-10.225 -10.224 -10.224 -10.223 -10.222 -10.218 -10.218 -10.218
-10.216 -10.213 -10.207 -10.204 -10.203 -10.200 -10.198 -10.189
-10.188 -10.185 -10.180 -10.180 -10.179 -10.178 -10.177 -10.174
-10.172 -10.172 -10.172 -10.167  -8.044  -8.036  -7.987  -7.984
 -7.983  -7.979  -7.974  -7.962  -6.008  -6.003  -6.002  -6.002
 -5.996  -5.993  -5.951  -5.948  -5.948  -5.947  -5.944  -5.944
 -5.944  -5.943  -5.940  -5.940  -5.939  -5.938  -5.936  -5.935
 -5.930  -5.926  -5.923  -5.918  -1.035  -1.022  -0.983  -0.966
 -0.949  -0.945  -0.944  -0.927  -0.919  -0.918  -0.903  -0.897
 -0.846  -0.845  -0.835  -0.828  -0.811  -0.806  -0.804  -0.803
 -0.803  -0.800  -0.794  -0.787  -0.782  -0.771  -0.767  -0.765
 -0.752  -0.750  -0.743  -0.741  -0.722  -0.720  -0.706  -0.705
 -0.694  -0.694  -0.675  -0.670  -0.655  -0.653  -0.652  -0.642
 -0.636  -0.635  -0.627  -0.618  -0.617  -0.609  -0.598  -0.598
 -0.594  -0.593  -0.582  -0.582  -0.580  -0.574  -0.559  -0.557
 -0.554  -0.548  -0.537  -0.535  -0.526  -0.522  -0.514  -0.512
 -0.505  -0.503  -0.501  -0.498  -0.486  -0.484  -0.479  -0.477
 -0.476  -0.467  -0.464  -0.457  -0.454  -0.452  -0.449  -0.448
 -0.445  -0.441  -0.440  -0.438  -0.437  -0.435  -0.435  -0.433
 -0.429  -0.429  -0.424  -0.422  -0.420  -0.417  -0.415  -0.411
 -0.410  -0.408  -0.406  -0.403  -0.403  -0.399  -0.397  -0.394
 -0.394  -0.393  -0.391  -0.390  -0.386  -0.383  -0.381  -0.381
 -0.377  -0.376  -0.374  -0.369  -0.364  -0.362  -0.362  -0.355
 -0.353  -0.352  -0.349  -0.346  -0.345  -0.343  -0.342  -0.339
 -0.336  -0.335  -0.334  -0.332  -0.326  -0.324  -0.323  -0.313
 -0.312  -0.310  -0.309  -0.304  -0.303  -0.300  -0.298  -0.297
 -0.293  -0.290  -0.290  -0.288  -0.285  -0.280  -0.278  -0.275
 -0.269  -0.267  -0.265  -0.263  -0.255  -0.252  -0.248  -0.248
 -0.242  -0.239  -0.234  -0.227  -0.198  -0.193
 -- Virtual --
 -0.114  -0.108  -0.074  -0.072  -0.039  -0.035  -0.030  -0.025
 -0.023  -0.020  -0.017  -0.011  -0.008  -0.004   0.001   0.004
  0.007   0.014   0.014   0.025   0.030   0.036   0.037   0.046
  0.050   0.052   0.061   0.062   0.066   0.074   0.086   0.089
  0.092   0.099   0.102   0.105   0.107   0.111   0.113   0.114
  0.115   0.117   0.119   0.121   0.123   0.126   0.126   0.128
  0.131   0.133   0.134   0.137   0.138   0.140   0.143   0.145
  0.146   0.147   0.147   0.152   0.153   0.159   0.162   0.163
  0.166   0.168   0.169   0.170   0.177   0.179   0.180   0.182
  0.183   0.187   0.189   0.192   0.192   0.194   0.195   0.196
  0.199   0.201   0.204   0.209   0.211   0.213   0.218   0.223
  0.225   0.227   0.229   0.231   0.232   0.233   0.236   0.239
  0.240   0.241   0.244   0.246   0.249   0.253   0.256   0.257
  0.263   0.267   0.268   0.269   0.270   0.274   0.280   0.282
  0.286   0.288   0.292   0.294   0.297   0.298   0.301   0.303
  0.307   0.308   0.314   0.319   0.321   0.325   0.328   0.330
  0.334   0.335   0.339   0.340   0.344   0.348   0.349   0.351
  0.353   0.354   0.357   0.362   0.365   0.369   0.371   0.374
  0.378   0.383   0.386   0.389   0.392   0.398   0.401   0.406
  0.411   0.413   0.420   0.423   0.427   0.437   0.440   0.444
  0.446   0.454   0.455   0.458   0.463   0.470   0.473   0.480
  0.483   0.486   0.487   0.492   0.494   0.496   0.498   0.502
  0.502   0.505   0.506   0.511   0.514   0.515   0.517   0.521
  0.524   0.527   0.527   0.530   0.531   0.533   0.536   0.536
  0.537   0.538   0.540   0.541   0.545   0.549   0.551   0.552
  0.557   0.559   0.563   0.564   0.565   0.567   0.569   0.570
  0.571   0.575   0.576   0.577   0.580   0.582   0.583   0.586
  0.589   0.591   0.592   0.594   0.596   0.599   0.601   0.605
  0.606   0.613   0.615   0.615   0.620   0.622   0.623   0.625
  0.629   0.631   0.632   0.634   0.635   0.637   0.639   0.642
  0.644   0.647   0.648   0.652   0.656   0.658   0.661   0.662
  0.666   0.668   0.669   0.671   0.678   0.680   0.683   0.685
  0.688   0.690   0.695   0.696   0.697   0.699   0.704   0.706
  0.710   0.715   0.718   0.722   0.724   0.724   0.726   0.732
  0.734   0.738   0.743   0.747   0.748   0.750   0.753   0.756
  0.760   0.761   0.764   0.764   0.769   0.771   0.775   0.777
  0.777   0.781   0.785   0.787   0.789   0.791   0.793   0.794
  0.795   0.798   0.802   0.803   0.808   0.812   0.814   0.817
  0.819   0.822   0.823   0.826   0.826   0.826   0.829   0.831
  0.835   0.837   0.839   0.840   0.841   0.844   0.845   0.849
  0.849   0.850   0.853   0.855   0.856   0.858   0.860   0.862
  0.862   0.865   0.867   0.868   0.869   0.870   0.874   0.877
  0.877   0.880   0.885   0.891   0.891   0.893   0.897   0.899
  0.901   0.904   0.905   0.908   0.910   0.912   0.914   0.916
  0.917   0.922   0.924   0.926   0.927   0.932   0.934   0.934
  0.937   0.941   0.941   0.943   0.947   0.949   0.951   0.955
  0.958   0.961   0.964   0.966   0.968   0.971   0.972   0.975
  0.979   0.980   0.984   0.985   0.988   0.992   0.992   0.998
  1.000   1.002   1.004   1.006   1.009   1.011   1.015   1.018
  1.020   1.021   1.023   1.025   1.028   1.031   1.032   1.034
  1.038   1.040   1.043   1.046   1.050   1.053   1.059   1.061
  1.066   1.071   1.072   1.077   1.082   1.085   1.092   1.094
  1.097   1.103   1.105   1.110   1.110   1.114   1.120   1.127
  1.129   1.130   1.137   1.138   1.148   1.149   1.157   1.161
  1.168   1.170   1.176   1.180   1.182   1.187   1.192   1.196
  1.202   1.204   1.208   1.214   1.221   1.227   1.232   1.242
  1.243   1.246   1.248   1.258   1.263   1.267   1.275   1.279
  1.282   1.284   1.287   1.297   1.299   1.305   1.305   1.309
  1.314   1.318   1.323   1.326   1.329   1.335   1.337   1.339
  1.345   1.347   1.353   1.357   1.359   1.368   1.372   1.374
  1.376   1.386   1.389   1.398   1.398   1.399   1.401   1.405
  1.407   1.420   1.422   1.422   1.427   1.428   1.432   1.437
  1.444   1.446   1.455   1.456   1.463   1.470   1.473   1.484
  1.488   1.493   1.498   1.500   1.504   1.509   1.517   1.524
  1.527   1.529   1.531   1.537   1.540   1.548   1.557   1.562
  1.576   1.580   1.583   1.589   1.597   1.599   1.605   1.611
  1.623   1.626   1.633   1.636   1.638   1.641   1.646   1.653
  1.658   1.660   1.670   1.671   1.684   1.685   1.689   1.689
  1.692   1.700   1.702   1.707   1.717   1.718   1.721   1.723
  1.726   1.729   1.731   1.735   1.740   1.740   1.746   1.750
  1.756   1.761   1.763   1.768   1.771   1.775   1.783   1.791
  1.793   1.801   1.801   1.804   1.809   1.815   1.817   1.820
  1.824   1.828   1.829   1.832   1.840   1.842   1.849   1.855
  1.859   1.860   1.861   1.863   1.865   1.868   1.870   1.873
  1.877   1.879   1.882   1.890   1.892   1.893   1.896   1.901
  1.904   1.905   1.910   1.914   1.917   1.923   1.926   1.930
  1.937   1.939   1.942   1.944   1.947   1.948   1.952   1.956
  1.958   1.961   1.961   1.966   1.974   1.984   1.989   1.994
  1.999   2.002   2.005   2.006   2.007   2.010   2.019   2.023
  2.025   2.029   2.031   2.037   2.042   2.045   2.049   2.050
  2.066   2.069   2.071   2.079   2.084   2.094   2.102   2.106
  2.108   2.111   2.114   2.116   2.120   2.123   2.125   2.129
  2.130   2.138   2.141   2.145   2.154   2.157   2.163   2.165
  2.167   2.169   2.172   2.181   2.187   2.191   2.194   2.196
  2.201   2.204   2.206   2.207   2.210   2.214   2.220   2.224
  2.228   2.231   2.233   2.235   2.241   2.242   2.246   2.248
  2.258   2.263   2.268   2.271   2.272   2.275   2.277   2.282
  2.286   2.289   2.295   2.298   2.304   2.305   2.308   2.311
  2.314   2.320   2.321   2.324   2.329   2.329   2.333   2.338
  2.338   2.341   2.346   2.347   2.351   2.353   2.362   2.364
  2.366   2.370   2.374   2.378   2.380   2.383   2.387   2.389
  2.392   2.396   2.401   2.411   2.411   2.418   2.421   2.426
  2.429   2.433   2.435   2.436   2.438   2.443   2.447   2.449
  2.453   2.454   2.458   2.461   2.463   2.468   2.471   2.475
  2.476   2.480   2.485   2.490   2.491   2.498   2.506   2.508
  2.513   2.515   2.518   2.524   2.525   2.530   2.532   2.534
  2.535   2.542   2.546   2.547   2.554   2.560   2.565   2.570
  2.574   2.575   2.582   2.583   2.593   2.595   2.600   2.602
  2.612   2.615   2.620   2.623   2.629   2.633   2.635   2.639
  2.640   2.650   2.651   2.657   2.658   2.659   2.663   2.671
  2.678   2.679   2.679   2.682   2.685   2.686   2.695   2.698
  2.703   2.705   2.712   2.719   2.722   2.727   2.738   2.741
  2.747   2.750   2.760   2.764   2.771   2.774   2.782   2.786
  2.786   2.789   2.798   2.804   2.814   2.820   2.820   2.827
  2.828   2.841   2.844   2.850   2.855   2.863   2.865   2.874
  2.886   2.887   2.892   2.894   2.897   2.906   2.910   2.913
  2.913   2.917   2.922   2.925   2.930   2.933   2.937   2.938
  2.952   2.967   2.971   2.973   2.988   2.999   3.002   3.003
  3.017   3.023   3.027   3.043   3.056   3.066   3.097   3.121
  3.132   3.160   3.187   3.202   3.203   3.212   3.240   3.242
  3.248   3.255   3.256   3.270   3.271   3.273   3.288   3.293
  3.313   3.314   3.325   3.327   3.329   3.333   3.341   3.353
  3.357   3.357   3.370   3.378   3.378   3.402   3.409   3.420
  3.437   3.455   3.457   3.459   3.465   3.515   3.523   3.525
  3.531   3.548   3.561   3.568   3.588   3.594   3.595   3.603
  3.603   3.649   3.694   3.755   3.847   3.906   3.924   3.928
  3.938   3.943   3.954   3.965   3.970   4.005   4.011   4.038
  4.066   4.080   4.093   4.097   4.108   4.116   4.129   4.139
  4.145   4.160   4.168   4.174   4.179   4.185   4.197   4.203
  4.215   4.226   4.232   4.240   4.258   4.268   4.285   4.291
  4.297   4.314   4.323   4.338   4.379   4.390   4.395   4.398
  4.431   4.437   4.455   4.461   4.483   4.495   4.499   4.511
  4.519   4.525   4.544   4.560   4.604   4.656   4.669   4.679
  4.685   4.708   4.710   4.736   4.740   4.753   4.786   4.815
 --------------------------------------------------------------
 
          Ground-State Mulliken Net Atomic Charges

     Atom                 Charge (a.u.)
  ----------------------------------------
      1 C                     0.266843
      2 C                    -0.111420
      3 N                    -0.473430
      4 C                    -0.085511
      5 C                     0.063868
      6 C                     0.039630
      7 C                    -0.004369
      8 C                     0.089261
      9 C                     0.259267
     10 N                    -0.546109
     11 N                    -0.566714
     12 C                     0.143943
     13 C                     0.305890
     14 S                     0.648558
     15 N                    -0.538769
     16 C                    -0.217436
     17 S                     0.330989
     18 C                    -0.102195
     19 C                    -0.234068
     20 S                     0.264151
     21 C                     0.136775
     22 C                     0.082291
     23 C                    -0.313268
     24 C                    -0.029945
     25 N                    -0.441141
     26 S                     0.261729
     27 C                     0.132741
     28 C                    -0.309750
     29 C                    -0.228806
     30 H                     0.089963
     31 H                     0.102549
     32 H                     0.136739
     33 H                     0.117204
     34 H                     0.126085
     35 H                     0.126360
     36 H                     0.117423
     37 H                     0.132864
     38 H                     0.117581
     39 C                    -0.175836
     40 H                     0.092158
     41 H                     0.089926
     42 H                     0.093702
     43 C                    -0.172985
     44 H                     0.091821
     45 C                    -0.171055
     46 H                     0.109389
     47 H                     0.083193
     48 H                     0.086487
     49 C                    -0.187765
     50 H                     0.092166
     51 C                    -0.317286
     52 H                     0.091829
     53 H                     0.108769
     54 H                     0.102803
     55 H                     0.101754
     56 C                     0.289377
     57 C                    -0.132623
     58 N                    -0.485217
     59 C                    -0.062640
     60 C                     0.065345
     61 C                     0.036155
     62 C                     0.077532
     63 C                     0.046281
     64 C                     0.260307
     65 N                    -0.543739
     66 N                    -0.588760
     67 C                     0.180379
     68 C                     0.290729
     69 S                     0.598796
     70 N                    -0.564478
     71 C                    -0.212028
     72 S                     0.343121
     73 C                    -0.121340
     74 C                    -0.219823
     75 S                     0.353867
     76 C                     0.189367
     77 C                     0.067972
     78 C                    -0.311489
     79 C                    -0.129442
     80 N                    -0.442727
     81 S                     0.256760
     82 C                     0.117893
     83 C                    -0.310849
     84 C                    -0.233347
     85 H                     0.087579
     86 H                     0.130057
     87 H                     0.099031
     88 H                     0.121228
     89 H                     0.125388
     90 H                     0.103665
     91 H                     0.122221
     92 H                     0.142515
     93 H                     0.119509
     94 C                    -0.184959
     95 H                     0.098327
     96 H                     0.091426
     97 H                     0.104964
     98 C                    -0.177237
     99 H                     0.083043
    100 C                    -0.183192
    101 H                     0.107396
    102 H                     0.089669
    103 H                     0.089715
    104 C                    -0.185751
    105 H                     0.090495
    106 C                    -0.308882
    107 H                     0.094579
    108 H                     0.099103
    109 H                     0.108951
    110 H                     0.106935
  ----------------------------------------
  Sum of atomic charges =     0.000000

 -----------------------------------------------------------------
                    Cartesian Multipole Moments
 -----------------------------------------------------------------
    Charge (ESU x 10^10)
                 0.0000
    Dipole Moment (Debye)
         X       0.3682      Y      -0.7677      Z       2.1981
       Tot       2.3572
    Quadrupole Moments (Debye-Ang)
        XX    -426.6850     XY      -4.4716     YY    -390.4126
        XZ      -8.3446     YZ       1.6538     ZZ    -453.9892
    Octopole Moments (Debye-Ang^2)
       XXX     -22.3353    XXY    -178.3941    XYY      22.0107
       YYY    -116.8112    XXZ       0.2249    XYZ      88.7890
       YYZ      58.2506    XZZ      56.1639    YZZ      29.3314
       ZZZ     -28.0373
    Hexadecapole Moments (Debye-Ang^3)
      XXXX  -55016.3805   XXXY    -288.3704   XXYY  -14162.2752
      XYYY    -170.8233   YYYY  -38896.1891   XXXZ   -1282.8429
      XXYZ     409.4915   XYYZ    -400.7254   YYYZ     -96.2333
      XXZZ  -11310.9536   XYZZ    -242.5542   YYZZ   -9018.0700
      XZZZ     -24.6646   YZZZ      -7.7585   ZZZZ  -13944.5334
 -----------------------------------------------------------------
Archival summary:
1\1\mn426\SP\ProcedureUnspecified\6-31G**\8105042\afmv_a\SunOct704:25:242018SunOct704:25:242018\0\\#,ProcedureUnspecified,6-31G**,\\0,1\S\C,1,1.73148\C,2,1.3746,1,107.728\C,3,1.42429,2,113.03,1,4.45824,0\C,4,1.3371,3,118.238,2,-3.39736,0\C,5,1.40959,4,130.524,3,-165.313,0\N,6,1.30344,5,121.217,4,-0.839992,0\C,7,1.34968,6,112.549,5,-174.361,0\H,8,1.08186,7,122.693,6,172.712,0\C,8,1.36082,7,112.879,6,5.88691,0\H,10,1.083,8,127.978,7,164.224,0\C,4,1.42333,3,109.984,2,-176.685,0\H,12,1.08337,4,123.846,3,179.836,0\C,12,1.33699,4,114.004,3,7.98721,0\H,14,1.08143,12,129.357,4,-179.538,0\C,2,1.54015,1,132.192,3,173.323,0\N,16,1.39577,2,123.283,1,175.562,0\C,17,1.34373,16,122.863,2,175.68,0\H,18,1.08914,17,116.886,16,-178.766,0\C,16,1.42644,2,123.02,1,-4.85273,0\N,20,1.36295,16,119.587,2,-0.762176,0\C,20,1.4007,16,124.042,2,-172.427,0\C,22,1.36254,20,119.162,16,-6.42473,0\N,22,1.39701,20,114.17,16,171.876,0\C,23,1.49328,22,120.958,20,-174.347,0\C,25,1.38881,23,120.294,22,153.347,0\H,26,1.08586,25,124.858,23,1.2085,0\C,26,1.4094,25,117.659,23,175.864,0\H,28,1.08614,26,126.172,25,-167.014,0\C,28,1.38143,26,119.175,25,5.57481,0\N,30,1.31376,28,124.523,26,-2.23815,0\C,31,1.35032,30,116.73,28,-5.49599,0\H,32,1.08933,31,111.372,30,-174.923,0\C,30,1.57108,28,119.304,26,179.855,0\H,34,1.09691,30,109.462,28,157.418,0\H,34,1.09758,30,103.1,28,40.084,0\C,34,1.57918,30,116.98,28,-83.4797,0\H,37,1.09675,34,104.446,30,24.963,0\H,37,1.09703,34,111.94,30,138.79,0\C,37,1.50723,34,117.984,30,-93.5653,0\H,40,1.09675,37,116.881,34,47.3007,0\H,40,1.0968,37,106.213,34,167.601,0\C,40,1.52329,37,112.109,34,-79.9671,0\H,43,1.09664,40,115.191,37,-60.3742,0\H,43,1.09795,40,108.784,37,54.7549,0\C,43,1.54296,40,116.047,37,176.92,0\H,46,1.09643,43,111.378,40,-27.5019,0\H,46,1.09732,43,107.928,40,-139.519,0\C,46,1.5628,43,112.947,40,97.7297,0\H,49,1.09687,46,101.905,43,161.975,0\H,49,1.09693,46,109.246,43,49.8732,0\H,49,1.09699,46,114.267,43,-78.3101,0\S,21,1.60073,20,104.211,16,-172.503,0\S,3,1.69992,2,131.971,1,-170.844,0\S,6,1.72958,5,123.192,4,-179.537,0\S,33,3.13775,32,107.11,31,129.687,0\N,56,1.6602,33,95.7465,32,152.26,0\C,57,1.33999,56,107.368,33,-137.199,0\C,58,1.42712,57,114.518,56,-1.55009,0\N,59,1.34431,58,113.037,57,-1.414,0\C,59,1.42197,58,120.254,57,176.919,0\C,61,1.37966,59,114.466,58,-2.93933,0\H,62,1.08838,61,111.061,59,175.768,0\N,62,1.41283,61,125.412,59,1.25475,0\C,64,1.35828,62,121.611,61,4.9596,0\C,65,1.45433,64,119.428,62,176.002,0\C,66,1.36311,65,122.761,64,38.8885,0\C,67,1.38425,66,110.969,65,169.871,0\C,68,1.35552,67,118.232,66,4.15991,0\C,68,1.41277,67,105.299,66,-173.881,0\H,70,1.08431,68,123.81,67,178.697,0\C,70,1.4568,68,112.621,67,2.4269,0\H,72,1.08183,70,124.565,68,168.549,0\C,69,1.46203,68,124.618,67,179.226,0\N,74,1.30386,69,114.808,68,-176.482,0\C,75,1.39995,74,112.162,69,-164.156,0\H,76,1.08225,75,127.903,74,179.533,0\C,76,1.37029,75,113.299,74,-3.66422,0\H,78,1.08258,76,138.505,75,-169.187,0\C,61,1.51171,59,124.073,58,172.365,0\C,80,1.4151,61,121.492,59,-134.736,0\H,81,1.08953,80,118.183,61,-15.5535,0\N,81,1.37646,80,126.13,61,166.262,0\C,83,1.33859,81,120.619,80,-1.16493,0\C,84,1.41767,83,118.511,81,-2.57641,0\H,85,1.08604,84,116.493,83,-178.554,0\C,80,1.43967,61,122.728,59,28.8916,0\H,87,1.08667,80,122.87,61,12.4568,0\C,84,1.51316,83,114.696,81,176.523,0\H,89,1.09705,84,117.688,83,-149.679,0\H,89,1.09782,84,112.832,83,-35.9225,0\C,89,1.61201,84,113.36,83,84.9165,0\H,92,1.09664,89,111.822,84,-179.911,0\H,92,1.09756,89,113.368,84,-70.4247,0\C,92,1.52416,89,112.83,84,55.2934,0\H,95,1.09682,92,105.174,89,-60.8738,0\H,95,1.09732,92,105.686,89,55.1624,0\C,95,1.61484,92,113.303,89,174.383,0\H,98,1.09673,95,106.124,92,45.4564,0\H,98,1.09729,95,105.659,92,159.111,0\C,98,1.57181,95,121.134,92,-88.1696,0\H,101,1.09706,98,104.773,95,-67.7638,0\H,101,1.09759,98,109.443,95,-168.871,0\C,101,1.51201,98,119.492,95,60.3728,0\H,104,1.09695,101,114.147,98,-47.5749,0\H,104,1.09733,101,106.619,98,78.4289,0\H,104,1.09753,101,107.161,98,-163.381,0\S,67,1.71601,66,125.971,65,-5.52497,0\S,78,1.74,76,112.108,75,0.671176,0\S,66,1.74241,65,125.589,64,-141.84,0\\\@

 Total job time:  119.17s(wall), 1277.60s(cpu) 
 Sun Oct  7 04:25:24 2018

        *************************************************************
        *                                                           *
        *  Thank you very much for using Q-Chem.  Have a nice day.  *
        *                                                           *
        *************************************************************


