
Running Job 1 of 1 ./6/38.qcin
qchem ./6/38.qcin_21453.0 /tmpu/cab_g/afmv_a/scratch_qchem/qchem21453/ 1
/tmpu/appuserlic/qchem4.4/serial-multicore/exe/qcprog.exe_s ./6/38.qcin_21453.0 /tmpu/cab_g/afmv_a/scratch_qchem/qchem21453/
Check license passed

                  Welcome to Q-Chem
     A Quantum Leap Into The Future Of Chemistry


 Q-Chem 4.4, Q-Chem, Inc., Pleasanton, CA (2016)

 Y. Shao,  Z. Gan,  E. Epifanovsky,  A. T. B. Gilbert,  M. Wormit,  
 J. Kussmann,  A. W. Lange,  A. Behn,  J. Deng,  X. Feng,  D. Ghosh,  
 M. Goldey,  P. R. Horn,  L. D. Jacobson,  I. Kaliman,  F. Rob,  
 R. Z. Khaliullin,  T. Kus,  A. Landau,  J. Liu,  E. I. Proynov,  Y. M. Rhee,  
 R. M. Richard,  M. A. Rohrdanz,  R. P. Steele,  E. J. Sundstrom,  
 H. L. Woodcock III,  P. M. Zimmerman,  D. Zuev,  B. Albrecht,  E. Alguire,  
 B. Austin,  S. A. Baeppler,  G. J. O. Beran,  Y. A. Bernard,  E. Berquist,  
 K. Brandhorst,  K. B. Bravaya,  S. T. Brown,  D. Casanova,  C.-M. Chang,  
 Y. Chen,  S. H. Chien,  K. D. Closser,  M. P. Coons,  D. L. Crittenden,  
 S. Dasgupta,  M. Diedenhofen,  R. A. DiStasio Jr.,  H. Do,  A. D. Dutoi,  
 R. G. Edgar,  P.-T. Fang,  S. Fatehi,  Q. Feng,  L. Fusti-Molnar,  
 A. Ghysels,  A. Golubeva-Zadorozhnaya,  J. Gomes,  A. Gunina,  
 M. W. D. Hanson-Heine,  P. H. P. Harbach,  A. W. Hauser,  J. E. Herr,  
 E. G. Hohenstein,  Z. C. Holden,  K. Hui,  T.-C. Jagau,  H. Ji,  B. Kaduk,  
 K. Khistyaev,  Jaehoon Kim,  Jihan Kim,  R. A. King,  P. Klunzinger,  
 K. Koh,  D. Kosenkov,  T. Kowalczyk,  C. M. Krauter,  A. Kunitsa,  
 K. U. Lao,  A. Laurent,  K. V. Lawler,  J. Lee,  D. Lefrancois,  S. Lehtola,  
 S. V. Levchenko,  C. Y. Lin,  Y.-S. Lin,  F. Liu,  E. Livshits,  
 R. C. Lochan,  A. Luenser,  P. Manohar,  S. F. Manzer,  S.-P. Mao,  Y. Mao,  
 N. Mardirossian,  A. V. Marenich,  L. A. Martinez-Martinez,  S. A. Maurer,  
 N. J. Mayhall,  J.-M. Mewes,  A. F. Morrison,  K. Nanda,  T. S. Nguyen-Beck,  
 C. M. Oana,  R. Olivares-Amaya,  D. P. O'Neill,  J. A. Parkhill,  
 T. M. Perrine,  R. Peverati,  P. A. Pieniazek,  F. Plasser,  A. Prociuk,  
 D. R. Rehn,  E. Rosta,  N. J. Russ,  N. Sergueev,  S. M. Sharada,  
 S. Sharma,  D. W. Small,  A. Sodt,  T. Stauch,  T. Stein,  D. Stuck,  
 Y.-C. Su,  A. J. W. Thom,  T. Tsuchimochi,  L. Vogt,  O. Vydrov,  T. Wang,  
 M. A. Watson,  J. Wenzel,  A. White,  C. F. Williams,  V. Vanovschi,  
 K. Yao,  S. Yeganeh,  S. R. Yost,  Z.-Q. You,  I. Y. Zhang,  X. Zhang,  
 Y. Zhao,  B. R. Brooks,  G. K. L. Chan,  D. M. Chipman,  C. J. Cramer,  
 W. A. Goddard III,  M. S. Gordon,  W. J. Hehre,  A. Klamt,  
 H. F. Schaefer III,  M. W. Schmidt,  C. D. Sherrill,  D. G. Truhlar,  
 A. Warshel,  X. Xu,  A. Aspuru-Guzik,  R. Baer,  A. T. Bell,  N. A. Besley,  
 J.-D. Chai,  A. Dreuw,  B. D. Dunietz,  T. R. Furlani,  S. R. Gwaltney,  
 C.-P. Hsu,  Y. Jung,  J. Kong,  D. S. Lambrecht,  W. Liang,  C. Ochsenfeld,  
 V. A. Rassolov,  L. V. Slipchenko,  J. E. Subotnik,  T. Van Voorhis,  
 J. M. Herbert,  A. I. Krylov,  P. M. W. Gill,  M. Head-Gordon

 Contributors to earlier versions of Q-Chem not listed above: 
 R. D. Adamson,  J. Baker,  E. F. C. Byrd,  A. K. Chakraborty,  C.-L. Cheng,  
 H. Dachsel,  R. J. Doerksen,  G. Hawkins,  A. Heyden,  S. Hirata,  
 G. Kedziora,  F. J. Keil,  C. Kelley,  P. P. Korambath,  W. Kurlancheek,  
 A. M. Lee,  M. S. Lee,  D. Liotard,  I. Lotan,  P. E. Maslen,  N. Nair,  
 D. Neuhauser,  R. Olson,  B. Peters,  J. Ritchie,  N. E. Schultz,  
 N. Shenvi,  A. C. Simmonett,  K. S. Thanthiriwatte,  Q. Wu,  W. Zhang

 Please cite Q-Chem as follows:
 Y. Shao et al., Mol. Phys. 113, 184-215 (2015)
 DOI: 10.1080/00268976.2014.952696

 Q-Chem 4.4.2 for Intel X86 Linux

 Parts of Q-Chem use Armadillo 5.200.1 (Boston Tea Smuggler).
 http://arma.sourceforge.net/

 Q-Chem begins on Sun Oct  7 04:20:22 2018  

Host: 
0

     Scratch files written to /tmpu/cab_g/afmv_a/scratch_qchem/qchem21453//
 Dec716 11556_ 22328  22283 4050   
Processing $rem in /tmpu/appuserlic/qchem4.4/serial-multicore/config/preferences.
 MEM_TOTAL  2000 
FILE_GEOM_ORG=        593

Checking the input file for inconsistencies... 	...done.

--------------------------------------------------------------
User input:
--------------------------------------------------------------
$comment
SP
$end

$rem
MEM_STATIC 5000
MEM_TOTAL 20000
JOBTYPE SP
EXCHANGE B3LYP
BASIS 6-31g(d,p)
$end

$molecule
0 1
C           1.258000      6.866000      3.804000
C           0.080000      6.161000      3.629000
N           2.422000      6.277000      3.805000
C           0.126000      4.773000      3.405000
C           2.456000      4.950000      3.529000
C           1.308000      4.106000      3.401000
C           1.492000      2.683000      3.185000
C           2.103000      2.230000      2.003000
C           1.472000      1.745000      4.264000
N           2.617000      0.996000      1.735000
N           1.020000      1.916000      5.511000
C           1.869000      0.421000      4.003000
C           2.605000      0.200000      2.809000
S           1.046000      0.423000      6.153000
N           1.661000     -0.453000      4.974000
C           3.409000     -0.965000      2.586000
S           3.540000     -1.899000      1.081000
C           4.391000     -1.251000      3.497000
C           4.954000     -2.757000      1.765000
S           4.881000     -0.418000      4.924000
C           5.235000     -2.223000      3.020000
C           5.666000     -3.887000      1.182000
C           6.154000     -1.651000      5.092000
C           6.323000     -2.356000      3.939000
N           5.002000     -4.660000      0.391000
S           7.429000     -4.017000      1.298000
C           5.896000     -5.606000     -0.195000
C           7.237000     -5.317000      0.111000
C           1.313000      8.367000      4.209000
H          -0.859000      6.701000      3.545000
H          -0.807000      4.244000      3.240000
H           3.473000      4.590000      3.376000
H           2.052000      2.881000      1.131000
H           6.724000     -1.597000      6.011000
H           7.223000     -2.938000      3.781000
H           5.526000     -6.356000     -0.882000
H           8.126000     -5.885000     -0.128000
H           1.865000      9.046000      3.548000
C           1.811000      8.711000      5.648000
H           0.318000      8.809000      4.073000
H           2.591000      8.014000      5.979000
H           1.011000      8.457000      6.355000
C           2.260000     10.166000      5.879000
H           3.102000     10.386000      5.211000
C           2.775000     10.462000      7.349000
H           1.463000     10.870000      5.608000
H           3.198000     11.474000      7.345000
H           3.573000      9.744000      7.575000
C           1.684000     10.503000      8.436000
H           1.018000     11.322000      8.136000
C           2.264000     10.550000      9.829000
H           1.073000      9.594000      8.385000
H           2.911000      9.669000      9.919000
H           1.518000     10.435000     10.625000
H           2.909000     11.375000     10.158000
C         -10.686000      8.942000      0.256000
C          -9.909000      9.117000     -0.878000
N         -10.220000      8.472000      1.444000
C          -8.524000      8.785000     -0.808000
C          -8.920000      8.099000      1.486000
C          -8.001000      8.297000      0.439000
C          -6.565000      7.937000      0.667000
C          -5.575000      8.783000      0.173000
C          -6.104000      6.755000      1.385000
N          -4.281000      8.473000      0.167000
N          -6.867000      5.830000      2.027000
C          -4.780000      6.433000      1.374000
C          -3.825000      7.285000      0.687000
S          -5.891000      4.759000      2.610000
N          -4.494000      5.313000      2.083000
C          -2.356000      7.129000      0.481000
S          -1.142000      8.460000      0.292000
C          -1.706000      5.910000      0.409000
C           0.193000      7.279000      0.096000
S          -2.302000      4.322000      0.507000
C          -0.337000      6.039000      0.179000
C           1.547000      7.654000      0.043000
C          -0.652000      3.758000      0.132000
C           0.348000      4.748000      0.050000
N           2.472000      6.862000     -0.478000
S           2.025000      9.281000      0.448000
C           3.639000      7.575000     -0.661000
C           3.511000      8.854000     -0.254000
C         -12.134000      9.483000      0.213000
H         -10.136000      9.675000     -1.782000
H          -7.797000      9.001000     -1.585000
H          -8.516000      7.953000      2.486000
H          -5.696000      9.705000     -0.395000
H          -0.478000      2.719000     -0.116000
H           1.386000      4.537000     -0.176000
H           4.513000      7.086000     -1.072000
H           4.246000      9.648000     -0.257000
H         -12.209000     10.555000      0.433000
C         -13.153000      8.760000      1.156000
H         -12.576000      9.434000     -0.790000
H         -12.989000      9.032000      2.206000
H         -12.938000      7.687000      1.077000
C         -14.613000      8.987000      0.814000
H         -14.862000     10.052000      0.906000
C         -15.516000      8.362000      1.893000
H         -14.844000      8.631000     -0.198000
H         -15.108000      8.637000      2.873000
H         -15.379000      7.275000      1.846000
C         -17.024000      8.758000      1.731000
H         -17.216000      9.810000      1.974000
C         -17.944000      7.864000      2.628000
H         -17.279000      8.602000      0.675000
H         -18.916000      8.363000      2.732000
H         -17.515000      8.083000      3.613000
H         -17.936000      6.855000      2.199000
$end

--------------------------------------------------------------
 ----------------------------------------------------------------
             Standard Nuclear Orientation (Angstroms)
    I     Atom           X                Y                Z
 ----------------------------------------------------------------
    1      C       0.9028636624     3.4787314537     0.5077028562
    2      C       0.2570343311     2.2762418538     0.7363012748
    3      N       2.1989695041     3.5534359635     0.3798479255
    4      C       1.0034249169     1.0853521790     0.7956213885
    5      C       2.8992244259     2.3924432891     0.3796141152
    6      C       2.3551607070     1.1027397395     0.6750517970
    7      C       3.2376415208    -0.0482079977     0.7196378874
    8      C       3.9001733618    -0.4650261771    -0.4478243882
    9      C       3.7953581580    -0.5270955408     1.9460570139
   10      N       4.9600722172    -1.3149332642    -0.5620538054
   11      N       3.4202326767    -0.2484714287     3.1991346162
   12      C       4.8034633473    -1.5060305539     1.8818996491
   13      C       5.4500243903    -1.6738046405     0.6289097555
   14      S       4.2725364342    -1.2892070308     4.1114595098
   15      N       5.1596277293    -2.0534871640     3.0322992288
   16      C       6.7236728871    -2.3137104190     0.4815662749
   17      S       7.2044531450    -3.4526367213    -0.7936745734
   18      C       7.7784959672    -1.8167193099     1.2001684649
   19      C       8.9070139649    -3.2853267923    -0.2676422148
   20      S       7.8716536924    -0.4837542655     2.2886737834
   21      C       8.9653478753    -2.3498757483     0.7622463709
   22      C      10.0559702806    -4.0432572897    -0.7463631625
   23      C       9.6097923106    -0.8420662177     2.4284188678
   24      C      10.0308988235    -1.6727301398     1.4346071384
   25      N       9.8337058013    -5.2293510708    -1.2023083826
   26      S      11.6300198344    -3.2664599657    -0.9861107787
   27      C      11.0408694028    -5.7478911805    -1.7603587332
   28      C      12.0526747419    -4.7738116785    -1.8138103880
   29      C       0.1974421612     4.8635343374     0.5766410814
   30      H      -0.8289453455     2.2459720218     0.7467357891
   31      H       0.4744986954     0.1497569343     0.9454666100
   32      H       3.9388005807     2.5418931400     0.0893656694
   33      H       3.4483312806    -0.1990833861    -1.4027585040
   34      H      10.1378204642    -0.2602347057     3.1734258212
   35      H      11.0866800730    -1.7650248166     1.2098947761
   36      H      11.0644129080    -6.7433293047    -2.1845257336
   37      H      13.0854379183    -4.8829060382    -2.1164068884
   38      H       0.2595900841     5.5039828434    -0.3114069730
   39      C       0.5537340844     5.7988848258     1.7746546579
   40      H      -0.8889918704     4.7102594018     0.5693685899
   41      H       1.6061101085     5.6927517869     2.0662202286
   42      H       0.0626423726     5.4036838577     2.6729920808
   43      C       0.1932254121     7.2862906660     1.6024792713
   44      H       0.7408036734     7.6847343347     0.7393519976
   45      C       0.5914586666     8.1989392540     2.8362636242
   46      H      -0.8725268287     7.4071062439     1.3704410041
   47      H       0.4217773401     9.2400208728     2.5355206933
   48      H       1.6618356641     8.0541923814     3.0279545896
   49      C      -0.2709447880     8.0157471727     4.0996843550
   50      H      -1.2878014455     8.2867832392     3.7884625873
   51      C       0.3064807979     8.7316709062     5.2968021021
   52      H      -0.3190197986     6.9534904412     4.3670837374
   53      H       1.3230823523     8.3402864160     5.4241184815
   54      H      -0.2043608810     8.5030002218     6.2402571870
   55      H       0.4491457246     9.8200058840     5.3048454049
   56      C     -10.6023727078    -1.5812524040    -0.7505957672
   57      C     -10.1231070730    -1.3842385699    -2.0358194833
   58      N      -9.8678374332    -1.4068744976     0.3805321107
   59      C      -8.7681461050    -0.9703497580    -2.1974543390
   60      C      -8.5658401664    -1.0759604079     0.2186927381
   61      C      -7.9711720110    -0.7665385013    -1.0184822167
   62      C      -6.5458641423    -0.3061854110    -1.0343728293
   63      C      -6.1858901573     0.7316434952    -1.8906332404
   64      C      -5.4806423562    -0.8576849290    -0.2059286078
   65      N      -4.9256639326     1.0981478597    -2.1098965834
   66      N      -5.5949698150    -1.8091336904     0.7592825021
   67      C      -4.1890673859    -0.4880537935    -0.4339372035
   68      C      -3.8771142678     0.4828485893    -1.4683122879
   69      S      -4.1610231740    -2.0584869457     1.3259622926
   70      N      -3.3055343779    -1.0752919050     0.4106916050
   71      C      -2.5644377023     1.0043904343    -1.9474858873
   72      S      -2.2435960358     2.6388834072    -2.6592241443
   73      C      -1.3814869524     0.2884277171    -1.9066213426
   74      C      -0.5085750370     2.2498527054    -2.8910845481
   75      S      -1.0504830132    -1.2863490588    -1.3615722637
   76      C      -0.3044622154     0.9908222112    -2.4454735398
   77      C       0.4411399505     3.1991274560    -3.3078205441
   78      C       0.6156998564    -1.0633811313    -1.9576770768
   79      C       0.9413336692     0.2159036205    -2.4518603868
   80      N       1.5993029607     2.8415922138    -3.8418214733
   81      S       0.0290971811     4.8925344098    -3.3550608355
   82      C       2.2034794691     3.9433871228    -4.4117036764
   83      C       1.4587698358     5.0565673667    -4.2564255172
   84      C     -12.1178655965    -1.8448176835    -0.5923281210
   85      H     -10.6783401785    -1.2894124170    -2.9647076355
   86      H      -8.3246958908    -0.6618117148    -3.1392983725
   87      H      -8.0679467053    -0.7168158309     1.1173858304
   88      H      -6.8148214351     1.2747929804    -2.5954616483
   89      H       1.2866165263    -1.9103199475    -2.0198579708
   90      H       1.9151843098     0.4780680911    -2.8467346959
   91      H       3.1687280197     3.8434530167    -4.8915228194
   92      H       1.6679576387     6.0680983719    -4.5784744088
   93      H     -12.7241531402    -0.9307237125    -0.5848030704
   94      C     -12.5314205534    -2.6668702179     0.6739818443
   95      H     -12.5464163508    -2.3846300323    -1.4459796184
   96      H     -12.4517073995    -2.0632710849     1.5865024741
   97      H     -11.7946502269    -3.4740077258     0.7714165879
   98      C     -13.9166025944    -3.2814213287     0.6132311596
   99      H     -14.6770438129    -2.4936229989     0.5371197616
  100      C     -14.2721534441    -3.9275590929     1.9646617287
  101      H     -14.0063498803    -3.9761013940    -0.2315208936
  102      H     -13.9923177042    -3.2235891228     2.7575092802
  103      H     -13.5917893690    -4.7748385176     2.1122059655
  104      C     -15.7722150918    -4.3740682778     2.0516594352
  105      H     -16.4655989622    -3.5264825419     2.1102617267
  106      C     -16.0160090633    -5.3030086226     3.2877335977
  107      H     -15.9902568499    -4.9272734353     1.1292068102
  108      H     -17.0938223985    -5.3295954663     3.4931905375
  109      H     -15.6887003853    -4.6338412659     4.0922900457
  110      H     -15.5159426181    -6.2568448855     3.0820252268
 ----------------------------------------------------------------
 Molecular Point Group                 C1    NOp =  1
 Largest Abelian Subgroup              C1    NOp =  1
 Nuclear Repulsion Energy = 11283.4024056697 hartrees
 There are      270 alpha and      270 beta electrons
 Requested basis set is 6-31G(d,p)
 There are 406 shells and 1262 basis functions

 Total QAlloc Memory Limit  20000 MB
 Mega-Array Size      4888 MB
 MEM_STATIC part      5000 MB
 A cutoff of  1.0D-08 yielded  13822 shell pairs
 There are    145977 function pairs
 
 -------------------------------------------------------
 OpenMP Integral Computing Module                       
 Release: version 1.0, May 2013, Q-Chem Inc. Pittsburgh 
 -------------------------------------------------------
 Integral Job Info:
 Integral job number is                      11
 Integral operator is                         1
 short-range coefficients                     0
 long-range coefficients              100000000
 Omega coefficients                           0
 if combine SR and LR in K                    0
 Integral screening is                        0
 Integral computing path is                   2
 max size of driver memory is            800000
 size of driver memory is                593474
 size of scratch memory is             15166112
 max col of scratch BK array               1296
 max len of scratch array in speh3          155
 max len of scratch index in speh4           18
 max int batch size is                      520
 min int batch size is                       52
 fixed nKL is                                52
 max L of basis functions is                  2
 order of int derivative is                   0
 number of shells is                        406
 number of basis is                        1262
 number of cartesian basis is              1262
 number of contracted shell pairs         13822
 number of primitive shell pairs          44307
 maxK2 (contraction) of shell pair           36
 max number of K2 of shell pair               1
 max number of CS2 of shell pair           1486
 max number of PS2 of shell pair           8436
 mem total for path MDJ                  315320
 -------------------------------------------------------
 Smallest overlap matrix eigenvalue = 4.28E-04

 Scale SEOQF with 1.000000e-03/1.000000e-02/1.000000e-02

 Standard Electronic Orientation quadrupole field applied
 Nucleus-field energy     =     0.0000000256 hartrees
 Guess from superposition of atomic densities
 Warning:  Energy on first SCF cycle will be non-variational
 A restricted hybrid HF-DFT SCF calculation will be
 performed using Pulay DIIS extrapolation
 Exchange:     0.2000 Hartree-Fock + 0.0800 Slater + 0.7200 B88
 Correlation:  0.1900 VWN1RPA + 0.8100 LYP
 Using SG-1 standard quadrature grid
 SCF converges when DIIS error is below 1.0E-05
 using 16 threads for integral computing 
 -------------------------------------------------------
 OpenMP BLAS3 based DFT computing Module                
 Release: version 1.0, May 2013, Q-Chem Inc. Pittsburgh 
 -------------------------------------------------------
 ---------------------------------------
  Cycle       Energy         DIIS Error
 ---------------------------------------
    1   -5680.3519796021      2.16E-02
    2   -5662.4192231749      2.20E-03
    3   -5660.8329810351      3.46E-03
    4   -5663.2695262065      9.44E-04
    5   -5663.4404440207      3.69E-04
    6   -5663.4585147793      2.26E-04
    7   -5663.4686315040      7.92E-05
    8   -5663.4698292435      2.80E-05
    9   -5663.4699688193      1.18E-05
   10   -5663.4699959357      3.96E-06 Convergence criterion met
 ---------------------------------------
 SCF time:  CPU 1059.02 s  wall 94.57 s
 SCF   energy in the final basis set = -5663.4699959357
 Total energy in the final basis set = -5663.4699959357
 
 --------------------------------------------------------------
 
                    Orbital Energies (a.u.)
 --------------------------------------------------------------
 
 Alpha MOs
 -- Occupied --
-88.997 -88.987 -88.927 -88.927 -88.924 -88.924 -88.913 -88.910
-14.387 -14.384 -14.381 -14.379 -14.350 -14.345 -14.345 -14.341
-14.334 -14.320 -10.270 -10.267 -10.263 -10.262 -10.261 -10.255
-10.254 -10.252 -10.246 -10.238 -10.237 -10.236 -10.236 -10.235
-10.235 -10.234 -10.232 -10.231 -10.230 -10.229 -10.227 -10.226
-10.225 -10.222 -10.222 -10.221 -10.220 -10.219 -10.217 -10.217
-10.208 -10.207 -10.206 -10.204 -10.204 -10.203 -10.199 -10.189
-10.186 -10.179 -10.177 -10.177 -10.175 -10.175 -10.173 -10.173
-10.172 -10.172 -10.171 -10.169  -8.054  -8.044  -7.988  -7.987
 -7.985  -7.982  -7.974  -7.972  -6.018  -6.013  -6.012  -6.009
 -6.003  -6.002  -5.952  -5.950  -5.949  -5.949  -5.947  -5.946
 -5.946  -5.945  -5.944  -5.943  -5.941  -5.939  -5.938  -5.936
 -5.935  -5.933  -5.930  -5.927  -1.062  -1.054  -0.972  -0.965
 -0.962  -0.955  -0.941  -0.935  -0.920  -0.915  -0.914  -0.908
 -0.847  -0.843  -0.836  -0.833  -0.814  -0.813  -0.811  -0.803
 -0.801  -0.798  -0.796  -0.794  -0.783  -0.776  -0.764  -0.763
 -0.750  -0.746  -0.743  -0.739  -0.730  -0.720  -0.711  -0.709
 -0.693  -0.691  -0.677  -0.671  -0.652  -0.650  -0.646  -0.644
 -0.634  -0.634  -0.628  -0.626  -0.609  -0.609  -0.598  -0.596
 -0.593  -0.591  -0.584  -0.582  -0.574  -0.572  -0.569  -0.559
 -0.555  -0.547  -0.544  -0.541  -0.528  -0.526  -0.517  -0.516
 -0.509  -0.507  -0.505  -0.500  -0.488  -0.486  -0.482  -0.476
 -0.476  -0.474  -0.473  -0.469  -0.462  -0.458  -0.450  -0.448
 -0.447  -0.440  -0.438  -0.437  -0.433  -0.432  -0.431  -0.425
 -0.424  -0.422  -0.419  -0.418  -0.416  -0.415  -0.412  -0.411
 -0.410  -0.408  -0.403  -0.401  -0.400  -0.397  -0.396  -0.395
 -0.394  -0.393  -0.390  -0.389  -0.387  -0.385  -0.384  -0.378
 -0.377  -0.377  -0.371  -0.368  -0.363  -0.362  -0.360  -0.357
 -0.356  -0.355  -0.350  -0.347  -0.346  -0.343  -0.341  -0.338
 -0.334  -0.334  -0.331  -0.328  -0.327  -0.321  -0.320  -0.319
 -0.316  -0.311  -0.310  -0.309  -0.307  -0.303  -0.299  -0.299
 -0.298  -0.295  -0.292  -0.291  -0.287  -0.285  -0.285  -0.284
 -0.277  -0.274  -0.270  -0.259  -0.255  -0.252  -0.251  -0.247
 -0.247  -0.243  -0.238  -0.235  -0.197  -0.193
 -- Virtual --
 -0.111  -0.107  -0.073  -0.069  -0.040  -0.030  -0.028  -0.024
 -0.022  -0.021  -0.013  -0.012  -0.004  -0.002   0.001   0.001
  0.005   0.008   0.014   0.017   0.020   0.023   0.027   0.041
  0.043   0.049   0.063   0.064   0.072   0.073   0.090   0.095
  0.097   0.100   0.102   0.102   0.103   0.110   0.111   0.111
  0.113   0.117   0.117   0.119   0.121   0.123   0.123   0.126
  0.128   0.130   0.132   0.134   0.134   0.135   0.141   0.144
  0.145   0.149   0.153   0.156   0.158   0.160   0.164   0.166
  0.167   0.170   0.171   0.173   0.177   0.180   0.182   0.183
  0.187   0.189   0.191   0.196   0.198   0.199   0.200   0.201
  0.204   0.205   0.206   0.209   0.211   0.212   0.218   0.220
  0.223   0.227   0.228   0.230   0.234   0.236   0.239   0.240
  0.241   0.247   0.249   0.252   0.256   0.257   0.262   0.262
  0.265   0.267   0.270   0.272   0.276   0.277   0.280   0.282
  0.283   0.285   0.286   0.290   0.293   0.294   0.300   0.304
  0.307   0.308   0.315   0.317   0.318   0.318   0.323   0.324
  0.327   0.329   0.334   0.340   0.342   0.344   0.347   0.347
  0.349   0.351   0.357   0.360   0.365   0.368   0.372   0.375
  0.377   0.379   0.381   0.384   0.387   0.390   0.394   0.399
  0.402   0.408   0.414   0.417   0.427   0.429   0.431   0.435
  0.441   0.444   0.445   0.448   0.450   0.458   0.460   0.466
  0.471   0.474   0.478   0.482   0.484   0.491   0.492   0.494
  0.497   0.499   0.504   0.507   0.509   0.512   0.514   0.519
  0.519   0.521   0.524   0.526   0.528   0.530   0.531   0.537
  0.538   0.541   0.543   0.546   0.548   0.549   0.551   0.553
  0.556   0.557   0.558   0.561   0.563   0.564   0.564   0.567
  0.568   0.570   0.572   0.574   0.575   0.578   0.581   0.584
  0.584   0.587   0.589   0.589   0.590   0.592   0.595   0.597
  0.598   0.599   0.604   0.605   0.608   0.611   0.614   0.617
  0.619   0.621   0.624   0.625   0.628   0.631   0.632   0.633
  0.636   0.637   0.640   0.642   0.643   0.644   0.646   0.649
  0.651   0.655   0.658   0.660   0.667   0.670   0.672   0.673
  0.677   0.679   0.683   0.686   0.688   0.692   0.696   0.698
  0.699   0.703   0.706   0.708   0.713   0.717   0.722   0.727
  0.728   0.730   0.735   0.737   0.737   0.742   0.748   0.749
  0.753   0.754   0.755   0.758   0.761   0.763   0.766   0.774
  0.776   0.780   0.781   0.783   0.788   0.789   0.790   0.791
  0.795   0.796   0.798   0.801   0.805   0.807   0.808   0.814
  0.816   0.818   0.819   0.820   0.822   0.824   0.826   0.828
  0.831   0.831   0.834   0.835   0.836   0.837   0.838   0.839
  0.840   0.843   0.845   0.845   0.847   0.850   0.851   0.854
  0.855   0.859   0.859   0.861   0.865   0.866   0.870   0.871
  0.872   0.873   0.874   0.879   0.882   0.885   0.889   0.890
  0.894   0.897   0.900   0.900   0.901   0.904   0.905   0.908
  0.910   0.911   0.913   0.916   0.917   0.921   0.922   0.924
  0.925   0.927   0.930   0.932   0.934   0.938   0.940   0.942
  0.946   0.949   0.951   0.953   0.956   0.956   0.958   0.962
  0.962   0.965   0.968   0.969   0.972   0.974   0.978   0.979
  0.982   0.985   0.989   0.990   0.992   0.997   0.999   1.001
  1.005   1.006   1.009   1.011   1.014   1.018   1.021   1.025
  1.027   1.028   1.032   1.036   1.038   1.038   1.040   1.042
  1.047   1.053   1.054   1.059   1.062   1.067   1.069   1.071
  1.076   1.078   1.081   1.089   1.095   1.097   1.103   1.105
  1.108   1.114   1.115   1.124   1.126   1.134   1.135   1.141
  1.143   1.155   1.156   1.161   1.162   1.166   1.174   1.175
  1.180   1.181   1.183   1.196   1.198   1.204   1.214   1.218
  1.234   1.240   1.242   1.252   1.258   1.260   1.267   1.268
  1.275   1.277   1.280   1.289   1.298   1.302   1.304   1.306
  1.310   1.310   1.318   1.320   1.324   1.327   1.330   1.334
  1.337   1.339   1.344   1.353   1.356   1.358   1.364   1.369
  1.371   1.372   1.380   1.386   1.391   1.393   1.397   1.402
  1.406   1.417   1.419   1.424   1.425   1.427   1.431   1.433
  1.441   1.443   1.453   1.456   1.458   1.462   1.465   1.479
  1.480   1.484   1.487   1.496   1.497   1.503   1.514   1.522
  1.529   1.533   1.541   1.544   1.549   1.554   1.559   1.562
  1.567   1.571   1.581   1.583   1.587   1.591   1.609   1.611
  1.615   1.622   1.627   1.631   1.635   1.642   1.646   1.650
  1.659   1.663   1.666   1.672   1.674   1.678   1.682   1.685
  1.692   1.695   1.698   1.702   1.703   1.706   1.708   1.711
  1.717   1.721   1.726   1.730   1.733   1.746   1.748   1.751
  1.753   1.755   1.760   1.768   1.772   1.773   1.775   1.776
  1.785   1.794   1.797   1.801   1.803   1.807   1.810   1.814
  1.817   1.821   1.829   1.833   1.834   1.835   1.840   1.847
  1.850   1.857   1.859   1.861   1.869   1.872   1.873   1.874
  1.874   1.879   1.882   1.884   1.890   1.896   1.898   1.902
  1.902   1.903   1.905   1.912   1.917   1.919   1.926   1.928
  1.933   1.937   1.940   1.942   1.945   1.951   1.953   1.956
  1.957   1.961   1.969   1.971   1.977   1.988   1.990   1.998
  1.998   2.004   2.006   2.008   2.010   2.015   2.019   2.028
  2.030   2.035   2.049   2.056   2.063   2.066   2.069   2.071
  2.081   2.081   2.084   2.086   2.088   2.093   2.095   2.104
  2.106   2.112   2.116   2.118   2.123   2.125   2.130   2.134
  2.138   2.140   2.144   2.149   2.155   2.157   2.160   2.160
  2.162   2.165   2.168   2.170   2.185   2.188   2.193   2.197
  2.200   2.202   2.208   2.211   2.214   2.217   2.219   2.227
  2.229   2.235   2.238   2.241   2.245   2.248   2.251   2.256
  2.259   2.264   2.269   2.273   2.278   2.279   2.284   2.286
  2.291   2.293   2.296   2.298   2.302   2.306   2.307   2.310
  2.314   2.316   2.319   2.328   2.328   2.331   2.341   2.342
  2.347   2.350   2.354   2.357   2.361   2.363   2.366   2.373
  2.378   2.381   2.382   2.386   2.387   2.393   2.397   2.400
  2.400   2.401   2.406   2.411   2.413   2.413   2.423   2.426
  2.428   2.430   2.433   2.435   2.438   2.443   2.448   2.449
  2.453   2.459   2.463   2.465   2.470   2.473   2.474   2.480
  2.482   2.484   2.487   2.492   2.495   2.498   2.502   2.504
  2.512   2.514   2.517   2.524   2.525   2.527   2.535   2.537
  2.541   2.544   2.547   2.551   2.553   2.555   2.562   2.564
  2.566   2.569   2.579   2.584   2.588   2.589   2.598   2.602
  2.605   2.608   2.615   2.619   2.623   2.628   2.632   2.642
  2.644   2.647   2.652   2.662   2.664   2.667   2.675   2.676
  2.679   2.680   2.683   2.688   2.691   2.692   2.696   2.702
  2.719   2.720   2.723   2.731   2.732   2.738   2.743   2.745
  2.748   2.752   2.754   2.765   2.772   2.784   2.791   2.798
  2.804   2.805   2.813   2.815   2.819   2.819   2.825   2.828
  2.830   2.840   2.848   2.852   2.859   2.863   2.867   2.868
  2.873   2.876   2.878   2.884   2.885   2.895   2.904   2.913
  2.913   2.916   2.919   2.926   2.930   2.933   2.944   2.945
  2.949   2.952   2.957   2.961   2.973   2.999   3.009   3.024
  3.033   3.043   3.049   3.063   3.072   3.075   3.103   3.118
  3.145   3.170   3.173   3.185   3.197   3.217   3.217   3.234
  3.236   3.244   3.246   3.252   3.259   3.282   3.284   3.288
  3.289   3.306   3.309   3.316   3.321   3.322   3.335   3.335
  3.346   3.351   3.367   3.371   3.376   3.406   3.422   3.428
  3.443   3.445   3.459   3.486   3.493   3.516   3.534   3.546
  3.548   3.554   3.566   3.578   3.586   3.590   3.598   3.608
  3.630   3.632   3.688   3.767   3.869   3.888   3.907   3.921
  3.934   3.937   3.945   3.956   3.965   3.969   3.989   3.996
  4.014   4.047   4.067   4.080   4.090   4.100   4.112   4.130
  4.137   4.143   4.152   4.156   4.164   4.176   4.194   4.202
  4.210   4.220   4.229   4.239   4.256   4.262   4.272   4.279
  4.287   4.302   4.317   4.343   4.376   4.381   4.382   4.408
  4.418   4.425   4.437   4.454   4.463   4.484   4.489   4.496
  4.522   4.526   4.530   4.563   4.572   4.591   4.635   4.686
  4.688   4.703   4.721   4.729   4.743   4.763   4.787   4.803
 --------------------------------------------------------------
 
          Ground-State Mulliken Net Atomic Charges

     Atom                 Charge (a.u.)
  ----------------------------------------
      1 C                     0.273858
      2 C                    -0.120851
      3 N                    -0.467081
      4 C                    -0.072405
      5 C                     0.067905
      6 C                     0.055811
      7 C                    -0.018100
      8 C                     0.059415
      9 C                     0.253826
     10 N                    -0.475498
     11 N                    -0.541372
     12 C                     0.201221
     13 C                     0.213232
     14 S                     0.604676
     15 N                    -0.505467
     16 C                    -0.201170
     17 S                     0.347843
     18 C                    -0.107163
     19 C                    -0.219359
     20 S                     0.243347
     21 C                     0.153660
     22 C                     0.072339
     23 C                    -0.290423
     24 C                    -0.087190
     25 N                    -0.422369
     26 S                     0.263132
     27 C                     0.105251
     28 C                    -0.305390
     29 C                    -0.229253
     30 H                     0.097013
     31 H                     0.110568
     32 H                     0.099484
     33 H                     0.099122
     34 H                     0.134737
     35 H                     0.110675
     36 H                     0.122500
     37 H                     0.131241
     38 H                     0.113919
     39 C                    -0.168461
     40 H                     0.087606
     41 H                     0.109831
     42 H                     0.090424
     43 C                    -0.191050
     44 H                     0.092852
     45 C                    -0.177022
     46 H                     0.086882
     47 H                     0.089707
     48 H                     0.090481
     49 C                    -0.166117
     50 H                     0.090550
     51 C                    -0.319393
     52 H                     0.097556
     53 H                     0.102929
     54 H                     0.097456
     55 H                     0.100623
     56 C                     0.270525
     57 C                    -0.111722
     58 N                    -0.476863
     59 C                    -0.081917
     60 C                     0.089423
     61 C                     0.037030
     62 C                     0.013835
     63 C                     0.050498
     64 C                     0.229627
     65 N                    -0.493983
     66 N                    -0.528230
     67 C                     0.192939
     68 C                     0.258530
     69 S                     0.625640
     70 N                    -0.557332
     71 C                    -0.220243
     72 S                     0.290912
     73 C                    -0.084839
     74 C                    -0.214740
     75 S                     0.278878
     76 C                     0.135259
     77 C                     0.066164
     78 C                    -0.319905
     79 C                    -0.047711
     80 N                    -0.447831
     81 S                     0.278176
     82 C                     0.135231
     83 C                    -0.305214
     84 C                    -0.241169
     85 H                     0.100668
     86 H                     0.100502
     87 H                     0.106922
     88 H                     0.116857
     89 H                     0.127951
     90 H                     0.142585
     91 H                     0.119087
     92 H                     0.127401
     93 H                     0.116212
     94 C                    -0.168578
     95 H                     0.099404
     96 H                     0.106820
     97 H                     0.097991
     98 C                    -0.178908
     99 H                     0.087599
    100 C                    -0.171052
    101 H                     0.087932
    102 H                     0.090288
    103 H                     0.088973
    104 C                    -0.191158
    105 H                     0.091353
    106 C                    -0.313173
    107 H                     0.090657
    108 H                     0.097964
    109 H                     0.106975
    110 H                     0.111218
  ----------------------------------------
  Sum of atomic charges =     0.000000

 -----------------------------------------------------------------
                    Cartesian Multipole Moments
 -----------------------------------------------------------------
    Charge (ESU x 10^10)
                 0.0000
    Dipole Moment (Debye)
         X       1.8450      Y       0.4472      Z      -0.7982
       Tot       2.0594
    Quadrupole Moments (Debye-Ang)
        XX    -383.1661     XY      -5.0779     YY    -440.8017
        XZ      12.0781     YZ      -2.5362     ZZ    -436.8496
    Octopole Moments (Debye-Ang^2)
       XXX     735.3068    XXY    -107.9024    XYY      67.0460
       YYY      62.0034    XXZ    -221.9397    XYZ       9.1725
       YYZ    -114.2550    XZZ      54.5944    YZZ      31.2671
       ZZZ      26.2976
    Hexadecapole Moments (Debye-Ang^3)
      XXXX -118161.0172   XXXY   -3509.5618   XXYY  -26863.2974
      XYYY    -415.9474   YYYY  -29822.2797   XXXZ    1023.2326
      XXYZ    1437.0516   XYYZ    -524.8599   YYYZ    -209.7206
      XXZZ  -23651.7619   XYZZ      21.1564   YYZZ   -6988.3833
      XZZZ     216.6072   YZZZ    -220.2469   ZZZZ  -12899.3073
 -----------------------------------------------------------------
Archival summary:
1\1\mn426\SP\ProcedureUnspecified\6-31G**\8105042\afmv_a\SunOct704:22:012018SunOct704:22:012018\0\\#,ProcedureUnspecified,6-31G**,\\0,1\S\C,1,1.69899\C,2,1.38335,1,130.98\C,2,1.39417,1,116.133,3,177.89,0\C,4,1.35107,2,118.702,1,179.791,0\C,5,1.40597,4,128.674,2,-171.047,0\N,6,1.32451,5,121.864,4,-28.8884,0\C,7,1.37976,6,109.503,5,-167.342,0\H,8,1.08255,7,119.986,6,-179.47,0\C,8,1.34829,7,111.707,6,-0.46103,0\H,10,1.08198,8,129.11,7,-179.13,0\C,4,1.46716,2,113.051,1,-0.503494,0\H,12,1.08307,4,129.586,2,-176.72,0\C,12,1.40955,4,106.36,2,-3.20998,0\H,14,1.08227,12,123.153,4,-168.058,0\C,3,1.49155,2,124.203,1,-0.578279,0\N,16,1.37466,3,111.398,2,154.089,0\C,17,1.33063,16,121.481,3,-176.144,0\H,18,1.08966,17,107.624,16,173.253,0\C,18,1.39279,17,123.458,16,1.53753,0\C,16,1.45255,3,130.655,2,-28.8541,0\N,21,1.35605,16,126.375,3,-5.23952,0\C,21,1.36264,16,120.267,3,177.118,0\N,23,1.36013,21,112.841,16,-177.701,0\C,20,1.49789,18,118.781,17,170.965,0\C,25,1.40712,20,118.623,18,139.266,0\H,26,1.08836,25,117.394,20,-16.2108,0\N,26,1.3531,25,124.443,20,-174.948,0\C,28,1.35993,26,116.847,25,-7.03312,0\C,29,1.38575,28,124.498,26,3.05872,0\H,30,1.08633,29,128.953,28,165.329,0\C,30,1.42596,29,118.361,28,-0.0116729,0\H,32,1.08578,30,124.673,29,171.592,0\C,29,1.54636,28,117.78,26,175.069,0\H,34,1.09691,29,113.6,28,-89.9566,0\H,34,1.09717,29,112.77,28,155.245,0\S,24,1.56189,23,106.976,21,-3.76533,0\C,34,1.56536,29,115.545,28,33.7403,0\H,38,1.09699,34,111.394,29,-73.6022,0\H,38,1.09718,34,106.306,29,41.8837,0\C,38,1.51661,34,114.942,29,162.039,0\H,41,1.09738,38,111.226,34,-60.0984,0\H,41,1.09758,38,110.165,34,62.3226,0\C,41,1.53957,38,110.233,34,173.718,0\H,44,1.09658,41,107.837,38,-45.3152,0\H,44,1.09661,41,107.403,38,66.1238,0\C,44,1.56752,41,112.909,38,-170.574,0\H,47,1.09664,44,112.822,41,70.5695,0\H,47,1.0975,44,106.682,41,-47.8518,0\C,47,1.56533,44,111.218,41,-167.19,0\H,50,1.09644,47,107.282,44,69.8534,0\H,50,1.09646,47,99.832,44,-58.4516,0\H,50,1.09754,47,108.37,44,-162.336,0\S,10,1.69804,8,116.514,7,-3.0564,0\S,5,1.79315,4,107.801,2,1.15578,0\H,13,2.21227,12,108.124,4,-138.559,0\C,56,1.0894,13,159.117,12,28.9727,0\N,57,1.36337,56,113.652,13,-156.776,0\C,58,1.33688,57,112.186,56,176.907,0\C,57,1.40558,56,117.399,13,15.3119,0\C,59,1.41992,58,125.982,57,-15.0934,0\N,61,1.32287,59,126.576,58,-167.473,0\C,61,1.40666,59,116.667,58,21.5631,0\N,63,1.33737,61,112.876,59,167.781,0\C,59,1.43296,58,110.733,57,167.147,0\C,65,1.36969,59,117.938,58,-126.061,0\C,66,1.37283,65,110.948,59,168.037,0\C,67,1.39253,66,117.425,65,1.39679,0\C,67,1.43038,66,108.073,65,-172.978,0\H,69,1.08337,67,126.025,66,170.962,0\C,69,1.36198,67,113.665,66,-8.36789,0\H,71,1.08276,69,132.767,67,-173.872,0\C,60,1.45101,57,119.76,56,24.517,0\C,73,1.35721,60,126.359,57,-110.53,0\H,74,1.08515,73,120.582,60,-0.251428,0\C,74,1.40671,73,120.921,60,-179.932,0\H,76,1.08645,74,120.422,73,-174.652,0\C,76,1.38396,74,119.665,73,-2.16058,0\N,78,1.30454,76,121.977,74,1.92596,0\C,79,1.35582,78,117.653,76,-4.76474,0\H,80,1.08963,79,112.046,78,-169.65,0\C,68,1.4573,67,124.008,66,173.299,0\N,82,1.29,68,117.288,67,-148.754,0\C,83,1.42743,82,109.055,68,-173.392,0\H,84,1.0823,83,120.38,82,-179.113,0\C,84,1.4055,83,111.833,82,7.82467,0\H,86,1.0817,84,128.907,83,-175.243,0\C,78,1.55565,76,123.678,74,173.115,0\H,88,1.09666,78,117.276,76,123.991,0\H,88,1.09722,78,108.926,76,14.4672,0\C,88,1.56111,78,117.637,76,-109.255,0\H,91,1.09716,88,111.401,78,-34.6487,0\H,91,1.09744,88,108.077,78,74.4827,0\C,91,1.54013,88,116.068,78,-162.051,0\H,94,1.09708,91,108.776,88,60.8948,0\H,94,1.09739,91,110.934,88,-55.5204,0\C,94,1.58548,91,114.213,88,179.228,0\H,97,1.09685,94,107.106,91,-171.856,0\H,97,1.097,94,107.765,91,-54.8124,0\C,97,1.54063,94,115.411,91,72.2255,0\H,100,1.09645,97,109.861,94,-51.8563,0\H,100,1.09741,97,104.877,94,61.1345,0\C,100,1.50965,97,112.321,94,-170.11,0\H,103,1.09675,100,106.102,97,56.8068,0\H,103,1.09698,100,113.893,97,171.7,0\H,103,1.09768,100,121.717,97,-60.7666,0\S,62,1.59237,61,103.93,59,-168.938,0\S,66,1.72346,65,130.815,59,0.99909,0\S,86,1.77083,84,113.599,83,-7.83976,0\S,65,1.7761,59,126.926,58,39.0055,0\\\@

 Total job time:  98.28s(wall), 1070.08s(cpu) 
 Sun Oct  7 04:22:01 2018

        *************************************************************
        *                                                           *
        *  Thank you very much for using Q-Chem.  Have a nice day.  *
        *                                                           *
        *************************************************************


