
Running Job 1 of 1 ./6/41.qcin
qchem ./6/41.qcin_21647.0 /tmpu/cab_g/afmv_a/scratch_qchem/qchem21647/ 1
/tmpu/appuserlic/qchem4.4/serial-multicore/exe/qcprog.exe_s ./6/41.qcin_21647.0 /tmpu/cab_g/afmv_a/scratch_qchem/qchem21647/
Check license passed

                  Welcome to Q-Chem
     A Quantum Leap Into The Future Of Chemistry


 Q-Chem 4.4, Q-Chem, Inc., Pleasanton, CA (2016)

 Y. Shao,  Z. Gan,  E. Epifanovsky,  A. T. B. Gilbert,  M. Wormit,  
 J. Kussmann,  A. W. Lange,  A. Behn,  J. Deng,  X. Feng,  D. Ghosh,  
 M. Goldey,  P. R. Horn,  L. D. Jacobson,  I. Kaliman,  F. Rob,  
 R. Z. Khaliullin,  T. Kus,  A. Landau,  J. Liu,  E. I. Proynov,  Y. M. Rhee,  
 R. M. Richard,  M. A. Rohrdanz,  R. P. Steele,  E. J. Sundstrom,  
 H. L. Woodcock III,  P. M. Zimmerman,  D. Zuev,  B. Albrecht,  E. Alguire,  
 B. Austin,  S. A. Baeppler,  G. J. O. Beran,  Y. A. Bernard,  E. Berquist,  
 K. Brandhorst,  K. B. Bravaya,  S. T. Brown,  D. Casanova,  C.-M. Chang,  
 Y. Chen,  S. H. Chien,  K. D. Closser,  M. P. Coons,  D. L. Crittenden,  
 S. Dasgupta,  M. Diedenhofen,  R. A. DiStasio Jr.,  H. Do,  A. D. Dutoi,  
 R. G. Edgar,  P.-T. Fang,  S. Fatehi,  Q. Feng,  L. Fusti-Molnar,  
 A. Ghysels,  A. Golubeva-Zadorozhnaya,  J. Gomes,  A. Gunina,  
 M. W. D. Hanson-Heine,  P. H. P. Harbach,  A. W. Hauser,  J. E. Herr,  
 E. G. Hohenstein,  Z. C. Holden,  K. Hui,  T.-C. Jagau,  H. Ji,  B. Kaduk,  
 K. Khistyaev,  Jaehoon Kim,  Jihan Kim,  R. A. King,  P. Klunzinger,  
 K. Koh,  D. Kosenkov,  T. Kowalczyk,  C. M. Krauter,  A. Kunitsa,  
 K. U. Lao,  A. Laurent,  K. V. Lawler,  J. Lee,  D. Lefrancois,  S. Lehtola,  
 S. V. Levchenko,  C. Y. Lin,  Y.-S. Lin,  F. Liu,  E. Livshits,  
 R. C. Lochan,  A. Luenser,  P. Manohar,  S. F. Manzer,  S.-P. Mao,  Y. Mao,  
 N. Mardirossian,  A. V. Marenich,  L. A. Martinez-Martinez,  S. A. Maurer,  
 N. J. Mayhall,  J.-M. Mewes,  A. F. Morrison,  K. Nanda,  T. S. Nguyen-Beck,  
 C. M. Oana,  R. Olivares-Amaya,  D. P. O'Neill,  J. A. Parkhill,  
 T. M. Perrine,  R. Peverati,  P. A. Pieniazek,  F. Plasser,  A. Prociuk,  
 D. R. Rehn,  E. Rosta,  N. J. Russ,  N. Sergueev,  S. M. Sharada,  
 S. Sharma,  D. W. Small,  A. Sodt,  T. Stauch,  T. Stein,  D. Stuck,  
 Y.-C. Su,  A. J. W. Thom,  T. Tsuchimochi,  L. Vogt,  O. Vydrov,  T. Wang,  
 M. A. Watson,  J. Wenzel,  A. White,  C. F. Williams,  V. Vanovschi,  
 K. Yao,  S. Yeganeh,  S. R. Yost,  Z.-Q. You,  I. Y. Zhang,  X. Zhang,  
 Y. Zhao,  B. R. Brooks,  G. K. L. Chan,  D. M. Chipman,  C. J. Cramer,  
 W. A. Goddard III,  M. S. Gordon,  W. J. Hehre,  A. Klamt,  
 H. F. Schaefer III,  M. W. Schmidt,  C. D. Sherrill,  D. G. Truhlar,  
 A. Warshel,  X. Xu,  A. Aspuru-Guzik,  R. Baer,  A. T. Bell,  N. A. Besley,  
 J.-D. Chai,  A. Dreuw,  B. D. Dunietz,  T. R. Furlani,  S. R. Gwaltney,  
 C.-P. Hsu,  Y. Jung,  J. Kong,  D. S. Lambrecht,  W. Liang,  C. Ochsenfeld,  
 V. A. Rassolov,  L. V. Slipchenko,  J. E. Subotnik,  T. Van Voorhis,  
 J. M. Herbert,  A. I. Krylov,  P. M. W. Gill,  M. Head-Gordon

 Contributors to earlier versions of Q-Chem not listed above: 
 R. D. Adamson,  J. Baker,  E. F. C. Byrd,  A. K. Chakraborty,  C.-L. Cheng,  
 H. Dachsel,  R. J. Doerksen,  G. Hawkins,  A. Heyden,  S. Hirata,  
 G. Kedziora,  F. J. Keil,  C. Kelley,  P. P. Korambath,  W. Kurlancheek,  
 A. M. Lee,  M. S. Lee,  D. Liotard,  I. Lotan,  P. E. Maslen,  N. Nair,  
 D. Neuhauser,  R. Olson,  B. Peters,  J. Ritchie,  N. E. Schultz,  
 N. Shenvi,  A. C. Simmonett,  K. S. Thanthiriwatte,  Q. Wu,  W. Zhang

 Please cite Q-Chem as follows:
 Y. Shao et al., Mol. Phys. 113, 184-215 (2015)
 DOI: 10.1080/00268976.2014.952696

 Q-Chem 4.4.2 for Intel X86 Linux

 Parts of Q-Chem use Armadillo 5.200.1 (Boston Tea Smuggler).
 http://arma.sourceforge.net/

 Q-Chem begins on Sun Oct  7 04:26:56 2018  

Host: 
0

     Scratch files written to /tmpu/cab_g/afmv_a/scratch_qchem/qchem21647//
 Dec716 11556_ 22328  22283 4050   
Processing $rem in /tmpu/appuserlic/qchem4.4/serial-multicore/config/preferences.
 MEM_TOTAL  2000 
FILE_GEOM_ORG=        593

Checking the input file for inconsistencies... 	...done.

--------------------------------------------------------------
User input:
--------------------------------------------------------------
$comment
SP
$end

$rem
MEM_STATIC 5000
MEM_TOTAL 20000
JOBTYPE SP
EXCHANGE B3LYP
BASIS 6-31g(d,p)
$end

$molecule
0 1
C           0.249000     14.535000     -4.178000
C           0.763000     14.896000     -5.439000
N           0.802000     14.992000     -3.035000
C           1.815000     15.752000     -5.544000
C           1.723000     15.898000     -3.104000
C           2.265000     16.360000     -4.382000
C           3.267000     17.475000     -4.489000
C           2.966000     18.596000     -5.342000
C           4.332000     17.647000     -3.537000
N           3.708000     19.764000     -5.299000
N           4.746000     16.708000     -2.666000
C           5.053000     18.871000     -3.537000
C           4.586000     19.991000     -4.356000
S           6.001000     17.349000     -1.863000
N           6.040000     18.806000     -2.631000
C           5.121000     21.360000     -4.407000
S           5.079000     22.438000     -5.852000
C           5.715000     22.054000     -3.376000
C           5.629000     23.810000     -4.913000
S           5.689000     21.689000     -1.665000
C           5.965000     23.440000     -3.635000
C           5.853000     25.085000     -5.546000
C           6.242000     23.337000     -1.353000
C           6.306000     24.160000     -2.467000
N           6.804000     25.863000     -5.135000
S           5.366000     25.210000     -7.225000
C           7.088000     26.835000     -6.036000
C           6.471000     26.584000     -7.243000
C          -0.740000     13.470000     -4.235000
H           0.396000     14.321000     -6.284000
H           2.151000     16.026000     -6.540000
H           1.994000     16.366000     -2.159000
H           2.246000     18.509000     -6.155000
H           6.511000     23.556000     -0.329000
H           6.641000     25.191000     -2.492000
H           7.696000     27.686000     -5.760000
H           6.450000     27.121000     -8.182000
H          -0.824000     12.922000     -5.181000
C          -2.136000     13.974000     -3.971000
H          -0.404000     12.689000     -3.542000
H          -2.455000     14.735000     -4.694000
H          -2.208000     14.401000     -2.963000
C          -3.106000     12.747000     -4.169000
H          -3.087000     12.308000     -5.174000
C          -4.536000     13.188000     -3.854000
H          -2.811000     11.957000     -3.468000
H          -4.800000     14.055000     -4.473000
H          -4.605000     13.538000     -2.816000
C          -5.629000     12.083000     -4.026000
H          -5.597000     11.696000     -5.052000
C          -6.971000     12.712000     -3.724000
H          -5.522000     11.227000     -3.348000
H          -7.814000     12.049000     -3.955000
H          -7.124000     13.686000     -4.204000
H          -7.093000     13.008000     -2.675000
C          -7.338000     26.442000    -12.963000
C          -6.325000     25.486000    -12.619000
N          -7.139000     27.732000    -12.799000
C          -5.146000     25.936000    -12.046000
C          -6.017000     28.196000    -12.263000
C          -4.939000     27.303000    -11.863000
C          -3.675000     27.778000    -11.211000
C          -2.472000     26.986000    -11.344000
C          -3.559000     29.019000    -10.492000
N          -1.309000     27.413000    -10.765000
N          -4.611000     29.761000    -10.169000
C          -2.381000     29.371000     -9.893000
C          -1.192000     28.556000    -10.053000
S          -3.983000     30.972000     -9.208000
N          -2.428000     30.458000     -9.170000
C           0.013000     28.853000     -9.321000
S           0.335000     29.845000     -7.875000
C           1.268000     28.302000     -9.653000
C           1.985000     29.234000     -7.653000
S           1.648000     27.284000    -10.999000
C           2.346000     28.525000     -8.778000
C           2.889000     29.538000     -6.596000
C           3.306000     27.099000    -10.394000
C           3.543000     27.844000     -9.222000
N           2.361000     30.022000     -5.490000
S           4.670000     29.359000     -6.589000
C           3.348000     30.261000     -4.557000
C           4.652000     29.980000     -4.960000
C          -8.578000     26.099000    -13.711000
H          -6.517000     24.447000    -12.872000
H          -4.323000     25.273000    -11.794000
H          -5.992000     29.248000    -11.984000
H          -2.417000     26.083000    -11.950000
H           3.896000     26.306000    -10.834000
H           4.507000     27.874000     -8.728000
H           2.979000     30.740000     -3.660000
H           5.574000     29.953000     -4.394000
H          -8.621000     25.009000    -13.592000
C          -8.588000     26.453000    -15.203000
H          -9.410000     26.595000    -13.196000
H          -7.739000     25.879000    -15.592000
H          -8.351000     27.518000    -15.318000
C          -9.949000     26.007000    -15.783000
H         -10.779000     26.304000    -15.129000
C          -9.985000     24.501000    -16.123000
H         -10.148000     26.473000    -16.756000
H          -9.914000     24.021000    -15.139000
H          -9.102000     24.256000    -16.726000
C         -11.239000     24.053000    -16.937000
H         -12.042000     24.317000    -16.238000
C         -11.230000     22.541000    -17.345000
H         -11.373000     24.644000    -17.852000
H         -10.500000     22.378000    -18.148000
H         -12.150000     22.410000    -17.929000
H         -10.994000     21.869000    -16.511000
$end

--------------------------------------------------------------
 ----------------------------------------------------------------
             Standard Nuclear Orientation (Angstroms)
    I     Atom           X                Y                Z
 ----------------------------------------------------------------
    1      C      -7.0753595241     6.4783148236    -0.2024285313
    2      C      -6.4267582339     6.0143890942    -1.3637757162
    3      N      -7.7879219619     5.6466918521     0.5860922392
    4      C      -6.4676054546     4.6986330316    -1.7066787466
    5      C      -7.7458904305     4.3746923418     0.3535226877
    6      C      -7.0446344695     3.8186481542    -0.8038652933
    7      C      -6.9051526594     2.3413251607    -1.0420660435
    8      C      -5.5865528425     1.7920504395    -1.2276537684
    9      C      -7.9645663372     1.4115612328    -0.7534578354
   10      N      -5.3550492090     0.4274388795    -1.1980166633
   11      N      -9.2521552421     1.7486356703    -0.5528247485
   12      C      -7.6635667928     0.0234382328    -0.7304184994
   13      C      -6.2706428759    -0.4207871162    -0.8057630496
   14      S     -10.0606089740     0.3599227030    -0.3323846028
   15      N      -8.7896931489    -0.6725013013    -0.5142297045
   16      C      -5.7496708133    -1.7908395877    -0.6852170614
   17      S      -4.2602617675    -2.4099894299    -1.4915589041
   18      C      -6.2827578841    -2.8144254597     0.0667956629
   19      C      -4.3204833527    -3.9033578810    -0.5789642349
   20      S      -7.4729674148    -2.7159368394     1.3455150476
   21      C      -5.4687461255    -3.9882221431     0.1676083749
   22      C      -3.3392294629    -4.9348787861    -0.8016645403
   23      C      -7.0105661856    -4.3478881308     1.8374267122
   24      C      -5.9219658109    -4.8819331634     1.1649937212
   25      N      -3.6672510526    -6.1843257865    -0.7022159119
   26      S      -2.0147504149    -4.5227307899    -1.8729834848
   27      C      -2.7409713345    -6.9974215614    -1.2662390893
   28      C      -1.8349581301    -6.2715047112    -2.0096930556
   29      C      -7.0980153029     7.9280862727    -0.0873439489
   30      H      -6.0617687574     6.7799127628    -2.0420788896
   31      H      -5.9218907196     4.3861398849    -2.5924165527
   32      H      -8.1764155977     3.7407494827     1.1269918414
   33      H      -4.7550149775     2.4176928461    -1.5502283461
   34      H      -7.6306339605    -4.8025552106     2.5974871052
   35      H      -5.4986845801    -5.8710005674     1.3006022380
   36      H      -2.7526665762    -8.0630655062    -1.0810170487
   37      H      -0.9658059971    -6.5552400979    -2.5881390772
   38      H      -6.8200512002     8.5003758516    -0.9803705977
   39      C      -6.1621763550     8.4294569353     0.9828714137
   40      H      -8.1459532569     8.2174090901     0.0583418495
   41      H      -5.1181583290     8.1474424031     0.7981955764
   42      H      -6.4575685631     8.0426058950     1.9660635191
   43      C      -6.2080951187    10.0042719340     0.9238613545
   44      H      -5.8912101796    10.4343113629    -0.0341350051
   45      C      -5.3191115610    10.5693309031     2.0324742696
   46      H      -7.2425370222    10.3261537997     1.0937083821
   47      H      -4.3051252093    10.1602571522     1.9374145775
   48      H      -5.6784119630    10.2349355228     3.0142012941
   49      C      -5.2390265728    12.1297858504     2.0943188480
   50      H      -4.8871192776    12.5146969915     1.1291900125
   51      C      -4.2833040709    12.4979103242     3.2073722480
   52      H      -6.1913436132    12.6262314857     2.3190475414
   53      H      -4.0543870182    13.5704798779     3.2351307717
   54      H      -3.3509984487    11.9206176530     3.2024327717
   55      H      -4.6501854139    12.2373215586     4.2075685165
   56      C       9.2732725709     3.4723416490     0.2467895617
   57      C       7.9400801201     3.4912697994    -0.2830034301
   58      N       9.8150929746     2.3562498954     0.6842445281
   59      C       7.1972874738     2.3212443916    -0.2699792268
   60      C       9.1344056061     1.2170040820     0.7003592091
   61      C       7.7683159690     1.1400237930     0.2029598337
   62      C       6.9457750150    -0.1130064363     0.2449910536
   63      C       5.8764207105    -0.2872762718    -0.7132747737
   64      C       7.1844021474    -1.2006595879     1.1563448343
   65      N       5.1258885951    -1.4302952471    -0.6946155703
   66      N       8.0283533749    -1.1085796322     2.1765725576
   67      C       6.3700862833    -2.2994155411     1.1600903437
   68      C       5.3109986184    -2.4442717847     0.1798373219
   69      S       7.8172452608    -2.5344078553     3.0173300983
   70      N       6.6097301303    -3.1657867180     2.1079715654
   71      C       4.3721310551    -3.5342924147     0.2600914475
   72      S       3.9266773589    -4.6509944136     1.5766064114
   73      C       3.5287846712    -3.9009110359    -0.8091174485
   74      C       2.5018236810    -5.2921443517     0.7376643673
   75      S       3.5009028774    -3.2331754727    -2.4046712154
   76      C       2.5363022485    -4.8687573733    -0.5731299319
   77      C       1.5500587647    -6.2279029756     1.2330231686
   78      C       2.0970878565    -4.2422708052    -2.8049760955
   79      C       1.7153780458    -5.0874533826    -1.7444375383
   80      N       1.4909195910    -6.3715372997     2.5415138025
   81      S       0.4265683391    -7.2543882009     0.2906069411
   82      C       0.5259703829    -7.2986393722     2.8748811269
   83      C      -0.1470523048    -7.8918045409     1.8085877600
   84      C      10.2146167262     4.6214768713     0.1567205765
   85      H       7.5919172865     4.4244524634    -0.7169927812
   86      H       6.1962298714     2.2543956369    -0.6868927919
   87      H       9.5702481820     0.3799156150     1.2430323588
   88      H       5.6713701994     0.4226542246    -1.5130391004
   89      H       1.5547253262    -3.9820107814    -3.7042294556
   90      H       0.8966647082    -5.7933854301    -1.8192734601
   91      H       0.4945404967    -7.5185879179     3.9335811786
   92      H      -1.0167541149    -8.5357009303     1.7949788975
   93      H       9.5360147401     5.4540624946    -0.0678023049
   94      C      11.2918884986     4.5300710803    -0.9307583933
   95      H      10.6786526751     4.7332821941     1.1444630571
   96      H      10.6996834028     4.4515609640    -1.8498488601
   97      H      11.8430324442     3.5894377365    -0.8080055368
   98      C      12.1448227900     5.8164242639    -0.8570319968
   99      H      12.4113103596     6.0606339748     0.1793902108
  100      C      11.4865426273     7.0082249472    -1.5858737895
  101      H      13.0938725429     5.7057280224    -1.3960467543
  102      H      10.5959361938     7.2115610014    -0.9782788342
  103      H      11.1905008082     6.6847394853    -2.5913783381
  104      C      12.4130799416     8.2526924175    -1.7551230750
  105      H      12.6188702914     8.4990211098    -0.7062768006
  106      C      11.7651090384     9.4273301356    -2.5632375098
  107      H      13.3641386440     7.9993369509    -2.2406746708
  108      H      11.7200273154     9.1644480154    -3.6277273543
  109      H      12.5522026721    10.1905135255    -2.6147324161
  110      H      10.7557790004     9.6841395182    -2.2195256894
 ----------------------------------------------------------------
 Molecular Point Group                 C1    NOp =  1
 Largest Abelian Subgroup              C1    NOp =  1
 Nuclear Repulsion Energy = 10572.0349788123 hartrees
 There are      270 alpha and      270 beta electrons
 Requested basis set is 6-31G(d,p)
 There are 406 shells and 1262 basis functions

 Total QAlloc Memory Limit  20000 MB
 Mega-Array Size      4888 MB
 MEM_STATIC part      5000 MB
 A cutoff of  1.0D-08 yielded  12611 shell pairs
 There are    132419 function pairs
 
 -------------------------------------------------------
 OpenMP Integral Computing Module                       
 Release: version 1.0, May 2013, Q-Chem Inc. Pittsburgh 
 -------------------------------------------------------
 Integral Job Info:
 Integral job number is                      11
 Integral operator is                         1
 short-range coefficients                     0
 long-range coefficients              100000000
 Omega coefficients                           0
 if combine SR and LR in K                    0
 Integral screening is                        0
 Integral computing path is                   2
 max size of driver memory is            800000
 size of driver memory is                593474
 size of scratch memory is             15166112
 max col of scratch BK array               1296
 max len of scratch array in speh3          155
 max len of scratch index in speh4           18
 max int batch size is                      520
 min int batch size is                       52
 fixed nKL is                                52
 max L of basis functions is                  2
 order of int derivative is                   0
 number of shells is                        406
 number of basis is                        1262
 number of cartesian basis is              1262
 number of contracted shell pairs         12611
 number of primitive shell pairs          41647
 maxK2 (contraction) of shell pair           36
 max number of K2 of shell pair               1
 max number of CS2 of shell pair           1283
 max number of PS2 of shell pair           7668
 mem total for path MDJ                  278296
 -------------------------------------------------------
 Smallest overlap matrix eigenvalue = 4.58E-04

 Scale SEOQF with 1.000000e-02/1.000000e-02/1.000000e-01

 Standard Electronic Orientation quadrupole field applied
 Nucleus-field energy     =     0.0000000628 hartrees
 Guess from superposition of atomic densities
 Warning:  Energy on first SCF cycle will be non-variational
 A restricted hybrid HF-DFT SCF calculation will be
 performed using Pulay DIIS extrapolation
 Exchange:     0.2000 Hartree-Fock + 0.0800 Slater + 0.7200 B88
 Correlation:  0.1900 VWN1RPA + 0.8100 LYP
 Using SG-1 standard quadrature grid
 SCF converges when DIIS error is below 1.0E-05
 using 16 threads for integral computing 
 -------------------------------------------------------
 OpenMP BLAS3 based DFT computing Module                
 Release: version 1.0, May 2013, Q-Chem Inc. Pittsburgh 
 -------------------------------------------------------
 ---------------------------------------
  Cycle       Energy         DIIS Error
 ---------------------------------------
    1   -5680.2771233645      2.15E-02
    2   -5662.5279542512      2.12E-03
    3   -5661.2802595042      3.20E-03
    4   -5663.3611423324      8.39E-04
    5   -5663.4826512990      3.69E-04
    6   -5663.5008232946      2.17E-04
    7   -5663.5095915331      6.22E-05
    8   -5663.5102577900      2.42E-05
    9   -5663.5103754342      8.13E-06 Convergence criterion met
 ---------------------------------------
 SCF time:  CPU 883.57 s  wall 78.33 s
 SCF   energy in the final basis set = -5663.5103754342
 Total energy in the final basis set = -5663.5103754342
 
 --------------------------------------------------------------
 
                    Orbital Energies (a.u.)
 --------------------------------------------------------------
 
 Alpha MOs
 -- Occupied --
-88.988 -88.984 -88.930 -88.926 -88.926 -88.922 -88.910 -88.907
-14.385 -14.382 -14.381 -14.380 -14.348 -14.348 -14.345 -14.343
-14.328 -14.320 -10.269 -10.267 -10.267 -10.265 -10.261 -10.257
-10.251 -10.249 -10.247 -10.245 -10.243 -10.242 -10.240 -10.238
-10.236 -10.235 -10.235 -10.234 -10.232 -10.230 -10.229 -10.229
-10.229 -10.229 -10.227 -10.224 -10.223 -10.223 -10.216 -10.214
-10.213 -10.212 -10.208 -10.207 -10.203 -10.200 -10.199 -10.190
-10.183 -10.182 -10.181 -10.180 -10.179 -10.179 -10.178 -10.177
-10.177 -10.176 -10.176 -10.168  -8.044  -8.040  -7.990  -7.987
 -7.984  -7.981  -7.970  -7.968  -6.009  -6.005  -6.003  -6.001
 -6.000  -5.997  -5.954  -5.951  -5.951  -5.949  -5.948  -5.947
 -5.946  -5.945  -5.944  -5.942  -5.940  -5.938  -5.934  -5.932
 -5.931  -5.929  -5.926  -5.924  -1.044  -1.035  -0.984  -0.968
 -0.957  -0.950  -0.948  -0.943  -0.913  -0.909  -0.908  -0.898
 -0.844  -0.842  -0.832  -0.828  -0.817  -0.809  -0.808  -0.807
 -0.807  -0.805  -0.800  -0.799  -0.788  -0.780  -0.768  -0.765
 -0.751  -0.746  -0.743  -0.739  -0.721  -0.721  -0.712  -0.712
 -0.693  -0.691  -0.675  -0.672  -0.655  -0.651  -0.646  -0.641
 -0.634  -0.632  -0.627  -0.626  -0.611  -0.608  -0.602  -0.601
 -0.593  -0.591  -0.585  -0.585  -0.581  -0.577  -0.577  -0.567
 -0.551  -0.543  -0.541  -0.539  -0.528  -0.524  -0.519  -0.516
 -0.508  -0.506  -0.505  -0.500  -0.490  -0.488  -0.481  -0.476
 -0.473  -0.473  -0.472  -0.471  -0.465  -0.459  -0.452  -0.449
 -0.445  -0.442  -0.442  -0.440  -0.437  -0.436  -0.433  -0.433
 -0.431  -0.430  -0.426  -0.423  -0.419  -0.415  -0.414  -0.414
 -0.411  -0.410  -0.409  -0.408  -0.401  -0.400  -0.399  -0.397
 -0.396  -0.393  -0.391  -0.390  -0.388  -0.386  -0.385  -0.383
 -0.381  -0.378  -0.377  -0.376  -0.370  -0.363  -0.356  -0.354
 -0.354  -0.352  -0.349  -0.347  -0.345  -0.344  -0.342  -0.339
 -0.337  -0.336  -0.334  -0.332  -0.332  -0.329  -0.328  -0.325
 -0.320  -0.313  -0.310  -0.308  -0.304  -0.303  -0.301  -0.297
 -0.296  -0.296  -0.294  -0.293  -0.291  -0.289  -0.287  -0.284
 -0.274  -0.270  -0.264  -0.261  -0.254  -0.250  -0.249  -0.244
 -0.243  -0.239  -0.227  -0.227  -0.193  -0.192
 -- Virtual --
 -0.114  -0.110  -0.076  -0.073  -0.040  -0.036  -0.028  -0.022
 -0.018  -0.017  -0.016  -0.016  -0.011  -0.008  -0.006  -0.004
 -0.002   0.006   0.019   0.020   0.026   0.033   0.036   0.040
  0.047   0.048   0.055   0.065   0.067   0.074   0.081   0.088
  0.091   0.094   0.095   0.097   0.103   0.106   0.109   0.111
  0.115   0.116   0.118   0.118   0.122   0.122   0.124   0.124
  0.125   0.131   0.132   0.133   0.136   0.138   0.139   0.144
  0.145   0.147   0.153   0.157   0.160   0.161   0.164   0.165
  0.167   0.169   0.175   0.175   0.178   0.180   0.187   0.187
  0.188   0.189   0.192   0.192   0.195   0.196   0.198   0.200
  0.203   0.205   0.206   0.208   0.211   0.214   0.216   0.217
  0.219   0.221   0.226   0.229   0.233   0.239   0.239   0.241
  0.242   0.247   0.251   0.252   0.257   0.261   0.262   0.263
  0.264   0.266   0.267   0.268   0.272   0.273   0.275   0.279
  0.281   0.287   0.290   0.292   0.296   0.300   0.303   0.307
  0.308   0.310   0.313   0.315   0.318   0.322   0.323   0.326
  0.327   0.329   0.336   0.337   0.339   0.341   0.346   0.350
  0.351   0.355   0.359   0.359   0.364   0.366   0.369   0.369
  0.374   0.376   0.379   0.383   0.388   0.392   0.397   0.398
  0.404   0.408   0.411   0.420   0.422   0.424   0.431   0.435
  0.439   0.442   0.443   0.449   0.457   0.460   0.464   0.467
  0.474   0.479   0.482   0.484   0.486   0.489   0.494   0.496
  0.498   0.503   0.505   0.507   0.507   0.511   0.512   0.517
  0.518   0.521   0.522   0.526   0.527   0.527   0.530   0.531
  0.532   0.537   0.539   0.542   0.545   0.546   0.547   0.550
  0.551   0.552   0.555   0.557   0.558   0.559   0.561   0.562
  0.562   0.565   0.570   0.572   0.573   0.575   0.578   0.581
  0.582   0.585   0.586   0.588   0.592   0.593   0.597   0.598
  0.600   0.602   0.603   0.605   0.606   0.609   0.609   0.616
  0.619   0.620   0.622   0.623   0.623   0.627   0.628   0.630
  0.631   0.635   0.635   0.638   0.641   0.645   0.646   0.648
  0.653   0.654   0.655   0.656   0.657   0.668   0.669   0.671
  0.672   0.676   0.678   0.682   0.685   0.692   0.693   0.698
  0.701   0.703   0.704   0.713   0.718   0.721   0.722   0.723
  0.725   0.732   0.733   0.738   0.741   0.743   0.746   0.747
  0.752   0.753   0.755   0.760   0.761   0.764   0.766   0.769
  0.770   0.774   0.775   0.778   0.780   0.786   0.787   0.789
  0.790   0.793   0.794   0.796   0.798   0.800   0.803   0.805
  0.810   0.811   0.815   0.816   0.818   0.820   0.823   0.825
  0.828   0.829   0.830   0.833   0.833   0.835   0.836   0.838
  0.840   0.841   0.843   0.844   0.844   0.849   0.853   0.855
  0.856   0.859   0.860   0.862   0.863   0.865   0.867   0.870
  0.872   0.875   0.877   0.879   0.886   0.887   0.892   0.893
  0.893   0.896   0.898   0.900   0.904   0.905   0.908   0.910
  0.912   0.915   0.916   0.919   0.921   0.923   0.924   0.927
  0.931   0.932   0.936   0.937   0.938   0.940   0.943   0.945
  0.947   0.948   0.952   0.953   0.955   0.959   0.961   0.964
  0.965   0.967   0.971   0.973   0.974   0.975   0.976   0.980
  0.981   0.982   0.984   0.986   0.990   0.991   0.997   1.000
  1.003   1.005   1.007   1.008   1.009   1.013   1.017   1.020
  1.022   1.027   1.028   1.031   1.036   1.037   1.040   1.042
  1.049   1.053   1.056   1.057   1.059   1.063   1.069   1.074
  1.080   1.082   1.088   1.092   1.095   1.098   1.100   1.104
  1.108   1.111   1.114   1.117   1.126   1.131   1.132   1.139
  1.145   1.148   1.151   1.153   1.163   1.170   1.174   1.178
  1.185   1.187   1.195   1.196   1.202   1.210   1.214   1.215
  1.226   1.228   1.231   1.239   1.247   1.254   1.262   1.264
  1.267   1.276   1.279   1.283   1.285   1.287   1.291   1.298
  1.308   1.313   1.317   1.318   1.321   1.324   1.325   1.329
  1.334   1.335   1.336   1.346   1.355   1.357   1.359   1.362
  1.369   1.372   1.386   1.389   1.400   1.400   1.404   1.406
  1.409   1.411   1.416   1.419   1.424   1.432   1.434   1.436
  1.440   1.442   1.443   1.448   1.448   1.459   1.465   1.473
  1.474   1.481   1.486   1.494   1.495   1.500   1.503   1.508
  1.517   1.520   1.530   1.532   1.537   1.545   1.554   1.556
  1.563   1.571   1.583   1.592   1.593   1.599   1.605   1.621
  1.622   1.625   1.627   1.637   1.638   1.648   1.649   1.656
  1.663   1.666   1.667   1.671   1.680   1.681   1.682   1.688
  1.688   1.693   1.696   1.699   1.704   1.705   1.708   1.709
  1.712   1.717   1.720   1.726   1.729   1.733   1.740   1.744
  1.746   1.753   1.758   1.763   1.763   1.770   1.770   1.782
  1.788   1.788   1.796   1.800   1.802   1.805   1.809   1.813
  1.816   1.818   1.821   1.831   1.836   1.836   1.841   1.843
  1.847   1.848   1.854   1.855   1.858   1.858   1.861   1.869
  1.869   1.871   1.875   1.881   1.882   1.884   1.888   1.893
  1.894   1.898   1.907   1.911   1.915   1.915   1.917   1.925
  1.927   1.930   1.932   1.934   1.938   1.939   1.944   1.945
  1.950   1.953   1.954   1.963   1.966   1.972   1.990   1.994
  1.995   1.996   2.006   2.008   2.009   2.025   2.025   2.029
  2.033   2.036   2.042   2.043   2.049   2.051   2.056   2.060
  2.067   2.069   2.070   2.076   2.085   2.087   2.088   2.100
  2.105   2.109   2.114   2.117   2.119   2.121   2.124   2.129
  2.135   2.137   2.140   2.142   2.146   2.151   2.157   2.162
  2.163   2.166   2.170   2.176   2.179   2.179   2.185   2.186
  2.188   2.195   2.201   2.203   2.204   2.205   2.212   2.218
  2.225   2.225   2.230   2.240   2.240   2.243   2.247   2.247
  2.248   2.259   2.265   2.269   2.270   2.274   2.280   2.281
  2.283   2.288   2.291   2.292   2.292   2.297   2.299   2.305
  2.308   2.317   2.319   2.319   2.322   2.325   2.327   2.332
  2.333   2.338   2.341   2.343   2.345   2.349   2.357   2.361
  2.364   2.367   2.368   2.371   2.381   2.385   2.388   2.398
  2.398   2.398   2.404   2.405   2.409   2.414   2.417   2.418
  2.424   2.426   2.427   2.429   2.435   2.439   2.442   2.445
  2.449   2.450   2.452   2.456   2.459   2.460   2.464   2.468
  2.475   2.475   2.479   2.481   2.488   2.491   2.494   2.498
  2.503   2.504   2.513   2.516   2.517   2.523   2.528   2.530
  2.535   2.537   2.537   2.543   2.544   2.553   2.554   2.557
  2.558   2.569   2.571   2.574   2.582   2.595   2.601   2.603
  2.609   2.615   2.621   2.629   2.633   2.640   2.647   2.653
  2.654   2.654   2.659   2.660   2.663   2.665   2.674   2.677
  2.680   2.682   2.688   2.691   2.692   2.697   2.698   2.700
  2.701   2.702   2.704   2.711   2.727   2.728   2.731   2.747
  2.754   2.754   2.766   2.774   2.775   2.785   2.786   2.791
  2.794   2.808   2.810   2.817   2.821   2.823   2.831   2.835
  2.842   2.849   2.851   2.853   2.857   2.860   2.866   2.874
  2.876   2.880   2.883   2.895   2.909   2.912   2.920   2.920
  2.924   2.925   2.933   2.934   2.939   2.940   2.943   2.948
  2.959   2.973   2.975   2.979   2.988   2.994   3.011   3.012
  3.032   3.035   3.050   3.064   3.065   3.082   3.094   3.133
  3.168   3.186   3.189   3.201   3.209   3.213   3.229   3.237
  3.241   3.243   3.245   3.256   3.256   3.263   3.269   3.273
  3.276   3.289   3.289   3.298   3.304   3.306   3.318   3.326
  3.333   3.352   3.360   3.366   3.388   3.401   3.415   3.415
  3.436   3.437   3.449   3.483   3.488   3.494   3.513   3.541
  3.546   3.565   3.565   3.573   3.588   3.593   3.594   3.611
  3.628   3.633   3.758   3.760   3.843   3.852   3.906   3.923
  3.936   3.941   3.959   3.961   3.965   3.981   3.992   3.995
  4.015   4.047   4.054   4.075   4.084   4.095   4.106   4.109
  4.122   4.128   4.138   4.141   4.145   4.170   4.176   4.181
  4.194   4.200   4.212   4.245   4.258   4.258   4.263   4.265
  4.271   4.279   4.317   4.344   4.354   4.362   4.382   4.396
  4.411   4.424   4.437   4.439   4.449   4.471   4.474   4.484
  4.515   4.529   4.533   4.544   4.567   4.588   4.657   4.666
  4.683   4.701   4.710   4.715   4.761   4.773   4.793   4.798
 --------------------------------------------------------------
 
          Ground-State Mulliken Net Atomic Charges

     Atom                 Charge (a.u.)
  ----------------------------------------
      1 C                     0.279179
      2 C                    -0.114087
      3 N                    -0.470229
      4 C                    -0.070812
      5 C                     0.109763
      6 C                     0.017568
      7 C                     0.001475
      8 C                     0.059530
      9 C                     0.201489
     10 N                    -0.497018
     11 N                    -0.544993
     12 C                     0.238420
     13 C                     0.300153
     14 S                     0.605807
     15 N                    -0.564680
     16 C                    -0.217800
     17 S                     0.314493
     18 C                    -0.125127
     19 C                    -0.239228
     20 S                     0.273948
     21 C                     0.151132
     22 C                     0.073429
     23 C                    -0.314141
     24 C                    -0.044909
     25 N                    -0.416845
     26 S                     0.263305
     27 C                     0.133257
     28 C                    -0.315236
     29 C                    -0.233857
     30 H                     0.086303
     31 H                     0.096507
     32 H                     0.106727
     33 H                     0.115746
     34 H                     0.130242
     35 H                     0.121959
     36 H                     0.115972
     37 H                     0.131025
     38 H                     0.101096
     39 C                    -0.176225
     40 H                     0.115535
     41 H                     0.096934
     42 H                     0.115600
     43 C                    -0.184918
     44 H                     0.089826
     45 C                    -0.171640
     46 H                     0.096570
     47 H                     0.089042
     48 H                     0.092781
     49 C                    -0.173760
     50 H                     0.091179
     51 C                    -0.318790
     52 H                     0.095864
     53 H                     0.094625
     54 H                     0.098675
     55 H                     0.100826
     56 C                     0.255191
     57 C                    -0.126772
     58 N                    -0.470770
     59 C                    -0.073167
     60 C                     0.082591
     61 C                     0.027186
     62 C                     0.014285
     63 C                     0.061356
     64 C                     0.250155
     65 N                    -0.534448
     66 N                    -0.560300
     67 C                     0.210849
     68 C                     0.301264
     69 S                     0.584743
     70 N                    -0.562971
     71 C                    -0.179697
     72 S                     0.358468
     73 C                    -0.147843
     74 C                    -0.227646
     75 S                     0.292442
     76 C                     0.151389
     77 C                     0.054003
     78 C                    -0.317875
     79 C                    -0.061438
     80 N                    -0.423162
     81 S                     0.282581
     82 C                     0.120774
     83 C                    -0.320057
     84 C                    -0.210891
     85 H                     0.087765
     86 H                     0.093560
     87 H                     0.126996
     88 H                     0.123354
     89 H                     0.134999
     90 H                     0.087430
     91 H                     0.115587
     92 H                     0.139606
     93 H                     0.086516
     94 C                    -0.168680
     95 H                     0.115400
     96 H                     0.090419
     97 H                     0.114279
     98 C                    -0.178260
     99 H                     0.093154
    100 C                    -0.174581
    101 H                     0.086057
    102 H                     0.091006
    103 H                     0.088988
    104 C                    -0.177377
    105 H                     0.094264
    106 C                    -0.320611
    107 H                     0.092386
    108 H                     0.102795
    109 H                     0.104376
    110 H                     0.108645
  ----------------------------------------
  Sum of atomic charges =     0.000000

 -----------------------------------------------------------------
                    Cartesian Multipole Moments
 -----------------------------------------------------------------
    Charge (ESU x 10^10)
                 0.0000
    Dipole Moment (Debye)
         X      -1.3213      Y      -0.3631      Z      -2.2169
       Tot       2.6062
    Quadrupole Moments (Debye-Ang)
        XX    -464.9587     XY      14.7256     YY    -400.5817
        XZ     -10.2702     YZ     -14.5367     ZZ    -436.9380
    Octopole Moments (Debye-Ang^2)
       XXX    -161.4804    XXY     -10.9553    XYY     -74.4076
       YYY    -161.3726    XXZ      -8.5438    XYZ      42.9178
       YYZ     -46.0342    XZZ      -9.0047    YZZ     -36.7576
       ZZZ       8.7509
    Hexadecapole Moments (Debye-Ang^3)
      XXXX -121527.0940   XXXY    1272.7458   XXYY  -32289.0851
      XYYY     479.4014   YYYY  -71811.7218   XXXZ   -1080.8319
      XXYZ   -1374.3507   XYYZ    -225.4920   YYYZ    -755.6478
      XXZZ  -20833.8955   XYZZ      68.1263   YYZZ  -13249.2635
      XZZZ      59.0183   YZZZ    -169.4261   ZZZZ   -6237.6172
 -----------------------------------------------------------------
Archival summary:
1\1\mn426\SP\ProcedureUnspecified\6-31G**\8105042\afmv_a\SunOct704:28:182018SunOct704:28:182018\0\\#,ProcedureUnspecified,6-31G**,\\0,1\S\C,1,1.75117\C,2,1.37225,1,111.41\C,3,1.41383,2,133.72,1,171.481,0\H,4,1.08435,3,122.661,2,19.0376,0\C,4,1.38651,3,110.508,2,-165.338,0\H,6,1.08116,4,128.995,3,-174.995,0\C,3,1.43198,2,112.747,1,3.11183,0\C,8,1.37747,3,115.312,2,3.49604,0\C,2,1.441,1,120.431,3,-171.783,0\N,10,1.29561,2,120.402,1,145.759,0\C,11,1.35545,10,111.934,2,-164.251,0\H,12,1.08168,11,120.819,10,-166.488,0\C,12,1.3786,11,110.956,10,11.3965,0\H,14,1.08191,12,132.703,11,-179.348,0\C,9,1.47071,8,126.862,3,170.942,0\N,16,1.30831,9,112.373,8,-158.411,0\C,17,1.38443,16,121.901,9,172.348,0\H,18,1.08947,17,116.408,16,-178.793,0\C,18,1.44043,17,121.748,16,10.386,0\C,20,1.43879,18,116.967,17,-3.18409,0\N,21,1.34602,20,124.92,18,179.956,0\C,21,1.42057,20,118.6,18,2.83708,0\N,23,1.34135,21,109.373,20,176.818,0\C,20,1.50289,18,118.7,17,-167.55,0\C,25,1.38651,20,118.82,18,-53.758,0\H,26,1.08627,25,123.878,20,-0.62418,0\C,26,1.36032,25,117.532,20,170.004,0\H,28,1.08597,26,122.308,25,175.269,0\C,28,1.40877,26,120.831,25,6.67282,0\N,30,1.34948,28,121.457,26,1.91189,0\C,31,1.29377,30,118.927,28,-8.00456,0\H,32,1.0888,31,115.588,30,-168.583,0\C,30,1.45451,28,113.618,26,171.561,0\H,34,1.09648,30,116.862,28,-12.7354,0\H,34,1.09686,30,106.756,28,-126.407,0\C,34,1.50749,30,112.21,28,107.673,0\H,37,1.09708,34,110.598,30,61.8126,0\H,37,1.09709,34,112.691,30,-59.7589,0\C,37,1.57659,34,106.712,30,-175.886,0\H,40,1.0966,37,108.353,34,-58.9723,0\H,40,1.09686,37,114.576,34,60.4241,0\C,40,1.52925,37,108.967,34,-177.594,0\H,43,1.09752,40,109.668,37,-55.4251,0\H,43,1.09759,40,110.215,37,60.2349,0\C,43,1.56373,40,115.288,37,-179.078,0\H,46,1.09703,43,109.376,40,57.0945,0\H,46,1.09721,43,114.53,40,-63.5619,0\C,46,1.51255,43,107.718,40,177.906,0\H,49,1.09658,46,113.939,43,-45.9375,0\H,49,1.09677,46,113.697,43,67.0245,0\H,49,1.09708,46,112.855,43,-171.934,0\S,22,1.62195,21,106.419,20,-177.501,0\S,8,1.74969,3,112.419,2,163.138,0\S,10,1.75267,2,116.15,1,-6.95338,0\H,15,2.15415,14,114.267,12,115.009,0\C,56,1.08362,15,155.269,14,93.8926,0\C,57,1.40882,56,122.925,15,25.8797,0\H,58,1.08192,57,129.359,56,-15.909,0\C,57,1.44696,56,125.663,15,-153.189,0\C,60,1.37791,57,135.188,56,8.03271,0\C,60,1.40621,57,111.629,56,-178.96,0\C,62,1.41027,60,118.278,57,-177.192,0\C,61,1.42369,60,123.345,57,-4.51156,0\N,64,1.31768,61,116.562,60,169.002,0\C,65,1.37905,64,110.166,61,-179.669,0\H,66,1.08176,65,113.179,64,-174.992,0\C,66,1.39348,65,116.049,64,-1.13653,0\H,68,1.08221,66,130.619,65,170.91,0\C,63,1.44085,62,122.963,60,172.255,0\N,70,1.3517,63,120.95,62,-24.0309,0\C,71,1.36753,70,124.102,63,-171.5,0\H,72,1.08888,71,116.847,70,-175.82,0\C,72,1.44643,71,119.829,70,-0.0481314,0\C,74,1.43892,72,116.817,71,-1.85576,0\N,75,1.32725,74,122.674,72,172.132,0\C,75,1.36762,74,120.682,72,4.2793,0\N,77,1.30633,75,115.188,74,174.109,0\C,74,1.49947,72,119.187,71,-179.406,0\C,79,1.39464,74,119.516,72,-28.8278,0\H,80,1.08646,79,117.083,74,6.1129,0\C,80,1.38595,79,119.918,74,-178.481,0\H,82,1.08646,80,123.856,79,-174.355,0\C,82,1.43473,80,118.908,79,2.58236,0\N,84,1.31552,82,121.112,80,-3.09325,0\C,85,1.32721,84,121.403,82,2.60717,0\H,86,1.08866,85,117.435,84,168.734,0\C,84,1.4882,82,123.727,80,-173.26,0\H,88,1.09703,84,106.964,82,-134.968,0\H,88,1.09732,84,101.952,82,-17.6875,0\C,88,1.53345,84,116.184,82,101.336,0\H,91,1.09617,88,102.67,84,-59.598,0\H,91,1.0971,88,108.946,84,54.381,0\C,91,1.5452,88,107.717,84,-179.591,0\H,94,1.09704,91,111.721,88,-163.749,0\H,94,1.09765,91,111.363,88,-45.3741,0\C,94,1.54432,91,112.622,88,81.6416,0\H,97,1.09696,94,108.667,91,50.0698,0\H,97,1.09713,94,103.161,91,-66.7401,0\C,97,1.56071,94,114.424,91,169.839,0\H,100,1.09686,97,100.764,94,60.8892,0\H,100,1.09748,97,112.232,94,-54.0176,0\C,100,1.56611,97,114.104,94,-176.834,0\H,103,1.09674,100,113.246,97,-48.5848,0\H,103,1.0974,100,109.746,97,73.2093,0\H,103,1.09755,100,104.421,97,178.127,0\S,78,1.63819,77,106.403,75,-2.59907,0\S,62,1.72987,60,114.147,57,-0.331133,0\S,68,1.74345,66,110.592,65,0.814755,0\S,61,1.77344,60,108.592,57,-177.234,0\\\@

 Total job time:  82.11s(wall), 894.68s(cpu) 
 Sun Oct  7 04:28:18 2018

        *************************************************************
        *                                                           *
        *  Thank you very much for using Q-Chem.  Have a nice day.  *
        *                                                           *
        *************************************************************


