
Running Job 1 of 1 ./6/42.qcin
qchem ./6/42.qcin_21684.0 /tmpu/cab_g/afmv_a/scratch_qchem/qchem21684/ 1
/tmpu/appuserlic/qchem4.4/serial-multicore/exe/qcprog.exe_s ./6/42.qcin_21684.0 /tmpu/cab_g/afmv_a/scratch_qchem/qchem21684/
Check license passed

                  Welcome to Q-Chem
     A Quantum Leap Into The Future Of Chemistry


 Q-Chem 4.4, Q-Chem, Inc., Pleasanton, CA (2016)

 Y. Shao,  Z. Gan,  E. Epifanovsky,  A. T. B. Gilbert,  M. Wormit,  
 J. Kussmann,  A. W. Lange,  A. Behn,  J. Deng,  X. Feng,  D. Ghosh,  
 M. Goldey,  P. R. Horn,  L. D. Jacobson,  I. Kaliman,  F. Rob,  
 R. Z. Khaliullin,  T. Kus,  A. Landau,  J. Liu,  E. I. Proynov,  Y. M. Rhee,  
 R. M. Richard,  M. A. Rohrdanz,  R. P. Steele,  E. J. Sundstrom,  
 H. L. Woodcock III,  P. M. Zimmerman,  D. Zuev,  B. Albrecht,  E. Alguire,  
 B. Austin,  S. A. Baeppler,  G. J. O. Beran,  Y. A. Bernard,  E. Berquist,  
 K. Brandhorst,  K. B. Bravaya,  S. T. Brown,  D. Casanova,  C.-M. Chang,  
 Y. Chen,  S. H. Chien,  K. D. Closser,  M. P. Coons,  D. L. Crittenden,  
 S. Dasgupta,  M. Diedenhofen,  R. A. DiStasio Jr.,  H. Do,  A. D. Dutoi,  
 R. G. Edgar,  P.-T. Fang,  S. Fatehi,  Q. Feng,  L. Fusti-Molnar,  
 A. Ghysels,  A. Golubeva-Zadorozhnaya,  J. Gomes,  A. Gunina,  
 M. W. D. Hanson-Heine,  P. H. P. Harbach,  A. W. Hauser,  J. E. Herr,  
 E. G. Hohenstein,  Z. C. Holden,  K. Hui,  T.-C. Jagau,  H. Ji,  B. Kaduk,  
 K. Khistyaev,  Jaehoon Kim,  Jihan Kim,  R. A. King,  P. Klunzinger,  
 K. Koh,  D. Kosenkov,  T. Kowalczyk,  C. M. Krauter,  A. Kunitsa,  
 K. U. Lao,  A. Laurent,  K. V. Lawler,  J. Lee,  D. Lefrancois,  S. Lehtola,  
 S. V. Levchenko,  C. Y. Lin,  Y.-S. Lin,  F. Liu,  E. Livshits,  
 R. C. Lochan,  A. Luenser,  P. Manohar,  S. F. Manzer,  S.-P. Mao,  Y. Mao,  
 N. Mardirossian,  A. V. Marenich,  L. A. Martinez-Martinez,  S. A. Maurer,  
 N. J. Mayhall,  J.-M. Mewes,  A. F. Morrison,  K. Nanda,  T. S. Nguyen-Beck,  
 C. M. Oana,  R. Olivares-Amaya,  D. P. O'Neill,  J. A. Parkhill,  
 T. M. Perrine,  R. Peverati,  P. A. Pieniazek,  F. Plasser,  A. Prociuk,  
 D. R. Rehn,  E. Rosta,  N. J. Russ,  N. Sergueev,  S. M. Sharada,  
 S. Sharma,  D. W. Small,  A. Sodt,  T. Stauch,  T. Stein,  D. Stuck,  
 Y.-C. Su,  A. J. W. Thom,  T. Tsuchimochi,  L. Vogt,  O. Vydrov,  T. Wang,  
 M. A. Watson,  J. Wenzel,  A. White,  C. F. Williams,  V. Vanovschi,  
 K. Yao,  S. Yeganeh,  S. R. Yost,  Z.-Q. You,  I. Y. Zhang,  X. Zhang,  
 Y. Zhao,  B. R. Brooks,  G. K. L. Chan,  D. M. Chipman,  C. J. Cramer,  
 W. A. Goddard III,  M. S. Gordon,  W. J. Hehre,  A. Klamt,  
 H. F. Schaefer III,  M. W. Schmidt,  C. D. Sherrill,  D. G. Truhlar,  
 A. Warshel,  X. Xu,  A. Aspuru-Guzik,  R. Baer,  A. T. Bell,  N. A. Besley,  
 J.-D. Chai,  A. Dreuw,  B. D. Dunietz,  T. R. Furlani,  S. R. Gwaltney,  
 C.-P. Hsu,  Y. Jung,  J. Kong,  D. S. Lambrecht,  W. Liang,  C. Ochsenfeld,  
 V. A. Rassolov,  L. V. Slipchenko,  J. E. Subotnik,  T. Van Voorhis,  
 J. M. Herbert,  A. I. Krylov,  P. M. W. Gill,  M. Head-Gordon

 Contributors to earlier versions of Q-Chem not listed above: 
 R. D. Adamson,  J. Baker,  E. F. C. Byrd,  A. K. Chakraborty,  C.-L. Cheng,  
 H. Dachsel,  R. J. Doerksen,  G. Hawkins,  A. Heyden,  S. Hirata,  
 G. Kedziora,  F. J. Keil,  C. Kelley,  P. P. Korambath,  W. Kurlancheek,  
 A. M. Lee,  M. S. Lee,  D. Liotard,  I. Lotan,  P. E. Maslen,  N. Nair,  
 D. Neuhauser,  R. Olson,  B. Peters,  J. Ritchie,  N. E. Schultz,  
 N. Shenvi,  A. C. Simmonett,  K. S. Thanthiriwatte,  Q. Wu,  W. Zhang

 Please cite Q-Chem as follows:
 Y. Shao et al., Mol. Phys. 113, 184-215 (2015)
 DOI: 10.1080/00268976.2014.952696

 Q-Chem 4.4.2 for Intel X86 Linux

 Parts of Q-Chem use Armadillo 5.200.1 (Boston Tea Smuggler).
 http://arma.sourceforge.net/

 Q-Chem begins on Sun Oct  7 04:28:20 2018  

Host: 
0

     Scratch files written to /tmpu/cab_g/afmv_a/scratch_qchem/qchem21684//
 Dec716 11556_ 22328  22283 4050   
Processing $rem in /tmpu/appuserlic/qchem4.4/serial-multicore/config/preferences.
 MEM_TOTAL  2000 
FILE_GEOM_ORG=        593

Checking the input file for inconsistencies... 	...done.

--------------------------------------------------------------
User input:
--------------------------------------------------------------
$comment
SP
$end

$rem
MEM_STATIC 5000
MEM_TOTAL 20000
JOBTYPE SP
EXCHANGE B3LYP
BASIS 6-31g(d,p)
$end

$molecule
0 1
C          -3.804000    -19.633000      2.610000
C          -3.612000    -19.827000      1.235000
N          -3.437000    -18.484000      3.145000
C          -3.099000    -18.769000      0.473000
C          -2.935000    -17.485000      2.426000
C          -2.783000    -17.489000      1.008000
C          -2.206000    -16.345000      0.274000
C          -1.167000    -16.573000     -0.672000
C          -2.579000    -14.994000      0.405000
N          -0.549000    -15.554000     -1.340000
N          -3.457000    -14.532000      1.251000
C          -1.951000    -13.963000     -0.292000
C          -0.841000    -14.259000     -1.147000
S          -3.711000    -12.939000      0.958000
N          -2.470000    -12.734000     -0.003000
C           0.056000    -13.256000     -1.809000
S          -0.007000    -11.479000     -1.647000
C           1.309000    -13.543000     -2.272000
C           1.644000    -11.189000     -1.958000
S           2.046000    -15.056000     -2.505000
C           2.216000    -12.419000     -2.283000
C           2.292000     -9.980000     -1.603000
C           3.617000    -14.197000     -2.581000
C           3.573000    -12.876000     -2.509000
N           3.272000     -9.501000     -2.336000
S           1.976000     -9.125000     -0.052000
C           3.806000     -8.354000     -1.777000
C           3.199000     -7.923000     -0.563000
C          -4.525000    -20.621000      3.574000
H          -3.794000    -20.805000      0.800000
H          -2.985000    -18.975000     -0.587000
H          -2.542000    -16.645000      2.996000
H          -0.850000    -17.570000     -0.975000
H           4.493000    -14.776000     -2.841000
H           4.407000    -12.201000     -2.668000
H           4.536000     -7.898000     -2.432000
H           3.360000     -7.011000     -0.004000
H          -3.726000    -21.093000      4.159000
C          -5.763000    -21.512000      3.112000
H          -5.009000    -19.936000      4.281000
H          -5.346000    -22.199000      2.364000
H          -6.459000    -20.793000      2.664000
C          -6.407000    -22.316000      4.241000
H          -5.740000    -23.049000      4.712000
C          -7.676000    -23.095000      3.723000
H          -6.742000    -21.633000      5.031000
H          -7.341000    -24.060000      3.323000
H          -8.171000    -22.436000      2.999000
C          -8.770000    -23.264000      4.818000
H          -8.422000    -23.716000      5.755000
C         -10.015000    -24.036000      4.269000
H          -9.061000    -22.275000      5.193000
H         -10.926000    -23.906000      4.867000
H          -9.864000    -25.096000      4.034000
H         -10.321000    -23.692000      3.273000
C          -4.957000    -15.347000      7.093000
C          -4.911000    -16.397000      6.182000
N          -4.174000    -15.350000      8.224000
C          -4.030000    -17.452000      6.390000
C          -3.432000    -16.455000      8.460000
C          -3.290000    -17.566000      7.572000
C          -2.351000    -18.638000      7.861000
C          -1.077000    -18.276000      8.419000
C          -2.578000    -19.997000      7.525000
N          -0.107000    -19.169000      8.540000
N          -3.748000    -20.521000      7.174000
C          -1.562000    -20.918000      7.757000
C          -0.270000    -20.420000      8.187000
S          -3.427000    -22.151000      6.997000
N          -1.791000    -22.151000      7.344000
C           0.886000    -21.351000      8.131000
S           0.888000    -22.963000      7.484000
C           2.156000    -21.061000      8.587000
C           2.563000    -23.165000      7.811000
S           2.729000    -19.500000      9.236000
C           3.106000    -22.089000      8.394000
C           3.263000    -24.377000      7.487000
C           4.326000    -20.372000      9.441000
C           4.375000    -21.625000      8.903000
N           4.578000    -24.205000      7.344000
S           2.533000    -25.649000      6.538000
C           5.078000    -25.317000      6.617000
C           4.142000    -26.234000      6.274000
C          -5.874000    -14.135000      6.906000
H          -5.377000    -16.465000      5.203000
H          -4.008000    -18.344000      5.771000
H          -2.880000    -16.476000      9.399000
H          -0.876000    -17.278000      8.807000
H           5.179000    -19.796000      9.773000
H           5.216000    -22.308000      8.881000
H           6.148000    -25.443000      6.515000
H           4.360000    -27.183000      5.800000
H          -6.939000    -14.397000      6.880000
C          -5.311000    -13.243000      5.828000
H          -5.788000    -13.653000      7.888000
H          -5.046000    -13.803000      4.924000
H          -4.460000    -12.660000      6.202000
C          -6.456000    -12.323000      5.407000
H          -7.220000    -12.993000      4.993000
C          -6.023000    -11.207000      4.338000
H          -6.881000    -11.846000      6.298000
H          -5.500000    -11.778000      3.561000
H          -5.332000    -10.477000      4.777000
C          -7.184000    -10.334000      3.709000
H          -7.895000    -11.047000      3.273000
C          -6.729000     -9.422000      2.619000
H          -7.743000     -9.816000      4.498000
H          -6.209000     -9.927000      1.795000
H          -6.164000     -8.561000      2.998000
H          -7.627000     -8.879000      2.300000
$end

--------------------------------------------------------------
 ----------------------------------------------------------------
             Standard Nuclear Orientation (Angstroms)
    I     Atom           X                Y                Z
 ----------------------------------------------------------------
    1      C      -1.3023952287     2.0841207424    -2.6341176568
    2      C      -0.6603476665     1.7012505571    -3.8199972244
    3      N      -0.6695484519     1.9164172642    -1.4884756968
    4      C       0.6524570272     1.2171933330    -3.7464483289
    5      C       0.5700689525     1.4420569491    -1.4156953263
    6      C       1.3911338810     1.1142726203    -2.5347367987
    7      C       2.7589385440     0.5801384166    -2.3790703077
    8      C       3.1398964176    -0.5878947401    -3.0980909216
    9      C       3.7772008382     1.1138260265    -1.5667831446
   10      N       4.3683399162    -1.1680275482    -2.9535866110
   11      N       3.6477420812     2.1365064326    -0.7684040260
   12      C       5.0324044775     0.5215323342    -1.4371451640
   13      C       5.3064996133    -0.7126396769    -2.1097760461
   14      S       5.1109975207     2.5265842227    -0.1401231680
   15      N       5.8570930315     1.2054395500    -0.5912830540
   16      C       6.5234297251    -1.5688705786    -1.9231969855
   17      S       7.8764087025    -1.2897937198    -0.7920444787
   18      C       6.5802936297    -2.8939731849    -2.2512466449
   19      C       8.3224991571    -2.9244122269    -0.6032386458
   20      S       5.4956506632    -3.8172413691    -3.1773959284
   21      C       7.5188043545    -3.6651909030    -1.4698588725
   22      C       9.1135661129    -3.3850536018     0.4782568906
   23      C       6.2677909231    -5.2805921212    -2.4888452800
   24      C       7.3016897031    -5.0819848027    -1.6864928351
   25      N       9.9461451768    -4.3900028864     0.3232761255
   26      S       8.9059301506    -2.7847356901     2.1614050457
   27      C      10.5664496274    -4.7195763576     1.5148505946
   28      C      10.2033659306    -3.9214584990     2.6369843268
   29      C      -2.6789293829     2.8062845488    -2.5397028320
   30      H      -1.2084816707     1.7179977209    -4.7570680040
   31      H       1.1008151080     0.9493241947    -4.6984216248
   32      H       0.9313166432     1.2188980727    -0.4133734110
   33      H       2.5087422008    -1.0487149101    -3.8567714377
   34      H       5.9623445942    -6.2409064029    -2.8821848540
   35      H       7.9587808435    -5.8494498462    -1.2919163022
   36      H      11.3306128125    -5.4708230714     1.3680718440
   37      H      10.6254975129    -3.9092860768     3.6328772725
   38      H      -3.3881672474     2.0394921391    -2.2044103446
   39      C      -3.1594548991     3.8704377658    -3.6244342084
   40      H      -2.5390793205     3.4477886694    -1.6609284450
   41      H      -3.2783797708     3.2896388600    -4.5484967095
   42      H      -2.3264841251     4.5801641685    -3.6917329684
   43      C      -4.4802805270     4.5577014672    -3.2796425821
   44      H      -5.3385052143     3.8778965317    -3.2066039906
   45      C      -4.8376526560     5.6578065692    -4.3508941519
   46      H      -4.3874804539     5.0624670664    -2.3104089486
   47      H      -5.3862068138     5.1706407152    -5.1664968534
   48      H      -3.8900533106     6.1281729244    -4.6412266723
   49      C      -5.6294198387     6.8547738271    -3.7469106158
   50      H      -6.5343956324     6.5789120772    -3.1916664283
   51      C      -5.9626962942     7.9281110979    -4.8351587067
   52      H      -5.0460356993     7.2980855916    -2.9304765245
   53      H      -6.2195805774     8.9155404481    -4.4309078646
   54      H      -6.6875604165     7.6324952937    -5.6024978108
   55      H      -5.1107854959     8.1432248164    -5.4923969282
   56      C      -0.4281369601     4.2564034745     3.2236425134
   57      C      -0.7550550393     3.9808097217     1.9001208276
   58      N      -1.0718577999     3.6256350750     4.2628795925
   59      C      -1.7194387534     3.0214552307     1.6136718573
   60      C      -2.0956982635     2.8012969478     3.9474396502
   61      C      -2.4839274022     2.4271796105     2.6236785865
   62      C      -3.5080558943     1.4188968250     2.4024261153
   63      C      -3.5135590821     0.2727130064     3.2694418990
   64      C      -4.4248121438     1.4502315634     1.3208152273
   65      N      -4.2939349733    -0.7673485285     3.0198913593
   66      N      -4.6693865570     2.5018547356     0.5456061844
   67      C      -5.2914933665     0.3756103496     1.1523696713
   68      C      -5.1116914126    -0.7892879540     1.9966748291
   69      S      -5.8892686883     1.9827977814    -0.4711226212
   70      N      -6.0610011307     0.4132258278     0.0801094992
   71      C      -5.8171424328    -2.0390943961     1.6138488692
   72      S      -6.7557532814    -2.3004688540     0.1758467595
   73      C      -5.8222862756    -3.2020701455     2.3570829825
   74      C      -7.0797964233    -3.9333540761     0.6025080934
   75      S      -4.9160854095    -3.5130075219     3.8631935156
   76      C      -6.5310901477    -4.2766557715     1.7745061177
   77      C      -7.8671093567    -4.7982159788    -0.2318013422
   78      C      -5.7167821727    -5.1584174453     3.7973993112
   79      C      -6.4251782124    -5.4127529423     2.6592681650
   80      N      -7.6205327220    -6.0935913552    -0.0306531446
   81      S      -8.3668128460    -4.3380460124    -1.8411568109
   82      C      -8.0964448997    -6.8006360687    -1.1658484459
   83      C      -8.6616930430    -6.0222212912    -2.1193677014
   84      C       0.6513639774     5.2712577629     3.6103601098
   85      H      -0.2515762706     4.3102000452     0.9955589755
   86      H      -2.0872291563     2.8235592649     0.6112366193
   87      H      -2.6469801851     2.3722581632     4.7834300594
   88      H      -2.9215555666     0.2335640498     4.1831968972
   89      H      -5.4245088771    -5.8941191387     4.5342360225
   90      H      -6.9538943047    -6.3202820968     2.3926145930
   91      H      -8.1208376761    -7.8823077849    -1.1419467542
   92      H      -9.1564305729    -6.4015227692    -3.0048992736
   93      H       0.4338523005     6.2890335711     3.2634219675
   94      C       2.0128940485     4.6799788935     3.3432605701
   95      H       0.4766803569     5.3627246628     4.6897874760
   96      H       2.0851172571     4.2435751513     2.3405758829
   97      H       2.2865002641     3.9522806383     4.1175737420
   98      C       2.9859564048     5.8580206520     3.3374929081
   99      H       2.6661946409     6.4853058722     2.4959124503
  100      C       4.5224661660     5.4208341560     3.1835068006
  101      H       2.8507660289     6.4413613735     4.2559003150
  102      H       4.5167654879     4.7447350232     2.3197033131
  103      H       4.8753248117     4.8752928722     4.0672361052
  104      C       5.5774610195     6.5834153504     2.9808202800
  105      H       5.2363579855     7.1509326145     2.1058580664
  106      C       6.9603051165     6.0993300876     2.6974959751
  107      H       5.5323770147     7.2906440851     3.8181499339
  108      H       7.0355623223     5.4276113961     1.8328970203
  109      H       7.4524140723     5.6850076391     3.5865137951
  110      H       7.5714998790     7.0048822748     2.6003867664
 ----------------------------------------------------------------
 Molecular Point Group                 C1    NOp =  1
 Largest Abelian Subgroup              C1    NOp =  1
 Nuclear Repulsion Energy = 11259.0882707315 hartrees
 There are      270 alpha and      270 beta electrons
 Requested basis set is 6-31G(d,p)
 There are 406 shells and 1262 basis functions

 Total QAlloc Memory Limit  20000 MB
 Mega-Array Size      4888 MB
 MEM_STATIC part      5000 MB
 A cutoff of  1.0D-08 yielded  13214 shell pairs
 There are    136453 function pairs
 
 -------------------------------------------------------
 OpenMP Integral Computing Module                       
 Release: version 1.0, May 2013, Q-Chem Inc. Pittsburgh 
 -------------------------------------------------------
 Integral Job Info:
 Integral job number is                      11
 Integral operator is                         1
 short-range coefficients                     0
 long-range coefficients              100000000
 Omega coefficients                           0
 if combine SR and LR in K                    0
 Integral screening is                        0
 Integral computing path is                   2
 max size of driver memory is            800000
 size of driver memory is                593474
 size of scratch memory is             15166112
 max col of scratch BK array               1296
 max len of scratch array in speh3          155
 max len of scratch index in speh4           18
 max int batch size is                      520
 min int batch size is                       52
 fixed nKL is                                52
 max L of basis functions is                  2
 order of int derivative is                   0
 number of shells is                        406
 number of basis is                        1262
 number of cartesian basis is              1262
 number of contracted shell pairs         13214
 number of primitive shell pairs          42504
 maxK2 (contraction) of shell pair           36
 max number of K2 of shell pair               1
 max number of CS2 of shell pair           1305
 max number of PS2 of shell pair           7686
 mem total for path MDJ                  277672
 -------------------------------------------------------
 Smallest overlap matrix eigenvalue = 3.94E-04

 Scale SEOQF with 1.000000e-02/1.000000e-02/1.000000e-02

 Standard Electronic Orientation quadrupole field applied
 Nucleus-field energy     =     0.0000000838 hartrees
 Guess from superposition of atomic densities
 Warning:  Energy on first SCF cycle will be non-variational
 A restricted hybrid HF-DFT SCF calculation will be
 performed using Pulay DIIS extrapolation
 Exchange:     0.2000 Hartree-Fock + 0.0800 Slater + 0.7200 B88
 Correlation:  0.1900 VWN1RPA + 0.8100 LYP
 Using SG-1 standard quadrature grid
 SCF converges when DIIS error is below 1.0E-05
 using 16 threads for integral computing 
 -------------------------------------------------------
 OpenMP BLAS3 based DFT computing Module                
 Release: version 1.0, May 2013, Q-Chem Inc. Pittsburgh 
 -------------------------------------------------------
 ---------------------------------------
  Cycle       Energy         DIIS Error
 ---------------------------------------
    1   -5680.1798939948      2.15E-02
    2   -5662.4965122542      2.16E-03
    3   -5660.8792318270      3.45E-03
    4   -5663.3344477221      8.99E-04
    5   -5663.4919362432      3.08E-04
    6   -5663.5045819570      1.72E-04
    7   -5663.5097119243      7.15E-05
    8   -5663.5106334122      2.59E-05
    9   -5663.5107591460      8.55E-06 Convergence criterion met
 ---------------------------------------
 SCF time:  CPU 904.96 s  wall 78.91 s
 SCF   energy in the final basis set = -5663.5107591460
 Total energy in the final basis set = -5663.5107591460
 
 --------------------------------------------------------------
 
                    Orbital Energies (a.u.)
 --------------------------------------------------------------
 
 Alpha MOs
 -- Occupied --
-88.991 -88.983 -88.930 -88.927 -88.919 -88.917 -88.908 -88.904
-14.390 -14.385 -14.382 -14.369 -14.350 -14.347 -14.346 -14.344
-14.328 -14.324 -10.271 -10.271 -10.265 -10.259 -10.255 -10.252
-10.251 -10.250 -10.247 -10.242 -10.241 -10.239 -10.239 -10.238
-10.235 -10.231 -10.230 -10.229 -10.229 -10.229 -10.229 -10.228
-10.223 -10.222 -10.221 -10.219 -10.218 -10.218 -10.216 -10.216
-10.215 -10.202 -10.199 -10.198 -10.196 -10.195 -10.192 -10.191
-10.190 -10.188 -10.187 -10.186 -10.185 -10.180 -10.178 -10.177
-10.177 -10.177 -10.176 -10.172  -8.046  -8.038  -7.989  -7.989
 -7.980  -7.978  -7.968  -7.962  -6.012  -6.006  -6.004  -6.003
 -5.998  -5.995  -5.953  -5.953  -5.950  -5.950  -5.946  -5.946
 -5.944  -5.942  -5.940  -5.938  -5.936  -5.935  -5.933  -5.929
 -5.926  -5.925  -5.923  -5.918  -1.048  -1.036  -0.966  -0.965
 -0.964  -0.956  -0.949  -0.923  -0.915  -0.914  -0.907  -0.905
 -0.851  -0.835  -0.832  -0.828  -0.810  -0.810  -0.805  -0.805
 -0.801  -0.799  -0.797  -0.788  -0.784  -0.779  -0.769  -0.767
 -0.751  -0.748  -0.745  -0.734  -0.719  -0.718  -0.714  -0.707
 -0.698  -0.689  -0.678  -0.676  -0.658  -0.652  -0.646  -0.641
 -0.637  -0.631  -0.627  -0.616  -0.614  -0.604  -0.600  -0.593
 -0.589  -0.586  -0.585  -0.579  -0.579  -0.578  -0.574  -0.570
 -0.551  -0.549  -0.543  -0.537  -0.526  -0.519  -0.514  -0.509
 -0.507  -0.504  -0.496  -0.494  -0.489  -0.485  -0.481  -0.481
 -0.474  -0.472  -0.470  -0.466  -0.465  -0.459  -0.452  -0.449
 -0.448  -0.443  -0.440  -0.436  -0.435  -0.431  -0.430  -0.427
 -0.426  -0.426  -0.425  -0.422  -0.421  -0.418  -0.416  -0.415
 -0.409  -0.406  -0.405  -0.404  -0.398  -0.397  -0.395  -0.395
 -0.393  -0.393  -0.392  -0.390  -0.386  -0.385  -0.385  -0.378
 -0.376  -0.374  -0.373  -0.370  -0.367  -0.362  -0.358  -0.355
 -0.352  -0.351  -0.351  -0.348  -0.346  -0.344  -0.342  -0.340
 -0.338  -0.337  -0.333  -0.330  -0.329  -0.325  -0.323  -0.320
 -0.319  -0.314  -0.312  -0.308  -0.303  -0.303  -0.298  -0.297
 -0.296  -0.293  -0.291  -0.289  -0.289  -0.286  -0.285  -0.279
 -0.275  -0.265  -0.264  -0.259  -0.254  -0.252  -0.252  -0.245
 -0.241  -0.239  -0.233  -0.225  -0.203  -0.192
 -- Virtual --
 -0.113  -0.111  -0.072  -0.069  -0.037  -0.032  -0.025  -0.022
 -0.016  -0.015  -0.014  -0.009  -0.007  -0.005  -0.001  -0.001
  0.001   0.008   0.020   0.022   0.030   0.031   0.039   0.042
  0.048   0.051   0.060   0.064   0.068   0.082   0.088   0.091
  0.095   0.097   0.103   0.105   0.105   0.106   0.111   0.112
  0.114   0.117   0.118   0.119   0.123   0.124   0.125   0.126
  0.127   0.129   0.133   0.135   0.135   0.138   0.139   0.143
  0.146   0.149   0.149   0.155   0.156   0.157   0.160   0.161
  0.166   0.171   0.174   0.175   0.176   0.178   0.180   0.182
  0.183   0.188   0.188   0.189   0.191   0.196   0.197   0.199
  0.200   0.200   0.203   0.207   0.212   0.214   0.217   0.220
  0.221   0.222   0.225   0.227   0.230   0.235   0.236   0.239
  0.240   0.243   0.245   0.248   0.252   0.254   0.260   0.261
  0.264   0.267   0.268   0.272   0.274   0.275   0.281   0.285
  0.286   0.289   0.294   0.295   0.302   0.304   0.305   0.309
  0.312   0.317   0.319   0.321   0.324   0.325   0.327   0.329
  0.332   0.334   0.335   0.343   0.346   0.348   0.353   0.355
  0.359   0.362   0.366   0.367   0.368   0.370   0.376   0.377
  0.379   0.382   0.385   0.386   0.388   0.391   0.394   0.405
  0.405   0.406   0.410   0.412   0.429   0.431   0.435   0.439
  0.451   0.453   0.458   0.460   0.462   0.464   0.469   0.470
  0.471   0.475   0.476   0.479   0.482   0.489   0.495   0.496
  0.498   0.505   0.507   0.510   0.511   0.513   0.515   0.518
  0.521   0.524   0.526   0.527   0.529   0.530   0.534   0.534
  0.536   0.537   0.539   0.541   0.542   0.542   0.546   0.547
  0.550   0.552   0.554   0.555   0.558   0.559   0.561   0.564
  0.564   0.566   0.570   0.575   0.576   0.577   0.579   0.583
  0.584   0.587   0.592   0.594   0.595   0.597   0.597   0.599
  0.601   0.603   0.606   0.607   0.610   0.613   0.614   0.615
  0.617   0.618   0.620   0.621   0.623   0.624   0.624   0.626
  0.629   0.632   0.635   0.636   0.638   0.639   0.641   0.643
  0.645   0.653   0.655   0.658   0.663   0.665   0.673   0.674
  0.675   0.679   0.681   0.682   0.685   0.687   0.689   0.692
  0.695   0.699   0.701   0.702   0.708   0.712   0.717   0.718
  0.721   0.724   0.730   0.732   0.735   0.739   0.742   0.744
  0.747   0.752   0.755   0.759   0.759   0.764   0.766   0.768
  0.769   0.772   0.774   0.779   0.783   0.784   0.788   0.790
  0.794   0.797   0.799   0.804   0.806   0.808   0.809   0.810
  0.812   0.813   0.814   0.818   0.820   0.822   0.824   0.828
  0.829   0.829   0.830   0.832   0.835   0.835   0.839   0.841
  0.842   0.844   0.846   0.848   0.849   0.851   0.851   0.854
  0.856   0.856   0.858   0.860   0.864   0.866   0.868   0.868
  0.872   0.874   0.876   0.879   0.881   0.883   0.885   0.889
  0.891   0.894   0.896   0.899   0.901   0.902   0.907   0.909
  0.911   0.914   0.915   0.919   0.921   0.922   0.923   0.924
  0.928   0.930   0.933   0.935   0.938   0.941   0.942   0.945
  0.949   0.953   0.953   0.954   0.960   0.960   0.961   0.965
  0.967   0.968   0.972   0.973   0.975   0.975   0.981   0.983
  0.985   0.990   0.993   0.994   0.996   1.002   1.004   1.005
  1.008   1.011   1.014   1.015   1.016   1.020   1.022   1.025
  1.028   1.032   1.035   1.038   1.043   1.044   1.051   1.055
  1.058   1.062   1.065   1.070   1.072   1.075   1.077   1.081
  1.084   1.088   1.091   1.092   1.099   1.106   1.110   1.114
  1.118   1.123   1.123   1.127   1.128   1.137   1.140   1.144
  1.148   1.161   1.162   1.165   1.171   1.173   1.181   1.182
  1.187   1.195   1.197   1.206   1.215   1.218   1.219   1.229
  1.235   1.241   1.244   1.247   1.248   1.256   1.264   1.274
  1.275   1.277   1.282   1.287   1.290   1.299   1.300   1.303
  1.315   1.319   1.321   1.324   1.326   1.330   1.332   1.334
  1.336   1.342   1.345   1.348   1.352   1.356   1.359   1.367
  1.368   1.377   1.387   1.390   1.394   1.395   1.403   1.406
  1.412   1.416   1.421   1.422   1.425   1.428   1.430   1.431
  1.436   1.441   1.446   1.459   1.460   1.469   1.476   1.478
  1.482   1.483   1.487   1.498   1.498   1.503   1.508   1.510
  1.521   1.529   1.535   1.537   1.539   1.540   1.547   1.555
  1.565   1.566   1.573   1.578   1.587   1.591   1.597   1.599
  1.605   1.609   1.619   1.638   1.644   1.649   1.653   1.658
  1.660   1.664   1.666   1.670   1.671   1.675   1.677   1.679
  1.681   1.684   1.688   1.688   1.692   1.692   1.699   1.705
  1.709   1.712   1.722   1.727   1.730   1.732   1.737   1.745
  1.750   1.753   1.755   1.757   1.765   1.768   1.773   1.775
  1.782   1.785   1.789   1.794   1.797   1.805   1.806   1.810
  1.810   1.817   1.817   1.824   1.831   1.841   1.843   1.847
  1.848   1.853   1.853   1.857   1.864   1.868   1.870   1.871
  1.875   1.879   1.885   1.890   1.891   1.892   1.893   1.894
  1.900   1.901   1.909   1.911   1.914   1.922   1.924   1.925
  1.926   1.927   1.929   1.933   1.936   1.945   1.949   1.951
  1.958   1.961   1.963   1.968   1.973   1.981   1.985   1.986
  1.990   1.998   2.000   2.006   2.008   2.021   2.021   2.025
  2.033   2.041   2.042   2.050   2.051   2.052   2.054   2.060
  2.068   2.078   2.081   2.081   2.082   2.085   2.088   2.096
  2.099   2.103   2.110   2.111   2.113   2.116   2.120   2.131
  2.134   2.135   2.141   2.145   2.149   2.150   2.152   2.156
  2.164   2.172   2.179   2.180   2.183   2.186   2.188   2.189
  2.192   2.202   2.205   2.208   2.210   2.223   2.225   2.229
  2.231   2.234   2.238   2.241   2.241   2.245   2.250   2.254
  2.258   2.261   2.263   2.270   2.273   2.276   2.277   2.279
  2.281   2.283   2.290   2.296   2.297   2.305   2.308   2.308
  2.311   2.315   2.319   2.320   2.323   2.330   2.336   2.344
  2.347   2.351   2.353   2.354   2.357   2.364   2.368   2.372
  2.373   2.377   2.379   2.380   2.382   2.386   2.391   2.394
  2.397   2.397   2.399   2.406   2.409   2.410   2.414   2.418
  2.420   2.421   2.426   2.429   2.431   2.434   2.436   2.441
  2.443   2.445   2.447   2.449   2.457   2.460   2.465   2.468
  2.472   2.478   2.482   2.488   2.491   2.493   2.495   2.498
  2.503   2.503   2.506   2.517   2.520   2.524   2.531   2.532
  2.535   2.537   2.541   2.547   2.548   2.549   2.566   2.568
  2.570   2.577   2.580   2.593   2.594   2.598   2.599   2.608
  2.614   2.617   2.623   2.626   2.631   2.634   2.635   2.648
  2.649   2.650   2.657   2.663   2.666   2.675   2.677   2.679
  2.680   2.682   2.684   2.691   2.694   2.697   2.702   2.705
  2.708   2.716   2.718   2.729   2.736   2.741   2.742   2.754
  2.761   2.763   2.765   2.771   2.772   2.782   2.786   2.792
  2.798   2.800   2.804   2.805   2.808   2.816   2.818   2.822
  2.823   2.832   2.850   2.854   2.857   2.858   2.865   2.877
  2.878   2.879   2.885   2.887   2.892   2.898   2.901   2.905
  2.905   2.913   2.914   2.916   2.931   2.932   2.940   2.941
  2.947   2.959   2.969   2.975   2.982   2.998   3.007   3.027
  3.035   3.056   3.058   3.063   3.066   3.086   3.093   3.100
  3.167   3.169   3.172   3.200   3.204   3.212   3.222   3.231
  3.233   3.238   3.241   3.257   3.260   3.260   3.266   3.269
  3.279   3.297   3.303   3.305   3.316   3.328   3.330   3.336
  3.341   3.354   3.371   3.398   3.409   3.415   3.428   3.436
  3.445   3.455   3.470   3.474   3.478   3.509   3.530   3.538
  3.546   3.558   3.568   3.570   3.571   3.579   3.580   3.582
  3.630   3.633   3.716   3.738   3.851   3.862   3.906   3.917
  3.941   3.946   3.949   3.959   3.967   3.985   4.000   4.004
  4.012   4.015   4.074   4.085   4.089   4.096   4.108   4.112
  4.120   4.126   4.137   4.151   4.159   4.163   4.178   4.195
  4.209   4.214   4.237   4.244   4.254   4.264   4.266   4.272
  4.274   4.297   4.310   4.342   4.367   4.385   4.389   4.391
  4.417   4.422   4.451   4.458   4.466   4.475   4.479   4.485
  4.488   4.502   4.522   4.556   4.572   4.576   4.639   4.662
  4.684   4.689   4.706   4.723   4.742   4.769   4.796   4.811
 --------------------------------------------------------------
 
          Ground-State Mulliken Net Atomic Charges

     Atom                 Charge (a.u.)
  ----------------------------------------
      1 C                     0.266459
      2 C                    -0.124989
      3 N                    -0.480515
      4 C                    -0.090660
      5 C                     0.093668
      6 C                     0.039633
      7 C                     0.015850
      8 C                     0.063016
      9 C                     0.272903
     10 N                    -0.539596
     11 N                    -0.573844
     12 C                     0.165225
     13 C                     0.332528
     14 S                     0.608356
     15 N                    -0.544417
     16 C                    -0.214147
     17 S                     0.302134
     18 C                    -0.111074
     19 C                    -0.214209
     20 S                     0.289677
     21 C                     0.129383
     22 C                     0.037260
     23 C                    -0.314526
     24 C                    -0.033023
     25 N                    -0.400978
     26 S                     0.272898
     27 C                     0.112083
     28 C                    -0.309550
     29 C                    -0.245960
     30 H                     0.091954
     31 H                     0.094443
     32 H                     0.110837
     33 H                     0.120041
     34 H                     0.120862
     35 H                     0.123038
     36 H                     0.117706
     37 H                     0.141217
     38 H                     0.119312
     39 C                    -0.183555
     40 H                     0.131928
     41 H                     0.095353
     42 H                     0.106874
     43 C                    -0.188994
     44 H                     0.098649
     45 C                    -0.171769
     46 H                     0.100938
     47 H                     0.097998
     48 H                     0.099725
     49 C                    -0.182398
     50 H                     0.093921
     51 C                    -0.327198
     52 H                     0.096985
     53 H                     0.102086
     54 H                     0.104547
     55 H                     0.099286
     56 C                     0.233201
     57 C                    -0.115475
     58 N                    -0.477714
     59 C                    -0.069347
     60 C                     0.060499
     61 C                     0.050381
     62 C                    -0.002714
     63 C                     0.076338
     64 C                     0.250440
     65 N                    -0.524234
     66 N                    -0.552092
     67 C                     0.209387
     68 C                     0.330400
     69 S                     0.578278
     70 N                    -0.567303
     71 C                    -0.222409
     72 S                     0.334232
     73 C                    -0.142638
     74 C                    -0.264727
     75 S                     0.269508
     76 C                     0.205141
     77 C                     0.054310
     78 C                    -0.311674
     79 C                    -0.043012
     80 N                    -0.425977
     81 S                     0.276240
     82 C                     0.109836
     83 C                    -0.296732
     84 C                    -0.238078
     85 H                     0.098191
     86 H                     0.127228
     87 H                     0.092258
     88 H                     0.121946
     89 H                     0.121072
     90 H                     0.120811
     91 H                     0.117122
     92 H                     0.133989
     93 H                     0.107386
     94 C                    -0.170930
     95 H                     0.122833
     96 H                     0.103504
     97 H                     0.110598
     98 C                    -0.185943
     99 H                     0.091494
    100 C                    -0.182916
    101 H                     0.092551
    102 H                     0.084867
    103 H                     0.091853
    104 C                    -0.176271
    105 H                     0.090413
    106 C                    -0.312659
    107 H                     0.094161
    108 H                     0.102560
    109 H                     0.101896
    110 H                     0.100551
  ----------------------------------------
  Sum of atomic charges =     0.000000

 -----------------------------------------------------------------
                    Cartesian Multipole Moments
 -----------------------------------------------------------------
    Charge (ESU x 10^10)
                 0.0000
    Dipole Moment (Debye)
         X      -0.0910      Y      -0.8991      Z      -3.3640
       Tot       3.4833
    Quadrupole Moments (Debye-Ang)
        XX    -424.6538     XY       5.5055     YY    -414.8053
        XZ      47.0175     YZ      -6.5242     ZZ    -434.9926
    Octopole Moments (Debye-Ang^2)
       XXX      -1.9712    XXY    -203.4531    XYY     -17.4195
       YYY    -193.9792    XXZ      84.4019    XYZ    -116.8961
       YYZ     -59.2797    XZZ       4.1337    YZZ     -74.9165
       ZZZ     -67.9048
    Hexadecapole Moments (Debye-Ang^3)
      XXXX  -87526.2936   XXXY    -167.0239   XXYY  -18995.3298
      XYYY     842.9027   YYYY  -36585.8475   XXXZ    4223.7482
      XXYZ     -46.6437   XYYZ     921.5669   YYYZ     366.5047
      XXZZ  -17030.2774   XYZZ     209.2495   YYZZ   -8951.1305
      XZZZ     763.9565   YZZZ    -374.7586   ZZZZ  -17219.9137
 -----------------------------------------------------------------
Archival summary:
1\1\mn426\SP\ProcedureUnspecified\6-31G**\8105042\afmv_a\SunOct704:29:422018SunOct704:29:422018\0\\#,ProcedureUnspecified,6-31G**,\\0,1\S\C,1,1.71853\C,2,1.33885,1,112.562\C,3,1.41299,2,111.808,1,0.127127,0\C,4,1.38019,3,114.876,2,0.840302,0\C,2,1.43663,1,122.084,3,-179.554,0\N,6,1.33389,2,113.312,1,-156.786,0\C,7,1.41953,6,107.526,2,161.162,0\H,8,1.08221,7,119.191,6,171.319,0\C,8,1.35449,7,114.622,6,0.364679,0\H,10,1.08296,8,124.402,7,174.119,0\C,3,1.44386,2,140.195,1,-179.809,0\H,12,1.08363,3,118.19,2,2.8579,0\C,12,1.3645,3,113.737,2,178.816,0\H,14,1.08148,12,125.577,3,172.639,0\C,5,1.48534,4,124.888,3,178.252,0\N,16,1.31003,5,120.789,4,-8.48564,0\C,17,1.32401,16,121.89,5,-170.348,0\H,18,1.08947,17,116.752,16,-175.537,0\C,18,1.43718,17,121,16,1.48694,0\C,20,1.41821,18,118.375,17,-4.19523,0\N,21,1.32916,20,125.537,18,-170.384,0\C,21,1.3908,20,118.562,18,-0.348468,0\N,23,1.32034,21,116.074,20,175.602,0\C,20,1.45411,18,117.64,17,170.792,0\C,25,1.39919,20,124.715,18,-134.689,0\H,26,1.08596,25,113.821,20,-12.067,0\C,26,1.39013,25,121.562,20,179.978,0\H,28,1.08638,26,111.05,25,-178.787,0\C,28,1.39088,26,119.728,25,-7.34175,0\N,30,1.37559,28,121.201,26,2.0372,0\C,31,1.35177,30,117.243,28,4.564,0\H,32,1.08943,31,116.382,30,175.214,0\C,30,1.53127,28,122.502,26,-178.239,0\H,34,1.09706,30,113.279,28,-60.9591,0\H,34,1.09729,30,101.038,28,-168.909,0\C,34,1.50822,30,109.381,28,74.5205,0\H,37,1.09592,34,112.187,30,-48.9322,0\H,37,1.09725,34,111.108,30,76.5266,0\C,37,1.52796,34,105.861,30,-163.11,0\H,40,1.09637,37,109.179,34,-52.1044,0\H,40,1.09727,37,104.956,34,63.0009,0\C,40,1.6049,37,113.581,34,-175.368,0\H,43,1.09686,40,111.48,37,67.3728,0\H,43,1.09695,40,103.797,37,-50.0995,0\C,43,1.58294,40,116.763,37,-172.348,0\H,46,1.09696,43,110.388,40,-57.8731,0\H,46,1.09726,43,105.949,40,55.5429,0\C,46,1.49227,43,113.808,40,173.719,0\H,49,1.09682,46,105.389,43,179.029,0\H,49,1.09735,46,112.596,43,73.6871,0\H,49,1.09745,46,114.31,43,-55.7602,0\S,22,1.67071,21,104.092,20,176.45,0\S,10,1.73228,8,112.002,7,-11.5382,0\S,4,1.78501,3,118.039,2,175.297,0\H,27,2.39928,26,152.942,25,-142.816,0\C,56,1.09696,27,129.088,26,-158.157,0\H,57,1.097,56,104.261,27,-47.8446,0\C,57,1.55733,56,101.95,27,61.6786,0\N,59,1.31951,57,115.482,56,-29.1318,0\C,60,1.32927,59,122.694,57,173.016,0\H,61,1.08855,60,115.661,59,171.773,0\C,59,1.40183,57,125.646,56,145.903,0\H,63,1.08574,59,119.649,57,12.5555,0\C,63,1.40113,59,118.626,57,-171.796,0\H,65,1.08583,63,115.22,59,179.223,0\C,65,1.42284,63,123.788,59,1.32868,0\C,67,1.47662,65,126.644,63,-178.15,0\C,68,1.40765,67,126.424,65,-138.719,0\N,69,1.30386,68,125.372,67,-3.54048,0\C,69,1.39397,68,122.952,67,-177.643,0\N,71,1.36504,69,112.877,68,179.559,0\C,68,1.42352,67,119.436,65,41.2738,0\H,73,1.08918,68,122.95,67,-7.55656,0\N,73,1.3662,68,122.386,67,176.98,0\C,75,1.34147,73,123.451,68,-1.47394,0\C,76,1.49962,75,116.869,73,-171.522,0\C,77,1.36629,76,123.894,75,18.255,0\C,78,1.44435,77,114.52,76,152.199,0\C,79,1.39489,78,115.273,77,6.50921,0\C,80,1.4169,79,128.553,78,-165.044,0\N,81,1.3142,80,120.817,79,-49.7856,0\C,82,1.3832,81,111.39,80,176.967,0\H,83,1.0816,82,111.434,81,173.673,0\C,83,1.42408,82,115.527,81,0.621556,0\H,85,1.08173,83,129.217,82,172.384,0\C,79,1.44961,78,110.102,77,-167.741,0\H,87,1.08465,79,123.124,78,-172.903,0\C,87,1.32369,79,110.745,78,2.89198,0\H,89,1.08177,87,125.039,79,-173.594,0\S,72,1.58292,71,108.06,69,4.64902,0\C,57,1.59373,56,101.14,27,-171.53,0\H,92,1.09639,57,104.178,56,-60.1438,0\H,92,1.09789,57,104.613,56,-177.759,0\C,92,1.52833,57,114.034,56,62.6122,0\H,95,1.09673,92,109.464,57,-58.0709,0\H,95,1.09728,92,114.354,57,61.9618,0\C,95,1.57656,92,110.879,57,-176.344,0\H,98,1.09702,95,107.978,92,-87.0798,0\H,98,1.09703,95,106.452,92,37.1382,0\C,98,1.55706,95,112.837,92,148.517,0\H,101,1.09699,98,114.994,95,53.5407,0\H,101,1.09701,98,109.204,95,-57.1641,0\C,101,1.56442,98,111.464,95,-179.811,0\H,104,1.09619,101,116.282,98,-68.5889,0\H,104,1.09726,101,112.692,98,44.0033,0\H,104,1.09746,101,114.264,98,161.206,0\S,78,1.69901,77,129.15,76,-12.8187,0\S,80,1.70488,79,106.835,78,-0.098618,0\S,85,1.78932,83,109.359,82,-4.82014,0\\\@

 Total job time:  82.58s(wall), 915.42s(cpu) 
 Sun Oct  7 04:29:42 2018

        *************************************************************
        *                                                           *
        *  Thank you very much for using Q-Chem.  Have a nice day.  *
        *                                                           *
        *************************************************************


