
Running Job 1 of 1 ./6/44.qcin
qchem ./6/44.qcin_21790.0 /tmpu/cab_g/afmv_a/scratch_qchem/qchem21790/ 1
/tmpu/appuserlic/qchem4.4/serial-multicore/exe/qcprog.exe_s ./6/44.qcin_21790.0 /tmpu/cab_g/afmv_a/scratch_qchem/qchem21790/
Check license passed

                  Welcome to Q-Chem
     A Quantum Leap Into The Future Of Chemistry


 Q-Chem 4.4, Q-Chem, Inc., Pleasanton, CA (2016)

 Y. Shao,  Z. Gan,  E. Epifanovsky,  A. T. B. Gilbert,  M. Wormit,  
 J. Kussmann,  A. W. Lange,  A. Behn,  J. Deng,  X. Feng,  D. Ghosh,  
 M. Goldey,  P. R. Horn,  L. D. Jacobson,  I. Kaliman,  F. Rob,  
 R. Z. Khaliullin,  T. Kus,  A. Landau,  J. Liu,  E. I. Proynov,  Y. M. Rhee,  
 R. M. Richard,  M. A. Rohrdanz,  R. P. Steele,  E. J. Sundstrom,  
 H. L. Woodcock III,  P. M. Zimmerman,  D. Zuev,  B. Albrecht,  E. Alguire,  
 B. Austin,  S. A. Baeppler,  G. J. O. Beran,  Y. A. Bernard,  E. Berquist,  
 K. Brandhorst,  K. B. Bravaya,  S. T. Brown,  D. Casanova,  C.-M. Chang,  
 Y. Chen,  S. H. Chien,  K. D. Closser,  M. P. Coons,  D. L. Crittenden,  
 S. Dasgupta,  M. Diedenhofen,  R. A. DiStasio Jr.,  H. Do,  A. D. Dutoi,  
 R. G. Edgar,  P.-T. Fang,  S. Fatehi,  Q. Feng,  L. Fusti-Molnar,  
 A. Ghysels,  A. Golubeva-Zadorozhnaya,  J. Gomes,  A. Gunina,  
 M. W. D. Hanson-Heine,  P. H. P. Harbach,  A. W. Hauser,  J. E. Herr,  
 E. G. Hohenstein,  Z. C. Holden,  K. Hui,  T.-C. Jagau,  H. Ji,  B. Kaduk,  
 K. Khistyaev,  Jaehoon Kim,  Jihan Kim,  R. A. King,  P. Klunzinger,  
 K. Koh,  D. Kosenkov,  T. Kowalczyk,  C. M. Krauter,  A. Kunitsa,  
 K. U. Lao,  A. Laurent,  K. V. Lawler,  J. Lee,  D. Lefrancois,  S. Lehtola,  
 S. V. Levchenko,  C. Y. Lin,  Y.-S. Lin,  F. Liu,  E. Livshits,  
 R. C. Lochan,  A. Luenser,  P. Manohar,  S. F. Manzer,  S.-P. Mao,  Y. Mao,  
 N. Mardirossian,  A. V. Marenich,  L. A. Martinez-Martinez,  S. A. Maurer,  
 N. J. Mayhall,  J.-M. Mewes,  A. F. Morrison,  K. Nanda,  T. S. Nguyen-Beck,  
 C. M. Oana,  R. Olivares-Amaya,  D. P. O'Neill,  J. A. Parkhill,  
 T. M. Perrine,  R. Peverati,  P. A. Pieniazek,  F. Plasser,  A. Prociuk,  
 D. R. Rehn,  E. Rosta,  N. J. Russ,  N. Sergueev,  S. M. Sharada,  
 S. Sharma,  D. W. Small,  A. Sodt,  T. Stauch,  T. Stein,  D. Stuck,  
 Y.-C. Su,  A. J. W. Thom,  T. Tsuchimochi,  L. Vogt,  O. Vydrov,  T. Wang,  
 M. A. Watson,  J. Wenzel,  A. White,  C. F. Williams,  V. Vanovschi,  
 K. Yao,  S. Yeganeh,  S. R. Yost,  Z.-Q. You,  I. Y. Zhang,  X. Zhang,  
 Y. Zhao,  B. R. Brooks,  G. K. L. Chan,  D. M. Chipman,  C. J. Cramer,  
 W. A. Goddard III,  M. S. Gordon,  W. J. Hehre,  A. Klamt,  
 H. F. Schaefer III,  M. W. Schmidt,  C. D. Sherrill,  D. G. Truhlar,  
 A. Warshel,  X. Xu,  A. Aspuru-Guzik,  R. Baer,  A. T. Bell,  N. A. Besley,  
 J.-D. Chai,  A. Dreuw,  B. D. Dunietz,  T. R. Furlani,  S. R. Gwaltney,  
 C.-P. Hsu,  Y. Jung,  J. Kong,  D. S. Lambrecht,  W. Liang,  C. Ochsenfeld,  
 V. A. Rassolov,  L. V. Slipchenko,  J. E. Subotnik,  T. Van Voorhis,  
 J. M. Herbert,  A. I. Krylov,  P. M. W. Gill,  M. Head-Gordon

 Contributors to earlier versions of Q-Chem not listed above: 
 R. D. Adamson,  J. Baker,  E. F. C. Byrd,  A. K. Chakraborty,  C.-L. Cheng,  
 H. Dachsel,  R. J. Doerksen,  G. Hawkins,  A. Heyden,  S. Hirata,  
 G. Kedziora,  F. J. Keil,  C. Kelley,  P. P. Korambath,  W. Kurlancheek,  
 A. M. Lee,  M. S. Lee,  D. Liotard,  I. Lotan,  P. E. Maslen,  N. Nair,  
 D. Neuhauser,  R. Olson,  B. Peters,  J. Ritchie,  N. E. Schultz,  
 N. Shenvi,  A. C. Simmonett,  K. S. Thanthiriwatte,  Q. Wu,  W. Zhang

 Please cite Q-Chem as follows:
 Y. Shao et al., Mol. Phys. 113, 184-215 (2015)
 DOI: 10.1080/00268976.2014.952696

 Q-Chem 4.4.2 for Intel X86 Linux

 Parts of Q-Chem use Armadillo 5.200.1 (Boston Tea Smuggler).
 http://arma.sourceforge.net/

 Q-Chem begins on Sun Oct  7 04:31:45 2018  

Host: 
0

     Scratch files written to /tmpu/cab_g/afmv_a/scratch_qchem/qchem21790//
 Dec716 11556_ 22328  22283 4050   
Processing $rem in /tmpu/appuserlic/qchem4.4/serial-multicore/config/preferences.
 MEM_TOTAL  2000 
FILE_GEOM_ORG=        593

Checking the input file for inconsistencies... 	...done.

--------------------------------------------------------------
User input:
--------------------------------------------------------------
$comment
SP
$end

$rem
MEM_STATIC 5000
MEM_TOTAL 20000
JOBTYPE SP
EXCHANGE B3LYP
BASIS 6-31g(d,p)
$end

$molecule
0 1
C           2.875000    -31.196000      0.969000
C           2.037000    -30.609000      1.979000
N           4.020000    -30.645000      0.580000
C           2.375000    -29.378000      2.513000
C           4.323000    -29.439000      1.054000
C           3.558000    -28.740000      2.006000
C           3.881000    -27.328000      2.493000
C           2.882000    -26.329000      2.681000
C           5.196000    -26.868000      2.760000
N           3.098000    -25.102000      3.131000
N           6.280000    -27.603000      2.607000
C           5.432000    -25.572000      3.209000
C           4.380000    -24.697000      3.445000
S           7.518000    -26.626000      3.033000
N           6.686000    -25.378000      3.560000
C           4.608000    -23.309000      3.999000
S           6.197000    -22.524000      4.381000
C           3.543000    -22.401000      4.252000
C           5.378000    -21.172000      5.112000
S           1.809000    -22.474000      4.066000
C           4.029000    -21.235000      4.864000
C           6.103000    -20.124000      5.766000
C           1.762000    -20.856000      4.870000
C           2.993000    -20.349000      5.249000
N           7.361000    -19.999000      5.608000
S           5.372000    -18.896000      6.692000
C           7.862000    -18.881000      6.204000
C           6.912000    -18.093000      6.746000
C           2.453000    -32.440000      0.268000
H           1.083000    -31.034000      2.276000
H           1.798000    -28.921000      3.312000
H           5.235000    -29.020000      0.632000
H           1.856000    -26.603000      2.442000
H           0.810000    -20.355000      4.985000
H           3.020000    -19.377000      5.728000
H           8.910000    -18.714000      5.993000
H           7.027000    -17.041000      6.968000
H           1.359000    -32.485000      0.196000
C           3.139000    -33.723000      0.723000
H           2.741000    -32.281000     -0.779000
H           2.833000    -33.775000      1.776000
H           4.235000    -33.760000      0.716000
C           2.594000    -34.955000      0.018000
H           1.501000    -34.930000      0.113000
C           3.076000    -36.239000      0.661000
H           2.711000    -34.894000     -1.071000
H           2.831000    -36.275000      1.730000
H           4.165000    -36.141000      0.750000
C           2.677000    -37.503000     -0.118000
H           1.631000    -37.450000     -0.443000
C           2.917000    -38.794000      0.674000
H           3.313000    -37.502000     -1.012000
H           3.895000    -38.857000      1.167000
H           2.821000    -39.697000      0.058000
H           2.239000    -38.919000      1.527000
C          -4.957000    -15.347000      7.093000
C          -4.911000    -16.397000      6.182000
N          -4.174000    -15.350000      8.224000
C          -4.030000    -17.452000      6.390000
C          -3.432000    -16.455000      8.460000
C          -3.290000    -17.566000      7.572000
C          -2.351000    -18.638000      7.861000
C          -1.077000    -18.276000      8.419000
C          -2.578000    -19.997000      7.525000
N          -0.107000    -19.169000      8.540000
N          -3.748000    -20.521000      7.174000
C          -1.562000    -20.918000      7.757000
C          -0.270000    -20.420000      8.187000
S          -3.427000    -22.151000      6.997000
N          -1.791000    -22.151000      7.344000
C           0.886000    -21.351000      8.131000
S           0.888000    -22.963000      7.484000
C           2.156000    -21.061000      8.587000
C           2.563000    -23.165000      7.811000
S           2.729000    -19.500000      9.236000
C           3.106000    -22.089000      8.394000
C           3.263000    -24.377000      7.487000
C           4.326000    -20.372000      9.441000
C           4.375000    -21.625000      8.903000
N           4.578000    -24.205000      7.344000
S           2.533000    -25.649000      6.538000
C           5.078000    -25.317000      6.617000
C           4.142000    -26.234000      6.274000
C          -5.874000    -14.135000      6.906000
H          -5.377000    -16.465000      5.203000
H          -4.008000    -18.344000      5.771000
H          -2.880000    -16.476000      9.399000
H          -0.876000    -17.278000      8.807000
H           5.179000    -19.796000      9.773000
H           5.216000    -22.308000      8.881000
H           6.148000    -25.443000      6.515000
H           4.360000    -27.183000      5.800000
H          -6.939000    -14.397000      6.880000
C          -5.311000    -13.243000      5.828000
H          -5.788000    -13.653000      7.888000
H          -5.046000    -13.803000      4.924000
H          -4.460000    -12.660000      6.202000
C          -6.456000    -12.323000      5.407000
H          -7.220000    -12.993000      4.993000
C          -6.023000    -11.207000      4.338000
H          -6.881000    -11.846000      6.298000
H          -5.500000    -11.778000      3.561000
H          -5.332000    -10.477000      4.777000
C          -7.184000    -10.334000      3.709000
H          -7.895000    -11.047000      3.273000
C          -6.729000     -9.422000      2.619000
H          -7.743000     -9.816000      4.498000
H          -6.209000     -9.927000      1.795000
H          -6.164000     -8.561000      2.998000
H          -7.627000     -8.879000      2.300000
$end

--------------------------------------------------------------
 ----------------------------------------------------------------
             Standard Nuclear Orientation (Angstroms)
    I     Atom           X                Y                Z
 ----------------------------------------------------------------
    1      C      -8.9411710160    -2.9855566070     1.1125274744
    2      C      -7.8313203757    -3.2132156166     0.2274761022
    3      N      -9.0224628546    -1.9169760646     1.8983227794
    4      C      -6.7554976364    -2.3431654876     0.2469493283
    5      C      -7.9692573211    -1.1056185198     1.9564436775
    6      C      -6.8053899547    -1.2512534757     1.1790549633
    7      C      -5.5762668430    -0.3516726315     1.3025567079
    8      C      -4.2440619852    -0.8577168175     1.2802969070
    9      C      -5.6432125209     1.0524143791     1.4927459371
   10      N      -3.1428550830    -0.1247857614     1.3498700744
   11      N      -6.7696554913     1.7302843110     1.5942771628
   12      C      -4.4898537970     1.8249800275     1.5918366686
   13      C      -3.2328695555     1.2475834704     1.4708869592
   14      S      -6.3115803663     3.2838293784     1.8071477885
   15      N      -4.7444280261     3.1166847836     1.5984536894
   16      C      -1.9692712790     2.0767902154     1.5052318243
   17      S      -1.8341786788     3.8664161982     1.7622509501
   18      C      -0.6737611365     1.5039747873     1.3778192816
   19      C      -0.1301280111     3.8106762232     1.4071025625
   20      S      -0.0756192511    -0.1219417268     1.1649747981
   21      C       0.3039795652     2.5101340687     1.3335178062
   22      C       0.6568283881     5.0051081379     1.3317565146
   23      C       1.5646711037     0.6180485708     0.9964194325
   24      C       1.6012659616     1.9990130582     1.0838774281
   25      N       0.2130195907     6.1124687312     1.7789022040
   26      S       2.2647199650     5.0512564945     0.7728504347
   27      C       1.1384981337     7.1113300466     1.7352382706
   28      C       2.3537849289     6.6963026822     1.3253135308
   29      C     -10.0357537008    -3.9888521605     1.2234679029
   30      H      -7.7404301156    -4.1014155525    -0.3904153402
   31      H      -5.9190950967    -2.4492200218    -0.4381508304
   32      H      -8.0794452553    -0.2973925684     2.6775667119
   33      H      -4.1249474597    -1.9359261869     1.1900235140
   34      H       2.4222574975    -0.0300229460     0.8736233153
   35      H       2.5630861769     2.4913704589     0.9976216255
   36      H       0.8041566614     8.0281980461     2.2024457742
   37      H       3.2857369866     7.2089455213     1.5199302868
   38      H      -9.6461344617    -4.9995562077     1.0481990309
   39      C     -11.3288997955    -3.6430523603     0.4941492649
   40      H     -10.2751540783    -4.0225500590     2.2939752176
   41      H     -10.9867108582    -3.5890180107    -0.5475493577
   42      H     -11.8110390465    -2.6826454572     0.7127683929
   43      C     -12.3636786547    -4.7531667911     0.5877049329
   44      H     -11.8713391149    -5.6861108547     0.2851885669
   45      C     -13.5274156383    -4.5278769966    -0.3553696886
   46      H     -12.6297106185    -4.9840911141     1.6265658241
   47      H     -13.1921167221    -4.4092489771    -1.3934371381
   48      H     -13.8642204450    -3.4990503128    -0.1778191976
   49      C     -14.6684213567    -5.5425444408    -0.1756645740
   50      H     -14.2755228048    -6.5614441890    -0.0755444909
   51      C     -15.7022196378    -5.4861810810    -1.3068715779
   52      H     -15.1505668219    -5.2677606512     0.7707827934
   53      H     -16.0341814025    -4.4762626712    -1.5777372130
   54      H     -16.6094556318    -6.0623240299    -1.0853695381
   55      H     -15.3220008845    -5.8515133707    -2.2685804828
   56      C       9.7016767526    -2.8622496302    -0.4570022205
   57      C       8.5337381230    -3.4554176098     0.0105532364
   58      N       9.6612987733    -1.7987182003    -1.3285121266
   59      C       7.2994198140    -2.9433649378    -0.3724746650
   60      C       8.4468793345    -1.4172191380    -1.7834065012
   61      C       7.1918957871    -1.9371389080    -1.3387395151
   62      C       5.9391641326    -1.3526027585    -1.7897460469
   63      C       5.8755615997     0.0782768480    -1.9081617110
   64      C       4.7550198122    -2.1006214484    -2.0124033347
   65      N       4.7253788765     0.6932083927    -2.1360408427
   66      N       4.6855590121    -3.4236910666    -2.1188879948
   67      C       3.5891577325    -1.4176445869    -2.3419928034
   68      C       3.6056496579     0.0312744512    -2.2916973042
   69      S       3.0792291150    -3.7197490166    -2.4700630961
   70      N       2.4972298884    -2.1520169390    -2.4501123292
   71      C       2.3019211486     0.7417574361    -2.3333974525
   72      S       0.7244692294     0.0147984569    -2.3151468299
   73      C       2.1512898106     2.1127299618    -2.3851713221
   74      C      -0.0557948416     1.5457772367    -2.3406410468
   75      S       3.4494787235     3.3352467062    -2.3051128677
   76      C       0.8124033181     2.5642544473    -2.3787215816
   77      C      -1.4867372522     1.6732104429    -2.3314434657
   78      C       2.0824541398     4.5418135302    -2.4732148812
   79      C       0.8281613741     4.0075158967    -2.4172711898
   80      N      -1.9088361001     2.8512453597    -1.8695730321
   81      S      -2.5419188497     0.3062921411    -2.0676042102
   82      C      -3.2708251483     2.7017623809    -1.4984751051
   83      C      -3.7789336229     1.4630669893    -1.7036421220
   84      C      11.0937780485    -3.3490183333    -0.0447981305
   85      H       8.4201675239    -4.2103976001     0.7834231694
   86      H       6.3528681161    -3.4120222277    -0.1200677953
   87      H       8.4371885158    -0.6273941362    -2.5337054780
   88      H       6.7663875633     0.7040848068    -1.8664184323
   89      H       2.3223746592     5.5935287089    -2.3961283885
   90      H      -0.1206303100     4.5286715884    -2.4667189937
   91      H      -3.8441796586     3.5795150111    -1.2301564034
   92      H      -4.8194403067     1.1975866994    -1.5634028381
   93      H      11.2925215701    -4.3886997491    -0.3330836943
   94      C      11.3777539767    -2.9126969359     1.3707223781
   95      H      11.7268441660    -2.7979069912    -0.7515849296
   96      H      10.5522316963    -3.1513669555     2.0508625007
   97      H      11.6351185614    -1.8468356900     1.4115791404
   98      C      12.5482910788    -3.7722400962     1.8457954757
   99      H      12.1690121941    -4.8017243373     1.8284252406
  100      C      13.0842900780    -3.3765946872     3.3058899190
  101      H      13.3630919630    -3.7067522077     1.1151479167
  102      H      12.1753660698    -3.3480331644     3.9193557996
  103      H      13.5523151850    -2.3845998470     3.3067479503
  104      C      14.1681968059    -4.3331932251     3.9506817013
  105      H      13.7240181714    -5.3365319241     3.9490096543
  106      C      14.5108731193    -3.9903861051     5.3620375114
  107      H      15.0482993216    -4.4068930205     3.3000559241
  108      H      13.6493871542    -3.9585831802     6.0411777811
  109      H      15.1304226378    -3.0878653674     5.4382064826
  110      H      15.2749545393    -4.7182476070     5.6610545970
 ----------------------------------------------------------------
 Molecular Point Group                 C1    NOp =  1
 Largest Abelian Subgroup              C1    NOp =  1
 Nuclear Repulsion Energy = 11810.6182927885 hartrees
 There are      270 alpha and      270 beta electrons
 Requested basis set is 6-31G(d,p)
 There are 406 shells and 1262 basis functions

 Total QAlloc Memory Limit  20000 MB
 Mega-Array Size      4888 MB
 MEM_STATIC part      5000 MB
 A cutoff of  1.0D-08 yielded  14427 shell pairs
 There are    156265 function pairs
 
 -------------------------------------------------------
 OpenMP Integral Computing Module                       
 Release: version 1.0, May 2013, Q-Chem Inc. Pittsburgh 
 -------------------------------------------------------
 Integral Job Info:
 Integral job number is                      11
 Integral operator is                         1
 short-range coefficients                     0
 long-range coefficients              100000000
 Omega coefficients                           0
 if combine SR and LR in K                    0
 Integral screening is                        0
 Integral computing path is                   2
 max size of driver memory is            800000
 size of driver memory is                593474
 size of scratch memory is             15166112
 max col of scratch BK array               1296
 max len of scratch array in speh3          155
 max len of scratch index in speh4           18
 max int batch size is                      520
 min int batch size is                       52
 fixed nKL is                                52
 max L of basis functions is                  2
 order of int derivative is                   0
 number of shells is                        406
 number of basis is                        1262
 number of cartesian basis is              1262
 number of contracted shell pairs         14427
 number of primitive shell pairs          46251
 maxK2 (contraction) of shell pair           36
 max number of K2 of shell pair               1
 max number of CS2 of shell pair           1662
 max number of PS2 of shell pair           9270
 mem total for path MDJ                  351928
 -------------------------------------------------------
 Smallest overlap matrix eigenvalue = 3.95E-04

 Scale SEOQF with 1.000000e-02/1.000000e-02/1.000000e-02

 Standard Electronic Orientation quadrupole field applied
 Nucleus-field energy     =     0.0000001121 hartrees
 Guess from superposition of atomic densities
 Warning:  Energy on first SCF cycle will be non-variational
 A restricted hybrid HF-DFT SCF calculation will be
 performed using Pulay DIIS extrapolation
 Exchange:     0.2000 Hartree-Fock + 0.0800 Slater + 0.7200 B88
 Correlation:  0.1900 VWN1RPA + 0.8100 LYP
 Using SG-1 standard quadrature grid
 SCF converges when DIIS error is below 1.0E-05
 using 16 threads for integral computing 
 -------------------------------------------------------
 OpenMP BLAS3 based DFT computing Module                
 Release: version 1.0, May 2013, Q-Chem Inc. Pittsburgh 
 -------------------------------------------------------
 ---------------------------------------
  Cycle       Energy         DIIS Error
 ---------------------------------------
    1   -5680.6309391602      2.17E-02
    2   -5662.4827956777      2.18E-03
    3   -5660.3399333148      3.63E-03
    4   -5663.0435794418      1.37E-03
    5   -5663.4789245478      4.18E-04
    6   -5663.4938099582      3.39E-04
    7   -5663.5158965967      1.18E-04
    8   -5663.5183648437      4.34E-05
    9   -5663.5186861250      1.88E-05
   10   -5663.5187560238      5.63E-06 Convergence criterion met
 ---------------------------------------
 SCF time:  CPU 1205.31 s  wall 109.24 s
 SCF   energy in the final basis set = -5663.5187560238
 Total energy in the final basis set = -5663.5187560238
 
 --------------------------------------------------------------
 
                    Orbital Energies (a.u.)
 --------------------------------------------------------------
 
 Alpha MOs
 -- Occupied --
-88.988 -88.987 -88.926 -88.921 -88.919 -88.918 -88.914 -88.909
-14.396 -14.390 -14.381 -14.375 -14.349 -14.349 -14.345 -14.333
-14.329 -14.327 -10.265 -10.264 -10.263 -10.257 -10.256 -10.256
-10.249 -10.246 -10.246 -10.244 -10.239 -10.234 -10.233 -10.232
-10.232 -10.231 -10.231 -10.227 -10.227 -10.227 -10.227 -10.226
-10.225 -10.223 -10.223 -10.222 -10.221 -10.221 -10.219 -10.214
-10.210 -10.207 -10.204 -10.201 -10.201 -10.201 -10.197 -10.195
-10.183 -10.182 -10.182 -10.181 -10.180 -10.180 -10.180 -10.178
-10.175 -10.175 -10.172 -10.172  -8.044  -8.043  -7.987  -7.981
 -7.979  -7.979  -7.973  -7.967  -6.009  -6.009  -6.003  -6.003
 -6.001  -6.001  -5.951  -5.948  -5.945  -5.944  -5.944  -5.943
 -5.941  -5.940  -5.939  -5.938  -5.937  -5.936  -5.935  -5.934
 -5.931  -5.929  -5.928  -5.923  -1.056  -1.042  -0.984  -0.971
 -0.964  -0.953  -0.945  -0.932  -0.919  -0.916  -0.911  -0.906
 -0.840  -0.838  -0.836  -0.827  -0.813  -0.811  -0.810  -0.809
 -0.806  -0.805  -0.795  -0.795  -0.786  -0.782  -0.771  -0.769
 -0.751  -0.751  -0.743  -0.738  -0.722  -0.720  -0.713  -0.711
 -0.695  -0.692  -0.680  -0.677  -0.657  -0.655  -0.648  -0.644
 -0.634  -0.634  -0.624  -0.623  -0.610  -0.609  -0.604  -0.594
 -0.593  -0.585  -0.583  -0.582  -0.580  -0.580  -0.576  -0.571
 -0.552  -0.543  -0.542  -0.541  -0.523  -0.523  -0.520  -0.510
 -0.507  -0.505  -0.501  -0.497  -0.492  -0.488  -0.481  -0.479
 -0.477  -0.475  -0.470  -0.468  -0.468  -0.466  -0.453  -0.446
 -0.446  -0.444  -0.439  -0.438  -0.434  -0.433  -0.431  -0.430
 -0.429  -0.428  -0.427  -0.425  -0.420  -0.417  -0.415  -0.413
 -0.411  -0.405  -0.404  -0.402  -0.400  -0.398  -0.397  -0.396
 -0.396  -0.394  -0.391  -0.388  -0.387  -0.385  -0.385  -0.381
 -0.379  -0.377  -0.375  -0.373  -0.369  -0.364  -0.357  -0.357
 -0.355  -0.354  -0.353  -0.351  -0.349  -0.348  -0.344  -0.340
 -0.339  -0.337  -0.334  -0.334  -0.328  -0.325  -0.323  -0.320
 -0.319  -0.313  -0.312  -0.311  -0.307  -0.306  -0.303  -0.300
 -0.298  -0.298  -0.290  -0.288  -0.287  -0.284  -0.281  -0.274
 -0.273  -0.272  -0.269  -0.265  -0.260  -0.254  -0.253  -0.251
 -0.244  -0.238  -0.230  -0.229  -0.196  -0.192
 -- Virtual --
 -0.118  -0.112  -0.072  -0.066  -0.039  -0.036  -0.024  -0.022
 -0.016  -0.014  -0.013  -0.010  -0.005  -0.002   0.001   0.003
  0.009   0.013   0.015   0.021   0.030   0.032   0.038   0.041
  0.047   0.054   0.062   0.065   0.078   0.088   0.088   0.091
  0.096   0.100   0.102   0.102   0.106   0.109   0.110   0.112
  0.114   0.116   0.118   0.120   0.120   0.122   0.125   0.126
  0.128   0.130   0.133   0.136   0.139   0.142   0.142   0.144
  0.146   0.150   0.153   0.157   0.159   0.160   0.161   0.166
  0.170   0.171   0.172   0.176   0.176   0.178   0.180   0.182
  0.184   0.187   0.187   0.188   0.193   0.194   0.195   0.195
  0.198   0.200   0.201   0.205   0.207   0.212   0.217   0.218
  0.220   0.223   0.226   0.228   0.232   0.234   0.236   0.236
  0.240   0.243   0.245   0.249   0.250   0.252   0.255   0.260
  0.263   0.267   0.270   0.272   0.274   0.277   0.279   0.281
  0.283   0.286   0.293   0.298   0.302   0.303   0.305   0.306
  0.310   0.313   0.316   0.318   0.321   0.325   0.325   0.330
  0.330   0.332   0.335   0.336   0.344   0.348   0.351   0.352
  0.355   0.356   0.359   0.365   0.368   0.370   0.371   0.372
  0.381   0.382   0.390   0.394   0.397   0.399   0.405   0.409
  0.410   0.415   0.423   0.429   0.431   0.436   0.437   0.446
  0.448   0.451   0.453   0.457   0.460   0.465   0.468   0.474
  0.476   0.480   0.481   0.487   0.492   0.494   0.496   0.498
  0.502   0.506   0.509   0.511   0.512   0.516   0.516   0.517
  0.520   0.521   0.523   0.525   0.528   0.530   0.532   0.533
  0.536   0.539   0.540   0.543   0.548   0.549   0.553   0.554
  0.557   0.558   0.559   0.561   0.562   0.567   0.569   0.573
  0.573   0.575   0.577   0.581   0.582   0.586   0.588   0.590
  0.594   0.596   0.599   0.600   0.601   0.603   0.606   0.607
  0.608   0.609   0.612   0.614   0.615   0.616   0.618   0.619
  0.621   0.625   0.627   0.629   0.629   0.631   0.634   0.638
  0.641   0.643   0.645   0.650   0.652   0.656   0.657   0.659
  0.661   0.667   0.670   0.672   0.673   0.677   0.678   0.680
  0.682   0.684   0.689   0.695   0.696   0.699   0.702   0.706
  0.711   0.713   0.716   0.719   0.722   0.724   0.726   0.728
  0.731   0.734   0.736   0.743   0.746   0.750   0.752   0.756
  0.758   0.760   0.762   0.763   0.765   0.769   0.773   0.778
  0.781   0.783   0.787   0.791   0.794   0.796   0.797   0.798
  0.800   0.805   0.805   0.806   0.809   0.811   0.812   0.813
  0.815   0.818   0.820   0.822   0.822   0.825   0.829   0.829
  0.832   0.833   0.836   0.837   0.838   0.839   0.843   0.845
  0.847   0.848   0.852   0.853   0.856   0.857   0.859   0.860
  0.860   0.862   0.865   0.867   0.870   0.870   0.871   0.872
  0.876   0.879   0.880   0.883   0.886   0.892   0.894   0.897
  0.899   0.901   0.904   0.905   0.907   0.910   0.913   0.914
  0.916   0.917   0.918   0.922   0.925   0.927   0.931   0.932
  0.933   0.934   0.938   0.941   0.941   0.943   0.946   0.948
  0.952   0.953   0.955   0.958   0.959   0.962   0.962   0.967
  0.969   0.971   0.973   0.973   0.977   0.981   0.982   0.986
  0.988   0.991   0.993   0.998   0.999   1.003   1.009   1.011
  1.013   1.015   1.020   1.023   1.026   1.028   1.031   1.037
  1.040   1.041   1.049   1.054   1.057   1.060   1.062   1.066
  1.068   1.073   1.074   1.079   1.082   1.088   1.091   1.094
  1.101   1.104   1.105   1.108   1.114   1.116   1.124   1.128
  1.132   1.135   1.140   1.144   1.146   1.155   1.159   1.164
  1.166   1.170   1.173   1.180   1.183   1.186   1.188   1.197
  1.201   1.206   1.212   1.221   1.226   1.229   1.232   1.239
  1.244   1.249   1.253   1.259   1.264   1.272   1.273   1.277
  1.282   1.285   1.288   1.290   1.302   1.304   1.305   1.309
  1.315   1.318   1.323   1.326   1.331   1.334   1.339   1.341
  1.344   1.348   1.354   1.359   1.360   1.367   1.372   1.375
  1.379   1.385   1.385   1.393   1.399   1.405   1.408   1.412
  1.412   1.419   1.421   1.426   1.430   1.433   1.437   1.439
  1.450   1.457   1.460   1.466   1.468   1.472   1.477   1.479
  1.486   1.488   1.492   1.495   1.497   1.501   1.507   1.515
  1.518   1.526   1.531   1.539   1.543   1.552   1.558   1.569
  1.573   1.578   1.589   1.591   1.600   1.605   1.616   1.621
  1.622   1.628   1.629   1.633   1.642   1.646   1.653   1.659
  1.662   1.667   1.671   1.676   1.677   1.679   1.682   1.684
  1.687   1.691   1.691   1.697   1.703   1.703   1.712   1.715
  1.721   1.723   1.730   1.733   1.736   1.738   1.744   1.746
  1.751   1.755   1.763   1.768   1.770   1.772   1.777   1.779
  1.783   1.786   1.797   1.799   1.806   1.811   1.817   1.818
  1.828   1.832   1.834   1.840   1.841   1.843   1.847   1.849
  1.859   1.861   1.867   1.868   1.870   1.877   1.878   1.881
  1.885   1.890   1.893   1.895   1.897   1.898   1.902   1.906
  1.910   1.914   1.918   1.922   1.924   1.928   1.929   1.931
  1.935   1.936   1.940   1.946   1.948   1.948   1.954   1.959
  1.961   1.963   1.968   1.973   1.976   1.984   1.993   2.000
  2.002   2.008   2.011   2.016   2.024   2.028   2.032   2.037
  2.040   2.043   2.048   2.049   2.051   2.061   2.064   2.072
  2.074   2.075   2.078   2.084   2.086   2.092   2.100   2.107
  2.118   2.119   2.123   2.128   2.129   2.131   2.132   2.134
  2.135   2.138   2.145   2.148   2.149   2.157   2.165   2.172
  2.173   2.177   2.181   2.185   2.188   2.190   2.192   2.196
  2.199   2.207   2.210   2.216   2.218   2.223   2.227   2.230
  2.231   2.237   2.240   2.241   2.251   2.257   2.260   2.264
  2.266   2.269   2.272   2.276   2.277   2.279   2.284   2.288
  2.291   2.293   2.300   2.302   2.304   2.305   2.311   2.312
  2.314   2.319   2.321   2.324   2.336   2.339   2.340   2.341
  2.342   2.345   2.351   2.352   2.359   2.366   2.370   2.372
  2.374   2.378   2.379   2.387   2.390   2.396   2.397   2.403
  2.407   2.410   2.411   2.414   2.418   2.420   2.425   2.427
  2.431   2.433   2.437   2.440   2.441   2.444   2.447   2.450
  2.452   2.454   2.458   2.464   2.470   2.475   2.476   2.481
  2.486   2.489   2.489   2.491   2.498   2.501   2.507   2.508
  2.514   2.518   2.522   2.527   2.531   2.533   2.534   2.539
  2.540   2.546   2.549   2.554   2.557   2.561   2.564   2.573
  2.576   2.582   2.588   2.590   2.599   2.603   2.604   2.617
  2.622   2.623   2.623   2.630   2.632   2.644   2.650   2.655
  2.657   2.659   2.667   2.670   2.677   2.680   2.685   2.686
  2.687   2.692   2.695   2.697   2.698   2.704   2.705   2.713
  2.715   2.720   2.721   2.723   2.737   2.744   2.750   2.753
  2.757   2.761   2.769   2.782   2.783   2.794   2.795   2.796
  2.802   2.803   2.806   2.812   2.819   2.834   2.835   2.851
  2.855   2.859   2.865   2.873   2.875   2.876   2.882   2.884
  2.892   2.895   2.896   2.897   2.900   2.902   2.909   2.914
  2.921   2.928   2.934   2.936   2.937   2.944   2.955   2.958
  2.960   2.967   2.968   2.976   2.979   2.995   3.020   3.033
  3.048   3.053   3.063   3.077   3.080   3.095   3.099   3.144
  3.159   3.175   3.179   3.191   3.198   3.208   3.227   3.235
  3.248   3.256   3.264   3.265   3.266   3.275   3.284   3.290
  3.292   3.296   3.299   3.311   3.319   3.321   3.328   3.330
  3.335   3.350   3.350   3.390   3.405   3.410   3.414   3.416
  3.435   3.444   3.469   3.485   3.502   3.503   3.524   3.544
  3.556   3.568   3.571   3.573   3.576   3.586   3.606   3.613
  3.630   3.635   3.715   3.731   3.854   3.880   3.922   3.929
  3.935   3.945   3.950   3.954   3.975   3.992   3.994   3.995
  4.028   4.065   4.084   4.095   4.100   4.102   4.111   4.117
  4.120   4.123   4.152   4.174   4.187   4.190   4.201   4.217
  4.221   4.246   4.250   4.253   4.258   4.266   4.278   4.290
  4.293   4.330   4.337   4.343   4.371   4.378   4.393   4.399
  4.421   4.426   4.452   4.469   4.474   4.479   4.489   4.491
  4.522   4.531   4.550   4.555   4.572   4.577   4.657   4.662
  4.683   4.694   4.725   4.739   4.763   4.780   4.789   4.801
 --------------------------------------------------------------
 
          Ground-State Mulliken Net Atomic Charges

     Atom                 Charge (a.u.)
  ----------------------------------------
      1 C                     0.262780
      2 C                    -0.120010
      3 N                    -0.467915
      4 C                    -0.077715
      5 C                     0.088342
      6 C                     0.029661
      7 C                     0.016769
      8 C                     0.060998
      9 C                     0.220046
     10 N                    -0.529543
     11 N                    -0.558299
     12 C                     0.218925
     13 C                     0.298876
     14 S                     0.590719
     15 N                    -0.545800
     16 C                    -0.234425
     17 S                     0.350828
     18 C                    -0.097817
     19 C                    -0.194948
     20 S                     0.287077
     21 C                     0.120731
     22 C                     0.076569
     23 C                    -0.314337
     24 C                    -0.069015
     25 N                    -0.428267
     26 S                     0.278908
     27 C                     0.118811
     28 C                    -0.326069
     29 C                    -0.231289
     30 H                     0.089859
     31 H                     0.100990
     32 H                     0.112879
     33 H                     0.107165
     34 H                     0.121560
     35 H                     0.135742
     36 H                     0.112524
     37 H                     0.133425
     38 H                     0.096407
     39 C                    -0.169971
     40 H                     0.116687
     41 H                     0.091207
     42 H                     0.112450
     43 C                    -0.174455
     44 H                     0.086630
     45 C                    -0.173459
     46 H                     0.092690
     47 H                     0.089371
     48 H                     0.088883
     49 C                    -0.169947
     50 H                     0.095165
     51 C                    -0.325588
     52 H                     0.099657
     53 H                     0.101776
     54 H                     0.098511
     55 H                     0.101781
     56 C                     0.233834
     57 C                    -0.097800
     58 N                    -0.474206
     59 C                    -0.079407
     60 C                     0.061616
     61 C                     0.057951
     62 C                    -0.006555
     63 C                     0.072610
     64 C                     0.242235
     65 N                    -0.524533
     66 N                    -0.547135
     67 C                     0.209688
     68 C                     0.323486
     69 S                     0.580694
     70 N                    -0.565509
     71 C                    -0.216504
     72 S                     0.342155
     73 C                    -0.143200
     74 C                    -0.260451
     75 S                     0.256305
     76 C                     0.207575
     77 C                     0.052155
     78 C                    -0.307784
     79 C                    -0.046423
     80 N                    -0.426428
     81 S                     0.287574
     82 C                     0.114288
     83 C                    -0.306546
     84 C                    -0.238986
     85 H                     0.091950
     86 H                     0.103631
     87 H                     0.096295
     88 H                     0.122356
     89 H                     0.125347
     90 H                     0.126468
     91 H                     0.126652
     92 H                     0.136451
     93 H                     0.109981
     94 C                    -0.169069
     95 H                     0.125006
     96 H                     0.097867
     97 H                     0.112029
     98 C                    -0.185914
     99 H                     0.090930
    100 C                    -0.177534
    101 H                     0.092611
    102 H                     0.085502
    103 H                     0.090807
    104 C                    -0.176286
    105 H                     0.090450
    106 C                    -0.311654
    107 H                     0.092727
    108 H                     0.106301
    109 H                     0.100515
    110 H                     0.099354
  ----------------------------------------
  Sum of atomic charges =     0.000000

 -----------------------------------------------------------------
                    Cartesian Multipole Moments
 -----------------------------------------------------------------
    Charge (ESU x 10^10)
                 0.0000
    Dipole Moment (Debye)
         X       0.2561      Y      -1.5356      Z       0.2395
       Tot       1.5751
    Quadrupole Moments (Debye-Ang)
        XX    -444.7413     XY       6.2278     YY    -414.3207
        XZ      23.6266     YZ       3.8645     ZZ    -456.7840
    Octopole Moments (Debye-Ang^2)
       XXX      39.6502    XXY     -66.6967    XYY      36.2415
       YYY     100.2082    XXZ      59.7070    XYZ     -40.2403
       YYZ      27.6016    XZZ      -9.4379    YZZ      -3.9023
       ZZZ       8.5519
    Hexadecapole Moments (Debye-Ang^3)
      XXXX -129875.5437   XXXY    -556.6015   XXYY  -24764.0125
      XYYY     659.7788   YYYY  -26073.0038   XXXZ    2076.2451
      XXYZ    -108.2376   XYYZ     149.3636   YYYZ     274.6445
      XXZZ  -23696.3543   XYZZ     -74.4263   YYZZ   -6313.9718
      XZZZ     -71.4641   YZZZ     159.6854   ZZZZ  -10322.2238
 -----------------------------------------------------------------
Archival summary:
1\1\mn426\SP\ProcedureUnspecified\6-31G**\8105042\afmv_a\SunOct704:33:382018SunOct704:33:382018\0\\#,ProcedureUnspecified,6-31G**,\\0,1\S\C,1,1.71853\C,2,1.33885,1,112.562\C,3,1.41299,2,111.808,1,0.127127,0\C,4,1.38019,3,114.876,2,0.840302,0\C,2,1.43663,1,122.084,3,-179.554,0\N,6,1.33389,2,113.312,1,-156.786,0\C,7,1.41953,6,107.526,2,161.162,0\H,8,1.08221,7,119.191,6,171.319,0\C,8,1.35449,7,114.622,6,0.364679,0\H,10,1.08296,8,124.402,7,174.119,0\C,3,1.44386,2,140.195,1,-179.809,0\H,12,1.08363,3,118.19,2,2.8579,0\C,12,1.3645,3,113.737,2,178.816,0\H,14,1.08148,12,125.577,3,172.639,0\C,5,1.48534,4,124.888,3,178.252,0\N,16,1.31003,5,120.789,4,-8.48564,0\C,17,1.32401,16,121.89,5,-170.348,0\H,18,1.08947,17,116.752,16,-175.537,0\C,18,1.43718,17,121,16,1.48694,0\C,20,1.41821,18,118.375,17,-4.19523,0\N,21,1.32916,20,125.537,18,-170.384,0\C,21,1.3908,20,118.562,18,-0.348468,0\N,23,1.32034,21,116.074,20,175.602,0\C,20,1.45411,18,117.64,17,170.792,0\C,25,1.39919,20,124.715,18,-134.689,0\H,26,1.08596,25,113.821,20,-12.067,0\C,26,1.39013,25,121.562,20,179.978,0\H,28,1.08638,26,111.05,25,-178.787,0\C,28,1.39088,26,119.728,25,-7.34175,0\N,30,1.37559,28,121.201,26,2.0372,0\C,31,1.35177,30,117.243,28,4.564,0\H,32,1.08943,31,116.382,30,175.214,0\C,30,1.53127,28,122.502,26,-178.239,0\H,34,1.09706,30,113.279,28,-60.9591,0\H,34,1.09729,30,101.038,28,-168.909,0\C,34,1.50822,30,109.381,28,74.5205,0\H,37,1.09592,34,112.187,30,-48.9322,0\H,37,1.09725,34,111.108,30,76.5266,0\C,37,1.52796,34,105.861,30,-163.11,0\H,40,1.09637,37,109.179,34,-52.1044,0\H,40,1.09727,37,104.956,34,63.0009,0\C,40,1.6049,37,113.581,34,-175.368,0\H,43,1.09686,40,111.48,37,67.3728,0\H,43,1.09695,40,103.797,37,-50.0995,0\C,43,1.58294,40,116.763,37,-172.348,0\H,46,1.09696,43,110.388,40,-57.8731,0\H,46,1.09726,43,105.949,40,55.5429,0\C,46,1.49227,43,113.808,40,173.719,0\H,49,1.09682,46,105.389,43,179.029,0\H,49,1.09735,46,112.596,43,73.6871,0\H,49,1.09745,46,114.31,43,-55.7602,0\S,22,1.67071,21,104.092,20,176.45,0\S,10,1.73228,8,112.002,7,-11.5382,0\S,4,1.78501,3,118.039,2,175.297,0\N,9,3.00428,8,105.5,7,119.914,0\C,56,1.31657,9,95.0758,8,15.9083,0\C,57,1.38853,56,125.694,9,-65.0814,0\N,58,1.38063,57,118.685,56,173.748,0\C,59,1.32465,58,120.026,57,-3.52919,0\H,60,1.08852,59,117.481,58,179.728,0\C,57,1.39173,56,112.628,9,104.666,0\N,62,1.31859,57,114.652,56,8.15122,0\C,62,1.41849,57,121.326,56,-172.067,0\C,58,1.51177,57,121.775,56,-7.89033,0\C,65,1.42222,58,122.576,57,179.752,0\C,66,1.40367,65,110.403,58,-175.13,0\C,67,1.37305,66,117.196,65,0.424085,0\C,67,1.41652,66,112.634,65,174.566,0\H,69,1.08395,67,131.511,66,179.393,0\C,69,1.38421,67,110.298,66,2.16053,0\H,71,1.08191,69,125.719,67,175.936,0\C,68,1.43236,67,127.831,66,177.397,0\N,73,1.27403,68,120.994,67,160.041,0\C,74,1.3624,73,112.915,68,-174.381,0\H,75,1.082,74,113.424,73,174.259,0\C,75,1.34804,74,113.355,73,4.73795,0\H,77,1.0813,75,125.191,74,158.66,0\C,64,1.52815,62,123.75,57,179.661,0\C,79,1.40717,64,124.034,62,40.1739,0\H,80,1.08876,79,121.765,64,-2.75963,0\N,80,1.33076,79,124.567,64,176.975,0\C,82,1.32889,80,117.884,79,-4.28093,0\C,79,1.43652,64,118.162,62,-142.15,0\H,84,1.08636,79,120.673,64,7.6116,0\C,84,1.38375,79,117.391,64,-174.736,0\H,86,1.08579,84,117.211,79,172.9,0\C,83,1.48897,82,116.924,80,-170.644,0\H,88,1.09729,83,110.348,82,146.784,0\H,88,1.09747,83,104.698,82,37.9216,0\C,88,1.52437,83,115.793,82,-79.3459,0\H,91,1.09665,88,118.441,83,54.5414,0\H,91,1.09779,88,101.58,83,-61.5386,0\C,91,1.52048,88,112.474,83,-176.582,0\H,94,1.09696,91,112.149,88,-59.1219,0\H,94,1.09741,91,107.362,88,50.9509,0\C,94,1.51474,91,112.084,88,168.692,0\H,97,1.09702,94,105.938,91,50.3081,0\H,97,1.09731,94,111.735,91,-55.7601,0\C,97,1.53745,94,113.531,91,173.436,0\H,100,1.09661,97,110.976,94,44.2502,0\H,100,1.09715,97,105.17,94,-72.4601,0\C,100,1.53347,97,112.944,94,168.392,0\H,103,1.09678,100,113.633,97,-69.4447,0\H,103,1.09704,100,114.833,97,46.4733,0\H,103,1.09731,100,112.903,97,168.752,0\S,56,1.5898,9,113.752,8,127.132,0\S,73,1.70289,68,123.961,67,-14.8991,0\S,68,1.74156,67,110.524,66,-7.79972,0\S,66,1.74547,65,134.287,58,0.0717412,0\\\@

 Total job time:  112.98s(wall), 1216.11s(cpu) 
 Sun Oct  7 04:33:38 2018

        *************************************************************
        *                                                           *
        *  Thank you very much for using Q-Chem.  Have a nice day.  *
        *                                                           *
        *************************************************************


