
Running Job 1 of 1 ./6/5.qcin
qchem ./6/5.qcin_22608.0 /tmpu/cab_g/afmv_a/scratch_qchem/qchem22608/ 1
/tmpu/appuserlic/qchem4.4/serial-multicore/exe/qcprog.exe_s ./6/5.qcin_22608.0 /tmpu/cab_g/afmv_a/scratch_qchem/qchem22608/
Check license passed

                  Welcome to Q-Chem
     A Quantum Leap Into The Future Of Chemistry


 Q-Chem 4.4, Q-Chem, Inc., Pleasanton, CA (2016)

 Y. Shao,  Z. Gan,  E. Epifanovsky,  A. T. B. Gilbert,  M. Wormit,  
 J. Kussmann,  A. W. Lange,  A. Behn,  J. Deng,  X. Feng,  D. Ghosh,  
 M. Goldey,  P. R. Horn,  L. D. Jacobson,  I. Kaliman,  F. Rob,  
 R. Z. Khaliullin,  T. Kus,  A. Landau,  J. Liu,  E. I. Proynov,  Y. M. Rhee,  
 R. M. Richard,  M. A. Rohrdanz,  R. P. Steele,  E. J. Sundstrom,  
 H. L. Woodcock III,  P. M. Zimmerman,  D. Zuev,  B. Albrecht,  E. Alguire,  
 B. Austin,  S. A. Baeppler,  G. J. O. Beran,  Y. A. Bernard,  E. Berquist,  
 K. Brandhorst,  K. B. Bravaya,  S. T. Brown,  D. Casanova,  C.-M. Chang,  
 Y. Chen,  S. H. Chien,  K. D. Closser,  M. P. Coons,  D. L. Crittenden,  
 S. Dasgupta,  M. Diedenhofen,  R. A. DiStasio Jr.,  H. Do,  A. D. Dutoi,  
 R. G. Edgar,  P.-T. Fang,  S. Fatehi,  Q. Feng,  L. Fusti-Molnar,  
 A. Ghysels,  A. Golubeva-Zadorozhnaya,  J. Gomes,  A. Gunina,  
 M. W. D. Hanson-Heine,  P. H. P. Harbach,  A. W. Hauser,  J. E. Herr,  
 E. G. Hohenstein,  Z. C. Holden,  K. Hui,  T.-C. Jagau,  H. Ji,  B. Kaduk,  
 K. Khistyaev,  Jaehoon Kim,  Jihan Kim,  R. A. King,  P. Klunzinger,  
 K. Koh,  D. Kosenkov,  T. Kowalczyk,  C. M. Krauter,  A. Kunitsa,  
 K. U. Lao,  A. Laurent,  K. V. Lawler,  J. Lee,  D. Lefrancois,  S. Lehtola,  
 S. V. Levchenko,  C. Y. Lin,  Y.-S. Lin,  F. Liu,  E. Livshits,  
 R. C. Lochan,  A. Luenser,  P. Manohar,  S. F. Manzer,  S.-P. Mao,  Y. Mao,  
 N. Mardirossian,  A. V. Marenich,  L. A. Martinez-Martinez,  S. A. Maurer,  
 N. J. Mayhall,  J.-M. Mewes,  A. F. Morrison,  K. Nanda,  T. S. Nguyen-Beck,  
 C. M. Oana,  R. Olivares-Amaya,  D. P. O'Neill,  J. A. Parkhill,  
 T. M. Perrine,  R. Peverati,  P. A. Pieniazek,  F. Plasser,  A. Prociuk,  
 D. R. Rehn,  E. Rosta,  N. J. Russ,  N. Sergueev,  S. M. Sharada,  
 S. Sharma,  D. W. Small,  A. Sodt,  T. Stauch,  T. Stein,  D. Stuck,  
 Y.-C. Su,  A. J. W. Thom,  T. Tsuchimochi,  L. Vogt,  O. Vydrov,  T. Wang,  
 M. A. Watson,  J. Wenzel,  A. White,  C. F. Williams,  V. Vanovschi,  
 K. Yao,  S. Yeganeh,  S. R. Yost,  Z.-Q. You,  I. Y. Zhang,  X. Zhang,  
 Y. Zhao,  B. R. Brooks,  G. K. L. Chan,  D. M. Chipman,  C. J. Cramer,  
 W. A. Goddard III,  M. S. Gordon,  W. J. Hehre,  A. Klamt,  
 H. F. Schaefer III,  M. W. Schmidt,  C. D. Sherrill,  D. G. Truhlar,  
 A. Warshel,  X. Xu,  A. Aspuru-Guzik,  R. Baer,  A. T. Bell,  N. A. Besley,  
 J.-D. Chai,  A. Dreuw,  B. D. Dunietz,  T. R. Furlani,  S. R. Gwaltney,  
 C.-P. Hsu,  Y. Jung,  J. Kong,  D. S. Lambrecht,  W. Liang,  C. Ochsenfeld,  
 V. A. Rassolov,  L. V. Slipchenko,  J. E. Subotnik,  T. Van Voorhis,  
 J. M. Herbert,  A. I. Krylov,  P. M. W. Gill,  M. Head-Gordon

 Contributors to earlier versions of Q-Chem not listed above: 
 R. D. Adamson,  J. Baker,  E. F. C. Byrd,  A. K. Chakraborty,  C.-L. Cheng,  
 H. Dachsel,  R. J. Doerksen,  G. Hawkins,  A. Heyden,  S. Hirata,  
 G. Kedziora,  F. J. Keil,  C. Kelley,  P. P. Korambath,  W. Kurlancheek,  
 A. M. Lee,  M. S. Lee,  D. Liotard,  I. Lotan,  P. E. Maslen,  N. Nair,  
 D. Neuhauser,  R. Olson,  B. Peters,  J. Ritchie,  N. E. Schultz,  
 N. Shenvi,  A. C. Simmonett,  K. S. Thanthiriwatte,  Q. Wu,  W. Zhang

 Please cite Q-Chem as follows:
 Y. Shao et al., Mol. Phys. 113, 184-215 (2015)
 DOI: 10.1080/00268976.2014.952696

 Q-Chem 4.4.2 for Intel X86 Linux

 Parts of Q-Chem use Armadillo 5.200.1 (Boston Tea Smuggler).
 http://arma.sourceforge.net/

 Q-Chem begins on Sun Oct  7 05:00:51 2018  

Host: 
0

     Scratch files written to /tmpu/cab_g/afmv_a/scratch_qchem/qchem22608//
 Dec716 11556_ 22328  22283 4050   
Processing $rem in /tmpu/appuserlic/qchem4.4/serial-multicore/config/preferences.
 MEM_TOTAL  2000 
FILE_GEOM_ORG=        593

Checking the input file for inconsistencies... 	...done.

--------------------------------------------------------------
User input:
--------------------------------------------------------------
$comment
SP
$end

$rem
MEM_STATIC 5000
MEM_TOTAL 20000
JOBTYPE SP
EXCHANGE B3LYP
BASIS 6-31g(d,p)
$end

$molecule
0 1
C          19.197000     20.020000    -10.109000
C          18.072000     19.329000     -9.558000
N          19.108000     21.012000    -10.907000
C          16.744000     19.731000     -9.853000
C          17.876000     21.460000    -11.163000
C          16.666000     20.927000    -10.512000
C          15.315000     21.573000    -10.831000
C          15.116000     22.226000    -12.151000
C          14.141000     21.538000    -10.058000
N          13.937000     22.760000    -12.495000
N          14.027000     20.983000     -8.779000
C          12.963000     22.186000    -10.439000
C          12.855000     22.887000    -11.700000
S          12.479000     21.408000     -8.300000
N          11.920000     22.160000     -9.532000
C          11.673000     23.735000    -12.116000
S          10.261000     24.236000    -11.166000
C          11.672000     24.458000    -13.292000
C           9.562000     25.269000    -12.492000
S          12.740000     24.445000    -14.669000
C          10.491000     25.183000    -13.488000
C           8.229000     25.816000    -12.618000
C          11.643000     25.655000    -15.472000
C          10.568000     25.917000    -14.665000
N           7.684000     25.889000    -13.845000
S           7.279000     26.626000    -11.295000
C           6.527000     26.616000    -13.802000
C           6.132000     27.044000    -12.555000
C          20.639000     19.592000     -9.875000
H          18.267000     18.399000     -9.034000
H          15.890000     19.256000     -9.379000
H          17.839000     22.381000    -11.743000
H          15.907000     22.326000    -12.892000
H          11.900000     25.996000    -16.466000
H           9.859000     26.686000    -14.951000
H           6.039000     26.880000    -14.731000
H           5.279000     27.661000    -12.308000
H          21.337000     20.272000    -10.379000
C          20.930000     18.087000    -10.177000
H          20.946000     19.731000     -8.831000
H          20.505000     17.415000     -9.421000
H          22.013000     17.920000    -10.135000
C          20.543000     17.620000    -11.622000
H          20.735000     16.540000    -11.639000
C          21.363000     18.310000    -12.803000
H          19.476000     17.754000    -11.837000
H          22.448000     18.332000    -12.645000
H          21.045000     19.359000    -12.833000
C          21.085000     17.561000    -14.158000
H          21.882000     17.840000    -14.858000
C          19.901000     18.128000    -14.823000
H          21.151000     16.477000    -14.005000
H          19.007000     18.048000    -14.193000
H          19.679000     17.648000    -15.784000
H          19.859000     19.216000    -14.962000
C           0.771000     12.829000    -14.012000
C           1.787000     13.344000    -14.808000
N           0.872000     12.777000    -12.697000
C           3.057000     13.631000    -14.316000
C           2.129000     12.986000    -12.204000
C           3.300000     13.387000    -12.950000
C           4.677000     13.669000    -12.335000
C           5.859000     13.254000    -12.995000
C           4.799000     14.222000    -11.076000
N           7.108000     13.447000    -12.516000
N           3.787000     14.640000    -10.335000
C           6.100000     14.322000    -10.573000
C           7.258000     13.932000    -11.272000
S           4.413000     14.988000     -8.934000
N           6.035000     14.721000     -9.295000
C           8.652000     14.072000    -10.711000
S           9.102000     15.425000     -9.598000
C           9.759000     13.534000    -11.283000
C          10.865000     15.266000    -10.053000
S           9.864000     12.325000    -12.540000
C          10.971000     14.184000    -10.946000
C          11.961000     16.000000     -9.550000
C          11.660000     12.458000    -12.416000
C          12.055000     13.526000    -11.591000
N          13.072000     16.014000    -10.317000
S          11.827000     17.321000     -8.404000
C          13.935000     16.913000     -9.736000
C          13.532000     17.463000     -8.587000
C          -0.612000     12.612000    -14.556000
H           1.542000     13.443000    -15.862000
H           3.931000     13.868000    -14.915000
H           2.191000     12.961000    -11.117000
H           5.877000     12.821000    -13.994000
H          12.324000     11.859000    -13.025000
H          13.049000     13.926000    -11.428000
H          14.939000     16.990000    -10.132000
H          14.097000     18.242000     -8.094000
H          -0.465000     12.401000    -15.622000
C          -1.531000     13.827000    -14.341000
H          -1.046000     11.683000    -14.165000
H          -1.624000     14.090000    -13.280000
H          -2.568000     13.528000    -14.536000
C          -1.184000     15.064000    -15.240000
H          -0.335000     15.541000    -14.735000
C          -2.310000     16.099000    -15.379000
H          -0.733000     14.747000    -16.188000
H          -3.075000     15.665000    -16.035000
H          -1.851000     16.918000    -15.945000
C          -3.070000     16.615000    -14.115000
H          -3.433000     15.754000    -13.540000
C          -4.325000     17.432000    -14.521000
H          -2.494000     17.367000    -13.561000
H          -4.021000     18.268000    -15.163000
H          -4.792000     17.783000    -13.593000
H          -5.018000     16.787000    -15.075000
$end

--------------------------------------------------------------
 ----------------------------------------------------------------
             Standard Nuclear Orientation (Angstroms)
    I     Atom           X                Y                Z
 ----------------------------------------------------------------
    1      C      -9.2958339538    -2.2615911315    -0.3021543511
    2      C      -8.0574250816    -2.5805333045    -0.9435016484
    3      N      -9.5066045037    -1.1882590343     0.3553583746
    4      C      -6.9582826326    -1.6844573414    -0.9096380212
    5      C      -8.5172623337    -0.2909107174     0.3610212951
    6      C      -7.2711973388    -0.4504258580    -0.4096063377
    7      C      -6.2409904951     0.6819408611    -0.3831966319
    8      C      -6.1671178201     1.5687836780     0.8069557307
    9      C      -5.2298380172     0.9468878996    -1.3236240524
   10      N      -5.2498793162     2.5403655643     0.8977035413
   11      N      -5.0488840453     0.2695742042    -2.5341461786
   12      C      -4.3528929242     2.0288415307    -1.2092009595
   13      C      -4.3870861788     2.9173322478    -0.0678854611
   14      S      -3.8376182944     1.1397777786    -3.2970033210
   15      N      -3.4796581259     2.2329608179    -2.2613275221
   16      C      -3.5786865675     4.1901137355     0.0578179725
   17      S      -2.5707905622     5.0042242159    -1.1540461982
   18      C      -3.7285190345     5.0463637718     1.1302414463
   19      C      -2.1809028290     6.4212798760    -0.0798456527
   20      S      -4.5605215332     4.8741128331     2.6517615599
   21      C      -2.8974877005     6.1699241038     1.0540764776
   22      C      -1.1499602827     7.4247437974    -0.2288141882
   23      C      -3.9269503544     6.5118549389     3.1299940936
   24      C      -3.1230868873     7.0083200220     2.1386092301
   25      N      -0.5477077879     7.8884895093     0.8802912384
   26      S      -0.7232146036     8.2952093696    -1.7680044990
   27      C       0.2353776484     8.9662329859     0.5732518306
   28      C       0.3049322349     9.2982024555    -0.7606058945
   29      C     -10.4834844927    -3.2126879774    -0.2551970623
   30      H      -7.9388130688    -3.5904269028    -1.3223777632
   31      H      -6.0428546728    -1.8901627778    -1.4567156425
   32      H      -8.7718043470     0.6628961640     0.8208808352
   33      H      -6.8542506892     1.4963822642     1.6480077240
   34      H      -4.1880965145     6.8945768514     4.1075894192
   35      H      -2.7331524918     8.0168170818     2.2206022025
   36      H       0.6814208647     9.5362094319     1.3776480639
   37      H       0.8288816238    10.1320415622    -1.2072560730
   38      H     -11.3301634153    -2.7575819929     0.2736066300
   39      C     -10.1480597001    -4.6504620181     0.2558861173
   40      H     -10.9281855177    -3.3660756545    -1.2462667969
   41      H      -9.5818501079    -5.2377617991    -0.4777559379
   42      H     -11.0845858870    -5.2011108371     0.4050389904
   43      C      -9.4631867054    -4.7040222026     1.6644184341
   44      H      -9.2280151378    -5.7623063479     1.8325909690
   45      C     -10.3546292297    -4.1732371253     2.8755577438
   46      H      -8.5106562698    -4.1612165321     1.6912097256
   47      H     -11.3769161746    -4.5699643066     2.8900472519
   48      H     -10.4572762465    -3.0903291200     2.7369978575
   49      C      -9.6723887079    -4.5397599020     4.2446884624
   50      H     -10.4372792388    -4.4566264569     5.0264053588
   51      C      -8.7293311413    -3.4836864891     4.6458385249
   52      H      -9.3377526530    -5.5840355375     4.2265747192
   53      H      -7.9434418335    -3.3376719682     3.8951097085
   54      H      -8.2420749435    -3.6876509063     5.6071838917
   55      H      -9.0890177518    -2.4466740931     4.6535736838
   56      C      10.7806371071    -1.5860204586     1.4125701190
   57      C       9.7349711266    -1.3494360476     2.2967123437
   58      N      10.5692862425    -1.8847765119     0.1444196418
   59      C       8.4069495031    -1.6239923382     1.9831674332
   60      C       9.2827107442    -2.2264424093    -0.1634226908
   61      C       8.1325769790    -2.1585899463     0.7090143359
   62      C       6.6951679317    -2.4963840231     0.2923269322
   63      C       5.8355612639    -3.1959223578     1.1736166092
   64      C       6.2407982305    -2.2379574333    -0.9853811222
   65      N       4.5638833030    -3.5471135554     0.8800337308
   66      N       6.9344875648    -1.6101679123    -1.9195248075
   67      C       4.9540933228    -2.6972199188    -1.2838412533
   68      C       4.1111597073    -3.3587825846    -0.3708994374
   69      S       6.0797141746    -1.7448744628    -3.2336776131
   70      N       4.7280601119    -2.5159086538    -2.5925601738
   71      C       2.7176916828    -3.8243019668    -0.7160016967
   72      S       1.6735675829    -2.9255985629    -1.8881855799
   73      C       1.9644528209    -4.6241225100     0.0808642366
   74      C       0.1612022310    -3.6329403348    -1.1446173853
   75      S       2.4589128862    -5.5671618922     1.4661226844
   76      C       0.5682779398    -4.5191067674    -0.1305131397
   77      C      -1.1776764015    -3.4360516861    -1.5466371204
   78      C       0.7445268557    -6.1127205703     1.6142012687
   79      C      -0.1106038011    -5.4089277035     0.7477711444
   80      N      -2.1235806532    -3.6985518285    -0.6197256781
   81      S      -1.6763153380    -2.3615863802    -2.8401580972
   82      C      -3.3191059210    -3.2788627082    -1.1536838939
   83      C      -3.2781950993    -2.8159756236    -2.4063497917
   84      C      12.1914289676    -1.1979554098     1.7513707155
   85      H      10.0334101562    -0.9981953768     3.2807378194
   86      H       7.5766021231    -1.6236711841     2.6827166634
   87      H       9.1209315089    -2.4491363021    -1.2171175751
   88      H       6.0883685681    -3.4370434435     2.2050055218
   89      H       0.4255314904    -6.8028201698     2.3839950720
   90      H      -1.1932240676    -5.4265203875     0.7005603829
   91      H      -4.2295687418    -3.5054734442    -0.6147348923
   92      H      -4.1450075241    -2.3847002226    -2.8877568425
   93      H      12.2484527619    -1.2707696766     2.8440428389
   94      C      12.5524629614     0.2140852095     1.2586164718
   95      H      12.9018178010    -1.9584692240     1.4031689866
   96      H      12.4265937861     0.3160034594     0.1735779374
   97      H      13.6396423858     0.3451570980     1.3190818266
   98      C      11.8585616066     1.3717199572     2.0568405637
   99      H      10.8440478563     1.4213054700     1.6425241057
  100      C      12.5153969118     2.7508461057     1.8987252624
  101      H      11.6639725390     1.0727088115     3.0938176268
  102      H      13.4522540498     2.7351092513     2.4696613835
  103      H      11.8421720335     3.4298839841     2.4348911164
  104      C      12.8852738348     3.2924424480     0.4804811142
  105      H      13.4852491544     2.5387558044    -0.0445913180
  106      C      13.7714881969     4.5614394215     0.5882808615
  107      H      12.0121840466     3.6850019081    -0.0559956254
  108      H      13.2422768840     5.3243700400     1.1725310285
  109      H      13.9699836912     4.9007070045    -0.4354237081
  110      H      14.7115163800     4.3093248123     1.0942208173
 ----------------------------------------------------------------
 Molecular Point Group                 C1    NOp =  1
 Largest Abelian Subgroup              C1    NOp =  1
 Nuclear Repulsion Energy = 10842.5260723627 hartrees
 There are      270 alpha and      270 beta electrons
 Requested basis set is 6-31G(d,p)
 There are 406 shells and 1262 basis functions

 Total QAlloc Memory Limit  20000 MB
 Mega-Array Size      4888 MB
 MEM_STATIC part      5000 MB
 A cutoff of  1.0D-08 yielded  12951 shell pairs
 There are    134363 function pairs
 
 -------------------------------------------------------
 OpenMP Integral Computing Module                       
 Release: version 1.0, May 2013, Q-Chem Inc. Pittsburgh 
 -------------------------------------------------------
 Integral Job Info:
 Integral job number is                      11
 Integral operator is                         1
 short-range coefficients                     0
 long-range coefficients              100000000
 Omega coefficients                           0
 if combine SR and LR in K                    0
 Integral screening is                        0
 Integral computing path is                   2
 max size of driver memory is            800000
 size of driver memory is                593474
 size of scratch memory is             15166112
 max col of scratch BK array               1296
 max len of scratch array in speh3          155
 max len of scratch index in speh4           18
 max int batch size is                      520
 min int batch size is                       52
 fixed nKL is                                52
 max L of basis functions is                  2
 order of int derivative is                   0
 number of shells is                        406
 number of basis is                        1262
 number of cartesian basis is              1262
 number of contracted shell pairs         12951
 number of primitive shell pairs          42062
 maxK2 (contraction) of shell pair           36
 max number of K2 of shell pair               1
 max number of CS2 of shell pair           1293
 max number of PS2 of shell pair           7722
 mem total for path MDJ                  280792
 -------------------------------------------------------
 Smallest overlap matrix eigenvalue = 4.05E-04

 Scale SEOQF with 1.000000e-02/1.000000e-02/1.000000e-02

 Standard Electronic Orientation quadrupole field applied
 Nucleus-field energy     =     0.0000001326 hartrees
 Guess from superposition of atomic densities
 Warning:  Energy on first SCF cycle will be non-variational
 A restricted hybrid HF-DFT SCF calculation will be
 performed using Pulay DIIS extrapolation
 Exchange:     0.2000 Hartree-Fock + 0.0800 Slater + 0.7200 B88
 Correlation:  0.1900 VWN1RPA + 0.8100 LYP
 Using SG-1 standard quadrature grid
 SCF converges when DIIS error is below 1.0E-05
 using 16 threads for integral computing 
 -------------------------------------------------------
 OpenMP BLAS3 based DFT computing Module                
 Release: version 1.0, May 2013, Q-Chem Inc. Pittsburgh 
 -------------------------------------------------------
 ---------------------------------------
  Cycle       Energy         DIIS Error
 ---------------------------------------
    1   -5680.0156203065      2.14E-02
    2   -5662.4923455343      2.13E-03
    3   -5660.6545102907      3.58E-03
    4   -5663.2871972031      9.38E-04
    5   -5663.4571364626      3.20E-04
    6   -5663.4665758917      2.29E-04
    7   -5663.4755322317      9.30E-05
    8   -5663.4771783008      2.57E-05
    9   -5663.4773094163      7.58E-06 Convergence criterion met
 ---------------------------------------
 SCF time:  CPU 896.21 s  wall 79.14 s
 SCF   energy in the final basis set = -5663.4773094163
 Total energy in the final basis set = -5663.4773094163
 
 --------------------------------------------------------------
 
                    Orbital Energies (a.u.)
 --------------------------------------------------------------
 
 Alpha MOs
 -- Occupied --
-88.995 -88.990 -88.933 -88.928 -88.926 -88.924 -88.910 -88.905
-14.393 -14.387 -14.383 -14.381 -14.354 -14.351 -14.351 -14.344
-14.332 -14.328 -10.281 -10.274 -10.269 -10.267 -10.263 -10.261
-10.254 -10.253 -10.252 -10.250 -10.246 -10.245 -10.244 -10.243
-10.238 -10.236 -10.235 -10.233 -10.229 -10.229 -10.228 -10.228
-10.228 -10.227 -10.226 -10.225 -10.222 -10.221 -10.220 -10.218
-10.216 -10.211 -10.210 -10.207 -10.205 -10.195 -10.195 -10.192
-10.186 -10.184 -10.182 -10.181 -10.179 -10.179 -10.178 -10.178
-10.176 -10.174 -10.172 -10.164  -8.051  -8.046  -7.993  -7.990
 -7.984  -7.982  -7.969  -7.965  -6.016  -6.011  -6.010  -6.009
 -6.005  -6.003  -5.956  -5.953  -5.953  -5.950  -5.950  -5.949
 -5.947  -5.946  -5.945  -5.943  -5.941  -5.938  -5.934  -5.930
 -5.929  -5.925  -5.925  -5.921  -1.050  -1.045  -0.972  -0.966
 -0.964  -0.963  -0.955  -0.941  -0.914  -0.910  -0.903  -0.903
 -0.839  -0.838  -0.833  -0.832  -0.813  -0.810  -0.806  -0.806
 -0.802  -0.801  -0.799  -0.798  -0.782  -0.780  -0.769  -0.766
 -0.746  -0.746  -0.739  -0.738  -0.719  -0.718  -0.709  -0.706
 -0.694  -0.691  -0.679  -0.677  -0.656  -0.653  -0.647  -0.646
 -0.637  -0.636  -0.629  -0.629  -0.616  -0.614  -0.599  -0.599
 -0.591  -0.586  -0.585  -0.583  -0.580  -0.577  -0.559  -0.558
 -0.557  -0.552  -0.541  -0.537  -0.525  -0.525  -0.514  -0.512
 -0.506  -0.503  -0.500  -0.497  -0.491  -0.487  -0.478  -0.478
 -0.476  -0.472  -0.467  -0.466  -0.464  -0.457  -0.453  -0.448
 -0.445  -0.442  -0.439  -0.435  -0.435  -0.434  -0.434  -0.430
 -0.429  -0.428  -0.424  -0.423  -0.422  -0.419  -0.418  -0.415
 -0.412  -0.411  -0.408  -0.404  -0.402  -0.400  -0.399  -0.397
 -0.396  -0.395  -0.393  -0.392  -0.389  -0.387  -0.385  -0.382
 -0.381  -0.379  -0.374  -0.373  -0.365  -0.362  -0.357  -0.355
 -0.354  -0.353  -0.350  -0.349  -0.345  -0.344  -0.342  -0.341
 -0.338  -0.337  -0.331  -0.330  -0.329  -0.326  -0.320  -0.319
 -0.317  -0.312  -0.310  -0.306  -0.305  -0.303  -0.302  -0.301
 -0.301  -0.297  -0.294  -0.293  -0.290  -0.289  -0.286  -0.284
 -0.278  -0.267  -0.263  -0.262  -0.260  -0.253  -0.253  -0.252
 -0.245  -0.244  -0.233  -0.231  -0.198  -0.193
 -- Virtual --
 -0.116  -0.113  -0.080  -0.076  -0.046  -0.036  -0.033  -0.026
 -0.025  -0.024  -0.018  -0.016  -0.011  -0.009  -0.006  -0.001
  0.002   0.006   0.018   0.021   0.025   0.030   0.031   0.033
  0.045   0.053   0.058   0.062   0.067   0.074   0.077   0.086
  0.086   0.092   0.096   0.098   0.101   0.103   0.110   0.111
  0.112   0.113   0.115   0.118   0.120   0.122   0.124   0.125
  0.126   0.128   0.129   0.136   0.136   0.139   0.144   0.144
  0.146   0.149   0.154   0.159   0.160   0.161   0.164   0.167
  0.168   0.174   0.174   0.175   0.176   0.177   0.179   0.181
  0.184   0.186   0.189   0.190   0.192   0.195   0.197   0.199
  0.200   0.201   0.209   0.210   0.211   0.213   0.214   0.219
  0.224   0.226   0.227   0.231   0.233   0.233   0.235   0.236
  0.239   0.243   0.246   0.247   0.249   0.250   0.252   0.255
  0.256   0.258   0.262   0.265   0.266   0.268   0.272   0.275
  0.282   0.284   0.286   0.288   0.293   0.295   0.297   0.301
  0.308   0.310   0.312   0.314   0.316   0.318   0.321   0.323
  0.325   0.328   0.329   0.332   0.337   0.339   0.343   0.344
  0.347   0.352   0.353   0.357   0.360   0.363   0.368   0.371
  0.372   0.373   0.376   0.381   0.382   0.385   0.395   0.398
  0.400   0.401   0.409   0.418   0.419   0.424   0.428   0.431
  0.435   0.439   0.444   0.452   0.457   0.460   0.462   0.467
  0.471   0.477   0.480   0.482   0.487   0.489   0.493   0.494
  0.496   0.499   0.503   0.505   0.509   0.511   0.513   0.518
  0.520   0.521   0.525   0.527   0.528   0.530   0.531   0.533
  0.535   0.535   0.538   0.538   0.542   0.545   0.548   0.552
  0.552   0.553   0.555   0.555   0.557   0.561   0.564   0.564
  0.565   0.568   0.568   0.571   0.573   0.574   0.578   0.581
  0.583   0.584   0.586   0.588   0.589   0.590   0.591   0.592
  0.594   0.595   0.597   0.602   0.603   0.605   0.606   0.609
  0.610   0.613   0.616   0.617   0.620   0.623   0.624   0.627
  0.628   0.630   0.633   0.634   0.635   0.639   0.641   0.644
  0.647   0.648   0.649   0.651   0.651   0.652   0.660   0.666
  0.669   0.673   0.673   0.679   0.679   0.681   0.685   0.687
  0.693   0.697   0.700   0.702   0.705   0.709   0.711   0.713
  0.716   0.720   0.720   0.723   0.738   0.739   0.740   0.744
  0.746   0.750   0.752   0.755   0.756   0.763   0.765   0.767
  0.767   0.774   0.776   0.778   0.782   0.786   0.788   0.793
  0.793   0.797   0.801   0.803   0.804   0.804   0.806   0.808
  0.810   0.815   0.816   0.817   0.819   0.821   0.822   0.822
  0.824   0.826   0.828   0.831   0.833   0.835   0.837   0.839
  0.839   0.843   0.846   0.848   0.849   0.850   0.851   0.856
  0.858   0.859   0.859   0.862   0.863   0.865   0.868   0.870
  0.871   0.872   0.876   0.877   0.879   0.883   0.886   0.889
  0.892   0.896   0.896   0.900   0.903   0.904   0.906   0.909
  0.910   0.911   0.915   0.918   0.922   0.923   0.927   0.928
  0.929   0.931   0.933   0.935   0.937   0.940   0.942   0.944
  0.946   0.950   0.952   0.954   0.957   0.959   0.962   0.962
  0.964   0.966   0.968   0.971   0.972   0.973   0.979   0.983
  0.988   0.991   0.992   0.996   0.997   1.000   1.005   1.005
  1.008   1.010   1.012   1.013   1.017   1.019   1.020   1.026
  1.028   1.031   1.033   1.036   1.037   1.042   1.043   1.049
  1.049   1.054   1.059   1.059   1.061   1.063   1.067   1.075
  1.077   1.078   1.082   1.085   1.091   1.095   1.097   1.103
  1.106   1.109   1.116   1.121   1.127   1.128   1.131   1.134
  1.137   1.143   1.149   1.153   1.159   1.160   1.164   1.174
  1.178   1.180   1.183   1.187   1.191   1.197   1.209   1.210
  1.220   1.223   1.227   1.236   1.239   1.242   1.250   1.255
  1.256   1.262   1.269   1.275   1.279   1.287   1.293   1.294
  1.299   1.300   1.304   1.305   1.311   1.314   1.316   1.325
  1.333   1.337   1.338   1.341   1.350   1.355   1.359   1.363
  1.368   1.375   1.379   1.382   1.386   1.396   1.396   1.400
  1.404   1.411   1.411   1.416   1.416   1.426   1.432   1.435
  1.445   1.448   1.453   1.457   1.461   1.463   1.466   1.473
  1.476   1.477   1.479   1.482   1.495   1.495   1.505   1.513
  1.520   1.524   1.531   1.535   1.536   1.545   1.554   1.555
  1.564   1.568   1.572   1.580   1.584   1.585   1.593   1.599
  1.610   1.616   1.622   1.626   1.631   1.636   1.637   1.640
  1.646   1.654   1.658   1.666   1.670   1.671   1.678   1.682
  1.686   1.688   1.693   1.700   1.704   1.704   1.707   1.709
  1.712   1.714   1.715   1.729   1.734   1.735   1.736   1.742
  1.750   1.750   1.762   1.763   1.767   1.771   1.772   1.774
  1.777   1.785   1.785   1.792   1.793   1.798   1.809   1.810
  1.810   1.816   1.819   1.820   1.830   1.831   1.833   1.837
  1.840   1.843   1.847   1.857   1.859   1.859   1.865   1.866
  1.871   1.873   1.881   1.885   1.886   1.887   1.891   1.897
  1.898   1.901   1.906   1.908   1.912   1.913   1.915   1.923
  1.924   1.926   1.932   1.939   1.939   1.947   1.948   1.952
  1.952   1.956   1.958   1.965   1.968   1.973   1.976   1.978
  1.986   1.990   1.992   2.002   2.002   2.011   2.018   2.023
  2.032   2.037   2.039   2.039   2.042   2.054   2.061   2.062
  2.063   2.071   2.072   2.080   2.081   2.086   2.087   2.089
  2.093   2.094   2.105   2.111   2.116   2.118   2.123   2.124
  2.130   2.130   2.134   2.137   2.141   2.148   2.150   2.157
  2.160   2.166   2.169   2.171   2.173   2.180   2.186   2.188
  2.191   2.191   2.200   2.200   2.209   2.211   2.213   2.217
  2.219   2.225   2.233   2.237   2.243   2.244   2.249   2.250
  2.251   2.255   2.258   2.258   2.263   2.263   2.268   2.270
  2.278   2.285   2.287   2.291   2.291   2.297   2.298   2.299
  2.309   2.311   2.314   2.319   2.323   2.325   2.326   2.331
  2.338   2.338   2.342   2.346   2.348   2.352   2.353   2.355
  2.364   2.366   2.367   2.369   2.372   2.376   2.377   2.386
  2.388   2.393   2.394   2.402   2.403   2.414   2.419   2.421
  2.427   2.430   2.434   2.436   2.440   2.442   2.443   2.447
  2.449   2.454   2.457   2.459   2.462   2.464   2.466   2.468
  2.469   2.470   2.479   2.485   2.489   2.490   2.496   2.498
  2.508   2.512   2.520   2.521   2.525   2.525   2.530   2.531
  2.534   2.535   2.537   2.546   2.549   2.551   2.557   2.563
  2.568   2.569   2.572   2.581   2.596   2.598   2.598   2.606
  2.609   2.613   2.619   2.621   2.621   2.622   2.632   2.638
  2.639   2.642   2.650   2.652   2.656   2.657   2.663   2.665
  2.668   2.671   2.676   2.680   2.682   2.686   2.689   2.691
  2.698   2.701   2.704   2.706   2.709   2.711   2.726   2.732
  2.735   2.737   2.748   2.760   2.764   2.776   2.782   2.785
  2.789   2.791   2.796   2.806   2.819   2.822   2.825   2.827
  2.831   2.837   2.839   2.846   2.849   2.858   2.866   2.870
  2.873   2.875   2.879   2.881   2.886   2.890   2.891   2.901
  2.916   2.917   2.917   2.922   2.926   2.934   2.935   2.939
  2.955   2.962   2.965   2.967   2.972   2.994   3.005   3.018
  3.019   3.039   3.042   3.050   3.051   3.075   3.104   3.111
  3.161   3.171   3.186   3.193   3.196   3.210   3.211   3.238
  3.238   3.253   3.254   3.256   3.259   3.268   3.279   3.281
  3.293   3.302   3.308   3.315   3.321   3.328   3.330   3.338
  3.344   3.358   3.360   3.365   3.384   3.397   3.415   3.428
  3.441   3.450   3.473   3.491   3.496   3.511   3.519   3.529
  3.535   3.552   3.560   3.569   3.579   3.586   3.587   3.587
  3.612   3.637   3.729   3.734   3.841   3.849   3.901   3.904
  3.928   3.943   3.948   3.952   3.955   3.969   3.979   3.988
  4.035   4.038   4.063   4.067   4.068   4.091   4.099   4.114
  4.119   4.133   4.135   4.143   4.160   4.166   4.178   4.190
  4.203   4.204   4.224   4.239   4.243   4.246   4.250   4.264
  4.271   4.284   4.339   4.340   4.362   4.373   4.379   4.384
  4.429   4.439   4.441   4.454   4.458   4.460   4.483   4.489
  4.497   4.506   4.533   4.544   4.592   4.618   4.660   4.662
  4.679   4.682   4.702   4.702   4.719   4.748   4.764   4.789
 --------------------------------------------------------------
 
          Ground-State Mulliken Net Atomic Charges

     Atom                 Charge (a.u.)
  ----------------------------------------
      1 C                     0.298034
      2 C                    -0.127648
      3 N                    -0.458211
      4 C                    -0.062938
      5 C                     0.063035
      6 C                     0.024552
      7 C                    -0.006894
      8 C                     0.079129
      9 C                     0.257621
     10 N                    -0.529824
     11 N                    -0.590038
     12 C                     0.118963
     13 C                     0.334665
     14 S                     0.617956
     15 N                    -0.504926
     16 C                    -0.211250
     17 S                     0.305011
     18 C                    -0.108808
     19 C                    -0.234386
     20 S                     0.267387
     21 C                     0.172346
     22 C                     0.036491
     23 C                    -0.320369
     24 C                    -0.030158
     25 N                    -0.412710
     26 S                     0.267933
     27 C                     0.124898
     28 C                    -0.303093
     29 C                    -0.236754
     30 H                     0.091237
     31 H                     0.124250
     32 H                     0.104873
     33 H                     0.126628
     34 H                     0.131754
     35 H                     0.109014
     36 H                     0.117407
     37 H                     0.135755
     38 H                     0.121818
     39 C                    -0.193285
     40 H                     0.103569
     41 H                     0.089662
     42 H                     0.097800
     43 C                    -0.175728
     44 H                     0.085906
     45 C                    -0.189408
     46 H                     0.097357
     47 H                     0.083460
     48 H                     0.109734
     49 C                    -0.167501
     50 H                     0.091178
     51 C                    -0.314227
     52 H                     0.095571
     53 H                     0.095634
     54 H                     0.094893
     55 H                     0.106670
     56 C                     0.274104
     57 C                    -0.109423
     58 N                    -0.466570
     59 C                    -0.077873
     60 C                     0.072886
     61 C                     0.032430
     62 C                     0.019008
     63 C                     0.046012
     64 C                     0.237754
     65 N                    -0.511843
     66 N                    -0.536722
     67 C                     0.223956
     68 C                     0.303162
     69 S                     0.601892
     70 N                    -0.575717
     71 C                    -0.213357
     72 S                     0.300012
     73 C                    -0.105039
     74 C                    -0.223751
     75 S                     0.285524
     76 C                     0.159514
     77 C                     0.047919
     78 C                    -0.315419
     79 C                    -0.052074
     80 N                    -0.433828
     81 S                     0.269897
     82 C                     0.115087
     83 C                    -0.297722
     84 C                    -0.231723
     85 H                     0.084364
     86 H                     0.099136
     87 H                     0.107814
     88 H                     0.115912
     89 H                     0.129807
     90 H                     0.126504
     91 H                     0.110918
     92 H                     0.139278
     93 H                     0.087982
     94 C                    -0.172579
     95 H                     0.110712
     96 H                     0.118688
     97 H                     0.086349
     98 C                    -0.184217
     99 H                     0.100759
    100 C                    -0.174138
    101 H                     0.085576
    102 H                     0.088483
    103 H                     0.087597
    104 C                    -0.177450
    105 H                     0.101167
    106 C                    -0.317158
    107 H                     0.098632
    108 H                     0.102996
    109 H                     0.100084
    110 H                     0.100652
  ----------------------------------------
  Sum of atomic charges =     0.000000

 -----------------------------------------------------------------
                    Cartesian Multipole Moments
 -----------------------------------------------------------------
    Charge (ESU x 10^10)
                 0.0000
    Dipole Moment (Debye)
         X      -0.3065      Y       2.6767      Z      -0.5973
       Tot       2.7596
    Quadrupole Moments (Debye-Ang)
        XX    -452.1578     XY      21.8711     YY    -409.3853
        XZ      14.8481     YZ      -5.5388     ZZ    -430.6144
    Octopole Moments (Debye-Ang^2)
       XXX       8.9253    XXY     -36.3018    XYY     -40.9299
       YYY     445.1181    XXZ      81.3652    XYZ     -60.7510
       YYZ      39.6267    XZZ      48.9701    YZZ      34.5980
       ZZZ     -14.1405
    Hexadecapole Moments (Debye-Ang^3)
      XXXX -122619.0361   XXXY    1451.4135   XXYY  -27698.2025
      XYYY     990.3768   YYYY  -41302.7906   XXXZ    1572.2774
      XXYZ      44.9374   XYYZ    -242.5909   YYYZ    -331.2483
      XXZZ  -20967.2516   XYZZ    -267.0119   YYZZ   -8863.8961
      XZZZ    -116.0007   YZZZ      55.1203   ZZZZ   -9209.2837
 -----------------------------------------------------------------
Archival summary:
1\1\mn426\SP\ProcedureUnspecified\6-31G**\8105042\afmv_a\SunOct705:02:142018SunOct705:02:142018\0\\#,ProcedureUnspecified,6-31G**,\\0,1\S\C,1,1.80883\C,2,1.35723,1,110.666\C,3,1.41598,2,114.574,1,3.28665,0\C,4,1.40691,3,116.079,2,-1.32032,0\C,5,1.41173,4,124.577,3,-176.963,0\N,6,1.35011,5,116.221,4,-25.7377,0\C,7,1.37497,6,106.452,5,-172.32,0\H,8,1.08202,7,118.312,6,-172.919,0\C,8,1.33608,7,116.31,6,-3.5893,0\H,10,1.08126,8,122.078,7,174.708,0\C,4,1.42269,3,109.388,2,-179.427,0\H,12,1.08379,4,117.382,3,-179.447,0\C,12,1.40616,4,113.781,3,-2.16084,0\H,14,1.08193,12,125.334,4,-177.23,0\C,2,1.50916,1,121.865,3,159.903,0\N,16,1.3436,2,118.736,1,-145.492,0\C,17,1.35155,16,118.872,2,-176.541,0\H,18,1.08895,17,111.508,16,177.668,0\C,16,1.40772,2,123.337,1,32.5294,0\N,20,1.34041,16,126.569,2,7.8767,0\C,20,1.39843,16,124.533,2,-179.012,0\N,22,1.3221,20,119.204,16,178.958,0\C,22,1.3805,20,116.033,16,-1.58992,0\C,24,1.53424,22,121.233,20,-174.47,0\C,25,1.40874,24,120.775,22,-140.255,0\H,26,1.08575,25,115.716,24,-9.49827,0\C,26,1.39188,25,117.673,24,-179.595,0\H,28,1.08662,26,121.992,25,175.888,0\C,28,1.38964,26,122.755,25,0.265366,0\N,30,1.3199,28,121.961,26,-11.0588,0\C,31,1.3663,30,115.079,28,13.5602,0\H,32,1.08905,31,114.143,30,-178.754,0\C,30,1.5019,28,121.286,26,-176.118,0\H,34,1.09658,30,104.861,28,-29.8072,0\H,34,1.0974,30,110.942,28,-141.124,0\C,34,1.53851,30,112.664,28,91.7438,0\H,37,1.09672,34,108.945,30,166.699,0\H,37,1.09706,34,112.031,30,58.148,0\C,37,1.56805,34,114.248,30,-71.4015,0\H,40,1.09663,37,111.014,34,-29.3318,0\H,40,1.09698,37,104.499,34,79.729,0\C,40,1.53572,37,114.917,34,-161.578,0\H,43,1.09627,40,104.078,37,-174.438,0\H,43,1.09723,40,107.382,37,73.2518,0\C,43,1.56255,40,120.395,37,-47.9378,0\H,46,1.09714,43,109.01,40,52.3142,0\H,46,1.09736,43,112.296,40,-78.3862,0\C,46,1.55156,43,110.832,40,169.126,0\H,49,1.09657,46,106.952,43,178.547,0\H,49,1.0969,46,109.484,43,-61.9689,0\H,49,1.09703,46,109.285,43,57.5011,0\S,23,1.57346,22,105.333,20,7.17339,0\S,10,1.72066,8,110.878,7,19.6237,0\S,3,1.74721,2,128.793,1,173.247,0\H,11,2.42781,10,116.455,8,-11.7928,0\C,56,1.0861,11,173.908,10,152.148,0\C,57,1.36776,56,123.22,11,112.063,0\C,57,1.41852,56,121.428,11,-52.188,0\H,59,1.08513,57,120.766,56,-14.1395,0\C,59,1.43063,57,121.279,56,175.395,0\N,61,1.27624,59,124.154,57,1.24049,0\C,62,1.33569,61,116.415,59,-4.0822,0\H,63,1.08904,62,114.649,61,-172.588,0\C,61,1.52227,59,123.36,57,177.161,0\H,65,1.09704,61,112.071,59,67.8458,0\H,65,1.0971,61,110.965,59,179.195,0\C,58,1.5311,57,121.308,56,10.3897,0\C,68,1.40607,58,127.712,57,-34.5211,0\C,69,1.39741,68,122.849,58,-178.93,0\N,70,1.38245,69,116.641,68,174.837,0\N,69,1.39888,68,125.49,58,-5.54304,0\C,70,1.44678,69,121.685,68,-3.16146,0\N,73,1.34866,70,114.096,69,-5.12305,0\C,74,1.33923,73,126.329,70,9.81578,0\H,75,1.08847,74,115.358,73,172.609,0\C,73,1.51304,70,124.716,69,173.015,0\C,77,1.38047,73,121.892,70,-175.168,0\C,78,1.39957,77,113.03,73,179.559,0\C,79,1.36472,78,120.322,77,-8.47578,0\C,79,1.38925,78,110.216,77,-178.273,0\H,81,1.08436,79,124.187,78,168.951,0\C,81,1.3695,79,116.21,78,-8.9839,0\H,83,1.08183,81,131.882,79,-173.207,0\C,80,1.44637,79,125.989,78,170.632,0\N,85,1.34458,80,118.268,79,-21.0783,0\C,86,1.36712,85,110.072,80,170.458,0\H,87,1.08207,86,118.974,85,-171.778,0\C,87,1.37631,86,115.897,85,3.34462,0\H,89,1.08134,87,127.647,86,-177.203,0\S,71,1.54784,70,105.003,69,-2.0223,0\C,65,1.56234,61,114.681,59,-51.3522,0\H,92,1.0966,65,108.859,61,-170.986,0\H,92,1.09715,65,112.623,61,72.6987,0\C,92,1.56713,65,114.79,61,-55.5228,0\H,95,1.09666,92,112.621,65,59.7392,0\H,95,1.09707,92,105.333,65,175.667,0\C,95,1.59476,92,115.273,65,-64.233,0\H,98,1.09655,95,106.562,92,69.049,0\H,98,1.09666,95,114.249,92,-47.3621,0\C,98,1.57299,95,109.94,92,-168.92,0\H,101,1.09673,98,109.866,95,45.8423,0\H,101,1.09684,98,107.47,95,162.232,0\C,101,1.47159,98,110.365,95,-87.9829,0\H,104,1.0966,101,111.605,98,59.3616,0\H,104,1.09691,101,112.963,98,-178.922,0\H,104,1.09765,101,118.029,98,-51.0999,0\S,78,1.74268,77,131.973,73,-11.2899,0\S,89,1.7544,87,112.892,86,-3.36603,0\S,77,1.77405,73,129.259,70,-7.585,0\\\@

 Total job time:  82.89s(wall), 907.19s(cpu) 
 Sun Oct  7 05:02:14 2018

        *************************************************************
        *                                                           *
        *  Thank you very much for using Q-Chem.  Have a nice day.  *
        *                                                           *
        *************************************************************


