
Running Job 1 of 1 ./6/53.qcin
qchem ./6/53.qcin_22266.0 /tmpu/cab_g/afmv_a/scratch_qchem/qchem22266/ 1
/tmpu/appuserlic/qchem4.4/serial-multicore/exe/qcprog.exe_s ./6/53.qcin_22266.0 /tmpu/cab_g/afmv_a/scratch_qchem/qchem22266/
Check license passed

                  Welcome to Q-Chem
     A Quantum Leap Into The Future Of Chemistry


 Q-Chem 4.4, Q-Chem, Inc., Pleasanton, CA (2016)

 Y. Shao,  Z. Gan,  E. Epifanovsky,  A. T. B. Gilbert,  M. Wormit,  
 J. Kussmann,  A. W. Lange,  A. Behn,  J. Deng,  X. Feng,  D. Ghosh,  
 M. Goldey,  P. R. Horn,  L. D. Jacobson,  I. Kaliman,  F. Rob,  
 R. Z. Khaliullin,  T. Kus,  A. Landau,  J. Liu,  E. I. Proynov,  Y. M. Rhee,  
 R. M. Richard,  M. A. Rohrdanz,  R. P. Steele,  E. J. Sundstrom,  
 H. L. Woodcock III,  P. M. Zimmerman,  D. Zuev,  B. Albrecht,  E. Alguire,  
 B. Austin,  S. A. Baeppler,  G. J. O. Beran,  Y. A. Bernard,  E. Berquist,  
 K. Brandhorst,  K. B. Bravaya,  S. T. Brown,  D. Casanova,  C.-M. Chang,  
 Y. Chen,  S. H. Chien,  K. D. Closser,  M. P. Coons,  D. L. Crittenden,  
 S. Dasgupta,  M. Diedenhofen,  R. A. DiStasio Jr.,  H. Do,  A. D. Dutoi,  
 R. G. Edgar,  P.-T. Fang,  S. Fatehi,  Q. Feng,  L. Fusti-Molnar,  
 A. Ghysels,  A. Golubeva-Zadorozhnaya,  J. Gomes,  A. Gunina,  
 M. W. D. Hanson-Heine,  P. H. P. Harbach,  A. W. Hauser,  J. E. Herr,  
 E. G. Hohenstein,  Z. C. Holden,  K. Hui,  T.-C. Jagau,  H. Ji,  B. Kaduk,  
 K. Khistyaev,  Jaehoon Kim,  Jihan Kim,  R. A. King,  P. Klunzinger,  
 K. Koh,  D. Kosenkov,  T. Kowalczyk,  C. M. Krauter,  A. Kunitsa,  
 K. U. Lao,  A. Laurent,  K. V. Lawler,  J. Lee,  D. Lefrancois,  S. Lehtola,  
 S. V. Levchenko,  C. Y. Lin,  Y.-S. Lin,  F. Liu,  E. Livshits,  
 R. C. Lochan,  A. Luenser,  P. Manohar,  S. F. Manzer,  S.-P. Mao,  Y. Mao,  
 N. Mardirossian,  A. V. Marenich,  L. A. Martinez-Martinez,  S. A. Maurer,  
 N. J. Mayhall,  J.-M. Mewes,  A. F. Morrison,  K. Nanda,  T. S. Nguyen-Beck,  
 C. M. Oana,  R. Olivares-Amaya,  D. P. O'Neill,  J. A. Parkhill,  
 T. M. Perrine,  R. Peverati,  P. A. Pieniazek,  F. Plasser,  A. Prociuk,  
 D. R. Rehn,  E. Rosta,  N. J. Russ,  N. Sergueev,  S. M. Sharada,  
 S. Sharma,  D. W. Small,  A. Sodt,  T. Stauch,  T. Stein,  D. Stuck,  
 Y.-C. Su,  A. J. W. Thom,  T. Tsuchimochi,  L. Vogt,  O. Vydrov,  T. Wang,  
 M. A. Watson,  J. Wenzel,  A. White,  C. F. Williams,  V. Vanovschi,  
 K. Yao,  S. Yeganeh,  S. R. Yost,  Z.-Q. You,  I. Y. Zhang,  X. Zhang,  
 Y. Zhao,  B. R. Brooks,  G. K. L. Chan,  D. M. Chipman,  C. J. Cramer,  
 W. A. Goddard III,  M. S. Gordon,  W. J. Hehre,  A. Klamt,  
 H. F. Schaefer III,  M. W. Schmidt,  C. D. Sherrill,  D. G. Truhlar,  
 A. Warshel,  X. Xu,  A. Aspuru-Guzik,  R. Baer,  A. T. Bell,  N. A. Besley,  
 J.-D. Chai,  A. Dreuw,  B. D. Dunietz,  T. R. Furlani,  S. R. Gwaltney,  
 C.-P. Hsu,  Y. Jung,  J. Kong,  D. S. Lambrecht,  W. Liang,  C. Ochsenfeld,  
 V. A. Rassolov,  L. V. Slipchenko,  J. E. Subotnik,  T. Van Voorhis,  
 J. M. Herbert,  A. I. Krylov,  P. M. W. Gill,  M. Head-Gordon

 Contributors to earlier versions of Q-Chem not listed above: 
 R. D. Adamson,  J. Baker,  E. F. C. Byrd,  A. K. Chakraborty,  C.-L. Cheng,  
 H. Dachsel,  R. J. Doerksen,  G. Hawkins,  A. Heyden,  S. Hirata,  
 G. Kedziora,  F. J. Keil,  C. Kelley,  P. P. Korambath,  W. Kurlancheek,  
 A. M. Lee,  M. S. Lee,  D. Liotard,  I. Lotan,  P. E. Maslen,  N. Nair,  
 D. Neuhauser,  R. Olson,  B. Peters,  J. Ritchie,  N. E. Schultz,  
 N. Shenvi,  A. C. Simmonett,  K. S. Thanthiriwatte,  Q. Wu,  W. Zhang

 Please cite Q-Chem as follows:
 Y. Shao et al., Mol. Phys. 113, 184-215 (2015)
 DOI: 10.1080/00268976.2014.952696

 Q-Chem 4.4.2 for Intel X86 Linux

 Parts of Q-Chem use Armadillo 5.200.1 (Boston Tea Smuggler).
 http://arma.sourceforge.net/

 Q-Chem begins on Sun Oct  7 04:49:37 2018  

Host: 
0

     Scratch files written to /tmpu/cab_g/afmv_a/scratch_qchem/qchem22266//
 Dec716 11556_ 22328  22283 4050   
Processing $rem in /tmpu/appuserlic/qchem4.4/serial-multicore/config/preferences.
 MEM_TOTAL  2000 
FILE_GEOM_ORG=        593

Checking the input file for inconsistencies... 	...done.

--------------------------------------------------------------
User input:
--------------------------------------------------------------
$comment
SP
$end

$rem
MEM_STATIC 5000
MEM_TOTAL 20000
JOBTYPE SP
EXCHANGE B3LYP
BASIS 6-31g(d,p)
$end

$molecule
0 1
C          19.442000      7.440000     -2.721000
C          20.372000      8.368000     -2.116000
N          18.317000      6.951000     -2.141000
C          20.126000      8.796000     -0.794000
C          18.083000      7.379000     -0.899000
C          18.952000      8.315000     -0.145000
C          18.631000      8.645000      1.331000
C          17.327000      8.890000      1.773000
C          19.663000      8.814000      2.284000
N          17.061000      9.376000      2.980000
N          20.936000      8.498000      2.011000
C          19.423000      9.276000      3.562000
C          18.064000      9.591000      3.859000
S          21.695000      8.679000      3.475000
N          20.469000      9.294000      4.400000
C          17.683000     10.098000      5.171000
S          18.601000      9.948000      6.683000
C          16.505000     10.739000      5.520000
C          17.450000     10.859000      7.667000
S          15.206000     11.149000      4.415000
C          16.432000     11.201000      6.821000
C          17.624000     11.307000      8.992000
C          14.437000     11.993000      5.790000
C          15.196000     11.925000      6.984000
N          18.789000     10.989000      9.530000
S          16.542000     12.261000      9.961000
C          18.812000     11.270000     10.864000
C          17.626000     11.832000     11.316000
C          19.606000      7.074000     -4.212000
H          21.174000      8.857000     -2.661000
H          20.809000      9.502000     -0.332000
H          17.180000      6.982000     -0.436000
H          16.492000      8.845000      1.075000
H          13.496000     12.501000      5.624000
H          14.932000     12.370000      7.936000
H          19.630000     10.913000     11.474000
H          17.391000     12.132000     12.329000
H          20.576000      7.433000     -4.579000
C          18.525000      7.646000     -5.147000
H          19.571000      5.986000     -4.348000
H          17.540000      7.249000     -4.871000
H          18.721000      7.323000     -6.177000
C          18.475000      9.161000     -5.022000
H          17.605000      9.373000     -5.656000
C          19.545000      9.885000     -5.731000
H          18.324000      9.515000     -3.995000
H          19.572000      9.603000     -6.791000
H          20.518000      9.572000     -5.333000
C          19.293000     11.367000     -5.554000
H          19.734000     11.901000     -6.404000
C          19.885000     11.990000     -4.293000
H          18.233000     11.633000     -5.645000
H          20.958000     11.827000     -4.454000
H          19.594000     11.381000     -3.427000
H          19.658000     13.034000     -4.046000
C           6.164000     21.993000     13.470000
C           6.242000     20.611000     13.215000
N           7.218000     22.811000     13.221000
C           7.367000     20.070000     12.556000
C           8.355000     22.269000     12.712000
C           8.487000     20.959000     12.298000
C           9.726000     20.416000     11.570000
C          10.960000     20.818000     11.922000
C           9.665000     19.330000     10.619000
N          12.073000     20.350000     11.327000
N           8.508000     18.841000     10.112000
C          10.750000     18.821000      9.991000
C          11.956000     19.383000     10.390000
S           8.929000     17.742000      8.946000
N          10.507000     17.967000      8.994000
C          13.297000     18.831000      9.874000
S          13.591000     17.223000      9.271000
C          14.574000     19.464000     10.073000
C          15.350000     17.523000      9.282000
S          14.855000     21.076000     10.532000
C          15.639000     18.713000      9.791000
C          16.311000     16.496000      8.788000
C          16.594000     20.732000     10.409000
C          16.864000     19.446000     10.022000
N          17.598000     16.625000      9.111000
S          15.868000     15.224000      7.727000
C          18.283000     15.549000      8.661000
C          17.572000     14.787000      7.803000
C           4.891000     22.570000     14.035000
H           5.403000     19.949000     13.411000
H           7.483000     19.044000     12.220000
H           9.209000     22.916000     12.517000
H          11.088000     21.560000     12.709000
H          17.213000     21.562000     10.725000
H          17.886000     19.169000      9.793000
H          19.270000     15.396000      9.079000
H          17.885000     13.950000      7.193000
H           4.194000     21.729000     14.131000
C           4.241000     23.643000     13.060000
H           5.098000     23.060000     14.994000
H           4.075000     23.229000     12.058000
H           4.938000     24.481000     12.931000
C           2.868000     24.129000     13.728000
H           2.999000     24.097000     14.816000
C           1.582000     23.350000     13.329000
H           2.734000     25.144000     13.333000
H           1.676000     22.309000     13.662000
H           1.694000     23.280000     12.240000
C           0.249000     24.052000     13.691000
H           0.366000     24.530000     14.671000
C          -1.031000     23.095000     13.615000
H           0.153000     24.884000     12.982000
H          -1.189000     22.440000     12.749000
H          -2.035000     23.500000     13.793000
H          -0.958000     22.358000     14.425000
$end

--------------------------------------------------------------
 ----------------------------------------------------------------
             Standard Nuclear Orientation (Angstroms)
    I     Atom           X                Y                Z
 ----------------------------------------------------------------
    1      C     -12.6014652381     3.2429482625     0.2795884613
    2      C     -12.2492996775     2.2478875101    -0.7093213005
    3      N     -11.9070011867     3.5177198467     1.4124460242
    4      C     -11.1013246015     1.4583954303    -0.4851796471
    5      C     -10.8117128120     2.7799151755     1.6034738844
    6      C     -10.3344836848     1.7147953424     0.6882989823
    7      C      -9.1123980289     0.8525991451     1.0802701124
    8      C      -7.9653001915     1.4054514276     1.6584793353
    9      C      -9.0629472060    -0.5280265136     0.7749483044
   10      N      -6.8377461085     0.7194038336     1.8059970931
   11      N     -10.1369366836    -1.1918116457     0.3267854986
   12      C      -7.9237563221    -1.2860670342     0.9536847006
   13      C      -6.7870777168    -0.5833070048     1.4520872381
   14      S      -9.6308361582    -2.7716572434     0.3173969012
   15      N      -8.0363183090    -2.6019036500     0.7243644016
   16      C      -5.5209399718    -1.2698572319     1.6736679149
   17      S      -5.2721924219    -3.0163259348     1.8720103618
   18      C      -4.2684681094    -0.7005207591     1.8396083100
   19      C      -3.5143271445    -2.9173467167     2.0239668713
   20      S      -3.9130857184     1.0149150988     1.7529528235
   21      C      -3.2123182618    -1.5862790881     1.9461619679
   22      C      -2.5949031536    -3.9856189296     2.0316482771
   23      C      -2.1906644962     0.5643354878     1.9096855488
   24      C      -1.9844077806    -0.8334825688     2.0092036270
   25      N      -3.1438118595    -5.1825775330     1.9142500895
   26      S      -0.8602665536    -3.9178231784     2.1106457574
   27      C      -2.2297421053    -6.1704782644     2.1323661814
   28      C      -0.9598448086    -5.6787241823     2.4012207490
   29      C     -13.7627083786     4.2174971296    -0.0131603634
   30      H     -12.7376720294     2.1608900554    -1.6753823176
   31      H     -10.8182895880     0.7163233321    -1.2251723377
   32      H     -10.2583713950     3.0020161996     2.5155437345
   33      H      -7.9099426217     2.4751386343     1.8563652097
   34      H      -1.4470281171     1.3503634813     1.8933782123
   35      H      -1.0278447735    -1.3339417479     2.1016851035
   36      H      -2.5603299737    -7.1943645469     2.2374449223
   37      H      -0.0697299545    -6.2550547714     2.6178600771
   38      H     -14.3218994810     3.8765397884    -0.8937984289
   39      C     -13.3410667599     5.6743851312    -0.2771029637
   40      H     -14.4554939121     4.2580080747     0.8364701845
   41      H     -12.8474857268     6.0901713426     0.6103144072
   42      H     -14.2318689743     6.2874336588    -0.4622729332
   43      C     -12.3563447552     5.7313357293    -1.4348720265
   44      H     -12.0941795653     6.7963418517    -1.4060384982
   45      C     -12.9557527270     5.6072901984    -2.7754240732
   46      H     -11.4750849340     5.0931227001    -1.2973538209
   47      H     -13.7424328404     6.3577655429    -2.9229847604
   48      H     -13.4712447819     4.6422014839    -2.8527138817
   49      C     -11.8441787132     5.7566779419    -3.7919099383
   50      H     -12.2728397819     6.1395303030    -4.7256180072
   51      C     -11.1000065693     4.4728647491    -4.1479232894
   52      H     -11.1303487656     6.5468995219    -3.5299296710
   53      H     -11.9053861348     3.8698348702    -4.5855735158
   54      H     -10.7923808888     3.9729753011    -3.2200251374
   55      H     -10.2184687717     4.5196890632    -4.7984404643
   56      C      12.8069479887     1.0896887224     0.4195336326
   57      C      11.8093537946     1.1213753118     1.4119220565
   58      N      12.5348311674     0.6406091543    -0.8319938250
   59      C      10.4684144335     0.8259322545     1.0845353895
   60      C      11.2722217359     0.2253319610    -1.1130210053
   61      C      10.1945754489     0.3453458727    -0.2590917687
   62      C       8.7473182539     0.0257003948    -0.6631058527
   63      C       8.4725447786    -1.0226839895    -1.4591295458
   64      C       7.6043545282     0.6910900002    -0.0813768824
   65      N       7.2177518340    -1.3522492573    -1.8178765328
   66      N       7.6952974251     1.7973099810     0.6950416539
   67      C       6.3228751247     0.4014956056    -0.4048511859
   68      C       6.1845251237    -0.6510251418    -1.3006973522
   69      S       6.1440688605     2.3028186683     0.9827027522
   70      N       5.3938656746     1.2395992451     0.0608716190
   71      C       4.7945577706    -1.1969285527    -1.6738209552
   72      S       3.3414888246    -1.0663129481    -0.7213299043
   73      C       4.5423197920    -2.1418933814    -2.7294896885
   74      C       2.5096313511    -2.2160020823    -1.8031940540
   75      S       5.5840992443    -2.5455776990    -4.0100835135
   76      C       3.3290641687    -2.6948497906    -2.7294427947
   77      C       1.0738662187    -2.5633901869    -1.6027296196
   78      C       4.3111494875    -3.6318831713    -4.6076831600
   79      C       3.1834666975    -3.6215135442    -3.8300656474
   80      N       0.5926021217    -3.6463367919    -2.2134263690
   81      S      -0.0205635402    -1.5774440946    -0.7251831502
   82      C      -0.6876005550    -3.8475637500    -1.8260120974
   83      C      -1.2137781850    -2.7960955684    -1.1627770224
   84      C      14.2003742671     1.5559741926     0.7566153245
   85      H      12.0183602806     1.4796563547     2.4161789873
   86      H       9.6104027293     0.9203346606     1.7432706179
   87      H      11.0463902010    -0.1447848566    -2.1120023160
   88      H       9.2822624099    -1.6367592431    -1.8510299674
   89      H       4.6199006557    -4.2131720210    -5.4671556665
   90      H       2.3020092513    -4.1488931686    -4.1743874480
   91      H      -1.1063121596    -4.8244716308    -2.0324911150
   92      H      -2.2317179566    -2.6132890127    -0.8449431280
   93      H      14.1658703243     1.8809495103     1.8032797984
   94      C      14.6433135084     2.7960046323    -0.1325322095
   95      H      14.9158901354     0.7419163628     0.5893523822
   96      H      13.9239416674     3.6208386979    -0.0610555094
   97      H      14.6571843740     2.4953961201    -1.1880586760
   98      C      16.1001570933     3.2446954878     0.3612615585
   99      H      16.6285407037     2.3444804618     0.6964520524
  100      C      16.1579153878     4.3334240875     1.4708434688
  101      H      16.5438560342     3.7062562316    -0.5299729390
  102      H      15.6866059564     3.9425551240     2.3810604063
  103      H      15.4294348132     5.0656116818     1.1012729352
  104      C      17.5427233541     5.0004099544     1.6662245063
  105      H      18.3150946739     4.2293620582     1.5589832538
  106      C      17.6779286562     5.8306494162     3.0272707812
  107      H      17.6780408938     5.6567338169     0.7972888638
  108      H      16.8910779554     6.5301955625     3.3362144067
  109      H      18.5945575269     6.3940137894     3.2420662572
  110      H      17.6691073622     5.1216057647     3.8649922653
 ----------------------------------------------------------------
 Molecular Point Group                 C1    NOp =  1
 Largest Abelian Subgroup              C1    NOp =  1
 Nuclear Repulsion Energy = 10598.0531200317 hartrees
 There are      270 alpha and      270 beta electrons
 Requested basis set is 6-31G(d,p)
 There are 406 shells and 1262 basis functions

 Total QAlloc Memory Limit  20000 MB
 Mega-Array Size      4888 MB
 MEM_STATIC part      5000 MB
 A cutoff of  1.0D-08 yielded  13167 shell pairs
 There are    137157 function pairs
 
 -------------------------------------------------------
 OpenMP Integral Computing Module                       
 Release: version 1.0, May 2013, Q-Chem Inc. Pittsburgh 
 -------------------------------------------------------
 Integral Job Info:
 Integral job number is                      11
 Integral operator is                         1
 short-range coefficients                     0
 long-range coefficients              100000000
 Omega coefficients                           0
 if combine SR and LR in K                    0
 Integral screening is                        0
 Integral computing path is                   2
 max size of driver memory is            800000
 size of driver memory is                593474
 size of scratch memory is             15166112
 max col of scratch BK array               1296
 max len of scratch array in speh3          155
 max len of scratch index in speh4           18
 max int batch size is                      520
 min int batch size is                       52
 fixed nKL is                                52
 max L of basis functions is                  2
 order of int derivative is                   0
 number of shells is                        406
 number of basis is                        1262
 number of cartesian basis is              1262
 number of contracted shell pairs         13167
 number of primitive shell pairs          42770
 maxK2 (contraction) of shell pair           36
 max number of K2 of shell pair               1
 max number of CS2 of shell pair           1331
 max number of PS2 of shell pair           7962
 mem total for path MDJ                  283080
 -------------------------------------------------------
 Smallest overlap matrix eigenvalue = 3.93E-04

 Scale SEOQF with 1.000000e-03/1.000000e-02/1.000000e-02

 Standard Electronic Orientation quadrupole field applied
 Nucleus-field energy     =     0.0000000297 hartrees
 Guess from superposition of atomic densities
 Warning:  Energy on first SCF cycle will be non-variational
 A restricted hybrid HF-DFT SCF calculation will be
 performed using Pulay DIIS extrapolation
 Exchange:     0.2000 Hartree-Fock + 0.0800 Slater + 0.7200 B88
 Correlation:  0.1900 VWN1RPA + 0.8100 LYP
 Using SG-1 standard quadrature grid
 SCF converges when DIIS error is below 1.0E-05
 using 16 threads for integral computing 
 -------------------------------------------------------
 OpenMP BLAS3 based DFT computing Module                
 Release: version 1.0, May 2013, Q-Chem Inc. Pittsburgh 
 -------------------------------------------------------
 ---------------------------------------
  Cycle       Energy         DIIS Error
 ---------------------------------------
    1   -5680.2283969912      2.16E-02
    2   -5662.4608468535      2.17E-03
    3   -5660.7496966430      3.54E-03
    4   -5663.2857185237      9.98E-04
    5   -5663.4580760055      4.21E-04
    6   -5663.4792941941      2.63E-04
    7   -5663.4923298842      7.60E-05
    8   -5663.4933561779      2.84E-05
    9   -5663.4935022611      1.15E-05
   10   -5663.4935263360      4.29E-06 Convergence criterion met
 ---------------------------------------
 SCF time:  CPU 1006.13 s  wall 89.41 s
 SCF   energy in the final basis set = -5663.4935263360
 Total energy in the final basis set = -5663.4935263360
 
 --------------------------------------------------------------
 
                    Orbital Energies (a.u.)
 --------------------------------------------------------------
 
 Alpha MOs
 -- Occupied --
-88.995 -88.991 -88.933 -88.927 -88.925 -88.922 -88.914 -88.899
-14.397 -14.391 -14.388 -14.382 -14.355 -14.348 -14.339 -14.339
-14.336 -14.329 -10.268 -10.267 -10.266 -10.266 -10.259 -10.257
-10.255 -10.251 -10.242 -10.241 -10.240 -10.240 -10.239 -10.239
-10.237 -10.236 -10.233 -10.233 -10.232 -10.231 -10.230 -10.230
-10.229 -10.224 -10.224 -10.223 -10.222 -10.220 -10.219 -10.218
-10.214 -10.212 -10.211 -10.209 -10.208 -10.198 -10.198 -10.196
-10.190 -10.189 -10.186 -10.183 -10.181 -10.179 -10.178 -10.176
-10.174 -10.173 -10.173 -10.167  -8.051  -8.047  -7.993  -7.988
 -7.984  -7.980  -7.974  -7.961  -6.016  -6.012  -6.011  -6.009
 -6.006  -6.004  -5.957  -5.954  -5.952  -5.950  -5.949  -5.948
 -5.945  -5.945  -5.945  -5.941  -5.941  -5.938  -5.937  -5.935
 -5.930  -5.925  -5.921  -5.917  -1.050  -1.044  -0.973  -0.972
 -0.966  -0.961  -0.941  -0.931  -0.920  -0.920  -0.913  -0.905
 -0.846  -0.843  -0.830  -0.829  -0.819  -0.816  -0.815  -0.807
 -0.804  -0.799  -0.797  -0.788  -0.785  -0.780  -0.772  -0.766
 -0.751  -0.746  -0.741  -0.738  -0.727  -0.720  -0.712  -0.705
 -0.696  -0.691  -0.681  -0.677  -0.659  -0.655  -0.650  -0.648
 -0.641  -0.637  -0.627  -0.622  -0.614  -0.606  -0.606  -0.597
 -0.595  -0.589  -0.586  -0.584  -0.583  -0.581  -0.566  -0.559
 -0.552  -0.547  -0.545  -0.541  -0.529  -0.527  -0.520  -0.514
 -0.506  -0.505  -0.501  -0.498  -0.490  -0.489  -0.480  -0.479
 -0.475  -0.474  -0.472  -0.471  -0.465  -0.456  -0.455  -0.448
 -0.447  -0.442  -0.439  -0.439  -0.438  -0.436  -0.435  -0.433
 -0.428  -0.425  -0.423  -0.423  -0.417  -0.416  -0.415  -0.412
 -0.412  -0.408  -0.404  -0.403  -0.402  -0.401  -0.400  -0.399
 -0.396  -0.395  -0.395  -0.392  -0.388  -0.387  -0.386  -0.384
 -0.382  -0.380  -0.373  -0.371  -0.365  -0.360  -0.360  -0.359
 -0.358  -0.354  -0.353  -0.352  -0.350  -0.346  -0.344  -0.342
 -0.340  -0.337  -0.336  -0.335  -0.333  -0.331  -0.325  -0.322
 -0.314  -0.313  -0.309  -0.308  -0.308  -0.304  -0.303  -0.303
 -0.301  -0.297  -0.295  -0.290  -0.289  -0.282  -0.281  -0.279
 -0.276  -0.272  -0.268  -0.267  -0.266  -0.256  -0.251  -0.247
 -0.245  -0.245  -0.236  -0.232  -0.196  -0.190
 -- Virtual --
 -0.120  -0.113  -0.080  -0.070  -0.043  -0.035  -0.030  -0.025
 -0.020  -0.018  -0.014  -0.010  -0.009  -0.009  -0.008  -0.001
  0.005   0.009   0.018   0.026   0.029   0.034   0.036   0.038
  0.046   0.052   0.055   0.057   0.066   0.078   0.087   0.092
  0.095   0.100   0.102   0.103   0.104   0.110   0.111   0.113
  0.114   0.115   0.119   0.120   0.121   0.123   0.124   0.126
  0.128   0.128   0.130   0.132   0.134   0.134   0.137   0.149
  0.150   0.151   0.156   0.156   0.158   0.160   0.161   0.162
  0.163   0.164   0.170   0.170   0.171   0.176   0.177   0.178
  0.179   0.186   0.186   0.189   0.191   0.193   0.196   0.197
  0.199   0.204   0.206   0.207   0.213   0.214   0.217   0.217
  0.218   0.219   0.223   0.228   0.231   0.232   0.236   0.239
  0.241   0.242   0.246   0.249   0.250   0.253   0.256   0.259
  0.262   0.263   0.265   0.268   0.269   0.273   0.273   0.277
  0.277   0.284   0.286   0.287   0.289   0.290   0.301   0.303
  0.306   0.307   0.310   0.313   0.314   0.317   0.320   0.321
  0.324   0.327   0.328   0.333   0.338   0.341   0.343   0.349
  0.351   0.354   0.357   0.360   0.360   0.365   0.369   0.371
  0.372   0.376   0.377   0.383   0.386   0.390   0.392   0.401
  0.403   0.413   0.417   0.419   0.422   0.424   0.435   0.436
  0.440   0.443   0.453   0.454   0.456   0.466   0.469   0.473
  0.478   0.481   0.487   0.488   0.493   0.495   0.497   0.498
  0.499   0.504   0.507   0.510   0.512   0.514   0.515   0.517
  0.521   0.522   0.527   0.527   0.529   0.530   0.533   0.535
  0.535   0.535   0.539   0.543   0.544   0.544   0.548   0.549
  0.549   0.553   0.558   0.562   0.563   0.564   0.565   0.569
  0.570   0.573   0.574   0.574   0.575   0.577   0.580   0.582
  0.585   0.586   0.590   0.592   0.593   0.595   0.596   0.598
  0.600   0.604   0.605   0.606   0.607   0.612   0.613   0.614
  0.615   0.618   0.620   0.622   0.622   0.625   0.629   0.632
  0.633   0.635   0.637   0.637   0.641   0.642   0.646   0.648
  0.654   0.655   0.656   0.658   0.662   0.662   0.665   0.666
  0.672   0.678   0.682   0.682   0.690   0.691   0.692   0.694
  0.697   0.701   0.706   0.707   0.716   0.718   0.720   0.723
  0.728   0.732   0.736   0.738   0.740   0.744   0.746   0.749
  0.752   0.754   0.757   0.757   0.760   0.762   0.764   0.768
  0.773   0.775   0.780   0.782   0.785   0.789   0.789   0.794
  0.796   0.797   0.802   0.803   0.804   0.806   0.809   0.812
  0.813   0.815   0.816   0.818   0.819   0.822   0.824   0.826
  0.828   0.830   0.831   0.831   0.833   0.834   0.835   0.838
  0.838   0.842   0.843   0.845   0.846   0.848   0.849   0.851
  0.852   0.858   0.860   0.862   0.865   0.867   0.868   0.869
  0.873   0.874   0.874   0.877   0.878   0.879   0.882   0.889
  0.892   0.894   0.900   0.902   0.903   0.904   0.907   0.913
  0.914   0.916   0.919   0.921   0.923   0.924   0.928   0.933
  0.934   0.936   0.937   0.938   0.939   0.943   0.945   0.947
  0.948   0.950   0.953   0.955   0.957   0.961   0.961   0.962
  0.966   0.970   0.972   0.975   0.976   0.983   0.984   0.987
  0.988   0.991   0.991   0.992   0.996   1.002   1.002   1.004
  1.007   1.010   1.011   1.014   1.016   1.018   1.022   1.025
  1.030   1.031   1.033   1.035   1.037   1.040   1.048   1.049
  1.050   1.052   1.056   1.065   1.067   1.069   1.072   1.074
  1.084   1.085   1.088   1.093   1.097   1.102   1.104   1.107
  1.114   1.121   1.131   1.134   1.136   1.138   1.146   1.151
  1.152   1.154   1.157   1.161   1.163   1.169   1.178   1.182
  1.192   1.194   1.200   1.205   1.205   1.211   1.214   1.217
  1.230   1.235   1.239   1.245   1.250   1.259   1.262   1.265
  1.271   1.273   1.276   1.278   1.280   1.291   1.291   1.301
  1.304   1.312   1.315   1.319   1.322   1.326   1.333   1.333
  1.336   1.337   1.339   1.345   1.348   1.364   1.368   1.369
  1.374   1.378   1.379   1.386   1.391   1.396   1.398   1.401
  1.403   1.409   1.410   1.420   1.423   1.431   1.433   1.436
  1.442   1.443   1.444   1.446   1.446   1.451   1.460   1.466
  1.471   1.474   1.475   1.477   1.484   1.492   1.496   1.497
  1.511   1.515   1.535   1.536   1.539   1.542   1.560   1.561
  1.573   1.582   1.588   1.596   1.599   1.601   1.603   1.603
  1.627   1.633   1.634   1.637   1.639   1.649   1.651   1.653
  1.659   1.662   1.667   1.670   1.673   1.680   1.682   1.683
  1.687   1.689   1.691   1.692   1.702   1.704   1.706   1.709
  1.715   1.718   1.724   1.728   1.729   1.736   1.741   1.742
  1.743   1.749   1.756   1.756   1.760   1.770   1.771   1.775
  1.779   1.780   1.786   1.787   1.788   1.796   1.805   1.811
  1.819   1.826   1.829   1.831   1.834   1.836   1.837   1.842
  1.847   1.848   1.849   1.855   1.858   1.864   1.867   1.868
  1.872   1.877   1.879   1.880   1.885   1.888   1.891   1.894
  1.896   1.902   1.904   1.908   1.913   1.915   1.922   1.925
  1.932   1.933   1.936   1.940   1.946   1.947   1.949   1.954
  1.959   1.962   1.974   1.975   1.983   1.988   1.995   2.004
  2.005   2.007   2.010   2.015   2.018   2.023   2.028   2.030
  2.035   2.039   2.044   2.047   2.053   2.054   2.071   2.072
  2.081   2.082   2.084   2.088   2.091   2.098   2.100   2.103
  2.105   2.107   2.111   2.117   2.119   2.125   2.128   2.130
  2.134   2.135   2.137   2.138   2.146   2.147   2.152   2.159
  2.161   2.167   2.169   2.174   2.179   2.182   2.184   2.187
  2.187   2.189   2.189   2.195   2.198   2.203   2.208   2.211
  2.217   2.220   2.223   2.225   2.230   2.234   2.242   2.249
  2.254   2.261   2.262   2.264   2.265   2.273   2.282   2.284
  2.286   2.288   2.290   2.297   2.299   2.301   2.303   2.311
  2.313   2.317   2.319   2.320   2.322   2.325   2.326   2.327
  2.337   2.338   2.343   2.345   2.350   2.355   2.357   2.358
  2.360   2.366   2.374   2.376   2.378   2.383   2.386   2.389
  2.395   2.396   2.397   2.401   2.403   2.412   2.416   2.420
  2.428   2.429   2.430   2.433   2.435   2.437   2.439   2.447
  2.450   2.455   2.458   2.461   2.462   2.466   2.469   2.472
  2.475   2.479   2.480   2.500   2.501   2.504   2.508   2.515
  2.517   2.521   2.524   2.526   2.532   2.535   2.537   2.538
  2.540   2.545   2.547   2.549   2.551   2.553   2.554   2.560
  2.564   2.565   2.574   2.589   2.593   2.593   2.599   2.601
  2.602   2.613   2.617   2.621   2.625   2.627   2.633   2.635
  2.638   2.647   2.651   2.653   2.657   2.657   2.667   2.668
  2.671   2.673   2.677   2.680   2.684   2.687   2.690   2.696
  2.698   2.702   2.704   2.710   2.715   2.724   2.727   2.733
  2.737   2.741   2.742   2.749   2.763   2.772   2.777   2.790
  2.796   2.805   2.812   2.816   2.823   2.829   2.830   2.836
  2.840   2.845   2.845   2.848   2.856   2.867   2.869   2.869
  2.872   2.878   2.886   2.890   2.891   2.896   2.901   2.907
  2.914   2.915   2.919   2.927   2.938   2.942   2.948   2.951
  2.957   2.965   2.967   2.969   2.982   2.982   2.986   3.014
  3.027   3.053   3.072   3.078   3.096   3.108   3.109   3.124
  3.147   3.152   3.153   3.180   3.189   3.197   3.233   3.238
  3.239   3.247   3.252   3.261   3.267   3.272   3.277   3.283
  3.287   3.297   3.298   3.299   3.311   3.320   3.337   3.339
  3.342   3.352   3.358   3.381   3.399   3.400   3.411   3.418
  3.420   3.438   3.457   3.468   3.491   3.496   3.521   3.538
  3.543   3.561   3.579   3.580   3.581   3.586   3.610   3.612
  3.640   3.644   3.685   3.725   3.840   3.847   3.906   3.925
  3.945   3.949   3.954   3.970   3.974   3.978   3.989   3.992
  4.028   4.062   4.071   4.079   4.082   4.087   4.109   4.118
  4.122   4.127   4.144   4.152   4.163   4.164   4.177   4.183
  4.201   4.204   4.238   4.242   4.252   4.263   4.273   4.276
  4.282   4.296   4.307   4.333   4.373   4.381   4.388   4.394
  4.420   4.435   4.448   4.458   4.467   4.475   4.482   4.496
  4.503   4.531   4.541   4.557   4.576   4.654   4.663   4.667
  4.693   4.700   4.710   4.728   4.739   4.760   4.772   4.787
 --------------------------------------------------------------
 
          Ground-State Mulliken Net Atomic Charges

     Atom                 Charge (a.u.)
  ----------------------------------------
      1 C                     0.255839
      2 C                    -0.125312
      3 N                    -0.457236
      4 C                    -0.050318
      5 C                     0.076799
      6 C                     0.013133
      7 C                     0.036739
      8 C                     0.061204
      9 C                     0.217419
     10 N                    -0.517352
     11 N                    -0.550884
     12 C                     0.244706
     13 C                     0.284770
     14 S                     0.596155
     15 N                    -0.560044
     16 C                    -0.220698
     17 S                     0.348137
     18 C                    -0.132317
     19 C                    -0.219929
     20 S                     0.291746
     21 C                     0.152772
     22 C                     0.063014
     23 C                    -0.309189
     24 C                    -0.096756
     25 N                    -0.432904
     26 S                     0.282976
     27 C                     0.126524
     28 C                    -0.315713
     29 C                    -0.219728
     30 H                     0.102978
     31 H                     0.113694
     32 H                     0.103979
     33 H                     0.117123
     34 H                     0.132028
     35 H                     0.112136
     36 H                     0.121176
     37 H                     0.130435
     38 H                     0.090553
     39 C                    -0.182156
     40 H                     0.109377
     41 H                     0.109075
     42 H                     0.088698
     43 C                    -0.167462
     44 H                     0.089546
     45 C                    -0.166927
     46 H                     0.104658
     47 H                     0.090520
     48 H                     0.080217
     49 C                    -0.178760
     50 H                     0.083946
     51 C                    -0.317131
     52 H                     0.091597
     53 H                     0.100675
     54 H                     0.100399
     55 H                     0.104552
     56 C                     0.286718
     57 C                    -0.135395
     58 N                    -0.501284
     59 C                    -0.052482
     60 C                     0.062334
     61 C                     0.042418
     62 C                     0.067717
     63 C                     0.052239
     64 C                     0.206377
     65 N                    -0.514411
     66 N                    -0.566030
     67 C                     0.237294
     68 C                     0.275605
     69 S                     0.607125
     70 N                    -0.553296
     71 C                    -0.221959
     72 S                     0.300721
     73 C                    -0.123084
     74 C                    -0.289325
     75 S                     0.266374
     76 C                     0.226035
     77 C                     0.060801
     78 C                    -0.305473
     79 C                    -0.051499
     80 N                    -0.437221
     81 S                     0.266854
     82 C                     0.144331
     83 C                    -0.324179
     84 C                    -0.226817
     85 H                     0.088188
     86 H                     0.115072
     87 H                     0.096491
     88 H                     0.116931
     89 H                     0.129541
     90 H                     0.125310
     91 H                     0.120164
     92 H                     0.140067
     93 H                     0.099413
     94 C                    -0.185601
     95 H                     0.122307
     96 H                     0.094945
     97 H                     0.121837
     98 C                    -0.189729
     99 H                     0.092581
    100 C                    -0.173404
    101 H                     0.090936
    102 H                     0.087682
    103 H                     0.093477
    104 C                    -0.172039
    105 H                     0.100911
    106 C                    -0.335835
    107 H                     0.100634
    108 H                     0.106068
    109 H                     0.102050
    110 H                     0.103040
  ----------------------------------------
  Sum of atomic charges =     0.000000

 -----------------------------------------------------------------
                    Cartesian Multipole Moments
 -----------------------------------------------------------------
    Charge (ESU x 10^10)
                 0.0000
    Dipole Moment (Debye)
         X      -1.0927      Y      -0.0175      Z       0.7819
       Tot       1.3438
    Quadrupole Moments (Debye-Ang)
        XX    -445.2600     XY       9.1119     YY    -430.7607
        XZ      44.8592     YZ       0.5024     ZZ    -444.4290
    Octopole Moments (Debye-Ang^2)
       XXX    -356.7549    XXY      69.3427    XYY       1.7996
       YYY    -111.6916    XXZ     -29.4512    XYZ      84.2390
       YYZ       5.6596    XZZ      75.7042    YZZ     -39.2832
       ZZZ     -41.3736
    Hexadecapole Moments (Debye-Ang^3)
      XXXX -208180.2264   XXXY    1014.5187   XXYY  -38608.9214
      XYYY     166.3190   YYYY  -23559.2611   XXXZ    6214.6897
      XXYZ    -190.3262   XYYZ     276.6630   YYYZ    -211.8990
      XXZZ  -36483.1398   XYZZ      37.8473   YYZZ   -5509.1575
      XZZZ      -1.1215   YZZZ     328.1372   ZZZZ   -9854.5481
 -----------------------------------------------------------------
Archival summary:
1\1\mn426\SP\ProcedureUnspecified\6-31G**\8105042\afmv_a\SunOct704:51:102018SunOct704:51:102018\0\\#,ProcedureUnspecified,6-31G**,\\0,1\S\C,1,1.71463\N,2,1.33317,1,118.107\C,3,1.35259,2,109.349,1,9.3189,0\H,4,1.08273,3,116.464,2,164.074,0\C,4,1.34994,3,113.189,2,-12.2581,0\H,6,1.08196,4,129.989,3,-171.445,0\C,2,1.49073,1,123.338,3,-175.165,0\C,8,1.32616,2,127.221,1,160.485,0\C,9,1.33332,8,114.364,2,-175.869,0\C,10,1.4391,9,115.581,8,-4.35989,0\C,9,1.44612,8,134.486,2,-1.78867,0\H,12,1.08335,9,129.476,8,-1.53871,0\C,12,1.36984,9,110.733,8,-171.458,0\H,14,1.08255,12,133.594,9,-175.783,0\C,11,1.53923,10,124.679,9,-167.129,0\N,16,1.35157,11,114.429,10,15.1541,0\C,17,1.34604,16,118.923,11,174.497,0\H,18,1.08918,17,117.328,16,-176.943,0\C,18,1.34472,17,122.625,16,3.80798,0\C,16,1.38906,11,120.998,10,-170.417,0\N,21,1.33506,16,129.149,11,13.5218,0\C,21,1.35303,16,114.249,11,-174.248,0\N,23,1.35455,21,112.05,16,-174.353,0\C,20,1.53621,18,120.691,17,-178.791,0\C,25,1.38019,20,123.695,18,-38.791,0\H,26,1.08901,25,115.797,20,1.66429,0\N,26,1.35853,25,124.827,20,-172.259,0\C,28,1.35722,26,118.57,25,-6.78844,0\C,29,1.40749,28,121.032,26,-0.302892,0\H,30,1.08655,29,121.518,28,179.975,0\C,30,1.41159,29,120.335,28,7.06467,0\H,32,1.08583,30,126.281,29,173.229,0\C,29,1.50754,28,119.594,26,-179.994,0\H,34,1.0965,29,106.023,28,-179.093,0\H,34,1.09664,29,109.838,28,58.8551,0\C,34,1.58885,29,111.959,28,-61.3573,0\H,37,1.09679,34,111.569,29,-54.8528,0\H,37,1.09759,34,109.144,29,62.0474,0\S,22,1.59468,21,107.028,16,176.323,0\C,37,1.60236,34,107.431,29,-177.28,0\H,41,1.09633,37,107.607,34,-32.3562,0\H,41,1.09736,37,103.598,34,-152.836,0\C,41,1.55558,37,116.715,34,91.5296,0\H,44,1.09698,41,101.664,37,45.6447,0\H,44,1.097,41,109.057,37,-63.1387,0\C,44,1.54943,41,115.113,37,164.983,0\H,47,1.09662,44,108.33,41,38.8733,0\H,47,1.09732,44,105.535,41,-72.9828,0\C,47,1.60001,44,113.964,41,165.396,0\H,50,1.09714,47,120.237,44,176.371,0\H,50,1.09724,47,120.646,44,46.8165,0\H,50,1.09754,47,108.263,44,-68.6225,0\S,10,1.69947,9,117.343,8,172.033,0\S,11,1.74233,10,107.702,9,1.12508,0\H,1,3.01083,2,137.78,3,-92.5252,0\C,56,1.08352,1,104.63,2,156.968,0\C,57,1.41645,56,126.182,1,83.6377,0\H,58,1.08217,57,128.154,56,-1.05359,0\C,57,1.44168,56,120.962,1,-94.9588,0\C,60,1.36712,57,133.953,56,-2.7611,0\C,60,1.38252,57,108.632,56,-179.614,0\C,62,1.38577,60,115.878,57,-175.65,0\C,61,1.40947,60,126.452,57,8.67368,0\N,64,1.32204,61,114.512,60,170.43,0\C,65,1.36347,64,111.312,61,170.718,0\H,66,1.08105,65,119.787,64,-169.62,0\C,66,1.38807,65,112.807,64,0.873791,0\H,68,1.08231,66,127.051,65,-179.267,0\C,63,1.45724,62,127.584,60,175.827,0\N,70,1.35088,63,116.557,62,19.939,0\C,71,1.32808,70,120.059,63,178.694,0\H,72,1.08924,71,116.357,70,173.364,0\C,72,1.3985,71,122.554,70,3.30471,0\C,74,1.41485,72,116.507,71,-6.14675,0\N,75,1.33974,74,121.846,72,-174.146,0\C,75,1.37997,74,122.475,72,3.94979,0\N,77,1.3404,75,116.6,74,-175.029,0\C,74,1.54613,72,122.188,71,169.179,0\C,79,1.42507,74,122.259,72,-142.611,0\H,80,1.08553,79,122.958,74,6.59099,0\C,80,1.41116,79,117.897,74,-175.965,0\H,82,1.08598,80,117.536,79,-170.365,0\C,82,1.44641,80,118.317,79,1.69251,0\N,84,1.35689,82,125.839,80,-1.49615,0\C,85,1.33436,84,115.319,82,0.432237,0\H,86,1.08967,85,115.084,84,179.853,0\C,84,1.544,82,119.19,80,-173.584,0\H,88,1.09703,84,110.574,82,-131.1,0\H,88,1.09748,84,109.832,82,-11.845,0\C,88,1.53947,84,115.077,82,109.23,0\H,91,1.09711,88,109.595,84,179.356,0\H,91,1.09727,88,110.068,84,62.1128,0\C,91,1.52097,88,110.076,84,-56.9086,0\H,94,1.09674,91,113.765,88,55.2102,0\H,94,1.09718,91,99.8484,88,174.307,0\C,94,1.47369,91,115.211,88,-77.6804,0\H,97,1.09686,94,109.227,91,60.2543,0\H,97,1.0972,94,110.879,91,-54.7387,0\C,97,1.51366,94,107.69,91,-177.142,0\H,100,1.09642,97,108.617,94,153.398,0\H,100,1.09665,97,112.874,94,41.1635,0\C,100,1.52601,97,115.579,94,-86.8971,0\H,103,1.09657,100,119.637,97,173.827,0\H,103,1.09719,100,101.39,97,-62.3244,0\H,103,1.09796,100,108.814,97,50.2501,0\S,78,1.65437,77,102.93,75,1.03903,0\S,64,1.73776,61,128.45,60,-6.9056,0\S,62,1.754,60,118.4,57,-1.9915,0\S,61,1.76719,60,105.627,57,-179.399,0\\\@

 Total job time:  93.25s(wall), 1017.28s(cpu) 
 Sun Oct  7 04:51:10 2018

        *************************************************************
        *                                                           *
        *  Thank you very much for using Q-Chem.  Have a nice day.  *
        *                                                           *
        *************************************************************


