
Running Job 1 of 1 ./6/75.qcin
qchem ./6/75.qcin_23436.0 /tmpu/cab_g/afmv_a/scratch_qchem/qchem23436/ 1
/tmpu/appuserlic/qchem4.4/serial-multicore/exe/qcprog.exe_s ./6/75.qcin_23436.0 /tmpu/cab_g/afmv_a/scratch_qchem/qchem23436/
Check license passed

                  Welcome to Q-Chem
     A Quantum Leap Into The Future Of Chemistry


 Q-Chem 4.4, Q-Chem, Inc., Pleasanton, CA (2016)

 Y. Shao,  Z. Gan,  E. Epifanovsky,  A. T. B. Gilbert,  M. Wormit,  
 J. Kussmann,  A. W. Lange,  A. Behn,  J. Deng,  X. Feng,  D. Ghosh,  
 M. Goldey,  P. R. Horn,  L. D. Jacobson,  I. Kaliman,  F. Rob,  
 R. Z. Khaliullin,  T. Kus,  A. Landau,  J. Liu,  E. I. Proynov,  Y. M. Rhee,  
 R. M. Richard,  M. A. Rohrdanz,  R. P. Steele,  E. J. Sundstrom,  
 H. L. Woodcock III,  P. M. Zimmerman,  D. Zuev,  B. Albrecht,  E. Alguire,  
 B. Austin,  S. A. Baeppler,  G. J. O. Beran,  Y. A. Bernard,  E. Berquist,  
 K. Brandhorst,  K. B. Bravaya,  S. T. Brown,  D. Casanova,  C.-M. Chang,  
 Y. Chen,  S. H. Chien,  K. D. Closser,  M. P. Coons,  D. L. Crittenden,  
 S. Dasgupta,  M. Diedenhofen,  R. A. DiStasio Jr.,  H. Do,  A. D. Dutoi,  
 R. G. Edgar,  P.-T. Fang,  S. Fatehi,  Q. Feng,  L. Fusti-Molnar,  
 A. Ghysels,  A. Golubeva-Zadorozhnaya,  J. Gomes,  A. Gunina,  
 M. W. D. Hanson-Heine,  P. H. P. Harbach,  A. W. Hauser,  J. E. Herr,  
 E. G. Hohenstein,  Z. C. Holden,  K. Hui,  T.-C. Jagau,  H. Ji,  B. Kaduk,  
 K. Khistyaev,  Jaehoon Kim,  Jihan Kim,  R. A. King,  P. Klunzinger,  
 K. Koh,  D. Kosenkov,  T. Kowalczyk,  C. M. Krauter,  A. Kunitsa,  
 K. U. Lao,  A. Laurent,  K. V. Lawler,  J. Lee,  D. Lefrancois,  S. Lehtola,  
 S. V. Levchenko,  C. Y. Lin,  Y.-S. Lin,  F. Liu,  E. Livshits,  
 R. C. Lochan,  A. Luenser,  P. Manohar,  S. F. Manzer,  S.-P. Mao,  Y. Mao,  
 N. Mardirossian,  A. V. Marenich,  L. A. Martinez-Martinez,  S. A. Maurer,  
 N. J. Mayhall,  J.-M. Mewes,  A. F. Morrison,  K. Nanda,  T. S. Nguyen-Beck,  
 C. M. Oana,  R. Olivares-Amaya,  D. P. O'Neill,  J. A. Parkhill,  
 T. M. Perrine,  R. Peverati,  P. A. Pieniazek,  F. Plasser,  A. Prociuk,  
 D. R. Rehn,  E. Rosta,  N. J. Russ,  N. Sergueev,  S. M. Sharada,  
 S. Sharma,  D. W. Small,  A. Sodt,  T. Stauch,  T. Stein,  D. Stuck,  
 Y.-C. Su,  A. J. W. Thom,  T. Tsuchimochi,  L. Vogt,  O. Vydrov,  T. Wang,  
 M. A. Watson,  J. Wenzel,  A. White,  C. F. Williams,  V. Vanovschi,  
 K. Yao,  S. Yeganeh,  S. R. Yost,  Z.-Q. You,  I. Y. Zhang,  X. Zhang,  
 Y. Zhao,  B. R. Brooks,  G. K. L. Chan,  D. M. Chipman,  C. J. Cramer,  
 W. A. Goddard III,  M. S. Gordon,  W. J. Hehre,  A. Klamt,  
 H. F. Schaefer III,  M. W. Schmidt,  C. D. Sherrill,  D. G. Truhlar,  
 A. Warshel,  X. Xu,  A. Aspuru-Guzik,  R. Baer,  A. T. Bell,  N. A. Besley,  
 J.-D. Chai,  A. Dreuw,  B. D. Dunietz,  T. R. Furlani,  S. R. Gwaltney,  
 C.-P. Hsu,  Y. Jung,  J. Kong,  D. S. Lambrecht,  W. Liang,  C. Ochsenfeld,  
 V. A. Rassolov,  L. V. Slipchenko,  J. E. Subotnik,  T. Van Voorhis,  
 J. M. Herbert,  A. I. Krylov,  P. M. W. Gill,  M. Head-Gordon

 Contributors to earlier versions of Q-Chem not listed above: 
 R. D. Adamson,  J. Baker,  E. F. C. Byrd,  A. K. Chakraborty,  C.-L. Cheng,  
 H. Dachsel,  R. J. Doerksen,  G. Hawkins,  A. Heyden,  S. Hirata,  
 G. Kedziora,  F. J. Keil,  C. Kelley,  P. P. Korambath,  W. Kurlancheek,  
 A. M. Lee,  M. S. Lee,  D. Liotard,  I. Lotan,  P. E. Maslen,  N. Nair,  
 D. Neuhauser,  R. Olson,  B. Peters,  J. Ritchie,  N. E. Schultz,  
 N. Shenvi,  A. C. Simmonett,  K. S. Thanthiriwatte,  Q. Wu,  W. Zhang

 Please cite Q-Chem as follows:
 Y. Shao et al., Mol. Phys. 113, 184-215 (2015)
 DOI: 10.1080/00268976.2014.952696

 Q-Chem 4.4.2 for Intel X86 Linux

 Parts of Q-Chem use Armadillo 5.200.1 (Boston Tea Smuggler).
 http://arma.sourceforge.net/

 Q-Chem begins on Sun Oct  7 05:28:56 2018  

Host: 
0

     Scratch files written to /tmpu/cab_g/afmv_a/scratch_qchem/qchem23436//
 Dec716 11556_ 22328  22283 4050   
Processing $rem in /tmpu/appuserlic/qchem4.4/serial-multicore/config/preferences.
 MEM_TOTAL  2000 
FILE_GEOM_ORG=        593

Checking the input file for inconsistencies... 	...done.

--------------------------------------------------------------
User input:
--------------------------------------------------------------
$comment
SP
$end

$rem
MEM_STATIC 5000
MEM_TOTAL 20000
JOBTYPE SP
EXCHANGE B3LYP
BASIS 6-31g(d,p)
$end

$molecule
0 1
C         -13.314000      1.147000     -0.096000
C         -12.036000      1.773000     -0.202000
N         -13.409000     -0.068000      0.417000
C         -10.894000      1.014000     -0.014000
C         -12.285000     -0.800000      0.711000
C         -10.962000     -0.243000      0.545000
C          -9.707000     -1.065000      0.904000
C          -9.661000     -1.695000      2.162000
C          -8.663000     -1.362000     -0.015000
N          -8.689000     -2.556000      2.531000
N          -8.625000     -0.941000     -1.281000
C          -7.577000     -2.190000      0.362000
C          -7.626000     -2.823000      1.652000
S          -7.209000     -1.496000     -1.870000
N          -6.608000     -2.324000     -0.602000
C          -6.645000     -3.791000      2.156000
S          -5.106000     -4.136000      1.383000
C          -6.758000     -4.652000      3.259000
C          -4.769000     -5.536000      2.451000
S          -7.993000     -4.734000      4.396000
C          -5.744000     -5.598000      3.385000
C          -3.586000     -6.307000      2.410000
C          -7.112000     -5.968000      5.265000
C          -6.020000     -6.399000      4.560000
N          -3.718000     -7.523000      2.936000
S          -2.033000     -5.795000      1.928000
C          -2.540000     -8.222000      2.751000
C          -1.442000     -7.464000      2.245000
C         -14.557000      1.884000     -0.523000
H         -11.977000      2.742000     -0.690000
H          -9.902000      1.427000     -0.171000
H         -12.415000     -1.790000      1.144000
H         -10.483000     -1.507000      2.851000
H          -7.599000     -6.379000      6.139000
H          -5.354000     -7.192000      4.882000
H          -2.521000     -9.285000      2.954000
H          -0.460000     -7.878000      2.057000
H         -14.270000      2.783000     -1.082000
C         -15.572000      2.294000      0.588000
H         -15.154000      1.339000     -1.265000
H         -15.052000      3.031000      1.213000
H         -15.867000      1.349000      1.060000
C         -16.847000      3.057000      0.123000
H         -16.495000      4.056000     -0.164000
C         -17.889000      3.342000      1.176000
H         -17.172000      2.469000     -0.744000
H         -17.568000      3.988000      2.003000
H         -18.082000      2.384000      1.675000
C         -19.108000      3.947000      0.499000
H         -18.875000      4.826000     -0.116000
C         -20.212000      4.352000      1.501000
H         -19.516000      3.214000     -0.208000
H         -19.818000      5.135000      2.160000
H         -20.409000      3.436000      2.072000
H         -21.124000      4.688000      0.992000
C          -0.255000      8.035000     13.327000
C          -1.006000      6.882000     13.738000
N          -0.223000      8.468000     12.056000
C          -1.520000      6.031000     12.762000
C          -0.789000      7.684000     11.119000
C          -1.365000      6.351000     11.411000
C          -1.890000      5.520000     10.257000
C          -3.109000      4.801000     10.445000
C          -1.415000      5.502000      8.918000
N          -3.639000      3.969000      9.489000
N          -0.367000      6.180000      8.383000
C          -1.973000      4.605000      7.988000
C          -3.058000      3.775000      8.318000
S          -0.208000      5.689000      6.779000
N          -1.399000      4.570000      6.758000
C          -3.615000      2.704000      7.471000
S          -2.768000      1.998000      6.059000
C          -4.839000      2.000000      7.671000
C          -3.916000      0.587000      5.982000
S          -6.106000      2.326000      8.823000
C          -4.960000      0.845000      6.835000
C          -3.721000     -0.618000      5.228000
C          -6.694000      0.673000      8.411000
C          -6.097000      0.071000      7.284000
N          -4.510000     -1.609000      5.411000
S          -2.383000     -0.881000      4.196000
C          -4.060000     -2.683000      4.604000
C          -2.874000     -2.516000      3.990000
C           0.321000      8.951000     14.328000
H          -1.129000      6.606000     14.781000
H          -1.990000      5.084000     13.013000
H          -0.782000      8.042000     10.091000
H          -3.602000      4.781000     11.416000
H          -7.504000      0.283000      9.013000
H          -6.528000     -0.832000      6.867000
H          -4.708000     -3.549000      4.604000
H          -2.323000     -3.241000      3.406000
H           1.410000      9.015000     14.215000
C           0.009000      8.719000     15.844000
H           0.006000      9.977000     14.101000
H           0.172000      7.641000     15.973000
H          -1.053000      8.857000     16.079000
C           0.881000      9.729000     16.723000
H           1.945000      9.508000     16.570000
C           0.601000      9.670000     18.178000
H           0.785000     10.763000     16.370000
H           0.584000      8.598000     18.409000
H          -0.462000      9.880000     18.351000
C           1.572000     10.385000     19.037000
H           1.168000     10.340000     20.056000
C           1.918000     11.841000     18.665000
H           2.499000      9.799000     19.051000
H           2.236000     12.465000     19.509000
H           0.970000     12.138000     18.199000
H           2.662000     11.894000     17.861000
$end

--------------------------------------------------------------
 ----------------------------------------------------------------
             Standard Nuclear Orientation (Angstroms)
    I     Atom           X                Y                Z
 ----------------------------------------------------------------
    1      C      -7.9101625311     5.3033375065    -0.7556417809
    2      C      -6.9848248511     4.8096621663    -1.7233353463
    3      N      -8.2230541884     4.5598539514     0.2920938795
    4      C      -6.6285864954     3.4725021151    -1.6971393296
    5      C      -7.7908144053     3.2601377072     0.3897793664
    6      C      -6.9169056942     2.6830503448    -0.6059051924
    7      C      -6.4157563585     1.2302986568    -0.4719205799
    8      C      -5.8528963555     0.8305280202     0.7548442937
    9      C      -6.6319848899     0.2224923317    -1.4518581459
   10      N      -5.5157285078    -0.4447657636     1.0415664717
   11      N      -7.2604800684     0.4168107519    -2.6131828904
   12      C      -6.2118939291    -1.1116731619    -1.2268358798
   13      C      -5.6795399657    -1.4433260076     0.0669166651
   14      S      -7.1834119525    -1.0192784182    -3.3824100357
   15      N      -6.4168264427    -1.9552192638    -2.2910941375
   16      C      -5.2996026824    -2.7916834860     0.5039301333
   17      S      -5.1763153920    -4.1812745652    -0.5632680097
   18      C      -5.0431514106    -3.2451150017     1.8075142717
   19      C      -4.9742394451    -5.3334632205     0.7953414318
   20      S      -4.9713177753    -2.3498005498     3.2280669674
   21      C      -4.8914349374    -4.6227507119     1.9420131998
   22      C      -4.7577728519    -6.7210062776     0.6421178087
   23      C      -4.5304489776    -3.7900237667     4.1143343022
   24      C      -4.6429561602    -4.9133275313     3.3392338013
   25      N      -5.0820962740    -7.4378138811     1.7162487028
   26      S      -3.9983961316    -7.5122163972    -0.6631065181
   27      C      -4.9299745278    -8.7798666382     1.4225424357
   28      C      -4.3062901947    -9.0745274712     0.1733839805
   29      C      -8.4938494101     6.6849498432    -0.9005692743
   30      H      -6.7978416889     5.4103689972    -2.6092103941
   31      H      -5.9977651260     3.0348015126    -2.4651006453
   32      H      -8.0636620949     2.6930461834     1.2777266295
   33      H      -5.7291973105     1.5904390600     1.5248980307
   34      H      -4.4031953431    -3.6754501720     5.1823443227
   35      H      -4.4670048391    -5.9237394585     3.6916509832
   36      H      -5.3162486006    -9.5173740996     2.1142172763
   37      H      -4.1176303622   -10.0785002922    -0.1837015027
   38      H      -8.2685198591     7.0691167269    -1.9029132268
   39      C      -8.0748290506     7.7605134012     0.1483496792
   40      H      -9.5910376258     6.6975604909    -0.8964472709
   41      H      -7.0017692019     7.9297082138    -0.0069232307
   42      H      -8.3866869270     7.3455380759     1.1144625837
   43      C      -8.6883655941     9.1810721914    -0.0237102908
   44      H      -8.1931770795     9.6024579973    -0.9077331059
   45      C      -8.3860279844    10.1864846392     1.0595882735
   46      H      -9.7468314037     8.9611532773    -0.2090310971
   47      H      -7.3277271256    10.4471935197     1.1873230448
   48      H      -8.6315846549     9.6905198715     2.0070769915
   49      C      -9.1931668787    11.4458434731     0.7896676686
   50      H      -9.0447977897    11.8520154013    -0.2193744406
   51      C      -8.8982838909    12.5760924342     1.8008186511
   52      H     -10.2601195756    11.1942352693     0.8333397915
   53      H      -7.8462968947    12.8697251105     1.7022833209
   54      H      -9.0759280179    12.1159933497     2.7809499671
   55      H      -9.5624811695    13.4375112865     1.6575687435
   56      C      11.6513598929     1.3934921232    -0.2877705011
   57      C      10.9498928307     1.1598689151     0.9433652174
   58      N      11.0222940526     1.6001555944    -1.4563253258
   59      C       9.5841699162     0.8882977382     0.8983872598
   60      C       9.6889827364     1.4145056253    -1.4845392041
   61      C       8.9096280722     0.9238406706    -0.3244602371
   62      C       7.4271055713     0.6642667712    -0.5051545237
   63      C       6.5422626763     1.0556331528     0.5446794663
   64      C       6.7617361323     0.2362495185    -1.6853895600
   65      N       5.1911376898     0.8098208366     0.5115497827
   66      N       7.2987840340    -0.0792914475    -2.8921316410
   67      C       5.3806482777    -0.0329068264    -1.6533864342
   68      C       4.6080935277     0.1929635847    -0.5013592141
   69      S       6.0467198947    -0.6212103986    -3.8809881732
   70      N       4.8336981030    -0.5380240322    -2.7888612752
   71      C       3.1964774587    -0.1926659328    -0.3187970362
   72      S       2.3343346864    -1.3683481349    -1.3599839550
   73      C       2.3246603280     0.2133309069     0.7342430660
   74      C       0.9594273199    -1.5210931584    -0.1763232386
   75      S       2.5947054175     1.4146063385     1.9682130767
   76      C       1.1111926795    -0.5438679265     0.7755733533
   77      C      -0.0546452315    -2.5360148051    -0.1888496761
   78      C       1.1695947231     0.6727610776     2.7846823766
   79      C       0.4198917613    -0.2352973438     2.0085912915
   80      N      -0.8499308116    -2.6427529942     0.8082555366
   81      S      -0.1735341099    -3.7383050912    -1.3991391052
   82      C      -1.6979534859    -3.7537101499     0.5761849822
   83      C      -1.3977723908    -4.5262950687    -0.4842323194
   84      C      13.0998699249     1.6667085780    -0.2856596198
   85      H      11.4543152055     1.1148148727     1.9039286984
   86      H       9.0276226397     0.5858987014     1.7812915307
   87      H       9.1740138502     1.6006421959    -2.4253671498
   88      H       6.9288015568     1.4501775005     1.4834086347
   89      H       0.9500012076     1.0196375369     3.7857115520
   90      H      -0.5477105086    -0.5719793223     2.3627806371
   91      H      -2.4794563821    -3.8856306222     1.3121946371
   92      H      -1.8648310929    -5.4564976832    -0.7789546714
   93      H      13.6369613300     0.9202460367    -0.8832485229
   94      C      13.8469281756     1.8141534333     1.0816691573
   95      H      13.2931154897     2.5905586586    -0.8447545850
   96      H      13.4797404054     0.9584817545     1.6632988673
   97      H      13.5087267993     2.6875112925     1.6517383451
   98      C      15.4178926253     1.9324351387     0.8148262526
   99      H      15.7711679544     1.0047451524     0.3469225968
  100      C      16.2275565314     2.1730941497     2.0336099084
  101      H      15.6465083925     2.6971429577     0.0625378886
  102      H      15.8365578807     1.4568331804     2.7663610797
  103      H      15.8828784857     3.0935545284     2.5214087770
  104      C      17.6895085876     2.0150006492     1.8614192281
  105      H      18.1436444208     2.3307750010     2.8088627376
  106      C      18.3534652744     2.7520146630     0.6807381274
  107      H      17.8996103793     0.9428015199     1.7656733960
  108      H      19.4106578205     3.0006058773     0.8336509409
  109      H      17.6796565588     3.6147604282     0.6051037475
  110      H      18.2310963366     2.2086170732    -0.2639871779
 ----------------------------------------------------------------
 Molecular Point Group                 C1    NOp =  1
 Largest Abelian Subgroup              C1    NOp =  1
 Nuclear Repulsion Energy = 10704.5422776555 hartrees
 There are      270 alpha and      270 beta electrons
 Requested basis set is 6-31G(d,p)
 There are 406 shells and 1262 basis functions

 Total QAlloc Memory Limit  20000 MB
 Mega-Array Size      4888 MB
 MEM_STATIC part      5000 MB
 A cutoff of  1.0D-08 yielded  12731 shell pairs
 There are    134015 function pairs
 
 -------------------------------------------------------
 OpenMP Integral Computing Module                       
 Release: version 1.0, May 2013, Q-Chem Inc. Pittsburgh 
 -------------------------------------------------------
 Integral Job Info:
 Integral job number is                      11
 Integral operator is                         1
 short-range coefficients                     0
 long-range coefficients              100000000
 Omega coefficients                           0
 if combine SR and LR in K                    0
 Integral screening is                        0
 Integral computing path is                   2
 max size of driver memory is            800000
 size of driver memory is                593474
 size of scratch memory is             15166112
 max col of scratch BK array               1296
 max len of scratch array in speh3          155
 max len of scratch index in speh4           18
 max int batch size is                      520
 min int batch size is                       52
 fixed nKL is                                52
 max L of basis functions is                  2
 order of int derivative is                   0
 number of shells is                        406
 number of basis is                        1262
 number of cartesian basis is              1262
 number of contracted shell pairs         12731
 number of primitive shell pairs          41850
 maxK2 (contraction) of shell pair           36
 max number of K2 of shell pair               1
 max number of CS2 of shell pair           1300
 max number of PS2 of shell pair           7662
 mem total for path MDJ                  278296
 -------------------------------------------------------
 Smallest overlap matrix eigenvalue = 4.14E-04

 Scale SEOQF with 1.000000e-03/1.000000e-02/1.000000e-01

 Standard Electronic Orientation quadrupole field applied
 Nucleus-field energy     =    -0.0000000941 hartrees
 Guess from superposition of atomic densities
 Warning:  Energy on first SCF cycle will be non-variational
 A restricted hybrid HF-DFT SCF calculation will be
 performed using Pulay DIIS extrapolation
 Exchange:     0.2000 Hartree-Fock + 0.0800 Slater + 0.7200 B88
 Correlation:  0.1900 VWN1RPA + 0.8100 LYP
 Using SG-1 standard quadrature grid
 SCF converges when DIIS error is below 1.0E-05
 using 16 threads for integral computing 
 -------------------------------------------------------
 OpenMP BLAS3 based DFT computing Module                
 Release: version 1.0, May 2013, Q-Chem Inc. Pittsburgh 
 -------------------------------------------------------
 ---------------------------------------
  Cycle       Energy         DIIS Error
 ---------------------------------------
    1   -5679.9358347391      2.14E-02
    2   -5662.5247377492      2.14E-03
    3   -5660.7236056766      3.56E-03
    4   -5663.3163589405      9.66E-04
    5   -5663.5026755274      3.19E-04
    6   -5663.5156207976      1.90E-04
    7   -5663.5219582693      8.01E-05
    8   -5663.5231571902      2.67E-05
    9   -5663.5232933731      9.13E-06 Convergence criterion met
 ---------------------------------------
 SCF time:  CPU 911.34 s  wall 80.33 s
 SCF   energy in the final basis set = -5663.5232933731
 Total energy in the final basis set = -5663.5232933731
 
 --------------------------------------------------------------
 
                    Orbital Energies (a.u.)
 --------------------------------------------------------------
 
 Alpha MOs
 -- Occupied --
-88.991 -88.986 -88.942 -88.927 -88.918 -88.916 -88.908 -88.907
-14.395 -14.386 -14.385 -14.379 -14.355 -14.349 -14.343 -14.333
-14.329 -14.329 -10.273 -10.273 -10.263 -10.259 -10.259 -10.258
-10.258 -10.252 -10.248 -10.244 -10.244 -10.243 -10.242 -10.242
-10.241 -10.237 -10.234 -10.233 -10.232 -10.230 -10.230 -10.229
-10.229 -10.226 -10.224 -10.224 -10.221 -10.219 -10.219 -10.217
-10.211 -10.210 -10.210 -10.205 -10.201 -10.200 -10.198 -10.198
-10.189 -10.185 -10.181 -10.181 -10.178 -10.176 -10.176 -10.176
-10.176 -10.174 -10.171 -10.171  -8.047  -8.041  -8.002  -7.986
 -7.979  -7.976  -7.969  -7.968  -6.012  -6.006  -6.006  -6.004
 -6.000  -5.998  -5.966  -5.963  -5.959  -5.950  -5.947  -5.943
 -5.943  -5.941  -5.939  -5.937  -5.936  -5.933  -5.932  -5.932
 -5.929  -5.929  -5.926  -5.924  -1.041  -1.025  -0.975  -0.974
 -0.954  -0.946  -0.936  -0.935  -0.921  -0.910  -0.898  -0.892
 -0.854  -0.829  -0.828  -0.826  -0.814  -0.812  -0.811  -0.810
 -0.807  -0.803  -0.800  -0.792  -0.787  -0.784  -0.770  -0.764
 -0.751  -0.745  -0.742  -0.737  -0.729  -0.712  -0.710  -0.708
 -0.696  -0.691  -0.677  -0.672  -0.657  -0.652  -0.646  -0.642
 -0.637  -0.633  -0.630  -0.626  -0.610  -0.608  -0.596  -0.594
 -0.594  -0.589  -0.588  -0.579  -0.576  -0.574  -0.567  -0.562
 -0.554  -0.546  -0.538  -0.534  -0.526  -0.520  -0.513  -0.508
 -0.506  -0.504  -0.503  -0.496  -0.492  -0.482  -0.479  -0.475
 -0.473  -0.472  -0.470  -0.468  -0.465  -0.461  -0.452  -0.451
 -0.449  -0.446  -0.445  -0.443  -0.440  -0.438  -0.434  -0.431
 -0.430  -0.427  -0.423  -0.421  -0.420  -0.414  -0.412  -0.412
 -0.411  -0.405  -0.405  -0.404  -0.401  -0.396  -0.395  -0.394
 -0.394  -0.392  -0.390  -0.389  -0.388  -0.387  -0.385  -0.382
 -0.381  -0.378  -0.372  -0.371  -0.367  -0.366  -0.356  -0.356
 -0.355  -0.354  -0.351  -0.349  -0.348  -0.346  -0.344  -0.342
 -0.336  -0.334  -0.334  -0.332  -0.329  -0.327  -0.325  -0.324
 -0.319  -0.308  -0.308  -0.307  -0.303  -0.303  -0.302  -0.300
 -0.298  -0.297  -0.292  -0.289  -0.289  -0.287  -0.280  -0.278
 -0.274  -0.271  -0.265  -0.263  -0.255  -0.253  -0.250  -0.246
 -0.243  -0.240  -0.237  -0.224  -0.199  -0.191
 -- Virtual --
 -0.117  -0.111  -0.076  -0.069  -0.036  -0.035  -0.026  -0.024
 -0.023  -0.017  -0.015  -0.010  -0.009  -0.005  -0.004  -0.001
  0.003   0.005   0.020   0.023   0.025   0.034   0.038   0.046
  0.049   0.050   0.059   0.065   0.068   0.076   0.084   0.088
  0.089   0.097   0.098   0.101   0.107   0.107   0.109   0.111
  0.114   0.115   0.116   0.119   0.120   0.122   0.125   0.125
  0.127   0.128   0.134   0.135   0.136   0.139   0.143   0.145
  0.146   0.151   0.153   0.154   0.155   0.161   0.163   0.165
  0.167   0.171   0.173   0.175   0.176   0.180   0.181   0.182
  0.183   0.186   0.188   0.193   0.193   0.197   0.199   0.201
  0.202   0.203   0.205   0.207   0.209   0.211   0.215   0.217
  0.218   0.219   0.220   0.225   0.228   0.232   0.233   0.236
  0.236   0.237   0.240   0.247   0.248   0.250   0.254   0.255
  0.258   0.261   0.263   0.267   0.269   0.272   0.274   0.279
  0.283   0.288   0.291   0.292   0.295   0.302   0.303   0.305
  0.310   0.315   0.315   0.320   0.322   0.323   0.325   0.327
  0.328   0.332   0.334   0.335   0.340   0.342   0.345   0.347
  0.352   0.354   0.356   0.362   0.363   0.366   0.366   0.369
  0.376   0.379   0.380   0.384   0.389   0.390   0.395   0.397
  0.398   0.405   0.407   0.415   0.416   0.420   0.426   0.435
  0.438   0.446   0.447   0.452   0.455   0.459   0.465   0.468
  0.472   0.474   0.476   0.481   0.483   0.495   0.500   0.500
  0.502   0.503   0.509   0.511   0.513   0.514   0.517   0.518
  0.520   0.522   0.524   0.525   0.530   0.533   0.535   0.536
  0.538   0.541   0.543   0.543   0.544   0.548   0.550   0.553
  0.554   0.555   0.556   0.559   0.560   0.563   0.565   0.566
  0.568   0.568   0.569   0.572   0.575   0.579   0.580   0.583
  0.586   0.587   0.589   0.591   0.594   0.594   0.595   0.598
  0.598   0.601   0.605   0.606   0.607   0.609   0.612   0.616
  0.617   0.618   0.621   0.622   0.623   0.625   0.627   0.629
  0.630   0.631   0.634   0.635   0.639   0.640   0.642   0.643
  0.647   0.651   0.653   0.654   0.659   0.659   0.663   0.671
  0.672   0.676   0.677   0.686   0.686   0.692   0.694   0.696
  0.698   0.699   0.702   0.702   0.706   0.717   0.718   0.719
  0.722   0.725   0.729   0.734   0.740   0.745   0.747   0.748
  0.751   0.752   0.754   0.755   0.759   0.762   0.764   0.766
  0.768   0.771   0.777   0.780   0.781   0.786   0.789   0.793
  0.796   0.797   0.799   0.801   0.802   0.803   0.806   0.809
  0.812   0.813   0.813   0.815   0.817   0.820   0.821   0.822
  0.825   0.828   0.829   0.832   0.833   0.834   0.835   0.839
  0.840   0.843   0.843   0.847   0.848   0.850   0.854   0.856
  0.857   0.858   0.860   0.861   0.866   0.869   0.870   0.871
  0.872   0.874   0.877   0.883   0.886   0.887   0.889   0.891
  0.895   0.896   0.899   0.902   0.904   0.909   0.910   0.911
  0.913   0.914   0.916   0.917   0.922   0.923   0.928   0.930
  0.931   0.932   0.936   0.938   0.941   0.943   0.945   0.945
  0.949   0.949   0.951   0.953   0.955   0.958   0.960   0.965
  0.968   0.969   0.970   0.973   0.976   0.977   0.980   0.982
  0.982   0.986   0.988   0.989   0.991   1.001   1.002   1.009
  1.013   1.014   1.016   1.017   1.021   1.022   1.023   1.025
  1.028   1.031   1.036   1.040   1.045   1.048   1.050   1.056
  1.057   1.059   1.060   1.064   1.067   1.070   1.079   1.083
  1.086   1.088   1.090   1.090   1.092   1.100   1.106   1.113
  1.118   1.122   1.129   1.130   1.136   1.139   1.142   1.144
  1.157   1.159   1.166   1.173   1.175   1.183   1.188   1.193
  1.196   1.199   1.202   1.204   1.212   1.219   1.221   1.228
  1.238   1.241   1.248   1.255   1.258   1.259   1.263   1.266
  1.271   1.274   1.276   1.288   1.291   1.294   1.299   1.301
  1.305   1.313   1.314   1.317   1.319   1.321   1.329   1.337
  1.337   1.341   1.351   1.355   1.358   1.363   1.366   1.368
  1.375   1.381   1.383   1.387   1.388   1.390   1.400   1.402
  1.406   1.410   1.414   1.419   1.423   1.427   1.428   1.431
  1.437   1.439   1.448   1.452   1.461   1.462   1.464   1.466
  1.469   1.474   1.480   1.481   1.496   1.502   1.505   1.508
  1.513   1.519   1.522   1.525   1.534   1.536   1.549   1.554
  1.562   1.566   1.577   1.584   1.588   1.597   1.597   1.606
  1.609   1.617   1.628   1.635   1.642   1.645   1.648   1.653
  1.655   1.661   1.666   1.670   1.677   1.679   1.681   1.687
  1.688   1.692   1.697   1.698   1.703   1.706   1.708   1.711
  1.715   1.716   1.721   1.729   1.735   1.736   1.738   1.740
  1.746   1.748   1.757   1.757   1.764   1.764   1.769   1.770
  1.776   1.781   1.783   1.789   1.795   1.799   1.800   1.807
  1.808   1.816   1.824   1.827   1.829   1.832   1.840   1.843
  1.846   1.846   1.853   1.857   1.862   1.867   1.868   1.873
  1.876   1.878   1.879   1.881   1.888   1.890   1.892   1.898
  1.900   1.902   1.910   1.913   1.913   1.920   1.925   1.927
  1.929   1.932   1.933   1.936   1.943   1.946   1.949   1.951
  1.954   1.956   1.962   1.972   1.974   1.978   1.981   1.991
  1.992   2.003   2.009   2.012   2.013   2.017   2.025   2.029
  2.031   2.036   2.041   2.042   2.044   2.047   2.051   2.054
  2.056   2.062   2.071   2.072   2.080   2.085   2.086   2.090
  2.098   2.103   2.105   2.107   2.112   2.117   2.120   2.122
  2.126   2.127   2.136   2.136   2.137   2.142   2.148   2.151
  2.162   2.162   2.163   2.169   2.171   2.174   2.183   2.185
  2.189   2.193   2.199   2.201   2.211   2.212   2.214   2.216
  2.222   2.225   2.230   2.234   2.240   2.241   2.247   2.248
  2.258   2.260   2.263   2.264   2.268   2.271   2.276   2.279
  2.288   2.295   2.296   2.299   2.304   2.308   2.309   2.312
  2.317   2.320   2.322   2.327   2.330   2.331   2.337   2.339
  2.341   2.346   2.347   2.350   2.356   2.357   2.361   2.362
  2.370   2.371   2.374   2.379   2.386   2.389   2.391   2.398
  2.403   2.404   2.406   2.408   2.412   2.417   2.420   2.423
  2.426   2.431   2.432   2.434   2.437   2.439   2.444   2.446
  2.447   2.450   2.452   2.459   2.463   2.467   2.469   2.472
  2.475   2.478   2.479   2.483   2.484   2.489   2.493   2.494
  2.499   2.501   2.511   2.513   2.517   2.520   2.527   2.530
  2.532   2.534   2.544   2.545   2.548   2.549   2.552   2.561
  2.564   2.573   2.579   2.580   2.589   2.592   2.600   2.602
  2.605   2.605   2.610   2.611   2.612   2.616   2.618   2.627
  2.637   2.643   2.650   2.652   2.652   2.665   2.666   2.668
  2.669   2.676   2.678   2.679   2.681   2.683   2.685   2.689
  2.694   2.694   2.706   2.710   2.712   2.720   2.731   2.742
  2.743   2.759   2.768   2.772   2.781   2.782   2.785   2.789
  2.794   2.799   2.804   2.815   2.820   2.821   2.828   2.830
  2.837   2.850   2.857   2.863   2.866   2.867   2.874   2.876
  2.888   2.893   2.894   2.897   2.900   2.902   2.909   2.915
  2.919   2.920   2.929   2.941   2.948   2.955   2.958   2.962
  2.969   2.973   2.977   2.977   2.979   2.989   2.999   3.026
  3.033   3.037   3.044   3.055   3.056   3.067   3.093   3.127
  3.133   3.157   3.191   3.198   3.203   3.208   3.220   3.222
  3.233   3.235   3.247   3.256   3.268   3.270   3.281   3.284
  3.286   3.288   3.296   3.301   3.305   3.313   3.320   3.323
  3.333   3.346   3.347   3.369   3.376   3.400   3.416   3.422
  3.439   3.443   3.447   3.465   3.468   3.477   3.529   3.538
  3.539   3.543   3.551   3.564   3.566   3.586   3.599   3.611
  3.630   3.647   3.714   3.729   3.840   3.849   3.903   3.912
  3.939   3.944   3.960   3.963   3.970   3.977   3.980   3.989
  4.029   4.068   4.071   4.080   4.089   4.095   4.100   4.103
  4.111   4.116   4.133   4.157   4.165   4.167   4.179   4.200
  4.205   4.229   4.231   4.239   4.254   4.255   4.262   4.264
  4.280   4.295   4.308   4.316   4.367   4.377   4.382   4.387
  4.412   4.423   4.440   4.448   4.457   4.462   4.472   4.474
  4.492   4.510   4.525   4.535   4.571   4.573   4.627   4.656
  4.686   4.694   4.711   4.716   4.759   4.761   4.778   4.803
 --------------------------------------------------------------
 
          Ground-State Mulliken Net Atomic Charges

     Atom                 Charge (a.u.)
  ----------------------------------------
      1 C                     0.296617
      2 C                    -0.126020
      3 N                    -0.484665
      4 C                    -0.053462
      5 C                     0.068108
      6 C                     0.026911
      7 C                     0.003508
      8 C                     0.077081
      9 C                     0.244894
     10 N                    -0.529104
     11 N                    -0.546812
     12 C                     0.199800
     13 C                     0.295611
     14 S                     0.607826
     15 N                    -0.552415
     16 C                    -0.202422
     17 S                     0.306493
     18 C                    -0.129512
     19 C                    -0.249552
     20 S                     0.291886
     21 C                     0.188140
     22 C                     0.044110
     23 C                    -0.308133
     24 C                    -0.058139
     25 N                    -0.421616
     26 S                     0.276578
     27 C                     0.118569
     28 C                    -0.314125
     29 C                    -0.232374
     30 H                     0.089254
     31 H                     0.101083
     32 H                     0.107764
     33 H                     0.121142
     34 H                     0.133732
     35 H                     0.117665
     36 H                     0.120370
     37 H                     0.137684
     38 H                     0.090159
     39 C                    -0.180208
     40 H                     0.111916
     41 H                     0.090935
     42 H                     0.112912
     43 C                    -0.175562
     44 H                     0.090057
     45 C                    -0.166195
     46 H                     0.090571
     47 H                     0.091458
     48 H                     0.091502
     49 C                    -0.174714
     50 H                     0.091530
     51 C                    -0.318403
     52 H                     0.093852
     53 H                     0.101938
     54 H                     0.103668
     55 H                     0.099524
     56 C                     0.271831
     57 C                    -0.120630
     58 N                    -0.477295
     59 C                    -0.093096
     60 C                     0.086396
     61 C                     0.037454
     62 C                     0.015916
     63 C                     0.052945
     64 C                     0.282942
     65 N                    -0.537472
     66 N                    -0.584552
     67 C                     0.166955
     68 C                     0.341699
     69 S                     0.598863
     70 N                    -0.555316
     71 C                    -0.214674
     72 S                     0.300014
     73 C                    -0.107751
     74 C                    -0.240271
     75 S                     0.281637
     76 C                     0.151422
     77 C                     0.098058
     78 C                    -0.301705
     79 C                    -0.056673
     80 N                    -0.447436
     81 S                     0.253197
     82 C                     0.119164
     83 C                    -0.304907
     84 C                    -0.232005
     85 H                     0.093620
     86 H                     0.098990
     87 H                     0.122363
     88 H                     0.116067
     89 H                     0.123881
     90 H                     0.136541
     91 H                     0.114350
     92 H                     0.138274
     93 H                     0.119134
     94 C                    -0.198567
     95 H                     0.125043
     96 H                     0.095923
     97 H                     0.099135
     98 C                    -0.173442
     99 H                     0.091780
    100 C                    -0.183943
    101 H                     0.097079
    102 H                     0.091348
    103 H                     0.086523
    104 C                    -0.173216
    105 H                     0.092276
    106 C                    -0.323622
    107 H                     0.093182
    108 H                     0.106940
    109 H                     0.106513
    110 H                     0.107704
  ----------------------------------------
  Sum of atomic charges =     0.000000

 -----------------------------------------------------------------
                    Cartesian Multipole Moments
 -----------------------------------------------------------------
    Charge (ESU x 10^10)
                 0.0000
    Dipole Moment (Debye)
         X      -0.4977      Y      -2.8878      Z       0.1205
       Tot       2.9329
    Quadrupole Moments (Debye-Ang)
        XX    -448.6557     XY      10.6596     YY    -401.0431
        XZ      29.6484     YZ       0.1070     ZZ    -427.9694
    Octopole Moments (Debye-Ang^2)
       XXX     415.8039    XXY     -33.0831    XYY    -220.9866
       YYY    -428.4338    XXZ     157.8207    XYZ      90.9813
       YYZ     -56.0778    XZZ     -44.8230    YZZ     -30.5797
       ZZZ       8.0581
    Hexadecapole Moments (Debye-Ang^3)
      XXXX -150322.9834   XXXY     384.8289   XXYY  -33832.9795
      XYYY    1336.4723   YYYY  -45874.1062   XXXZ    3684.6546
      XXYZ     270.0584   XYYZ     354.5394   YYYZ    -495.1541
      XXZZ  -26931.7357   XYZZ     127.3798   YYZZ   -9905.2649
      XZZZ    -109.9754   YZZZ     -83.6340   ZZZZ   -7804.2833
 -----------------------------------------------------------------
Archival summary:
1\1\mn426\SP\ProcedureUnspecified\6-31G**\8105042\afmv_a\SunOct705:30:202018SunOct705:30:202018\0\\#,ProcedureUnspecified,6-31G**,\\0,1\S\C,1,1.75644\C,2,1.40382,1,107.208\C,3,1.39248,2,115.414,1,5.62987,0\C,4,1.3516,3,115.57,2,-1.77102,0\C,5,1.41266,4,126.806,3,-174.9,0\N,6,1.33145,5,113.826,4,-30.9062,0\C,7,1.38221,6,108.935,5,-175.419,0\H,8,1.08238,7,119.112,6,169.077,0\C,8,1.42696,7,115.761,6,-8.49238,0\H,10,1.08216,8,123.823,7,-179.634,0\C,4,1.44859,3,108.078,2,179.673,0\H,12,1.08448,4,121.882,3,178.498,0\C,12,1.3694,4,113.297,3,4.31792,0\H,14,1.08165,12,130.952,4,-176.125,0\C,2,1.46745,1,124.344,3,176.885,0\N,16,1.40496,2,114.6,1,170.657,0\C,17,1.34991,16,119.669,2,179.031,0\H,18,1.08892,17,118.731,16,-179.383,0\C,18,1.40769,17,123.591,16,-2.33888,0\C,20,1.42222,18,117.388,17,0.103569,0\N,21,1.33471,20,124.607,18,-173.872,0\C,21,1.41672,20,120.851,18,4.10764,0\N,23,1.37339,21,114.273,20,176.374,0\C,20,1.54259,18,118.232,17,-172.467,0\C,25,1.37737,20,122.724,18,-133.882,0\H,26,1.08595,25,116.798,20,1.7046,0\C,26,1.38405,25,120.988,20,173.652,0\H,28,1.08655,26,120.349,25,176.871,0\C,28,1.42702,26,119.229,25,13.9377,0\N,30,1.32228,28,119.752,26,-12.5187,0\C,31,1.37318,30,120.936,28,7.43569,0\H,32,1.08834,31,118.184,30,-179.211,0\C,30,1.50683,28,120.209,26,169.556,0\H,34,1.09684,30,109.236,28,-12.2018,0\H,34,1.09727,30,113.422,28,-125.006,0\C,34,1.55969,30,117.616,28,112.026,0\H,37,1.09674,34,104.779,30,59.1174,0\H,37,1.09736,34,105.895,30,-65.6953,0\C,37,1.55693,34,116.68,30,-179.875,0\H,40,1.09684,37,102.475,34,-45.808,0\H,40,1.09739,37,105.163,34,71.5335,0\C,40,1.50857,37,116.728,34,-174.53,0\H,43,1.09728,40,105.901,37,50.8024,0\H,43,1.0974,40,115.797,37,-62.4559,0\C,43,1.51997,40,108.557,37,173.775,0\H,46,1.09709,43,108.623,40,-62.069,0\H,46,1.0978,43,113.454,40,53.8496,0\C,46,1.54494,43,112.865,40,176.799,0\H,49,1.09663,46,108.674,43,-63.0213,0\H,49,1.09714,46,111.925,43,174.003,0\H,49,1.09723,46,104.298,43,54.6926,0\S,24,1.6293,23,103.675,21,3.54433,0\S,3,1.68069,2,128.361,1,-177.655,0\S,6,1.70478,5,127.384,4,142.178,0\H,4,2.59955,3,78.2967,2,-86.109,0\C,56,1.0816,4,150.442,3,98.1854,0\C,57,1.34591,56,128.849,4,36.057,0\H,58,1.0818,57,127.73,56,2.6485,0\N,57,1.41677,56,114.624,4,-146.884,0\C,60,1.27988,57,108.042,56,174.397,0\C,61,1.43477,60,119.431,57,176.997,0\C,62,1.37263,61,126.002,60,5.77688,0\C,63,1.43093,62,116.774,61,-168.856,0\C,64,1.42611,63,112.899,62,0.183836,0\C,63,1.44687,62,133.629,61,-2.5863,0\H,66,1.084,63,129.694,62,16.5362,0\C,66,1.4103,63,110.628,62,-165.461,0\H,68,1.08194,66,127.422,63,174.407,0\C,65,1.47469,64,127.024,63,168.006,0\N,70,1.32153,65,116.711,64,-11.1192,0\C,71,1.3737,70,122.408,65,-170.775,0\H,72,1.08917,71,115.764,70,172.207,0\C,70,1.40536,65,125.85,64,168.639,0\N,74,1.35779,70,121.592,65,-6.3733,0\C,74,1.40743,70,121.826,65,172.822,0\N,76,1.35802,74,111.336,70,-178.995,0\C,76,1.42087,74,119.883,70,-4.27393,0\C,78,1.51588,76,127.486,74,-176.232,0\C,79,1.39701,78,124.904,76,156.616,0\H,80,1.0866,79,118.1,78,-4.47935,0\C,80,1.39319,79,119.777,78,179.258,0\H,82,1.08589,80,118.414,79,179.304,0\C,82,1.43608,80,118.873,79,3.67802,0\N,84,1.34311,82,122.828,80,-12.2839,0\C,85,1.34647,84,117.439,82,8.29521,0\H,86,1.08858,85,117.579,84,-178.805,0\C,84,1.47405,82,120.592,80,179.195,0\H,88,1.09672,84,110.751,82,-121.059,0\H,88,1.09701,84,109.176,82,127.309,0\C,88,1.56506,84,119.194,82,4.88867,0\H,91,1.09641,88,112.461,84,64.9889,0\H,91,1.09786,88,103.284,84,-46.5362,0\C,91,1.59785,88,109.292,84,-173.387,0\H,94,1.0968,91,111.783,88,-50.5714,0\H,94,1.09743,91,108.973,88,62.9518,0\C,94,1.48287,91,114.304,88,-175.91,0\H,97,1.09674,94,104.388,91,-46.0482,0\H,97,1.09727,94,109.27,91,57.9285,0\C,97,1.48052,94,115.229,91,-168.17,0\H,100,1.09678,97,107.68,94,72.7725,0\H,100,1.09709,97,106.116,94,-173.947,0\C,100,1.54209,97,117.592,94,-50.1202,0\H,103,1.0967,100,112.005,97,80.8528,0\H,103,1.09674,100,114.621,97,-153.093,0\H,103,1.0973,100,99.4483,97,-29.841,0\S,75,1.63434,74,106.187,70,-179.08,0\S,61,1.7101,60,116.714,57,3.13638,0\S,64,1.74318,63,118.398,62,177.188,0\S,65,1.79153,64,108.77,63,-7.97183,0\\\@

 Total job time:  84.23s(wall), 922.13s(cpu) 
 Sun Oct  7 05:30:20 2018

        *************************************************************
        *                                                           *
        *  Thank you very much for using Q-Chem.  Have a nice day.  *
        *                                                           *
        *************************************************************


