
Running Job 1 of 1 ./6/83.qcin
qchem ./6/83.qcin_23858.0 /tmpu/cab_g/afmv_a/scratch_qchem/qchem23858/ 1
/tmpu/appuserlic/qchem4.4/serial-multicore/exe/qcprog.exe_s ./6/83.qcin_23858.0 /tmpu/cab_g/afmv_a/scratch_qchem/qchem23858/
Check license passed

                  Welcome to Q-Chem
     A Quantum Leap Into The Future Of Chemistry


 Q-Chem 4.4, Q-Chem, Inc., Pleasanton, CA (2016)

 Y. Shao,  Z. Gan,  E. Epifanovsky,  A. T. B. Gilbert,  M. Wormit,  
 J. Kussmann,  A. W. Lange,  A. Behn,  J. Deng,  X. Feng,  D. Ghosh,  
 M. Goldey,  P. R. Horn,  L. D. Jacobson,  I. Kaliman,  F. Rob,  
 R. Z. Khaliullin,  T. Kus,  A. Landau,  J. Liu,  E. I. Proynov,  Y. M. Rhee,  
 R. M. Richard,  M. A. Rohrdanz,  R. P. Steele,  E. J. Sundstrom,  
 H. L. Woodcock III,  P. M. Zimmerman,  D. Zuev,  B. Albrecht,  E. Alguire,  
 B. Austin,  S. A. Baeppler,  G. J. O. Beran,  Y. A. Bernard,  E. Berquist,  
 K. Brandhorst,  K. B. Bravaya,  S. T. Brown,  D. Casanova,  C.-M. Chang,  
 Y. Chen,  S. H. Chien,  K. D. Closser,  M. P. Coons,  D. L. Crittenden,  
 S. Dasgupta,  M. Diedenhofen,  R. A. DiStasio Jr.,  H. Do,  A. D. Dutoi,  
 R. G. Edgar,  P.-T. Fang,  S. Fatehi,  Q. Feng,  L. Fusti-Molnar,  
 A. Ghysels,  A. Golubeva-Zadorozhnaya,  J. Gomes,  A. Gunina,  
 M. W. D. Hanson-Heine,  P. H. P. Harbach,  A. W. Hauser,  J. E. Herr,  
 E. G. Hohenstein,  Z. C. Holden,  K. Hui,  T.-C. Jagau,  H. Ji,  B. Kaduk,  
 K. Khistyaev,  Jaehoon Kim,  Jihan Kim,  R. A. King,  P. Klunzinger,  
 K. Koh,  D. Kosenkov,  T. Kowalczyk,  C. M. Krauter,  A. Kunitsa,  
 K. U. Lao,  A. Laurent,  K. V. Lawler,  J. Lee,  D. Lefrancois,  S. Lehtola,  
 S. V. Levchenko,  C. Y. Lin,  Y.-S. Lin,  F. Liu,  E. Livshits,  
 R. C. Lochan,  A. Luenser,  P. Manohar,  S. F. Manzer,  S.-P. Mao,  Y. Mao,  
 N. Mardirossian,  A. V. Marenich,  L. A. Martinez-Martinez,  S. A. Maurer,  
 N. J. Mayhall,  J.-M. Mewes,  A. F. Morrison,  K. Nanda,  T. S. Nguyen-Beck,  
 C. M. Oana,  R. Olivares-Amaya,  D. P. O'Neill,  J. A. Parkhill,  
 T. M. Perrine,  R. Peverati,  P. A. Pieniazek,  F. Plasser,  A. Prociuk,  
 D. R. Rehn,  E. Rosta,  N. J. Russ,  N. Sergueev,  S. M. Sharada,  
 S. Sharma,  D. W. Small,  A. Sodt,  T. Stauch,  T. Stein,  D. Stuck,  
 Y.-C. Su,  A. J. W. Thom,  T. Tsuchimochi,  L. Vogt,  O. Vydrov,  T. Wang,  
 M. A. Watson,  J. Wenzel,  A. White,  C. F. Williams,  V. Vanovschi,  
 K. Yao,  S. Yeganeh,  S. R. Yost,  Z.-Q. You,  I. Y. Zhang,  X. Zhang,  
 Y. Zhao,  B. R. Brooks,  G. K. L. Chan,  D. M. Chipman,  C. J. Cramer,  
 W. A. Goddard III,  M. S. Gordon,  W. J. Hehre,  A. Klamt,  
 H. F. Schaefer III,  M. W. Schmidt,  C. D. Sherrill,  D. G. Truhlar,  
 A. Warshel,  X. Xu,  A. Aspuru-Guzik,  R. Baer,  A. T. Bell,  N. A. Besley,  
 J.-D. Chai,  A. Dreuw,  B. D. Dunietz,  T. R. Furlani,  S. R. Gwaltney,  
 C.-P. Hsu,  Y. Jung,  J. Kong,  D. S. Lambrecht,  W. Liang,  C. Ochsenfeld,  
 V. A. Rassolov,  L. V. Slipchenko,  J. E. Subotnik,  T. Van Voorhis,  
 J. M. Herbert,  A. I. Krylov,  P. M. W. Gill,  M. Head-Gordon

 Contributors to earlier versions of Q-Chem not listed above: 
 R. D. Adamson,  J. Baker,  E. F. C. Byrd,  A. K. Chakraborty,  C.-L. Cheng,  
 H. Dachsel,  R. J. Doerksen,  G. Hawkins,  A. Heyden,  S. Hirata,  
 G. Kedziora,  F. J. Keil,  C. Kelley,  P. P. Korambath,  W. Kurlancheek,  
 A. M. Lee,  M. S. Lee,  D. Liotard,  I. Lotan,  P. E. Maslen,  N. Nair,  
 D. Neuhauser,  R. Olson,  B. Peters,  J. Ritchie,  N. E. Schultz,  
 N. Shenvi,  A. C. Simmonett,  K. S. Thanthiriwatte,  Q. Wu,  W. Zhang

 Please cite Q-Chem as follows:
 Y. Shao et al., Mol. Phys. 113, 184-215 (2015)
 DOI: 10.1080/00268976.2014.952696

 Q-Chem 4.4.2 for Intel X86 Linux

 Parts of Q-Chem use Armadillo 5.200.1 (Boston Tea Smuggler).
 http://arma.sourceforge.net/

 Q-Chem begins on Sun Oct  7 05:43:50 2018  

Host: 
0

     Scratch files written to /tmpu/cab_g/afmv_a/scratch_qchem/qchem23858//
 Dec716 11556_ 22328  22283 4050   
Processing $rem in /tmpu/appuserlic/qchem4.4/serial-multicore/config/preferences.
 MEM_TOTAL  2000 
FILE_GEOM_ORG=        593

Checking the input file for inconsistencies... 	...done.

--------------------------------------------------------------
User input:
--------------------------------------------------------------
$comment
SP
$end

$rem
MEM_STATIC 5000
MEM_TOTAL 20000
JOBTYPE SP
EXCHANGE B3LYP
BASIS 6-31g(d,p)
$end

$molecule
0 1
C          24.378000     22.375000      0.201000
C          24.391000     23.409000      1.163000
N          23.167000     22.018000     -0.319000
C          23.235000     24.129000      1.378000
C          22.007000     22.643000      0.019000
C          21.995000     23.653000      0.985000
C          20.653000     24.218000      1.429000
C          20.449000     25.589000      1.517000
C          19.482000     23.455000      1.668000
N          19.254000     26.244000      1.721000
N          19.493000     22.082000      1.805000
C          18.264000     24.041000      1.857000
C          18.188000     25.442000      1.838000
S          17.946000     21.619000      2.191000
N          17.258000     23.152000      2.070000
C          16.904000     26.100000      2.003000
S          15.311000     25.361000      1.590000
C          16.747000     27.389000      2.476000
C          14.546000     26.952000      1.940000
S          17.948000     28.560000      2.938000
C          15.446000     27.874000      2.400000
C          13.150000     27.147000      1.850000
C          16.567000     29.625000      3.447000
C          15.401000     29.174000      2.931000
N          12.661000     28.328000      1.761000
S          11.945000     25.878000      1.947000
C          11.340000     28.336000      1.827000
C          10.772000     27.108000      1.674000
C          25.606000     21.630000     -0.204000
H          25.338000     23.785000      1.537000
H          23.321000     25.044000      1.956000
H          21.094000     22.202000     -0.380000
H          21.309000     26.202000      1.255000
H          16.756000     30.583000      3.913000
H          14.488000     29.759000      2.913000
H          10.862000     29.300000      1.710000
H           9.715000     26.924000      1.528000
H          26.280000     22.248000     -0.811000
C          25.305000     20.401000     -1.099000
H          26.008000     21.346000      0.777000
H          24.803000     20.729000     -2.018000
H          24.504000     19.830000     -0.613000
C          26.492000     19.379000     -1.485000
H          27.386000     19.963000     -1.735000
C          26.184000     18.381000     -2.621000
H          26.641000     18.730000     -0.614000
H          25.661000     17.554000     -2.125000
H          27.042000     17.820000     -3.013000
C          25.520000     18.881000     -3.885000
H          24.574000     19.381000     -3.645000
C          25.352000     17.850000     -4.953000
H          26.017000     19.777000     -4.276000
H          26.333000     17.504000     -5.301000
H          24.875000     18.269000     -5.848000
H          24.725000     17.043000     -4.554000
C          20.648000     18.436000     -1.206000
C          20.383000     19.408000     -2.205000
N          19.851000     18.346000     -0.123000
C          19.138000     20.027000     -2.163000
C          18.726000     19.047000     -0.033000
C          18.260000     19.880000     -1.108000
C          16.954000     20.599000     -0.932000
C          15.777000     19.945000     -0.463000
C          16.754000     21.942000     -1.262000
N          14.575000     20.489000     -0.337000
N          17.767000     22.710000     -1.690000
C          15.536000     22.599000     -1.059000
C          14.413000     21.827000     -0.682000
S          17.074000     24.171000     -1.879000
N          15.603000     23.910000     -1.370000
C          13.110000     22.446000     -0.590000
S          12.674000     24.131000     -1.121000
C          11.933000     21.782000     -0.113000
C          10.943000     23.863000     -0.756000
S          11.828000     20.321000      0.752000
C          10.828000     22.704000     -0.052000
C           9.879000     24.889000     -0.770000
C          10.201000     20.795000      1.212000
C           9.822000     22.043000      0.694000
N           8.891000     24.733000      0.063000
S          10.019000     26.393000     -1.668000
C           8.060000     25.840000     -0.069000
C           8.455000     26.806000     -0.900000
C          21.923000     17.602000     -1.268000
H          20.987000     19.580000     -3.091000
H          18.831000     20.529000     -3.076000
H          18.115000     18.873000      0.851000
H          15.721000     18.863000     -0.345000
H           9.623000     20.114000      1.821000
H           8.803000     22.386000      0.830000
H           7.029000     25.848000      0.262000
H           7.982000     27.764000     -1.073000
H          22.734000     18.168000     -0.792000
C          22.380000     17.011000     -2.608000
H          21.812000     16.709000     -0.641000
H          23.421000     16.667000     -2.624000
H          22.290000     17.857000     -3.301000
C          21.449000     15.889000     -3.096000
H          21.894000     14.956000     -2.728000
C          21.143000     15.702000     -4.604000
H          20.426000     15.990000     -2.712000
H          20.490000     16.540000     -4.878000
H          20.641000     14.750000     -4.813000
C          22.392000     15.747000     -5.606000
H          22.735000     16.786000     -5.689000
C          21.865000     15.396000     -7.017000
H          23.267000     15.182000     -5.262000
H          21.095000     16.093000     -7.370000
H          21.401000     14.403000     -6.964000
H          22.647000     15.342000     -7.784000
$end

--------------------------------------------------------------
 ----------------------------------------------------------------
             Standard Nuclear Orientation (Angstroms)
    I     Atom           X                Y                Z
 ----------------------------------------------------------------
    1      C       6.1475142578     3.7722623835     0.0553215692
    2      C       5.4235333544     4.9449406270     0.3642655592
    3      N       5.4314464555     2.6250542055    -0.1331732552
    4      C       4.0485973227     4.9207530874     0.2646318723
    5      C       4.0727367769     2.5873973987    -0.0787768013
    6      C       3.3389407120     3.7313358905     0.2473337048
    7      C       1.8340175702     3.6002452035     0.4353405371
    8      C       0.9584722726     4.4964195770    -0.1640699435
    9      C       1.1821032899     2.5323221341     1.1024830173
   10      N      -0.4140943552     4.4001377877    -0.2379392153
   11      N       1.8462678037     1.6315795083     1.9096801561
   12      C      -0.1718120796     2.3680260248     1.0518770825
   13      C      -0.9310709014     3.3065983917     0.3366526747
   14      S       0.6967776033     0.6371565753     2.5777889119
   15      N      -0.6169319078     1.2892868517     1.7489539326
   16      C      -2.3706944871     3.1462800551     0.2335655145
   17      S      -3.2395092254     1.5699394552     0.3546037868
   18      C      -3.2532982267     4.1846771877     0.0041291751
   19      C      -4.7533998822     2.4345123008    -0.0922237795
   20      S      -2.9391636574     5.8745313302    -0.2656827031
   21      C      -4.5660295999     3.7838039660    -0.2186689439
   22      C      -5.9974722673     1.7709162602    -0.1750802542
   23      C      -4.7412666512     6.1044679062    -0.2702620878
   24      C      -5.3736532416     4.9172554019    -0.4110692966
   25      N      -6.9761940010     2.2975648201    -0.8126914699
   26      S      -6.3927718345     0.2630722976     0.6261312264
   27      C      -8.0995118548     1.6135691956    -0.6720928034
   28      C      -7.9260650276     0.3683307027    -0.1492981078
   29      C       7.6382280880     3.7319193891    -0.0010585623
   30      H       5.9425191771     5.8955866457     0.4348832829
   31      H       3.5322005205     5.8751954514     0.2974817807
   32      H       3.6203234536     1.5980755764    -0.1405466697
   33      H       1.4305584031     5.2786727638    -0.7550247956
   34      H      -5.1676384797     7.0945978132    -0.3624077928
   35      H      -6.4251398913     4.8245749956    -0.6598747786
   36      H      -8.9542592764     1.9803991890    -1.2255470483
   37      H      -8.6846596659    -0.4034224063    -0.1125242940
   38      H       8.0305709988     4.2600311492    -0.8795880207
   39      C       8.2036805925     2.2951345276    -0.1351470660
   40      H       7.8937004869     4.1950840200     0.9606240142
   41      H       7.8285608723     1.8366457063    -1.0588473400
   42      H       7.7091261954     1.6761724138     0.6238917010
   43      C       9.7942167190     2.0456114587    -0.0332546301
   44      H      10.3064952891     2.8313598366    -0.6015522222
   45      C      10.2930561913     0.6587912313    -0.4906962524
   46      H      10.0455097164     2.0635609558     1.0337845655
   47      H      10.1565551759     0.0151484401     0.3871223109
   48      H      11.3795642807     0.5526349451    -0.6037449792
   49      C       9.7748128779     0.0770732158    -1.7874691771
   50      H       8.6796923117     0.0233657673    -1.7689636233
   51      C      10.3917575319    -1.2259565120    -2.1790069433
   52      H       9.8312856792     0.8028281364    -2.6077109817
   53      H      11.4636851192    -1.0934641063    -2.3703130071
   54      H       9.9866245714    -1.5957390355    -3.1293980047
   55      H      10.1803204271    -1.9560965125    -1.3879513635
   56      C       5.3165599746    -1.6765907586     1.0691185978
   57      C       4.8359312245    -1.5878188038    -0.2628444440
   58      N       4.4496028476    -1.6834065079     2.1008825656
   59      C       3.4762964412    -1.8101570341    -0.4549615109
   60      C       3.1384279476    -1.7607654666     1.9009776552
   61      C       2.5764553664    -1.9140039817     0.5866813509
   62      C       1.0854652785    -2.0382774207     0.4638901858
   63      C       0.3219044614    -2.9283189898     1.2749431335
   64      C       0.3220623442    -1.3491204125    -0.4820630783
   65      N      -0.9833597814    -3.1420878707     1.1900660339
   66      N       0.8822585106    -0.4493874985    -1.3041567096
   67      C      -1.0705047144    -1.4569723117    -0.5562719384
   68      C      -1.7090943401    -2.4425583313     0.2311704329
   69      S      -0.3842317382     0.1183964915    -2.1551060561
   70      N      -1.5990168016    -0.6363488884    -1.4874986405
   71      C      -3.1285575352    -2.6738291776     0.0860083392
   72      S      -4.2145520888    -1.9629919299    -1.1893771856
   73      C      -3.8889361906    -3.5673013759     0.9089820516
   74      C      -5.6105374475    -2.9295605036    -0.6251254061
   75      S      -3.4428962557    -4.2633930163     2.3956816866
   76      C      -5.2872398625    -3.4909660375     0.5717139724
   77      C      -7.0095196241    -2.7914975573    -1.0820230890
   78      C      -5.1442376592    -4.6066845466     2.6621274670
   79      C      -5.9671748035    -4.1672657422     1.6137217388
   80      N      -7.9464708497    -3.0622233754    -0.2199332258
   81      S      -7.4403005276    -2.0609551402    -2.6210993021
   82      C      -9.1643750012    -2.7935670279    -0.8347236329
   83      C      -9.1283528484    -2.2733871449    -2.0626720414
   84      C       6.8132391618    -1.5986848769     1.3500226458
   85      H       5.4558863507    -1.5389884800    -1.1531630617
   86      H       3.1758931441    -2.0369309062    -1.4738596756
   87      H       2.5140738067    -1.8157263630     2.7910418139
   88      H       0.7889637684    -3.6688306606     1.9240055875
   89      H      -5.4252995872    -5.1260528363     3.5676586770
   90      H      -7.0212869459    -4.4186526632     1.6262997854
   91      H     -10.1053593517    -3.1995002473    -0.4849341626
   92      H      -9.9632207785    -1.9334467330    -2.6617196654
   93      H       7.1004580062    -0.5418229875     1.4221425610
   94      C       7.7945212626    -2.3740716522     0.4614334340
   95      H       7.0244340621    -2.0051119527     2.3465730691
   96      H       8.8403074586    -2.0570225926     0.5513452024
   97      H       7.4537450996    -2.1402055218    -0.5550522962
   98      C       7.6875191272    -3.8940637639     0.6662834360
   99      H       8.4422590246    -4.1432407192     1.4227333895
  100      C       7.8671755163    -4.8761240800    -0.5194442383
  101      H       6.6947327004    -4.2059965033     1.0145061763
  102      H       6.9646963313    -4.7646785753    -1.1333173687
  103      H       7.9705916877    -5.9160390563    -0.1879763854
  104      C       9.1161160471    -4.6181465194    -1.4887868653
  105      H       8.9025348360    -3.7357850172    -2.1051311244
  106      C       9.1709617391    -5.7923479346    -2.4938211864
  107      H      10.0519005671    -4.3843082692    -0.9664718217
  108      H       8.2590421686    -5.8799287480    -3.0971869941
  109      H       9.2672071487    -6.7217557664    -1.9184153267
  110      H      10.0256580564    -5.7521007075    -3.1798265552
 ----------------------------------------------------------------
 Molecular Point Group                 C1    NOp =  1
 Largest Abelian Subgroup              C1    NOp =  1
 Nuclear Repulsion Energy = 12566.8126988738 hartrees
 There are      270 alpha and      270 beta electrons
 Requested basis set is 6-31G(d,p)
 There are 406 shells and 1262 basis functions

 Total QAlloc Memory Limit  20000 MB
 Mega-Array Size      4888 MB
 MEM_STATIC part      5000 MB
 A cutoff of  1.0D-08 yielded  15872 shell pairs
 There are    165235 function pairs
 
 -------------------------------------------------------
 OpenMP Integral Computing Module                       
 Release: version 1.0, May 2013, Q-Chem Inc. Pittsburgh 
 -------------------------------------------------------
 Integral Job Info:
 Integral job number is                      11
 Integral operator is                         1
 short-range coefficients                     0
 long-range coefficients              100000000
 Omega coefficients                           0
 if combine SR and LR in K                    0
 Integral screening is                        0
 Integral computing path is                   2
 max size of driver memory is            800000
 size of driver memory is                593474
 size of scratch memory is             15166112
 max col of scratch BK array               1296
 max len of scratch array in speh3          155
 max len of scratch index in speh4           18
 max int batch size is                      520
 min int batch size is                       52
 fixed nKL is                                52
 max L of basis functions is                  2
 order of int derivative is                   0
 number of shells is                        406
 number of basis is                        1262
 number of cartesian basis is              1262
 number of contracted shell pairs         15872
 number of primitive shell pairs          48478
 maxK2 (contraction) of shell pair           36
 max number of K2 of shell pair               1
 max number of CS2 of shell pair           1730
 max number of PS2 of shell pair           9222
 mem total for path MDJ                  366072
 -------------------------------------------------------
 Smallest overlap matrix eigenvalue = 3.80E-04

 Scale SEOQF with 1.000000e-02/1.000000e-02/1.000000e-01

 Standard Electronic Orientation quadrupole field applied
 Nucleus-field energy     =    -0.0000000040 hartrees
 Guess from superposition of atomic densities
 Warning:  Energy on first SCF cycle will be non-variational
 A restricted hybrid HF-DFT SCF calculation will be
 performed using Pulay DIIS extrapolation
 Exchange:     0.2000 Hartree-Fock + 0.0800 Slater + 0.7200 B88
 Correlation:  0.1900 VWN1RPA + 0.8100 LYP
 Using SG-1 standard quadrature grid
 SCF converges when DIIS error is below 1.0E-05
 using 16 threads for integral computing 
 -------------------------------------------------------
 OpenMP BLAS3 based DFT computing Module                
 Release: version 1.0, May 2013, Q-Chem Inc. Pittsburgh 
 -------------------------------------------------------
 ---------------------------------------
  Cycle       Energy         DIIS Error
 ---------------------------------------
    1   -5680.4375044959      2.16E-02
    2   -5662.4714062406      2.17E-03
    3   -5660.8080472477      3.49E-03
    4   -5663.2909244437      9.81E-04
    5   -5663.4622088988      4.08E-04
    6   -5663.4773369105      2.97E-04
    7   -5663.4936758812      9.39E-05
    8   -5663.4951841391      3.77E-05
    9   -5663.4954319737      1.56E-05
   10   -5663.4954779309      4.40E-06 Convergence criterion met
 ---------------------------------------
 SCF time:  CPU 1215.45 s  wall 108.09 s
 SCF   energy in the final basis set = -5663.4954779309
 Total energy in the final basis set = -5663.4954779309
 
 --------------------------------------------------------------
 
                    Orbital Energies (a.u.)
 --------------------------------------------------------------
 
 Alpha MOs
 -- Occupied --
-88.989 -88.986 -88.932 -88.929 -88.919 -88.915 -88.914 -88.902
-14.386 -14.382 -14.379 -14.376 -14.352 -14.351 -14.351 -14.326
-14.326 -14.321 -10.279 -10.263 -10.255 -10.253 -10.251 -10.250
-10.249 -10.249 -10.247 -10.244 -10.239 -10.235 -10.235 -10.233
-10.233 -10.233 -10.233 -10.231 -10.230 -10.228 -10.225 -10.223
-10.221 -10.220 -10.219 -10.218 -10.215 -10.214 -10.214 -10.212
-10.211 -10.205 -10.204 -10.198 -10.198 -10.197 -10.195 -10.191
-10.189 -10.182 -10.181 -10.181 -10.179 -10.178 -10.176 -10.175
-10.174 -10.171 -10.170 -10.169  -8.045  -8.040  -7.992  -7.986
 -7.977  -7.976  -7.975  -7.961  -6.010  -6.005  -6.004  -6.003
 -6.000  -5.998  -5.956  -5.953  -5.951  -5.949  -5.947  -5.942
 -5.941  -5.940  -5.939  -5.938  -5.937  -5.935  -5.934  -5.933
 -5.931  -5.926  -5.922  -5.917  -1.052  -1.017  -0.984  -0.981
 -0.955  -0.954  -0.938  -0.927  -0.916  -0.907  -0.906  -0.884
 -0.844  -0.836  -0.830  -0.829  -0.814  -0.810  -0.805  -0.803
 -0.802  -0.800  -0.796  -0.794  -0.787  -0.779  -0.767  -0.765
 -0.754  -0.745  -0.741  -0.737  -0.721  -0.720  -0.713  -0.711
 -0.696  -0.693  -0.678  -0.669  -0.654  -0.653  -0.644  -0.638
 -0.635  -0.634  -0.624  -0.621  -0.611  -0.609  -0.599  -0.598
 -0.593  -0.590  -0.587  -0.584  -0.583  -0.574  -0.555  -0.553
 -0.552  -0.546  -0.543  -0.532  -0.522  -0.516  -0.513  -0.507
 -0.507  -0.505  -0.501  -0.491  -0.489  -0.481  -0.478  -0.476
 -0.470  -0.469  -0.467  -0.464  -0.458  -0.457  -0.455  -0.448
 -0.444  -0.442  -0.441  -0.440  -0.438  -0.436  -0.433  -0.431
 -0.430  -0.427  -0.423  -0.421  -0.417  -0.417  -0.413  -0.410
 -0.409  -0.406  -0.405  -0.403  -0.402  -0.396  -0.395  -0.392
 -0.392  -0.389  -0.388  -0.385  -0.385  -0.381  -0.380  -0.379
 -0.378  -0.376  -0.372  -0.368  -0.364  -0.360  -0.358  -0.356
 -0.352  -0.351  -0.348  -0.347  -0.345  -0.343  -0.342  -0.337
 -0.337  -0.336  -0.333  -0.331  -0.326  -0.324  -0.321  -0.317
 -0.315  -0.311  -0.307  -0.307  -0.303  -0.301  -0.297  -0.294
 -0.293  -0.293  -0.289  -0.288  -0.284  -0.282  -0.282  -0.277
 -0.275  -0.270  -0.267  -0.264  -0.260  -0.249  -0.246  -0.242
 -0.240  -0.235  -0.231  -0.230  -0.196  -0.189
 -- Virtual --
 -0.117  -0.108  -0.074  -0.068  -0.035  -0.030  -0.026  -0.022
 -0.020  -0.019  -0.015  -0.013  -0.011  -0.005  -0.001   0.000
  0.006   0.014   0.023   0.027   0.033   0.034   0.041   0.044
  0.045   0.055   0.063   0.066   0.067   0.077   0.084   0.088
  0.093   0.094   0.102   0.106   0.106   0.106   0.110   0.113
  0.115   0.116   0.116   0.120   0.124   0.125   0.126   0.127
  0.127   0.132   0.134   0.136   0.139   0.141   0.142   0.146
  0.149   0.153   0.154   0.155   0.159   0.162   0.163   0.167
  0.169   0.172   0.173   0.175   0.181   0.182   0.185   0.187
  0.189   0.190   0.192   0.193   0.197   0.199   0.200   0.203
  0.204   0.208   0.210   0.215   0.215   0.216   0.220   0.222
  0.223   0.225   0.231   0.234   0.235   0.239   0.241   0.246
  0.250   0.251   0.253   0.257   0.258   0.262   0.266   0.267
  0.270   0.271   0.274   0.278   0.280   0.282   0.283   0.284
  0.287   0.291   0.295   0.298   0.300   0.304   0.306   0.311
  0.314   0.317   0.320   0.321   0.325   0.327   0.330   0.333
  0.336   0.339   0.343   0.344   0.349   0.351   0.353   0.356
  0.358   0.361   0.362   0.366   0.368   0.370   0.373   0.378
  0.379   0.387   0.390   0.392   0.400   0.403   0.406   0.412
  0.419   0.421   0.424   0.426   0.432   0.435   0.438   0.441
  0.444   0.449   0.455   0.460   0.463   0.470   0.475   0.478
  0.482   0.484   0.485   0.492   0.493   0.498   0.498   0.502
  0.504   0.508   0.510   0.512   0.515   0.518   0.521   0.525
  0.528   0.529   0.533   0.535   0.538   0.543   0.545   0.545
  0.547   0.547   0.551   0.553   0.554   0.557   0.558   0.559
  0.560   0.563   0.564   0.567   0.568   0.570   0.571   0.573
  0.574   0.580   0.580   0.584   0.586   0.588   0.592   0.593
  0.594   0.595   0.598   0.600   0.602   0.603   0.606   0.611
  0.611   0.613   0.615   0.619   0.620   0.621   0.624   0.626
  0.627   0.628   0.629   0.631   0.633   0.636   0.640   0.643
  0.645   0.648   0.649   0.649   0.651   0.655   0.657   0.659
  0.662   0.663   0.665   0.670   0.675   0.677   0.682   0.683
  0.685   0.686   0.690   0.692   0.695   0.699   0.701   0.704
  0.708   0.711   0.713   0.715   0.721   0.723   0.727   0.732
  0.733   0.737   0.740   0.744   0.746   0.750   0.751   0.757
  0.758   0.758   0.762   0.764   0.766   0.766   0.776   0.777
  0.779   0.783   0.786   0.787   0.793   0.795   0.796   0.798
  0.800   0.802   0.803   0.808   0.809   0.811   0.813   0.813
  0.817   0.817   0.821   0.823   0.825   0.826   0.829   0.831
  0.832   0.832   0.835   0.838   0.840   0.842   0.844   0.845
  0.848   0.850   0.852   0.852   0.854   0.856   0.857   0.862
  0.864   0.866   0.868   0.869   0.871   0.875   0.877   0.880
  0.881   0.884   0.887   0.890   0.894   0.895   0.898   0.902
  0.903   0.905   0.908   0.911   0.912   0.914   0.915   0.917
  0.917   0.923   0.926   0.929   0.932   0.934   0.936   0.938
  0.942   0.943   0.945   0.947   0.948   0.949   0.953   0.956
  0.957   0.961   0.962   0.966   0.967   0.970   0.972   0.976
  0.981   0.983   0.987   0.988   0.992   0.993   0.998   0.999
  1.003   1.007   1.008   1.010   1.015   1.016   1.017   1.023
  1.027   1.030   1.030   1.034   1.037   1.043   1.044   1.049
  1.053   1.056   1.057   1.064   1.066   1.070   1.073   1.076
  1.082   1.087   1.087   1.089   1.091   1.094   1.097   1.100
  1.103   1.105   1.110   1.112   1.115   1.120   1.125   1.129
  1.129   1.133   1.138   1.143   1.147   1.149   1.151   1.163
  1.164   1.171   1.173   1.175   1.181   1.183   1.188   1.202
  1.204   1.208   1.209   1.214   1.219   1.225   1.233   1.239
  1.241   1.242   1.249   1.257   1.261   1.268   1.272   1.274
  1.278   1.282   1.287   1.295   1.296   1.297   1.302   1.307
  1.309   1.311   1.319   1.322   1.323   1.329   1.336   1.339
  1.345   1.351   1.352   1.357   1.359   1.363   1.365   1.372
  1.374   1.378   1.383   1.384   1.387   1.391   1.397   1.403
  1.408   1.414   1.416   1.424   1.430   1.434   1.439   1.440
  1.449   1.453   1.457   1.465   1.466   1.469   1.481   1.483
  1.492   1.494   1.499   1.500   1.503   1.510   1.516   1.525
  1.535   1.537   1.547   1.549   1.554   1.562   1.563   1.565
  1.579   1.586   1.591   1.602   1.609   1.616   1.619   1.623
  1.634   1.639   1.640   1.646   1.651   1.654   1.663   1.665
  1.666   1.672   1.675   1.678   1.683   1.687   1.688   1.696
  1.699   1.701   1.704   1.707   1.714   1.719   1.721   1.722
  1.724   1.729   1.732   1.735   1.740   1.740   1.750   1.751
  1.755   1.759   1.767   1.769   1.769   1.771   1.780   1.782
  1.786   1.790   1.796   1.800   1.808   1.811   1.813   1.819
  1.823   1.826   1.831   1.834   1.839   1.845   1.848   1.850
  1.857   1.860   1.864   1.868   1.872   1.873   1.881   1.882
  1.885   1.887   1.890   1.892   1.900   1.904   1.908   1.910
  1.912   1.914   1.919   1.923   1.928   1.933   1.938   1.939
  1.945   1.945   1.949   1.956   1.957   1.962   1.966   1.969
  1.972   1.973   1.982   1.983   1.987   1.989   1.998   2.000
  2.005   2.010   2.013   2.016   2.022   2.024   2.025   2.032
  2.033   2.037   2.050   2.055   2.057   2.060   2.061   2.070
  2.072   2.082   2.083   2.084   2.086   2.097   2.099   2.100
  2.108   2.112   2.117   2.119   2.126   2.127   2.135   2.142
  2.144   2.145   2.145   2.151   2.152   2.154   2.158   2.160
  2.162   2.164   2.171   2.175   2.179   2.183   2.187   2.190
  2.194   2.200   2.206   2.209   2.211   2.215   2.219   2.222
  2.227   2.234   2.238   2.240   2.244   2.250   2.256   2.258
  2.264   2.267   2.269   2.269   2.273   2.273   2.280   2.282
  2.288   2.291   2.297   2.299   2.305   2.311   2.313   2.316
  2.320   2.328   2.331   2.333   2.334   2.338   2.340   2.344
  2.350   2.354   2.355   2.360   2.361   2.367   2.372   2.374
  2.377   2.380   2.383   2.387   2.395   2.397   2.399   2.401
  2.403   2.408   2.411   2.413   2.419   2.421   2.427   2.432
  2.434   2.441   2.446   2.448   2.448   2.451   2.457   2.459
  2.463   2.464   2.465   2.469   2.472   2.476   2.480   2.487
  2.488   2.495   2.499   2.500   2.505   2.508   2.512   2.519
  2.521   2.525   2.529   2.531   2.537   2.544   2.545   2.551
  2.552   2.555   2.560   2.568   2.570   2.575   2.578   2.587
  2.591   2.595   2.597   2.604   2.605   2.606   2.610   2.616
  2.617   2.619   2.621   2.629   2.632   2.636   2.641   2.645
  2.648   2.650   2.653   2.658   2.666   2.667   2.669   2.678
  2.684   2.687   2.689   2.694   2.698   2.703   2.708   2.713
  2.714   2.716   2.720   2.725   2.730   2.733   2.738   2.746
  2.750   2.754   2.756   2.767   2.779   2.783   2.786   2.793
  2.796   2.801   2.804   2.807   2.813   2.821   2.826   2.830
  2.839   2.844   2.852   2.855   2.856   2.859   2.863   2.877
  2.877   2.881   2.887   2.893   2.895   2.897   2.911   2.917
  2.919   2.926   2.929   2.941   2.945   2.951   2.955   2.962
  2.966   2.972   2.973   2.988   2.994   3.004   3.026   3.026
  3.031   3.045   3.053   3.075   3.093   3.100   3.125   3.157
  3.170   3.177   3.186   3.193   3.214   3.226   3.227   3.243
  3.245   3.263   3.268   3.279   3.281   3.286   3.294   3.303
  3.304   3.306   3.313   3.318   3.331   3.337   3.341   3.347
  3.348   3.355   3.369   3.379   3.394   3.397   3.421   3.432
  3.439   3.449   3.468   3.474   3.487   3.504   3.521   3.532
  3.541   3.542   3.556   3.579   3.586   3.607   3.609   3.620
  3.627   3.650   3.734   3.743   3.854   3.893   3.903   3.914
  3.945   3.956   3.961   3.963   3.982   3.985   3.990   4.031
  4.073   4.080   4.082   4.092   4.107   4.111   4.126   4.132
  4.134   4.139   4.150   4.169   4.175   4.179   4.185   4.200
  4.213   4.222   4.238   4.262   4.266   4.274   4.276   4.286
  4.296   4.300   4.319   4.322   4.376   4.387   4.398   4.409
  4.423   4.435   4.455   4.469   4.475   4.482   4.491   4.492
  4.515   4.521   4.534   4.542   4.578   4.601   4.646   4.657
  4.697   4.708   4.713   4.732   4.737   4.763   4.798   4.809
 --------------------------------------------------------------
 
          Ground-State Mulliken Net Atomic Charges

     Atom                 Charge (a.u.)
  ----------------------------------------
      1 C                     0.274737
      2 C                    -0.114936
      3 N                    -0.493476
      4 C                    -0.085337
      5 C                     0.080545
      6 C                     0.043337
      7 C                     0.054603
      8 C                     0.044320
      9 C                     0.203754
     10 N                    -0.532293
     11 N                    -0.553268
     12 C                     0.259711
     13 C                     0.293762
     14 S                     0.612764
     15 N                    -0.607378
     16 C                    -0.221783
     17 S                     0.336166
     18 C                    -0.127510
     19 C                    -0.241856
     20 S                     0.265819
     21 C                     0.200410
     22 C                     0.050206
     23 C                    -0.310919
     24 C                    -0.049194
     25 N                    -0.407041
     26 S                     0.265800
     27 C                     0.100308
     28 C                    -0.293141
     29 C                    -0.240076
     30 H                     0.085654
     31 H                     0.094976
     32 H                     0.128758
     33 H                     0.104298
     34 H                     0.124588
     35 H                     0.117766
     36 H                     0.099093
     37 H                     0.129302
     38 H                     0.119480
     39 C                    -0.185251
     40 H                     0.117110
     41 H                     0.111340
     42 H                     0.113079
     43 C                    -0.194492
     44 H                     0.088199
     45 C                    -0.173649
     46 H                     0.093590
     47 H                     0.089024
     48 H                     0.086961
     49 C                    -0.174365
     50 H                     0.095924
     51 C                    -0.321023
     52 H                     0.086527
     53 H                     0.099086
     54 H                     0.098943
     55 H                     0.111880
     56 C                     0.276367
     57 C                    -0.107223
     58 N                    -0.474385
     59 C                    -0.065483
     60 C                     0.077472
     61 C                     0.044165
     62 C                     0.006768
     63 C                     0.053115
     64 C                     0.203327
     65 N                    -0.517114
     66 N                    -0.556674
     67 C                     0.233716
     68 C                     0.303446
     69 S                     0.611158
     70 N                    -0.545818
     71 C                    -0.216505
     72 S                     0.337253
     73 C                    -0.133456
     74 C                    -0.249856
     75 S                     0.313961
     76 C                     0.161071
     77 C                     0.085318
     78 C                    -0.313106
     79 C                    -0.060512
     80 N                    -0.436586
     81 S                     0.264824
     82 C                     0.098754
     83 C                    -0.285721
     84 C                    -0.244087
     85 H                     0.099305
     86 H                     0.100075
     87 H                     0.100532
     88 H                     0.116484
     89 H                     0.131511
     90 H                     0.120675
     91 H                     0.118065
     92 H                     0.134605
     93 H                     0.132838
     94 C                    -0.188491
     95 H                     0.111581
     96 H                     0.106729
     97 H                     0.095271
     98 C                    -0.185737
     99 H                     0.091272
    100 C                    -0.177892
    101 H                     0.100246
    102 H                     0.090579
    103 H                     0.093405
    104 C                    -0.186441
    105 H                     0.102703
    106 C                    -0.318089
    107 H                     0.093239
    108 H                     0.103577
    109 H                     0.098677
    110 H                     0.096257
  ----------------------------------------
  Sum of atomic charges =     0.000000

 -----------------------------------------------------------------
                    Cartesian Multipole Moments
 -----------------------------------------------------------------
    Charge (ESU x 10^10)
                 0.0000
    Dipole Moment (Debye)
         X      -2.3432      Y      -0.4826      Z      -1.9191
       Tot       3.0670
    Quadrupole Moments (Debye-Ang)
        XX    -386.9973     XY      18.2153     YY    -434.3366
        XZ       1.9089     YZ      -2.0568     ZZ    -442.7669
    Octopole Moments (Debye-Ang^2)
       XXX    -546.0272    XXY     -35.8200    XYY      12.5572
       YYY     147.2297    XXZ    -133.1245    XYZ      20.7334
       YYZ      29.8229    XZZ     -50.9952    YZZ     -42.1556
       ZZZ      -1.6487
    Hexadecapole Moments (Debye-Ang^3)
      XXXX  -75813.0772   XXXY    1392.8687   XXYY  -17393.7487
      XYYY     215.3786   YYYY  -24966.8888   XXXZ    1307.3953
      XXYZ     -94.8054   XYYZ    -106.3170   YYYZ    -290.8348
      XXZZ  -14552.7989   XYZZ     251.2485   YYZZ   -5125.3879
      XZZZ     -77.7866   YZZZ    -117.8027   ZZZZ   -4852.1982
 -----------------------------------------------------------------
Archival summary:
1\1\mn426\SP\ProcedureUnspecified\6-31G**\8105042\afmv_a\SunOct705:45:422018SunOct705:45:422018\0\\#,ProcedureUnspecified,6-31G**,\\0,1\S\C,1,1.79972\C,2,1.3681,1,112.429\C,3,1.39054,2,113.504,1,-0.916883,0\C,4,1.38199,3,114.387,2,-3.56707,0\C,3,1.40499,2,136.851,1,172.477,0\H,6,1.08449,3,121.319,2,10.1442,0\C,6,1.35248,3,115.158,2,-170.202,0\H,8,1.08196,6,127.602,3,179.265,0\C,2,1.41242,1,121.991,3,174.764,0\N,10,1.28133,2,120.589,1,161.886,0\C,11,1.32267,10,112.536,2,173.343,0\H,12,1.08234,11,116.172,10,177.164,0\C,12,1.36162,11,113.926,10,13.8622,0\H,14,1.08278,12,125.143,11,169.013,0\C,5,1.45219,4,124.191,3,-172.574,0\N,16,1.33912,5,116.258,4,22.1889,0\C,17,1.37792,16,114.747,5,177.736,0\H,18,1.08812,17,116.955,16,-170.258,0\C,18,1.38888,17,127.3,16,0.29969,0\C,16,1.40319,5,119.918,4,-155.521,0\N,21,1.35931,16,127.954,5,2.8628,0\C,21,1.36479,16,118.37,5,-178.503,0\N,23,1.37986,21,114.873,16,-175.126,0\C,20,1.52228,18,120.953,17,-170.319,0\C,25,1.38514,20,125.373,18,-41.5329,0\H,26,1.08568,25,120.769,20,7.63484,0\C,26,1.37875,25,121.795,20,-166.341,0\H,28,1.08539,26,119.795,25,176.34,0\C,25,1.39764,20,118.514,18,132.889,0\H,30,1.08961,25,122.573,20,4.01264,0\N,30,1.36032,25,120.736,20,173.746,0\C,32,1.36542,30,122.789,25,3.3921,0\C,33,1.49233,32,119.731,30,-179.175,0\H,34,1.09755,33,100.836,32,126.253,0\H,34,1.09757,33,111.982,32,-111.537,0\C,34,1.54986,33,113.127,32,5.93609,0\H,37,1.0972,34,107.378,33,48.7696,0\H,37,1.09734,34,109.599,33,-60.232,0\C,37,1.61321,34,119.844,33,172.702,0\H,40,1.09638,37,106.554,34,-79.0773,0\H,40,1.09672,37,108.481,34,42.4838,0\C,40,1.54317,37,116.04,34,166.639,0\H,43,1.09703,40,104.469,37,83.9912,0\H,43,1.09752,40,115.943,37,-168.762,0\C,43,1.51281,40,119.27,37,-45.7349,0\H,46,1.09659,43,110.272,40,56.3681,0\H,46,1.09668,43,111.655,40,-48.5408,0\C,46,1.49392,43,114.745,40,-176.087,0\H,49,1.0969,46,110.116,43,63.862,0\H,49,1.09708,46,108.175,43,-60.3614,0\H,49,1.09732,46,111.62,43,179.461,0\S,24,1.66029,23,107.046,21,0.827447,0\S,14,1.72144,12,110.019,11,-18.2182,0\S,4,1.73985,3,115.189,2,-175.469,0\H,51,2.30529,49,113.347,46,-117.469,0\C,56,1.0973,51,109.764,49,-152.825,0\H,57,1.0969,56,105.194,51,15.7227,0\C,57,1.54656,56,104.62,51,138.621,0\H,59,1.09669,57,113.971,56,-67.9651,0\H,59,1.09696,57,112.866,56,55.528,0\H,59,1.09734,57,107.782,56,173.563,0\C,57,1.60188,56,108.52,51,-106.995,0\H,63,1.09635,57,105.199,56,-161.476,0\H,63,1.09715,57,106.642,56,-44.585,0\C,63,1.55005,57,116.823,56,73.1219,0\H,66,1.09724,63,107.684,57,75.031,0\H,66,1.09735,63,99.6429,57,-170.445,0\C,66,1.53746,63,121.09,57,-46.391,0\H,69,1.09648,66,109.957,63,87.0895,0\H,69,1.0973,66,108.211,63,-30.7673,0\C,69,1.53419,66,112.208,63,-144.099,0\H,72,1.09677,69,102.463,66,-52.0773,0\H,72,1.09757,69,110.937,66,-162.878,0\C,72,1.5248,69,119.689,66,69.5135,0\N,75,1.34766,72,119.384,69,-143.605,0\C,76,1.32858,75,121.331,72,179.466,0\H,77,1.0886,76,116.484,75,-176.733,0\C,75,1.41881,72,120.15,69,43.5768,0\H,79,1.086,75,125.385,72,-4.87179,0\C,79,1.39102,75,116.793,72,-173.302,0\H,81,1.0862,79,115.674,75,162.189,0\C,81,1.38041,79,123.022,75,-9.60982,0\C,83,1.50119,81,126.295,79,-174.556,0\C,84,1.39734,83,123.86,81,38.7987,0\N,85,1.34133,84,121.169,83,4.26482,0\C,85,1.39871,84,122.807,83,178.426,0\N,87,1.34905,85,112.319,84,-175.941,0\C,87,1.41395,85,118.285,84,9.11806,0\N,89,1.39123,87,119.916,85,-9.18151,0\C,90,1.32537,89,118.475,87,4.70375,0\H,91,1.08986,90,110.524,89,169.152,0\C,89,1.44549,87,119.941,85,173.963,0\C,93,1.43309,89,124.271,87,174.65,0\C,94,1.44043,93,110.339,89,-175.618,0\C,95,1.36093,94,117.283,93,-17.3362,0\C,95,1.41615,94,105.575,93,167.471,0\H,97,1.08375,95,125.896,94,171.506,0\C,97,1.40338,95,114.688,94,-4.17924,0\H,99,1.08108,97,128.589,95,-178.891,0\C,96,1.47816,95,122.357,94,179.85,0\N,101,1.30168,96,117.2,95,-9.08995,0\C,102,1.39048,101,107.305,96,-176.661,0\H,103,1.08286,102,123.085,101,-160.708,0\C,103,1.33407,102,117.301,101,3.75536,0\H,105,1.08232,103,127.669,102,175.037,0\S,88,1.5783,87,106.34,85,-1.03626,0\S,94,1.70111,93,128.161,89,-14.9667,0\S,101,1.75728,96,122.79,95,-179.669,0\S,96,1.78925,95,108.351,94,18.6546,0\\\@

 Total job time:  112.12s(wall), 1227.39s(cpu) 
 Sun Oct  7 05:45:42 2018

        *************************************************************
        *                                                           *
        *  Thank you very much for using Q-Chem.  Have a nice day.  *
        *                                                           *
        *************************************************************


