
Running Job 1 of 1 ./6/85.qcin
qchem ./6/85.qcin_23959.0 /tmpu/cab_g/afmv_a/scratch_qchem/qchem23959/ 1
/tmpu/appuserlic/qchem4.4/serial-multicore/exe/qcprog.exe_s ./6/85.qcin_23959.0 /tmpu/cab_g/afmv_a/scratch_qchem/qchem23959/
Check license passed

                  Welcome to Q-Chem
     A Quantum Leap Into The Future Of Chemistry


 Q-Chem 4.4, Q-Chem, Inc., Pleasanton, CA (2016)

 Y. Shao,  Z. Gan,  E. Epifanovsky,  A. T. B. Gilbert,  M. Wormit,  
 J. Kussmann,  A. W. Lange,  A. Behn,  J. Deng,  X. Feng,  D. Ghosh,  
 M. Goldey,  P. R. Horn,  L. D. Jacobson,  I. Kaliman,  F. Rob,  
 R. Z. Khaliullin,  T. Kus,  A. Landau,  J. Liu,  E. I. Proynov,  Y. M. Rhee,  
 R. M. Richard,  M. A. Rohrdanz,  R. P. Steele,  E. J. Sundstrom,  
 H. L. Woodcock III,  P. M. Zimmerman,  D. Zuev,  B. Albrecht,  E. Alguire,  
 B. Austin,  S. A. Baeppler,  G. J. O. Beran,  Y. A. Bernard,  E. Berquist,  
 K. Brandhorst,  K. B. Bravaya,  S. T. Brown,  D. Casanova,  C.-M. Chang,  
 Y. Chen,  S. H. Chien,  K. D. Closser,  M. P. Coons,  D. L. Crittenden,  
 S. Dasgupta,  M. Diedenhofen,  R. A. DiStasio Jr.,  H. Do,  A. D. Dutoi,  
 R. G. Edgar,  P.-T. Fang,  S. Fatehi,  Q. Feng,  L. Fusti-Molnar,  
 A. Ghysels,  A. Golubeva-Zadorozhnaya,  J. Gomes,  A. Gunina,  
 M. W. D. Hanson-Heine,  P. H. P. Harbach,  A. W. Hauser,  J. E. Herr,  
 E. G. Hohenstein,  Z. C. Holden,  K. Hui,  T.-C. Jagau,  H. Ji,  B. Kaduk,  
 K. Khistyaev,  Jaehoon Kim,  Jihan Kim,  R. A. King,  P. Klunzinger,  
 K. Koh,  D. Kosenkov,  T. Kowalczyk,  C. M. Krauter,  A. Kunitsa,  
 K. U. Lao,  A. Laurent,  K. V. Lawler,  J. Lee,  D. Lefrancois,  S. Lehtola,  
 S. V. Levchenko,  C. Y. Lin,  Y.-S. Lin,  F. Liu,  E. Livshits,  
 R. C. Lochan,  A. Luenser,  P. Manohar,  S. F. Manzer,  S.-P. Mao,  Y. Mao,  
 N. Mardirossian,  A. V. Marenich,  L. A. Martinez-Martinez,  S. A. Maurer,  
 N. J. Mayhall,  J.-M. Mewes,  A. F. Morrison,  K. Nanda,  T. S. Nguyen-Beck,  
 C. M. Oana,  R. Olivares-Amaya,  D. P. O'Neill,  J. A. Parkhill,  
 T. M. Perrine,  R. Peverati,  P. A. Pieniazek,  F. Plasser,  A. Prociuk,  
 D. R. Rehn,  E. Rosta,  N. J. Russ,  N. Sergueev,  S. M. Sharada,  
 S. Sharma,  D. W. Small,  A. Sodt,  T. Stauch,  T. Stein,  D. Stuck,  
 Y.-C. Su,  A. J. W. Thom,  T. Tsuchimochi,  L. Vogt,  O. Vydrov,  T. Wang,  
 M. A. Watson,  J. Wenzel,  A. White,  C. F. Williams,  V. Vanovschi,  
 K. Yao,  S. Yeganeh,  S. R. Yost,  Z.-Q. You,  I. Y. Zhang,  X. Zhang,  
 Y. Zhao,  B. R. Brooks,  G. K. L. Chan,  D. M. Chipman,  C. J. Cramer,  
 W. A. Goddard III,  M. S. Gordon,  W. J. Hehre,  A. Klamt,  
 H. F. Schaefer III,  M. W. Schmidt,  C. D. Sherrill,  D. G. Truhlar,  
 A. Warshel,  X. Xu,  A. Aspuru-Guzik,  R. Baer,  A. T. Bell,  N. A. Besley,  
 J.-D. Chai,  A. Dreuw,  B. D. Dunietz,  T. R. Furlani,  S. R. Gwaltney,  
 C.-P. Hsu,  Y. Jung,  J. Kong,  D. S. Lambrecht,  W. Liang,  C. Ochsenfeld,  
 V. A. Rassolov,  L. V. Slipchenko,  J. E. Subotnik,  T. Van Voorhis,  
 J. M. Herbert,  A. I. Krylov,  P. M. W. Gill,  M. Head-Gordon

 Contributors to earlier versions of Q-Chem not listed above: 
 R. D. Adamson,  J. Baker,  E. F. C. Byrd,  A. K. Chakraborty,  C.-L. Cheng,  
 H. Dachsel,  R. J. Doerksen,  G. Hawkins,  A. Heyden,  S. Hirata,  
 G. Kedziora,  F. J. Keil,  C. Kelley,  P. P. Korambath,  W. Kurlancheek,  
 A. M. Lee,  M. S. Lee,  D. Liotard,  I. Lotan,  P. E. Maslen,  N. Nair,  
 D. Neuhauser,  R. Olson,  B. Peters,  J. Ritchie,  N. E. Schultz,  
 N. Shenvi,  A. C. Simmonett,  K. S. Thanthiriwatte,  Q. Wu,  W. Zhang

 Please cite Q-Chem as follows:
 Y. Shao et al., Mol. Phys. 113, 184-215 (2015)
 DOI: 10.1080/00268976.2014.952696

 Q-Chem 4.4.2 for Intel X86 Linux

 Parts of Q-Chem use Armadillo 5.200.1 (Boston Tea Smuggler).
 http://arma.sourceforge.net/

 Q-Chem begins on Sun Oct  7 05:47:09 2018  

Host: 
0

     Scratch files written to /tmpu/cab_g/afmv_a/scratch_qchem/qchem23959//
 Dec716 11556_ 22328  22283 4050   
Processing $rem in /tmpu/appuserlic/qchem4.4/serial-multicore/config/preferences.
 MEM_TOTAL  2000 
FILE_GEOM_ORG=        593

Checking the input file for inconsistencies... 	...done.

--------------------------------------------------------------
User input:
--------------------------------------------------------------
$comment
SP
$end

$rem
MEM_STATIC 5000
MEM_TOTAL 20000
JOBTYPE SP
EXCHANGE B3LYP
BASIS 6-31g(d,p)
$end

$molecule
0 1
C           2.323000     19.230000     10.867000
C           3.662000     19.577000     10.754000
N           1.738000     18.394000     10.026000
C           4.456000     19.046000      9.744000
C           2.446000     17.848000      9.017000
C           3.830000     18.183000      8.770000
C           4.577000     17.637000      7.588000
C           5.826000     17.042000      7.759000
C           4.143000     17.737000      6.240000
N           6.632000     16.673000      6.748000
N           2.903000     18.234000      5.878000
C           4.944000     17.368000      5.163000
C           6.258000     16.895000      5.461000
S           2.830000     18.082000      4.253000
N           4.348000     17.546000      3.953000
C           7.256000     16.456000      4.502000
S           8.670000     15.639000      5.086000
C           7.531000     17.024000      3.248000
C           9.481000     15.646000      3.471000
S           6.598000     17.994000      2.190000
C           8.722000     16.515000      2.675000
C          10.874000     15.324000      3.262000
C           7.866000     17.891000      0.963000
C           8.874000     17.022000      1.347000
N          11.404000     15.434000      2.047000
S          12.014000     14.874000      4.539000
C          12.706000     15.188000      2.053000
C          13.215000     14.790000      3.249000
C           1.327000     19.895000     11.871000
H           4.110000     20.295000     11.435000
H           5.474000     19.414000      9.651000
H           1.881000     17.200000      8.349000
H           6.124000     17.032000      8.806000
H           7.668000     18.528000      0.111000
H           9.771000     16.774000      0.792000
H          13.203000     15.107000      1.095000
H          14.233000     14.466000      3.418000
H           1.580000     20.963000     11.872000
C           1.476000     19.369000     13.242000
H           0.283000     19.803000     11.547000
H           1.043000     20.061000     13.975000
H           2.557000     19.384000     13.428000
C           0.898000     17.897000     13.448000
H          -0.188000     17.963000     13.311000
C           0.874000     17.395000     14.870000
H           1.220000     17.143000     12.720000
H           0.533000     18.145000     15.593000
H           1.909000     17.220000     15.190000
C          -0.037000     16.127000     15.076000
H          -1.112000     16.245000     14.889000
C           0.004000     15.592000     16.567000
H           0.199000     15.379000     14.310000
H          -0.338000     14.551000     16.635000
H          -0.538000     16.215000     17.288000
H           1.045000     15.511000     16.903000
C          20.648000     18.436000     -1.206000
C          20.383000     19.408000     -2.205000
N          19.851000     18.346000     -0.123000
C          19.138000     20.027000     -2.163000
C          18.726000     19.047000     -0.033000
C          18.260000     19.880000     -1.108000
C          16.954000     20.599000     -0.932000
C          15.777000     19.945000     -0.463000
C          16.754000     21.942000     -1.262000
N          14.575000     20.489000     -0.337000
N          17.767000     22.710000     -1.690000
C          15.536000     22.599000     -1.059000
C          14.413000     21.827000     -0.682000
S          17.074000     24.171000     -1.879000
N          15.603000     23.910000     -1.370000
C          13.110000     22.446000     -0.590000
S          12.674000     24.131000     -1.121000
C          11.933000     21.782000     -0.113000
C          10.943000     23.863000     -0.756000
S          11.828000     20.321000      0.752000
C          10.828000     22.704000     -0.052000
C           9.879000     24.889000     -0.770000
C          10.201000     20.795000      1.212000
C           9.822000     22.043000      0.694000
N           8.891000     24.733000      0.063000
S          10.019000     26.393000     -1.668000
C           8.060000     25.840000     -0.069000
C           8.455000     26.806000     -0.900000
C          21.923000     17.602000     -1.268000
H          20.987000     19.580000     -3.091000
H          18.831000     20.529000     -3.076000
H          18.115000     18.873000      0.851000
H          15.721000     18.863000     -0.345000
H           9.623000     20.114000      1.821000
H           8.803000     22.386000      0.830000
H           7.029000     25.848000      0.262000
H           7.982000     27.764000     -1.073000
H          22.734000     18.168000     -0.792000
C          22.380000     17.011000     -2.608000
H          21.812000     16.709000     -0.641000
H          23.421000     16.667000     -2.624000
H          22.290000     17.857000     -3.301000
C          21.449000     15.889000     -3.096000
H          21.894000     14.956000     -2.728000
C          21.143000     15.702000     -4.604000
H          20.426000     15.990000     -2.712000
H          20.490000     16.540000     -4.878000
H          20.641000     14.750000     -4.813000
C          22.392000     15.747000     -5.606000
H          22.735000     16.786000     -5.689000
C          21.865000     15.396000     -7.017000
H          23.267000     15.182000     -5.262000
H          21.095000     16.093000     -7.370000
H          21.401000     14.403000     -6.964000
H          22.647000     15.342000     -7.784000
$end

--------------------------------------------------------------
 ----------------------------------------------------------------
             Standard Nuclear Orientation (Angstroms)
    I     Atom           X                Y                Z
 ----------------------------------------------------------------
    1      C     -11.4650000628    -0.4838976706    -1.5874030061
    2      C     -10.3202733918    -0.3670975627    -2.3633267030
    3      N     -11.4784966444    -0.1798574119    -0.3006321005
    4      C      -9.1272508632     0.0888691577    -1.8144290841
    5      C     -10.3543930648     0.2602896220     0.2994701665
    6      C      -9.0925581233     0.3646253541    -0.3973631244
    7      C      -7.8305871053     0.7682770276     0.3081462491
    8      C      -7.0245227490     1.7781330350    -0.2150345016
    9      C      -7.3199579101     0.1412638121     1.4750105311
   10      N      -5.8057059040     2.0931171355     0.2573938156
   11      N      -8.0098630095    -0.8329711007     2.1754034841
   12      C      -6.0639917356     0.4355021600     1.9981393519
   13      C      -5.2744427986     1.3952283160     1.2948135515
   14      S      -7.0711337461    -1.1906856286     3.4637689938
   15      N      -5.7574210664    -0.2770475364     3.1158545907
   16      C      -3.9456025419     1.8536765214     1.6587020167
   17      S      -3.2898133251     3.2376901409     0.8448299112
   18      C      -2.8966774956     1.0787582947     2.1783393800
   19      C      -1.6547987488     3.0441310800     1.5899857508
   20      S      -2.8690143670    -0.4136035670     3.0166971944
   21      C      -1.6646976224     1.7773154861     2.1899343015
   22      C      -0.4738664173     3.7498089543     1.1481355881
   23      C      -1.1308645121    -0.2401115702     3.2863221355
   24      C      -0.6713133662     0.9933736478     2.8550357326
   25      N       0.7041657039     3.4830650100     1.7051930265
   26      S      -0.4259640708     4.9115290334    -0.1863833600
   27      C       1.6881434256     4.1515638677     1.1215380598
   28      C       1.3011488918     5.0268766143     0.1561553240
   29      C     -12.7981561848    -1.1307075873    -2.0839799750
   30      H     -10.3253032747    -0.6588100173    -3.4096858881
   31      H      -8.2423509747     0.0824913067    -2.4447532152
   32      H     -10.4415177942     0.4530205482     1.3674669229
   33      H      -7.4448887087     2.1912303771    -1.1303246446
   34      H      -0.6926929405    -1.1231427558     3.7325716162
   35      H       0.3465424183     1.3629054546     2.8944545812
   36      H       2.6620601883     4.1183303470     1.5924049970
   37      H       1.9554589334     5.7146242402    -0.3622485460
   38      H     -12.4976978383    -1.9982778745    -2.6853788266
   39      C     -13.5862294046    -0.2140752476    -2.9308824215
   40      H     -13.4169957948    -1.5002045366    -1.2570062501
   41      H     -14.3107505688    -0.7699267570    -3.5389450680
   42      H     -12.8603698552     0.1971622180    -3.6431981250
   43      C     -14.3074633093     0.9627719714    -2.1320355790
   44      H     -15.0597497942     0.4915400675    -1.4881982258
   45      C     -15.2593342443     1.8132788470    -2.9353062542
   46      H     -13.6783730591     1.5373903121    -1.4419318044
   47      H     -15.9004718289     1.2342733788    -3.6099952681
   48      H     -14.6711204969     2.4172066300    -3.6378201831
   49      C     -16.2193834584     2.6934780126    -2.0500176370
   50      H     -16.9269481340     2.1651219232    -1.3983197986
   51      C     -17.1668716542     3.6156875354    -2.9233919639
   52      H     -15.6329100259     3.2222598203    -1.2894949794
   53      H     -17.5767498815     4.4484707312    -2.3370976798
   54      H     -17.9753847515     3.0806450554    -3.4350267126
   55      H     -16.5747477336     4.1422606385    -3.6818430366
   56      C      10.2037826193     3.0343179223    -2.1159918045
   57      C      10.7140557616     1.7864482159    -1.6738916848
   58      N       8.9022931765     3.1534855963    -2.4448113534
   59      C       9.7810171000     0.8179252488    -1.3184312535
   60      C       8.0406835530     2.1666880136    -2.2234849258
   61      C       8.4284159945     0.9521718791    -1.5591927363
   62      C       7.3744441104    -0.0880419673    -1.3128770417
   63      C       6.1042351227     0.2278332439    -0.7473702085
   64      C       7.5555773638    -1.4523503404    -1.5545429422
   65      N       5.1450484979    -0.6346688307    -0.4429573470
   66      N       8.6840040062    -1.9145969560    -2.1132542980
   67      C       6.5471374692    -2.3991540562    -1.3471937131
   68      C       5.3645481880    -1.9857903697    -0.6915603897
   69      S       8.4059092596    -3.5129377428    -2.2491257119
   70      N       6.9208106841    -3.6377403803    -1.7295590436
   71      C       4.3553512728    -2.9598034747    -0.3419119123
   72      S       4.5115163535    -4.7687810281    -0.4623057613
   73      C       3.0791901320    -2.6326825696     0.2221436312
   74      C       2.9132197186    -5.0180818793     0.3023555706
   75      S       2.3168703478    -1.1133185636     0.2867390174
   76      C       2.2727718660    -3.8185307307     0.3573609344
   77      C       2.1954663258    -6.3044490899     0.4250644394
   78      C       0.8129113636    -1.9628124994     0.6027650086
   79      C       0.9625389669    -3.3578412080     0.6339977248
   80      N       0.8945308616    -6.2639200008     0.4079381147
   81      S       3.0097081283    -7.8597533439     0.3472250889
   82      C       0.4391287022    -7.5767469642     0.4582196969
   83      C       1.3572429656    -8.5442912046     0.4324060927
   84      C      11.1515366513     4.1995607620    -2.3786634994
   85      H      11.7511055328     1.5845400958    -1.4225813525
   86      H      10.1592055769     0.0005728479    -0.7111993961
   87      H       6.9992419733     2.3674047752    -2.4687709172
   88      H       5.8815072610     1.2098429404    -0.3304370537
   89      H      -0.0815046775    -1.3768491786     0.7621166076
   90      H       0.1196800390    -3.9749761352     0.9225099588
   91      H      -0.5670654886    -7.8423177109     0.7576047817
   92      H       1.1909550219    -9.6128760345     0.3888540428
   93      H      11.5411781944     4.1092023960    -3.4007534336
   94      C      12.2819839094     4.4983495868    -1.3854141677
   95      H      10.5880922546     5.1405043061    -2.3860566505
   96      H      13.0672323198     5.1585285834    -1.7724821543
   97      H      12.7256700178     3.5114034795    -1.2033564335
   98      C      11.7521621597     5.0410741754    -0.0480556015
   99      H      11.7778980062     6.1339253021    -0.1426710398
  100      C      12.4336618312     4.6684113626     1.2933427829
  101      H      10.7283301511     4.7103972370     0.1678304342
  102      H      12.1785542383     3.6161952142     1.4707978283
  103      H      12.0803770842     5.2868552767     2.1268330424
  104      C      14.0316335823     4.7679579275     1.3443992627
  105      H      14.4514193407     3.9329808365     0.7693756331
  106      C      14.4650442498     4.4940128279     2.8034949674
  107      H      14.4424396390     5.6725145786     0.8794243723
  108      H      14.1543411935     3.5049032627     3.1618856467
  109      H      13.9743825237     5.2376911675     3.4440787619
  110      H      15.5443210916     4.5895312297     2.9731025544
 ----------------------------------------------------------------
 Molecular Point Group                 C1    NOp =  1
 Largest Abelian Subgroup              C1    NOp =  1
 Nuclear Repulsion Energy = 10610.1108576514 hartrees
 There are      270 alpha and      270 beta electrons
 Requested basis set is 6-31G(d,p)
 There are 406 shells and 1262 basis functions

 Total QAlloc Memory Limit  20000 MB
 Mega-Array Size      4888 MB
 MEM_STATIC part      5000 MB
 A cutoff of  1.0D-08 yielded  12612 shell pairs
 There are    131854 function pairs
 
 -------------------------------------------------------
 OpenMP Integral Computing Module                       
 Release: version 1.0, May 2013, Q-Chem Inc. Pittsburgh 
 -------------------------------------------------------
 Integral Job Info:
 Integral job number is                      11
 Integral operator is                         1
 short-range coefficients                     0
 long-range coefficients              100000000
 Omega coefficients                           0
 if combine SR and LR in K                    0
 Integral screening is                        0
 Integral computing path is                   2
 max size of driver memory is            800000
 size of driver memory is                593474
 size of scratch memory is             15166112
 max col of scratch BK array               1296
 max len of scratch array in speh3          155
 max len of scratch index in speh4           18
 max int batch size is                      520
 min int batch size is                       52
 fixed nKL is                                52
 max L of basis functions is                  2
 order of int derivative is                   0
 number of shells is                        406
 number of basis is                        1262
 number of cartesian basis is              1262
 number of contracted shell pairs         12612
 number of primitive shell pairs          41358
 maxK2 (contraction) of shell pair           36
 max number of K2 of shell pair               1
 max number of CS2 of shell pair           1272
 max number of PS2 of shell pair           7542
 mem total for path MDJ                  278920
 -------------------------------------------------------
 Smallest overlap matrix eigenvalue = 4.21E-04

 Scale SEOQF with 1.000000e-03/1.000000e-02/1.000000e-01

 Standard Electronic Orientation quadrupole field applied
 Nucleus-field energy     =    -0.0000001247 hartrees
 Guess from superposition of atomic densities
 Warning:  Energy on first SCF cycle will be non-variational
 A restricted hybrid HF-DFT SCF calculation will be
 performed using Pulay DIIS extrapolation
 Exchange:     0.2000 Hartree-Fock + 0.0800 Slater + 0.7200 B88
 Correlation:  0.1900 VWN1RPA + 0.8100 LYP
 Using SG-1 standard quadrature grid
 SCF converges when DIIS error is below 1.0E-05
 using 16 threads for integral computing 
 -------------------------------------------------------
 OpenMP BLAS3 based DFT computing Module                
 Release: version 1.0, May 2013, Q-Chem Inc. Pittsburgh 
 -------------------------------------------------------
 ---------------------------------------
  Cycle       Energy         DIIS Error
 ---------------------------------------
    1   -5680.0773629292      2.15E-02
    2   -5662.5008436396      2.16E-03
    3   -5660.7309965869      3.56E-03
    4   -5663.3387273390      9.21E-04
    5   -5663.4936382593      3.51E-04
    6   -5663.5022402897      2.78E-04
    7   -5663.5168985321      7.94E-05
    8   -5663.5180511525      2.49E-05
    9   -5663.5181647233      9.29E-06 Convergence criterion met
 ---------------------------------------
 SCF time:  CPU 883.56 s  wall 78.61 s
 SCF   energy in the final basis set = -5663.5181647233
 Total energy in the final basis set = -5663.5181647233
 
 --------------------------------------------------------------
 
                    Orbital Energies (a.u.)
 --------------------------------------------------------------
 
 Alpha MOs
 -- Occupied --
-88.992 -88.988 -88.928 -88.927 -88.926 -88.921 -88.910 -88.909
-14.388 -14.386 -14.384 -14.377 -14.352 -14.349 -14.346 -14.338
-14.328 -14.326 -10.274 -10.271 -10.267 -10.261 -10.260 -10.258
-10.252 -10.248 -10.245 -10.245 -10.241 -10.241 -10.237 -10.237
-10.235 -10.232 -10.231 -10.230 -10.229 -10.228 -10.228 -10.228
-10.227 -10.226 -10.224 -10.223 -10.223 -10.220 -10.220 -10.218
-10.214 -10.212 -10.208 -10.205 -10.201 -10.199 -10.199 -10.193
-10.186 -10.185 -10.182 -10.182 -10.182 -10.182 -10.181 -10.178
-10.175 -10.174 -10.173 -10.173  -8.048  -8.045  -7.988  -7.987
 -7.983  -7.980  -7.970  -7.970  -6.013  -6.010  -6.007  -6.005
 -6.004  -6.003  -5.952  -5.951  -5.949  -5.948  -5.948  -5.945
 -5.945  -5.944  -5.944  -5.941  -5.940  -5.937  -5.935  -5.934
 -5.931  -5.930  -5.927  -5.926  -1.051  -1.033  -0.975  -0.975
 -0.959  -0.952  -0.941  -0.940  -0.914  -0.912  -0.904  -0.897
 -0.848  -0.841  -0.830  -0.829  -0.812  -0.810  -0.807  -0.805
 -0.804  -0.802  -0.799  -0.794  -0.781  -0.780  -0.768  -0.765
 -0.751  -0.748  -0.740  -0.739  -0.723  -0.718  -0.711  -0.710
 -0.698  -0.695  -0.676  -0.674  -0.654  -0.650  -0.646  -0.643
 -0.633  -0.631  -0.629  -0.625  -0.612  -0.610  -0.598  -0.597
 -0.592  -0.587  -0.587  -0.581  -0.580  -0.579  -0.571  -0.556
 -0.552  -0.549  -0.544  -0.540  -0.520  -0.519  -0.512  -0.509
 -0.507  -0.506  -0.503  -0.498  -0.489  -0.486  -0.477  -0.476
 -0.476  -0.475  -0.468  -0.468  -0.465  -0.458  -0.448  -0.447
 -0.445  -0.442  -0.439  -0.438  -0.436  -0.433  -0.433  -0.432
 -0.429  -0.428  -0.421  -0.421  -0.417  -0.414  -0.414  -0.413
 -0.411  -0.406  -0.404  -0.403  -0.402  -0.401  -0.400  -0.395
 -0.394  -0.391  -0.390  -0.389  -0.386  -0.385  -0.383  -0.380
 -0.377  -0.376  -0.373  -0.372  -0.366  -0.366  -0.359  -0.356
 -0.355  -0.351  -0.350  -0.349  -0.346  -0.344  -0.340  -0.339
 -0.339  -0.336  -0.334  -0.333  -0.331  -0.330  -0.322  -0.320
 -0.316  -0.310  -0.308  -0.305  -0.303  -0.303  -0.300  -0.298
 -0.297  -0.296  -0.292  -0.291  -0.287  -0.287  -0.284  -0.281
 -0.277  -0.273  -0.266  -0.266  -0.257  -0.252  -0.250  -0.250
 -0.245  -0.243  -0.237  -0.229  -0.194  -0.193
 -- Virtual --
 -0.115  -0.113  -0.079  -0.070  -0.036  -0.033  -0.026  -0.021
 -0.020  -0.018  -0.015  -0.011  -0.008  -0.006  -0.005  -0.002
 -0.001   0.014   0.027   0.028   0.034   0.037   0.041   0.042
  0.045   0.053   0.060   0.063   0.070   0.078   0.081   0.093
  0.094   0.096   0.099   0.101   0.107   0.109   0.111   0.111
  0.114   0.116   0.119   0.119   0.121   0.124   0.125   0.127
  0.130   0.130   0.133   0.135   0.136   0.139   0.142   0.143
  0.147   0.147   0.150   0.154   0.157   0.159   0.161   0.161
  0.166   0.168   0.169   0.176   0.176   0.177   0.178   0.180
  0.181   0.183   0.188   0.190   0.193   0.193   0.196   0.199
  0.200   0.202   0.207   0.209   0.210   0.212   0.214   0.216
  0.220   0.221   0.223   0.226   0.229   0.231   0.236   0.237
  0.239   0.242   0.244   0.248   0.249   0.251   0.253   0.260
  0.263   0.263   0.267   0.271   0.273   0.276   0.278   0.280
  0.284   0.285   0.287   0.290   0.292   0.295   0.297   0.301
  0.304   0.308   0.311   0.314   0.318   0.320   0.323   0.326
  0.328   0.329   0.332   0.334   0.336   0.343   0.343   0.346
  0.349   0.353   0.354   0.361   0.363   0.365   0.368   0.370
  0.375   0.379   0.383   0.387   0.387   0.388   0.390   0.401
  0.404   0.407   0.414   0.418   0.423   0.423   0.430   0.432
  0.435   0.439   0.444   0.447   0.454   0.456   0.459   0.466
  0.469   0.475   0.478   0.486   0.488   0.492   0.497   0.498
  0.499   0.502   0.506   0.510   0.511   0.512   0.513   0.514
  0.516   0.517   0.522   0.524   0.526   0.528   0.531   0.532
  0.535   0.535   0.537   0.539   0.540   0.542   0.544   0.550
  0.551   0.552   0.555   0.557   0.559   0.561   0.562   0.563
  0.564   0.569   0.570   0.572   0.575   0.576   0.578   0.581
  0.583   0.584   0.585   0.589   0.590   0.591   0.595   0.595
  0.598   0.601   0.604   0.605   0.606   0.611   0.613   0.613
  0.616   0.617   0.618   0.621   0.623   0.625   0.625   0.629
  0.630   0.634   0.635   0.637   0.638   0.639   0.641   0.641
  0.643   0.648   0.650   0.651   0.655   0.656   0.660   0.661
  0.672   0.673   0.675   0.675   0.676   0.682   0.690   0.693
  0.695   0.695   0.698   0.703   0.706   0.712   0.712   0.713
  0.722   0.726   0.730   0.731   0.737   0.739   0.742   0.743
  0.748   0.753   0.755   0.756   0.757   0.760   0.762   0.767
  0.771   0.773   0.774   0.779   0.782   0.784   0.785   0.786
  0.788   0.792   0.797   0.798   0.799   0.806   0.807   0.808
  0.809   0.812   0.816   0.818   0.818   0.822   0.823   0.824
  0.826   0.828   0.829   0.832   0.835   0.836   0.836   0.838
  0.839   0.840   0.841   0.842   0.843   0.844   0.844   0.849
  0.850   0.853   0.857   0.859   0.862   0.865   0.867   0.868
  0.872   0.873   0.875   0.877   0.883   0.883   0.886   0.889
  0.890   0.891   0.895   0.898   0.904   0.904   0.905   0.906
  0.908   0.911   0.912   0.914   0.920   0.922   0.923   0.923
  0.925   0.930   0.931   0.931   0.933   0.935   0.940   0.944
  0.945   0.949   0.951   0.952   0.953   0.954   0.956   0.960
  0.961   0.966   0.967   0.969   0.972   0.973   0.978   0.979
  0.981   0.983   0.985   0.987   0.989   0.996   1.000   1.000
  1.002   1.004   1.005   1.011   1.014   1.015   1.016   1.017
  1.023   1.031   1.032   1.034   1.037   1.040   1.042   1.047
  1.049   1.051   1.052   1.064   1.070   1.070   1.072   1.074
  1.081   1.083   1.086   1.092   1.098   1.102   1.104   1.104
  1.107   1.113   1.115   1.122   1.124   1.128   1.130   1.140
  1.149   1.153   1.156   1.159   1.163   1.168   1.170   1.173
  1.176   1.180   1.182   1.195   1.196   1.203   1.207   1.215
  1.216   1.225   1.227   1.228   1.242   1.252   1.253   1.258
  1.266   1.270   1.270   1.280   1.283   1.283   1.292   1.296
  1.297   1.302   1.308   1.312   1.313   1.314   1.319   1.324
  1.326   1.333   1.338   1.343   1.345   1.350   1.356   1.358
  1.363   1.370   1.374   1.376   1.376   1.383   1.386   1.394
  1.395   1.405   1.415   1.416   1.424   1.428   1.429   1.432
  1.433   1.439   1.451   1.452   1.463   1.464   1.466   1.471
  1.473   1.483   1.491   1.494   1.498   1.499   1.503   1.505
  1.521   1.523   1.533   1.534   1.538   1.548   1.554   1.563
  1.566   1.571   1.582   1.587   1.597   1.600   1.602   1.605
  1.611   1.612   1.626   1.633   1.637   1.645   1.646   1.652
  1.653   1.654   1.657   1.671   1.671   1.674   1.674   1.681
  1.687   1.689   1.692   1.695   1.695   1.701   1.705   1.710
  1.711   1.713   1.724   1.730   1.735   1.736   1.739   1.743
  1.756   1.757   1.760   1.762   1.767   1.773   1.776   1.777
  1.783   1.783   1.787   1.789   1.793   1.798   1.803   1.806
  1.806   1.812   1.813   1.823   1.827   1.828   1.830   1.838
  1.849   1.852   1.855   1.856   1.861   1.865   1.867   1.869
  1.871   1.876   1.880   1.883   1.886   1.889   1.890   1.893
  1.895   1.903   1.903   1.911   1.912   1.918   1.920   1.922
  1.926   1.932   1.934   1.935   1.937   1.942   1.950   1.956
  1.962   1.964   1.967   1.969   1.976   1.976   1.980   1.987
  1.989   1.992   2.005   2.008   2.009   2.015   2.017   2.026
  2.031   2.034   2.040   2.047   2.048   2.055   2.058   2.066
  2.067   2.078   2.080   2.084   2.087   2.089   2.096   2.098
  2.103   2.107   2.111   2.111   2.115   2.119   2.121   2.121
  2.132   2.137   2.141   2.144   2.146   2.155   2.156   2.157
  2.163   2.168   2.170   2.172   2.175   2.177   2.181   2.184
  2.189   2.190   2.194   2.195   2.204   2.206   2.214   2.215
  2.215   2.223   2.224   2.233   2.235   2.237   2.239   2.245
  2.249   2.252   2.259   2.261   2.264   2.265   2.268   2.273
  2.277   2.286   2.289   2.289   2.293   2.294   2.298   2.304
  2.307   2.315   2.316   2.321   2.326   2.327   2.329   2.332
  2.333   2.335   2.337   2.340   2.348   2.353   2.354   2.358
  2.364   2.372   2.373   2.379   2.382   2.385   2.394   2.397
  2.400   2.401   2.405   2.406   2.410   2.416   2.418   2.419
  2.422   2.430   2.436   2.439   2.443   2.446   2.447   2.448
  2.450   2.450   2.456   2.460   2.465   2.468   2.469   2.476
  2.479   2.482   2.482   2.485   2.488   2.497   2.500   2.502
  2.506   2.510   2.522   2.523   2.526   2.534   2.536   2.539
  2.543   2.544   2.546   2.550   2.552   2.554   2.562   2.563
  2.566   2.579   2.582   2.587   2.590   2.591   2.593   2.598
  2.601   2.605   2.611   2.612   2.618   2.628   2.632   2.639
  2.647   2.649   2.653   2.654   2.661   2.662   2.665   2.665
  2.668   2.674   2.683   2.684   2.690   2.693   2.694   2.700
  2.704   2.704   2.708   2.709   2.721   2.721   2.725   2.726
  2.734   2.748   2.750   2.762   2.773   2.776   2.780   2.781
  2.786   2.793   2.798   2.803   2.809   2.810   2.818   2.821
  2.826   2.826   2.830   2.838   2.849   2.856   2.859   2.860
  2.868   2.874   2.877   2.878   2.883   2.888   2.898   2.903
  2.911   2.912   2.920   2.931   2.937   2.943   2.949   2.952
  2.960   2.964   2.968   2.969   2.976   2.982   3.005   3.006
  3.025   3.026   3.050   3.059   3.065   3.079   3.098   3.138
  3.174   3.179   3.180   3.184   3.191   3.194   3.226   3.229
  3.240   3.251   3.255   3.260   3.268   3.269   3.280   3.285
  3.290   3.308   3.309   3.316   3.317   3.324   3.325   3.332
  3.339   3.344   3.353   3.357   3.382   3.383   3.410   3.420
  3.427   3.430   3.453   3.460   3.476   3.480   3.525   3.542
  3.554   3.556   3.557   3.560   3.581   3.584   3.594   3.603
  3.619   3.651   3.722   3.731   3.848   3.860   3.900   3.905
  3.944   3.945   3.953   3.962   3.963   3.972   3.982   4.001
  4.050   4.065   4.073   4.074   4.090   4.098   4.108   4.110
  4.119   4.119   4.142   4.151   4.164   4.169   4.184   4.187
  4.206   4.218   4.241   4.245   4.254   4.255   4.258   4.264
  4.278   4.284   4.308   4.325   4.369   4.381   4.386   4.393
  4.413   4.437   4.445   4.464   4.464   4.479   4.483   4.497
  4.505   4.506   4.533   4.534   4.591   4.595   4.647   4.665
  4.690   4.695   4.708   4.714   4.730   4.750   4.777   4.794
 --------------------------------------------------------------
 
          Ground-State Mulliken Net Atomic Charges

     Atom                 Charge (a.u.)
  ----------------------------------------
      1 C                     0.278400
      2 C                    -0.113715
      3 N                    -0.471876
      4 C                    -0.073225
      5 C                     0.091198
      6 C                    -0.002761
      7 C                     0.021612
      8 C                     0.079455
      9 C                     0.210785
     10 N                    -0.532853
     11 N                    -0.545324
     12 C                     0.253750
     13 C                     0.292787
     14 S                     0.616570
     15 N                    -0.572096
     16 C                    -0.216253
     17 S                     0.321969
     18 C                    -0.138255
     19 C                    -0.210269
     20 S                     0.288754
     21 C                     0.128192
     22 C                     0.045600
     23 C                    -0.326951
     24 C                    -0.056746
     25 N                    -0.420098
     26 S                     0.271239
     27 C                     0.137912
     28 C                    -0.311983
     29 C                    -0.210630
     30 H                     0.090470
     31 H                     0.107747
     32 H                     0.114510
     33 H                     0.110597
     34 H                     0.146527
     35 H                     0.130907
     36 H                     0.114025
     37 H                     0.130593
     38 H                     0.094398
     39 C                    -0.181606
     40 H                     0.116853
     41 H                     0.091629
     42 H                     0.087676
     43 C                    -0.176649
     44 H                     0.095254
     45 C                    -0.169644
     46 H                     0.108060
     47 H                     0.089355
     48 H                     0.087452
     49 C                    -0.186615
     50 H                     0.095880
     51 C                    -0.328409
     52 H                     0.095015
     53 H                     0.100141
     54 H                     0.106547
     55 H                     0.102234
     56 C                     0.271044
     57 C                    -0.118255
     58 N                    -0.474023
     59 C                    -0.059621
     60 C                     0.076100
     61 C                     0.037026
     62 C                     0.024253
     63 C                     0.054647
     64 C                     0.198833
     65 N                    -0.516049
     66 N                    -0.548466
     67 C                     0.217825
     68 C                     0.303625
     69 S                     0.602640
     70 N                    -0.547522
     71 C                    -0.221123
     72 S                     0.323631
     73 C                    -0.133280
     74 C                    -0.249792
     75 S                     0.313349
     76 C                     0.160897
     77 C                     0.083585
     78 C                    -0.320571
     79 C                    -0.062824
     80 N                    -0.436271
     81 S                     0.251086
     82 C                     0.125043
     83 C                    -0.295049
     84 C                    -0.234080
     85 H                     0.095548
     86 H                     0.099567
     87 H                     0.104552
     88 H                     0.112456
     89 H                     0.142673
     90 H                     0.119069
     91 H                     0.114817
     92 H                     0.132159
     93 H                     0.115851
     94 C                    -0.182423
     95 H                     0.114267
     96 H                     0.101267
     97 H                     0.089501
     98 C                    -0.183431
     99 H                     0.092161
    100 C                    -0.178636
    101 H                     0.101273
    102 H                     0.091459
    103 H                     0.094808
    104 C                    -0.182254
    105 H                     0.094336
    106 C                    -0.317187
    107 H                     0.092415
    108 H                     0.104364
    109 H                     0.099933
    110 H                     0.096660
  ----------------------------------------
  Sum of atomic charges =     0.000000

 -----------------------------------------------------------------
                    Cartesian Multipole Moments
 -----------------------------------------------------------------
    Charge (ESU x 10^10)
                 0.0000
    Dipole Moment (Debye)
         X       1.9591      Y      -2.9828      Z      -0.3165
       Tot       3.5826
    Quadrupole Moments (Debye-Ang)
        XX    -422.4455     XY       9.0216     YY    -414.0898
        XZ      14.3551     YZ      -4.7181     ZZ    -445.1488
    Octopole Moments (Debye-Ang^2)
       XXX     629.4965    XXY     -55.4508    XYY      85.1516
       YYY    -319.0006    XXZ    -130.7481    XYZ      16.9376
       YYZ      15.2374    XZZ    -123.8389    YZZ     -46.9648
       ZZZ       5.5209
    Hexadecapole Moments (Debye-Ang^3)
      XXXX -169996.5418   XXXY     998.0048   XXYY  -33779.5096
      XYYY     141.3422   YYYY  -27919.1765   XXXZ    1043.2272
      XXYZ     444.4802   XYYZ    -182.4826   YYYZ    -272.8510
      XXZZ  -29962.3056   XYZZ      72.8780   YYZZ   -6919.6049
      XZZZ     -89.6694   YZZZ     -47.3083   ZZZZ   -8787.6889
 -----------------------------------------------------------------
Archival summary:
1\1\mn426\SP\ProcedureUnspecified\6-31G**\8105042\afmv_a\SunOct705:48:322018SunOct705:48:322018\0\\#,ProcedureUnspecified,6-31G**,\\0,1\S\C,1,1.70111\C,2,1.43309,1,128.161\C,2,1.44043,1,118.741,3,159.248,0\C,4,1.36093,2,117.283,1,179.948,0\C,4,1.41615,2,105.575,1,4.75544,0\H,6,1.08375,4,125.896,2,171.506,0\C,6,1.40338,4,114.688,2,-4.17924,0\H,8,1.08108,6,128.589,4,-178.891,0\C,3,1.44549,2,124.271,1,-14.9667,0\N,10,1.39123,3,120.068,2,-2.20081,0\C,11,1.32537,10,118.475,3,-178.445,0\H,12,1.08986,11,110.524,10,169.152,0\C,10,1.41395,3,119.941,2,174.65,0\N,14,1.34905,10,129.161,3,0.00238109,0\C,14,1.39871,10,118.285,3,173.963,0\N,16,1.34133,14,115.786,10,-176.43,0\C,16,1.39734,14,122.807,10,9.11806,0\C,5,1.47816,4,122.357,2,179.85,0\N,19,1.30168,5,117.2,4,-9.08995,0\C,20,1.39048,19,107.305,5,-176.661,0\H,21,1.08286,20,123.085,19,-160.708,0\C,21,1.33407,20,117.301,19,3.75536,0\H,23,1.08232,21,127.669,20,175.037,0\C,18,1.50119,16,123.86,14,178.426,0\C,25,1.38041,18,126.295,16,38.7987,0\H,26,1.0862,25,120.787,18,14.0502,0\C,26,1.39102,25,123.022,18,-174.556,0\H,28,1.086,26,116.868,25,-179.047,0\C,28,1.41881,26,116.793,25,-9.60982,0\N,30,1.34766,28,120.075,26,13.9299,0\C,31,1.32858,30,121.331,28,-7.70999,0\H,32,1.0886,31,116.484,30,-176.733,0\C,30,1.5248,28,120.15,26,-173.302,0\H,34,1.09677,30,109.723,28,161.501,0\H,34,1.09757,30,108.552,28,-85.1218,0\C,34,1.53419,30,119.689,28,43.5768,0\H,37,1.09648,34,114.608,30,-164.153,0\H,37,1.0973,34,103.308,30,-46.8104,0\C,37,1.53746,34,112.208,30,69.5135,0\H,40,1.09724,37,105.575,34,93.4678,0\H,40,1.09735,37,112.723,34,-26.416,0\C,40,1.55005,37,121.09,34,-144.099,0\H,43,1.09635,40,112.371,37,-168.113,0\H,43,1.09715,40,105.564,37,71.9014,0\S,15,1.5783,14,106.34,10,173.216,0\C,43,1.60188,40,116.823,37,-46.391,0\H,47,1.0969,43,114.289,40,-43.9061,0\H,47,1.0973,43,108.52,40,73.1219,0\C,47,1.54656,43,107.375,40,-174.313,0\H,50,1.09669,47,113.971,43,176.847,0\H,50,1.09696,47,112.866,43,-59.6594,0\H,50,1.09734,47,107.782,43,58.3752,0\S,19,1.75728,5,122.79,4,-179.669,0\S,5,1.78925,4,108.351,2,18.6546,0\C,9,2.96056,8,128.832,6,-90.884,0\H,56,1.08207,9,83.9589,8,32.8816,0\C,56,1.38516,9,87.6417,8,-103.984,0\H,58,1.08358,56,127.157,9,79.4253,0\C,58,1.42959,56,113.743,9,-94.8136,0\C,60,1.40173,58,133.615,56,179.187,0\C,60,1.41629,58,109.742,56,-1.49376,0\C,62,1.40384,60,112.378,58,-173.957,0\C,61,1.44493,60,125.312,58,-19.6,0\N,64,1.33012,61,119.857,60,24.8857,0\C,65,1.32505,64,111.841,61,-175.744,0\H,66,1.08228,65,117.459,64,-171.129,0\C,66,1.35938,65,115.231,64,-4.32892,0\H,68,1.0816,66,125.282,65,-174.414,0\C,63,1.45204,62,127.033,60,-168.972,0\N,70,1.3585,63,112.772,62,148.162,0\C,71,1.34459,70,120.162,63,-178.989,0\H,72,1.08863,71,123.817,70,170.445,0\C,72,1.39401,71,124.193,70,-1.20501,0\C,74,1.41967,72,114.863,71,-4.98672,0\N,75,1.38407,74,123.197,72,-176.549,0\C,75,1.39201,74,122.688,72,4.86662,0\N,77,1.36051,75,113.662,74,179.679,0\C,74,1.50108,72,120.3,71,171.693,0\C,79,1.44406,74,122.192,72,-48.4257,0\H,80,1.08646,79,123.427,74,-4.6461,0\C,80,1.39014,79,118.081,74,-175.651,0\H,82,1.08627,80,118.19,79,174.673,0\C,82,1.38784,80,120.978,79,-3.48623,0\N,84,1.32227,82,122.218,80,0.439862,0\C,85,1.34813,84,119.983,82,0.00684029,0\H,86,1.08874,85,115.323,84,177.829,0\C,84,1.56277,82,124.112,80,173.075,0\H,88,1.09698,84,112.402,82,-156.393,0\H,88,1.09756,84,105.53,82,-39.4731,0\C,88,1.47598,84,112.381,82,78.9903,0\H,91,1.09699,88,104.602,84,-47.085,0\H,91,1.09711,88,110.853,84,-160.32,0\C,91,1.59477,88,114.352,84,73.7453,0\H,94,1.09644,91,116.266,88,-50.0588,0\H,94,1.0966,91,106.693,88,65.9299,0\C,94,1.5082,91,115.771,88,172.566,0\H,97,1.09613,94,113.522,91,-42.67,0\H,97,1.09738,94,108.241,91,69.9619,0\C,97,1.57486,94,113.611,91,-164.614,0\H,100,1.09634,97,109.476,94,-48.8333,0\H,100,1.09751,97,117.242,94,63.4456,0\C,100,1.58461,97,112.33,94,-177.779,0\H,103,1.09624,100,114.468,97,-73.2311,0\H,103,1.09688,100,109.738,97,48.4237,0\H,103,1.09785,100,111.738,97,160.721,0\S,76,1.63373,75,105.472,74,177.178,0\S,62,1.71194,60,114.324,58,-3.33048,0\S,63,1.73434,62,109.37,60,-14.4001,0\S,68,1.76453,66,111.988,65,6.18021,0\\\@

 Total job time:  82.51s(wall), 894.43s(cpu) 
 Sun Oct  7 05:48:32 2018

        *************************************************************
        *                                                           *
        *  Thank you very much for using Q-Chem.  Have a nice day.  *
        *                                                           *
        *************************************************************


