
Running Job 1 of 1 ./10/15.qcin
qchem ./10/15.qcin_17033.0 /tmpu/cab_g/afmv_a/scratch_qchem/qchem17033/ 1
/tmpu/appuserlic/qchem4.4/serial-multicore/exe/qcprog.exe_s ./10/15.qcin_17033.0 /tmpu/cab_g/afmv_a/scratch_qchem/qchem17033/
Check license passed

                  Welcome to Q-Chem
     A Quantum Leap Into The Future Of Chemistry


 Q-Chem 4.4, Q-Chem, Inc., Pleasanton, CA (2016)

 Y. Shao,  Z. Gan,  E. Epifanovsky,  A. T. B. Gilbert,  M. Wormit,  
 J. Kussmann,  A. W. Lange,  A. Behn,  J. Deng,  X. Feng,  D. Ghosh,  
 M. Goldey,  P. R. Horn,  L. D. Jacobson,  I. Kaliman,  F. Rob,  
 R. Z. Khaliullin,  T. Kus,  A. Landau,  J. Liu,  E. I. Proynov,  Y. M. Rhee,  
 R. M. Richard,  M. A. Rohrdanz,  R. P. Steele,  E. J. Sundstrom,  
 H. L. Woodcock III,  P. M. Zimmerman,  D. Zuev,  B. Albrecht,  E. Alguire,  
 B. Austin,  S. A. Baeppler,  G. J. O. Beran,  Y. A. Bernard,  E. Berquist,  
 K. Brandhorst,  K. B. Bravaya,  S. T. Brown,  D. Casanova,  C.-M. Chang,  
 Y. Chen,  S. H. Chien,  K. D. Closser,  M. P. Coons,  D. L. Crittenden,  
 S. Dasgupta,  M. Diedenhofen,  R. A. DiStasio Jr.,  H. Do,  A. D. Dutoi,  
 R. G. Edgar,  P.-T. Fang,  S. Fatehi,  Q. Feng,  L. Fusti-Molnar,  
 A. Ghysels,  A. Golubeva-Zadorozhnaya,  J. Gomes,  A. Gunina,  
 M. W. D. Hanson-Heine,  P. H. P. Harbach,  A. W. Hauser,  J. E. Herr,  
 E. G. Hohenstein,  Z. C. Holden,  K. Hui,  T.-C. Jagau,  H. Ji,  B. Kaduk,  
 K. Khistyaev,  Jaehoon Kim,  Jihan Kim,  R. A. King,  P. Klunzinger,  
 K. Koh,  D. Kosenkov,  T. Kowalczyk,  C. M. Krauter,  A. Kunitsa,  
 K. U. Lao,  A. Laurent,  K. V. Lawler,  J. Lee,  D. Lefrancois,  S. Lehtola,  
 S. V. Levchenko,  C. Y. Lin,  Y.-S. Lin,  F. Liu,  E. Livshits,  
 R. C. Lochan,  A. Luenser,  P. Manohar,  S. F. Manzer,  S.-P. Mao,  Y. Mao,  
 N. Mardirossian,  A. V. Marenich,  L. A. Martinez-Martinez,  S. A. Maurer,  
 N. J. Mayhall,  J.-M. Mewes,  A. F. Morrison,  K. Nanda,  T. S. Nguyen-Beck,  
 C. M. Oana,  R. Olivares-Amaya,  D. P. O'Neill,  J. A. Parkhill,  
 T. M. Perrine,  R. Peverati,  P. A. Pieniazek,  F. Plasser,  A. Prociuk,  
 D. R. Rehn,  E. Rosta,  N. J. Russ,  N. Sergueev,  S. M. Sharada,  
 S. Sharma,  D. W. Small,  A. Sodt,  T. Stauch,  T. Stein,  D. Stuck,  
 Y.-C. Su,  A. J. W. Thom,  T. Tsuchimochi,  L. Vogt,  O. Vydrov,  T. Wang,  
 M. A. Watson,  J. Wenzel,  A. White,  C. F. Williams,  V. Vanovschi,  
 K. Yao,  S. Yeganeh,  S. R. Yost,  Z.-Q. You,  I. Y. Zhang,  X. Zhang,  
 Y. Zhao,  B. R. Brooks,  G. K. L. Chan,  D. M. Chipman,  C. J. Cramer,  
 W. A. Goddard III,  M. S. Gordon,  W. J. Hehre,  A. Klamt,  
 H. F. Schaefer III,  M. W. Schmidt,  C. D. Sherrill,  D. G. Truhlar,  
 A. Warshel,  X. Xu,  A. Aspuru-Guzik,  R. Baer,  A. T. Bell,  N. A. Besley,  
 J.-D. Chai,  A. Dreuw,  B. D. Dunietz,  T. R. Furlani,  S. R. Gwaltney,  
 C.-P. Hsu,  Y. Jung,  J. Kong,  D. S. Lambrecht,  W. Liang,  C. Ochsenfeld,  
 V. A. Rassolov,  L. V. Slipchenko,  J. E. Subotnik,  T. Van Voorhis,  
 J. M. Herbert,  A. I. Krylov,  P. M. W. Gill,  M. Head-Gordon

 Contributors to earlier versions of Q-Chem not listed above: 
 R. D. Adamson,  J. Baker,  E. F. C. Byrd,  A. K. Chakraborty,  C.-L. Cheng,  
 H. Dachsel,  R. J. Doerksen,  G. Hawkins,  A. Heyden,  S. Hirata,  
 G. Kedziora,  F. J. Keil,  C. Kelley,  P. P. Korambath,  W. Kurlancheek,  
 A. M. Lee,  M. S. Lee,  D. Liotard,  I. Lotan,  P. E. Maslen,  N. Nair,  
 D. Neuhauser,  R. Olson,  B. Peters,  J. Ritchie,  N. E. Schultz,  
 N. Shenvi,  A. C. Simmonett,  K. S. Thanthiriwatte,  Q. Wu,  W. Zhang

 Please cite Q-Chem as follows:
 Y. Shao et al., Mol. Phys. 113, 184-215 (2015)
 DOI: 10.1080/00268976.2014.952696

 Q-Chem 4.4.2 for Intel X86 Linux

 Parts of Q-Chem use Armadillo 5.200.1 (Boston Tea Smuggler).
 http://arma.sourceforge.net/

 Q-Chem begins on Fri Oct 12 12:45:17 2018  

Host: 
0

     Scratch files written to /tmpu/cab_g/afmv_a/scratch_qchem/qchem17033//
 Dec716 11556_ 22328  22283 4050   
Processing $rem in /tmpu/appuserlic/qchem4.4/serial-multicore/config/preferences.
 MEM_TOTAL  2000 
FILE_GEOM_ORG=        593

Checking the input file for inconsistencies... 	...done.

--------------------------------------------------------------
User input:
--------------------------------------------------------------
$comment
SP
$end

$rem
MEM_STATIC 5000
MEM_TOTAL 20000
JOBTYPE SP
EXCHANGE B3LYP
BASIS 6-31g(d,p)
$end

$molecule
0 1
C           1.880000     11.032000     -2.572000
C           3.006000     11.068000     -1.751000
N           1.122000      9.939000     -2.619000
C           3.482000      9.897000     -1.191000
C           1.547000      8.778000     -2.122000
C           2.832000      8.663000     -1.417000
C           3.239000      7.383000     -0.718000
C           4.575000      7.169000     -0.433000
C           2.335000      6.403000     -0.130000
N           5.014000      6.146000      0.324000
N           1.030000      6.479000     -0.260000
C           2.771000      5.314000      0.600000
C           4.175000      5.127000      0.737000
S           0.434000      5.148000      0.465000
N           1.821000      4.447000      1.006000
C           4.800000      3.973000      1.409000
S           3.861000      2.687000      2.163000
C           6.190000      3.658000      1.536000
C           5.315000      1.733000      2.552000
S           7.578000      4.620000      1.090000
C           6.472000      2.485000      2.311000
C           5.374000      0.494000      3.211000
C           8.547000      3.353000      1.916000
C           7.832000      2.346000      2.588000
N           4.278000     -0.293000      3.122000
S           6.731000     -0.269000      4.066000
C           4.423000     -1.436000      3.875000
C           5.656000     -1.560000      4.406000
C           1.367000     12.350000     -3.102000
H           3.556000     11.992000     -1.598000
H           4.369000      9.994000     -0.572000
H           0.856000      7.954000     -2.295000
H           5.195000      8.018000     -0.717000
H           9.617000      3.441000      1.787000
H           8.397000      1.574000      3.098000
H           3.607000     -2.132000      4.017000
H           6.006000     -2.204000      5.202000
H           0.442000     12.147000     -3.656000
C           2.275000     13.065000     -4.138000
H           1.114000     13.000000     -2.255000
H           3.195000     13.482000     -3.711000
H           1.734000     13.965000     -4.458000
C           2.643000     12.118000     -5.303000
H           3.175000     11.246000     -4.903000
C           3.393000     12.910000     -6.435000
H           1.636000     11.825000     -5.623000
H           4.275000     13.414000     -6.020000
H           2.777000     13.788000     -6.667000
C           3.776000     11.975000     -7.630000
H           4.516000     11.269000     -7.233000
C           4.470000     12.839000     -8.766000
H           2.907000     11.528000     -8.129000
H           3.947000     13.749000     -9.086000
H           4.610000     12.234000     -9.671000
H           5.427000     13.290000     -8.477000
C           6.489000     15.038000      7.522000
C           5.834000     13.924000      7.159000
N           6.956000     15.883000      6.567000
C           5.665000     13.528000      5.821000
C           6.905000     15.534000      5.237000
C           6.311000     14.291000      4.816000
C           6.436000     13.725000      3.447000
C           6.757000     12.398000      3.209000
C           6.034000     14.455000      2.339000
N           6.779000     11.829000      1.993000
N           5.656000     15.793000      2.383000
C           6.117000     13.977000      1.085000
C           6.540000     12.620000      0.925000
S           5.325000     16.240000      0.874000
N           5.630000     14.813000      0.078000
C           6.659000     11.978000     -0.433000
S           6.695000     12.845000     -2.051000
C           7.072000     10.646000     -0.696000
C           7.068000     11.325000     -2.980000
S           7.460000      9.396000      0.456000
C           7.255000     10.282000     -2.015000
C           7.216000     11.261000     -4.375000
C           7.889000      8.293000     -0.856000
C           7.785000      8.944000     -2.089000
N           7.290000     10.097000     -4.930000
S           6.902000     12.562000     -5.554000
C           7.466000     10.209000     -6.285000
C           7.311000     11.472000     -6.788000
C           6.552000     15.562000      8.986000
H           5.297000     13.356000      7.913000
H           4.993000     12.690000      5.658000
H           7.554000     16.090000      4.563000
H           7.034000     11.786000      4.066000
H           8.062000      7.240000     -0.674000
H           7.982000      8.538000     -3.074000
H           7.598000      9.278000     -6.820000
H           7.372000     11.847000     -7.801000
H           7.113000     16.499000      9.085000
C           6.816000     14.469000     10.001000
H           5.541000     15.876000      9.273000
H           7.550000     13.816000      9.515000
H           5.927000     13.858000     10.200000
C           7.368000     15.092000     11.300000
H           7.702000     14.277000     11.954000
C           6.457000     16.142000     11.965000
H           8.269000     15.618000     10.964000
H           6.203000     16.978000     11.301000
H           6.988000     16.657000     12.775000
C           5.244000     15.486000     12.549000
H           4.558000     15.467000     11.693000
C           4.701000     16.317000     13.717000
H           5.476000     14.457000     12.849000
H           3.829000     15.931000     14.261000
H           4.459000     17.299000     13.293000
H           5.433000     16.392000     14.531000
$end

--------------------------------------------------------------
 ----------------------------------------------------------------
             Standard Nuclear Orientation (Angstroms)
    I     Atom           X                Y                Z
 ----------------------------------------------------------------
    1      C       0.8631464305     4.0169896666    -3.1267330198
    2      C       0.3091112585     3.2632689915    -2.0932132221
    3      N       1.9034911822     3.5484350143    -3.8119784761
    4      C       0.9895036386     2.1612104784    -1.6095291902
    5      C       2.6118544329     2.5086152727    -3.3731716735
    6      C       2.2296962771     1.7690906923    -2.1613410174
    7      C       2.9414461340     0.4962657015    -1.7539362014
    8      C       2.8490274161     0.0651404532    -0.4433993645
    9      C       3.5822257873    -0.4531169319    -2.6547325441
   10      N       3.3074234848    -1.1294247613    -0.0248471066
   11      N       3.7129190957    -0.2270074548    -3.9421698293
   12      C       4.1112037175    -1.6576653901    -2.2326397091
   13      C       4.0625928304    -1.9517097220    -0.8411912147
   14      S       4.5564241985    -1.4897701167    -4.5306692781
   15      N       4.7502111474    -2.3905741766    -3.1672729073
   16      C       4.6574634276    -3.1502059414    -0.2217876429
   17      S       5.4822485961    -4.3952403260    -1.1564810724
   18      C       4.7254132244    -3.4995946784     1.1641287815
   19      C       5.9629181472    -5.2971328048     0.3033475954
   20      S       3.9805768719    -2.7096291355     2.5323675213
   21      C       5.3197035947    -4.7764285439     1.4335582449
   22      C       6.6943381515    -6.4945817677     0.3667806979
   23      C       4.5612362346    -4.1178066655     3.4844162325
   24      C       5.1643179840    -5.1641153688     2.7644242178
   25      N       7.5262781236    -6.7525395320    -0.6675498463
   26      S       6.7877516012    -7.6952413223     1.6722819661
   27      C       8.1195059496    -7.9873060429    -0.5337013870
   28      C       7.8371825164    -8.5786207075     0.6445458054
   29      C       0.0449848806     5.1697553899    -3.6586501800
   30      H      -0.6177892420     3.5671705151    -1.6155267913
   31      H       0.5078375282     1.6260725951    -0.7965321398
   32      H       3.4768517929     2.2807096277    -3.9946413704
   33      H       2.1977872864     0.7031113125     0.1521982146
   34      H       4.4423189942    -4.0243972870     4.5551255198
   35      H       5.5173294542    -6.0264325565     3.3185911327
   36      H       8.7296615617    -8.4142782627    -1.3184566690
   37      H       7.9588777046    -9.6098210231     0.9489603094
   38      H       0.5892506582     5.5975288399    -4.5098461849
   39      C      -0.1444871225     6.3703733381    -2.6934549136
   40      H      -0.9118132008     4.7843963065    -4.0327541874
   41      H      -0.8090273216     6.1604623807    -1.8467308063
   42      H      -0.7049207981     7.1325466031    -3.2503094811
   43      C       1.2151028047     6.8724536279    -2.1559713209
   44      H       1.7124075505     6.0561221085    -1.6177345326
   45      C       1.0231706735     8.2038228979    -1.3424567704
   46      H       1.7282569849     7.0580719743    -3.1070321059
   47      H       0.2935662926     8.0504645235    -0.5372712910
   48      H       0.4452818213     8.8834874222    -1.9814126443
   49      C       2.3859009082     8.7369216748    -0.7877397238
   50      H       2.7209256373     7.9950837938    -0.0521583284
   51      C       2.1396302245    10.1114145107    -0.0335857645
   52      H       3.1070749972     8.9906553267    -1.5748217826
   53      H       1.5687804828    10.8776021905    -0.5731374410
   54      H       3.0980145073    10.5760183043     0.2315422829
   55      H       1.5109981703    10.0353203363     0.8618484414
   56      C      -8.0868746516    -2.9106316510     0.2026721089
   57      C      -6.8810648628    -3.1238435380    -0.3471946425
   58      N      -8.3843259134    -1.6883389760     0.7142015447
   59      C      -5.8553321163    -2.1629114490    -0.3573362950
   60      C      -7.4149003365    -0.7173633867     0.8177508362
   61      C      -6.0752481384    -0.9494720219     0.3417428851
   62      C      -4.9172913616    -0.0649471355     0.6365204763
   63      C      -3.6886942324    -0.5501782049     1.0557028989
   64      C      -4.9520223370     1.2812921650     0.3069730517
   65      N      -2.5941775793     0.2071382737     1.2329204132
   66      N      -6.0875107016     1.9423547215    -0.1498928700
   67      C      -3.9229866956     2.1138119164     0.5433742199
   68      C      -2.7177633400     1.5403523749     1.0577270339
   69      S      -5.6856412660     3.4863833405    -0.3521985303
   70      N      -4.0908181610     3.4316987146     0.1131173360
   71      C      -1.4992863680     2.3773058594     1.3498087577
   72      S      -1.4413685769     4.2063334709     1.4988474308
   73      C      -0.2631557824     1.9057176845     1.8631777953
   74      C       0.2930503899     4.2151051640     2.0504667788
   75      S       0.1985474418     0.2593239705     2.2043022175
   76      C       0.6901616098     2.8460493730     2.1988983119
   77      C       1.0296358477     5.3746637446     2.3418269709
   78      C       1.7596457449     0.8054397229     2.8261733240
   79      C       1.8253438341     2.2019784501     2.8097616059
   80      N       2.3010298023     5.2590570682     2.5382690966
   81      S       0.5300787249     7.0658007289     2.0739904885
   82      C       2.8633605732     6.4716154134     2.8432795284
   83      C       2.0430619503     7.5525287156     2.6673829610
   84      C      -9.2750104940    -3.9090805712     0.0874593765
   85      H      -6.7146319619    -4.0289393523    -0.9239187156
   86      H      -4.9851881613    -2.4076098527    -0.9601374138
   87      H      -7.6222022236     0.1063094253     1.4983403060
   88      H      -3.6176511028    -1.6134452175     1.2796183599
   89      H       2.5576449742     0.1059855217     3.0402365167
   90      H       2.6466672578     2.8328069699     3.1281217986
   91      H       3.9184115187     6.4533183508     3.0819062661
   92      H       2.2198816049     8.6105087402     2.8085498030
   93      H     -10.1872483432    -3.5527679725     0.5807690547
   94      C      -8.8675692430    -5.3509356645     0.3102047848
   95      H      -9.5868735829    -3.9384930943    -0.9637125016
   96      H      -8.1367606856    -5.3057009887     1.1258233700
   97      H      -8.3516824717    -5.7797161206    -0.5576956470
   98      C     -10.1077040287    -6.1856906761     0.6916281507
   99      H      -9.7663453424    -7.1802767509     1.0043097573
  100      C     -11.2517453971    -6.1738268687    -0.3406870131
  101      H     -10.4832529357    -5.6827120025     1.5901538724
  102      H     -11.6142286259    -5.1646550040    -0.5741094976
  103      H     -12.1527112795    -6.6411740718     0.0754056094
  104      C     -10.8567472292    -6.9378919631    -1.5666323541
  105      H     -10.3441086376    -6.1709988148    -2.1605764370
  106      C     -12.1004066606    -7.4910839515    -2.2715606075
  107      H     -10.1442407751    -7.7301796104    -1.3072487834
  108      H     -11.9520958772    -8.1039160892    -3.1703134559
  109      H     -12.7095570469    -6.6152817545    -2.5256675113
  110      H     -12.6448991749    -8.1961691420    -1.6309142338
 ----------------------------------------------------------------
 Molecular Point Group                 C1    NOp =  1
 Largest Abelian Subgroup              C1    NOp =  1
 Nuclear Repulsion Energy = 11582.3904395610 hartrees
 There are      270 alpha and      270 beta electrons
 Requested basis set is 6-31G(d,p)
 There are 406 shells and 1262 basis functions

 Total QAlloc Memory Limit  20000 MB
 Mega-Array Size      4888 MB
 MEM_STATIC part      5000 MB
 A cutoff of  1.0D-08 yielded  14276 shell pairs
 There are    147157 function pairs
 
 -------------------------------------------------------
 OpenMP Integral Computing Module                       
 Release: version 1.0, May 2013, Q-Chem Inc. Pittsburgh 
 -------------------------------------------------------
 Integral Job Info:
 Integral job number is                      11
 Integral operator is                         1
 short-range coefficients                     0
 long-range coefficients              100000000
 Omega coefficients                           0
 if combine SR and LR in K                    0
 Integral screening is                        0
 Integral computing path is                   2
 max size of driver memory is            800000
 size of driver memory is                593474
 size of scratch memory is             15166112
 max col of scratch BK array               1296
 max len of scratch array in speh3          155
 max len of scratch index in speh4           18
 max int batch size is                      520
 min int batch size is                       52
 fixed nKL is                                52
 max L of basis functions is                  2
 order of int derivative is                   0
 number of shells is                        406
 number of basis is                        1262
 number of cartesian basis is              1262
 number of contracted shell pairs         14276
 number of primitive shell pairs          45051
 maxK2 (contraction) of shell pair           36
 max number of K2 of shell pair               1
 max number of CS2 of shell pair           1433
 max number of PS2 of shell pair           8316
 mem total for path MDJ                  304296
 -------------------------------------------------------
 Smallest overlap matrix eigenvalue = 4.24E-04

 Scale SEOQF with 1.000000e-02/1.000000e-02/1.000000e-01

 Standard Electronic Orientation quadrupole field applied
 Nucleus-field energy     =    -0.0000000990 hartrees
 Guess from superposition of atomic densities
 Warning:  Energy on first SCF cycle will be non-variational
 A restricted hybrid HF-DFT SCF calculation will be
 performed using Pulay DIIS extrapolation
 Exchange:     0.2000 Hartree-Fock + 0.0800 Slater + 0.7200 B88
 Correlation:  0.1900 VWN1RPA + 0.8100 LYP
 Using SG-1 standard quadrature grid
 SCF converges when DIIS error is below 1.0E-05
 using 16 threads for integral computing 
 -------------------------------------------------------
 OpenMP BLAS3 based DFT computing Module                
 Release: version 1.0, May 2013, Q-Chem Inc. Pittsburgh 
 -------------------------------------------------------
 ---------------------------------------
  Cycle       Energy         DIIS Error
 ---------------------------------------
    1   -5679.7943169319      2.13E-02
    2   -5662.4692489058      2.17E-03
    3   -5660.8500026704      3.46E-03
    4   -5663.3130846447      9.34E-04
    5   -5663.4735876272      3.79E-04
    6   -5663.4891342475      2.59E-04
    7   -5663.5021949573      8.15E-05
    8   -5663.5034607329      2.61E-05
    9   -5663.5035917724      9.39E-06 Convergence criterion met
 ---------------------------------------
 SCF time:  CPU 1048.45 s  wall 85.17 s
 SCF   energy in the final basis set = -5663.5035917724
 Total energy in the final basis set = -5663.5035917724
 
 --------------------------------------------------------------
 
                    Orbital Energies (a.u.)
 --------------------------------------------------------------
 
 Alpha MOs
 -- Occupied --
-88.996 -88.982 -88.931 -88.928 -88.926 -88.922 -88.918 -88.911
-14.391 -14.386 -14.385 -14.377 -14.357 -14.345 -14.345 -14.338
-14.330 -14.317 -10.273 -10.270 -10.265 -10.263 -10.256 -10.256
-10.254 -10.253 -10.250 -10.249 -10.243 -10.241 -10.237 -10.236
-10.235 -10.234 -10.234 -10.234 -10.233 -10.227 -10.226 -10.226
-10.225 -10.221 -10.221 -10.221 -10.220 -10.217 -10.217 -10.217
-10.215 -10.214 -10.214 -10.211 -10.200 -10.200 -10.194 -10.186
-10.186 -10.184 -10.182 -10.180 -10.178 -10.178 -10.177 -10.177
-10.176 -10.176 -10.174 -10.174  -8.051  -8.038  -7.989  -7.988
 -7.987  -7.980  -7.977  -7.970  -6.016  -6.010  -6.009  -6.003
 -5.998  -5.996  -5.953  -5.953  -5.951  -5.950  -5.949  -5.948
 -5.946  -5.945  -5.945  -5.944  -5.941  -5.941  -5.938  -5.937
 -5.935  -5.933  -5.931  -5.926  -1.042  -1.034  -0.985  -0.965
 -0.960  -0.943  -0.933  -0.930  -0.910  -0.907  -0.904  -0.893
 -0.841  -0.840  -0.839  -0.820  -0.818  -0.817  -0.810  -0.805
 -0.805  -0.800  -0.795  -0.793  -0.789  -0.776  -0.771  -0.762
 -0.753  -0.748  -0.741  -0.738  -0.723  -0.718  -0.708  -0.706
 -0.695  -0.690  -0.676  -0.672  -0.659  -0.650  -0.646  -0.642
 -0.636  -0.633  -0.629  -0.617  -0.617  -0.608  -0.602  -0.597
 -0.595  -0.591  -0.590  -0.582  -0.581  -0.578  -0.568  -0.557
 -0.555  -0.541  -0.540  -0.538  -0.528  -0.526  -0.518  -0.516
 -0.511  -0.501  -0.495  -0.495  -0.486  -0.481  -0.480  -0.474
 -0.472  -0.471  -0.469  -0.467  -0.462  -0.459  -0.458  -0.451
 -0.443  -0.441  -0.440  -0.437  -0.437  -0.436  -0.434  -0.431
 -0.430  -0.427  -0.425  -0.421  -0.421  -0.416  -0.415  -0.413
 -0.408  -0.406  -0.402  -0.400  -0.399  -0.396  -0.396  -0.393
 -0.392  -0.392  -0.391  -0.390  -0.387  -0.386  -0.382  -0.382
 -0.379  -0.376  -0.374  -0.371  -0.371  -0.363  -0.360  -0.357
 -0.352  -0.350  -0.349  -0.348  -0.347  -0.345  -0.343  -0.342
 -0.338  -0.336  -0.334  -0.333  -0.332  -0.328  -0.326  -0.324
 -0.315  -0.315  -0.312  -0.310  -0.309  -0.307  -0.303  -0.299
 -0.295  -0.292  -0.291  -0.289  -0.285  -0.284  -0.281  -0.279
 -0.276  -0.268  -0.267  -0.259  -0.256  -0.256  -0.254  -0.248
 -0.239  -0.235  -0.233  -0.227  -0.196  -0.189
 -- Virtual --
 -0.119  -0.110  -0.085  -0.072  -0.040  -0.035  -0.029  -0.021
 -0.019  -0.014  -0.011  -0.009  -0.007  -0.005  -0.002   0.002
  0.006   0.010   0.016   0.017   0.029   0.030   0.036   0.039
  0.046   0.055   0.055   0.061   0.068   0.070   0.076   0.087
  0.090   0.093   0.095   0.096   0.102   0.104   0.105   0.108
  0.109   0.110   0.113   0.116   0.119   0.122   0.124   0.129
  0.130   0.133   0.135   0.138   0.140   0.143   0.146   0.148
  0.149   0.151   0.155   0.159   0.160   0.161   0.165   0.166
  0.167   0.167   0.168   0.171   0.174   0.176   0.177   0.183
  0.184   0.188   0.189   0.190   0.191   0.194   0.196   0.199
  0.203   0.205   0.207   0.212   0.217   0.218   0.221   0.224
  0.227   0.228   0.232   0.235   0.236   0.238   0.239   0.241
  0.244   0.245   0.246   0.249   0.254   0.256   0.256   0.262
  0.263   0.266   0.267   0.273   0.274   0.276   0.279   0.280
  0.282   0.287   0.289   0.297   0.298   0.299   0.302   0.307
  0.307   0.316   0.316   0.318   0.320   0.324   0.327   0.330
  0.334   0.334   0.335   0.337   0.343   0.345   0.346   0.350
  0.352   0.354   0.361   0.361   0.362   0.364   0.373   0.375
  0.382   0.388   0.390   0.392   0.398   0.403   0.405   0.409
  0.412   0.414   0.419   0.423   0.427   0.431   0.436   0.438
  0.443   0.445   0.451   0.457   0.460   0.463   0.464   0.471
  0.477   0.482   0.486   0.490   0.494   0.495   0.499   0.499
  0.503   0.506   0.507   0.509   0.511   0.511   0.517   0.517
  0.519   0.522   0.523   0.526   0.528   0.531   0.532   0.534
  0.538   0.539   0.541   0.542   0.544   0.545   0.550   0.552
  0.553   0.555   0.555   0.556   0.558   0.560   0.562   0.566
  0.566   0.568   0.571   0.572   0.577   0.579   0.580   0.581
  0.586   0.589   0.590   0.591   0.593   0.594   0.595   0.600
  0.601   0.605   0.608   0.609   0.614   0.616   0.616   0.619
  0.622   0.625   0.628   0.629   0.630   0.633   0.635   0.636
  0.637   0.639   0.641   0.643   0.646   0.647   0.649   0.650
  0.652   0.659   0.660   0.664   0.666   0.667   0.670   0.677
  0.678   0.680   0.683   0.685   0.690   0.693   0.694   0.696
  0.700   0.703   0.705   0.710   0.714   0.718   0.720   0.724
  0.726   0.731   0.732   0.733   0.735   0.740   0.743   0.745
  0.748   0.750   0.753   0.756   0.757   0.760   0.761   0.764
  0.769   0.772   0.774   0.783   0.788   0.791   0.795   0.797
  0.799   0.800   0.801   0.805   0.806   0.808   0.810   0.812
  0.815   0.817   0.818   0.819   0.822   0.824   0.824   0.825
  0.829   0.831   0.831   0.833   0.835   0.836   0.837   0.839
  0.843   0.845   0.846   0.848   0.852   0.853   0.855   0.856
  0.858   0.859   0.863   0.866   0.868   0.870   0.872   0.875
  0.881   0.886   0.886   0.889   0.889   0.892   0.894   0.895
  0.896   0.899   0.903   0.903   0.907   0.910   0.914   0.916
  0.916   0.918   0.925   0.927   0.927   0.930   0.932   0.934
  0.937   0.942   0.942   0.944   0.948   0.951   0.952   0.953
  0.954   0.957   0.958   0.960   0.961   0.964   0.969   0.972
  0.975   0.977   0.980   0.985   0.988   0.988   0.990   0.992
  0.992   0.996   0.999   1.001   1.003   1.004   1.009   1.013
  1.016   1.019   1.020   1.022   1.024   1.027   1.031   1.031
  1.035   1.039   1.041   1.044   1.044   1.049   1.053   1.056
  1.060   1.063   1.068   1.072   1.075   1.077   1.082   1.084
  1.085   1.094   1.102   1.105   1.109   1.114   1.115   1.120
  1.123   1.129   1.136   1.140   1.144   1.146   1.148   1.150
  1.152   1.158   1.163   1.169   1.175   1.179   1.183   1.188
  1.192   1.208   1.214   1.217   1.217   1.222   1.224   1.228
  1.237   1.242   1.248   1.251   1.255   1.262   1.267   1.270
  1.272   1.272   1.283   1.284   1.288   1.295   1.302   1.305
  1.309   1.311   1.318   1.320   1.321   1.329   1.334   1.339
  1.339   1.343   1.344   1.347   1.354   1.361   1.366   1.367
  1.373   1.381   1.385   1.386   1.388   1.392   1.393   1.398
  1.403   1.408   1.412   1.419   1.420   1.422   1.429   1.437
  1.439   1.440   1.445   1.452   1.458   1.465   1.467   1.470
  1.472   1.480   1.485   1.489   1.496   1.501   1.504   1.521
  1.524   1.529   1.535   1.544   1.546   1.551   1.556   1.561
  1.562   1.572   1.584   1.590   1.591   1.594   1.596   1.600
  1.611   1.620   1.624   1.635   1.644   1.646   1.647   1.650
  1.657   1.663   1.668   1.669   1.670   1.673   1.680   1.681
  1.690   1.692   1.693   1.700   1.704   1.712   1.716   1.718
  1.721   1.725   1.728   1.734   1.736   1.738   1.742   1.744
  1.748   1.758   1.760   1.766   1.768   1.771   1.777   1.779
  1.783   1.786   1.786   1.789   1.794   1.797   1.798   1.807
  1.812   1.817   1.823   1.829   1.837   1.839   1.839   1.844
  1.848   1.850   1.856   1.859   1.862   1.868   1.872   1.874
  1.876   1.880   1.882   1.887   1.890   1.892   1.897   1.900
  1.901   1.905   1.907   1.908   1.915   1.916   1.922   1.926
  1.928   1.930   1.936   1.939   1.942   1.943   1.949   1.954
  1.956   1.968   1.972   1.973   1.978   1.984   1.987   1.990
  1.993   1.998   2.002   2.004   2.011   2.012   2.025   2.027
  2.030   2.033   2.040   2.044   2.048   2.052   2.062   2.067
  2.072   2.075   2.077   2.082   2.084   2.086   2.093   2.102
  2.112   2.112   2.117   2.121   2.125   2.128   2.130   2.133
  2.139   2.140   2.152   2.156   2.157   2.158   2.162   2.163
  2.166   2.170   2.172   2.176   2.178   2.182   2.184   2.186
  2.189   2.191   2.198   2.199   2.200   2.206   2.213   2.216
  2.222   2.227   2.230   2.234   2.237   2.238   2.248   2.249
  2.263   2.264   2.266   2.269   2.272   2.273   2.277   2.279
  2.283   2.285   2.290   2.292   2.294   2.295   2.305   2.307
  2.309   2.309   2.315   2.321   2.323   2.328   2.332   2.334
  2.335   2.338   2.339   2.344   2.352   2.354   2.357   2.361
  2.364   2.369   2.376   2.377   2.380   2.381   2.385   2.390
  2.394   2.399   2.405   2.411   2.411   2.412   2.420   2.422
  2.425   2.427   2.431   2.435   2.435   2.440   2.443   2.445
  2.446   2.449   2.459   2.461   2.465   2.470   2.472   2.480
  2.482   2.483   2.486   2.489   2.491   2.496   2.498   2.502
  2.509   2.517   2.519   2.523   2.526   2.530   2.532   2.533
  2.539   2.541   2.543   2.546   2.556   2.559   2.561   2.567
  2.571   2.578   2.579   2.586   2.588   2.595   2.600   2.605
  2.607   2.612   2.613   2.617   2.623   2.631   2.641   2.643
  2.648   2.655   2.661   2.663   2.667   2.667   2.672   2.674
  2.676   2.683   2.688   2.690   2.691   2.698   2.701   2.703
  2.706   2.712   2.714   2.724   2.725   2.729   2.741   2.742
  2.750   2.760   2.761   2.766   2.769   2.780   2.786   2.789
  2.795   2.800   2.803   2.815   2.823   2.828   2.833   2.834
  2.836   2.843   2.845   2.850   2.853   2.858   2.868   2.870
  2.876   2.879   2.883   2.890   2.894   2.898   2.899   2.905
  2.910   2.918   2.926   2.930   2.930   2.942   2.948   2.948
  2.954   2.969   2.972   2.978   2.992   2.996   3.004   3.019
  3.026   3.042   3.057   3.065   3.073   3.087   3.088   3.135
  3.161   3.183   3.185   3.185   3.205   3.207   3.225   3.226
  3.246   3.251   3.258   3.260   3.269   3.270   3.276   3.278
  3.291   3.308   3.313   3.317   3.319   3.330   3.332   3.342
  3.351   3.355   3.362   3.377   3.384   3.399   3.411   3.429
  3.440   3.447   3.483   3.491   3.492   3.500   3.518   3.525
  3.557   3.562   3.573   3.576   3.579   3.592   3.608   3.620
  3.625   3.626   3.727   3.750   3.851   3.854   3.890   3.905
  3.929   3.937   3.942   3.954   3.968   3.979   3.989   3.992
  4.009   4.064   4.068   4.082   4.083   4.088   4.111   4.128
  4.131   4.133   4.143   4.157   4.167   4.183   4.191   4.200
  4.213   4.221   4.235   4.250   4.255   4.261   4.268   4.277
  4.278   4.288   4.317   4.351   4.368   4.379   4.400   4.404
  4.424   4.435   4.439   4.453   4.459   4.469   4.493   4.503
  4.515   4.525   4.533   4.538   4.584   4.586   4.644   4.670
  4.691   4.702   4.713   4.718   4.742   4.761   4.793   4.798
 --------------------------------------------------------------
 
          Ground-State Mulliken Net Atomic Charges

     Atom                 Charge (a.u.)
  ----------------------------------------
      1 C                     0.280633
      2 C                    -0.116211
      3 N                    -0.481829
      4 C                    -0.076512
      5 C                     0.087008
      6 C                    -0.003005
      7 C                     0.057916
      8 C                     0.079429
      9 C                     0.233735
     10 N                    -0.553454
     11 N                    -0.544509
     12 C                     0.212675
     13 C                     0.297106
     14 S                     0.590503
     15 N                    -0.564039
     16 C                    -0.224088
     17 S                     0.372834
     18 C                    -0.131539
     19 C                    -0.208093
     20 S                     0.295608
     21 C                     0.130085
     22 C                     0.038988
     23 C                    -0.313263
     24 C                    -0.086469
     25 N                    -0.439924
     26 S                     0.271764
     27 C                     0.132081
     28 C                    -0.312771
     29 C                    -0.241985
     30 H                     0.103076
     31 H                     0.110680
     32 H                     0.120847
     33 H                     0.114591
     34 H                     0.126450
     35 H                     0.128455
     36 H                     0.117776
     37 H                     0.131535
     38 H                     0.111493
     39 C                    -0.195385
     40 H                     0.108796
     41 H                     0.093372
     42 H                     0.090616
     43 C                    -0.175598
     44 H                     0.106661
     45 C                    -0.175488
     46 H                     0.099268
     47 H                     0.095639
     48 H                     0.087361
     49 C                    -0.174946
     50 H                     0.110642
     51 C                    -0.333920
     52 H                     0.104622
     53 H                     0.104180
     54 H                     0.096170
     55 H                     0.087266
     56 C                     0.278732
     57 C                    -0.110621
     58 N                    -0.497090
     59 C                    -0.080310
     60 C                     0.098948
     61 C                     0.002411
     62 C                     0.014366
     63 C                     0.065674
     64 C                     0.235712
     65 N                    -0.522564
     66 N                    -0.532857
     67 C                     0.204283
     68 C                     0.296349
     69 S                     0.626045
     70 N                    -0.563514
     71 C                    -0.225429
     72 S                     0.307040
     73 C                    -0.161413
     74 C                    -0.236034
     75 S                     0.291427
     76 C                     0.188396
     77 C                     0.071114
     78 C                    -0.322944
     79 C                    -0.065500
     80 N                    -0.425267
     81 S                     0.271425
     82 C                     0.116784
     83 C                    -0.308173
     84 C                    -0.218168
     85 H                     0.085380
     86 H                     0.108735
     87 H                     0.114510
     88 H                     0.115702
     89 H                     0.155650
     90 H                     0.122562
     91 H                     0.115801
     92 H                     0.150809
     93 H                     0.120506
     94 C                    -0.189895
     95 H                     0.117197
     96 H                     0.098909
     97 H                     0.096898
     98 C                    -0.191181
     99 H                     0.090712
    100 C                    -0.176984
    101 H                     0.093907
    102 H                     0.097129
    103 H                     0.090525
    104 C                    -0.165335
    105 H                     0.095098
    106 C                    -0.321390
    107 H                     0.094442
    108 H                     0.096699
    109 H                     0.103963
    110 H                     0.103996
  ----------------------------------------
  Sum of atomic charges =     0.000000

 -----------------------------------------------------------------
                    Cartesian Multipole Moments
 -----------------------------------------------------------------
    Charge (ESU x 10^10)
                 0.0000
    Dipole Moment (Debye)
         X      -0.3670      Y      -0.7642      Z       2.3662
       Tot       2.5135
    Quadrupole Moments (Debye-Ang)
        XX    -447.6761     XY      -5.9156     YY    -383.9019
        XZ      22.2716     YZ       4.0270     ZZ    -443.7292
    Octopole Moments (Debye-Ang^2)
       XXX      97.7703    XXY    -146.8105    XYY     161.5543
       YYY     -93.8498    XXZ      -3.5353    XYZ     -23.3180
       YYZ     138.8165    XZZ      66.3913    YZZ     -62.5210
       ZZZ      39.4531
    Hexadecapole Moments (Debye-Ang^3)
      XXXX  -73316.2956   XXXY    -397.1318   XXYY  -18836.6638
      XYYY   -1909.0432   YYYY  -53573.4211   XXXZ     518.1383
      XXYZ       9.9669   XYYZ     843.6108   YYYZ     173.3923
      XXZZ  -13633.7393   XYZZ    -372.4621   YYZZ  -11521.2461
      XZZZ     111.1294   YZZZ      56.7137   ZZZZ  -11167.0864
 -----------------------------------------------------------------
Archival summary:
1\1\mn246\SP\ProcedureUnspecified\6-31G**\8105042\afmv_a\FriOct1212:46:452018FriOct1212:46:452018\0\\#,ProcedureUnspecified,6-31G**,\\0,1\S\C,1,1.7436\C,2,1.38049,1,114.377\C,2,1.41914,1,127.967,3,176.93,0\C,3,1.43319,2,115.731,1,174.273,0\C,5,1.40429,3,128.459,2,-178.328,0\N,6,1.29166,5,118.291,3,-14.1,0\C,7,1.37096,6,111.003,5,178.462,0\H,8,1.08185,7,115.73,6,-176.443,0\C,8,1.36828,7,115.1,6,10.0666,0\H,10,1.0819,8,131.129,7,178.764,0\C,3,1.44105,2,110.038,1,2.37081,0\H,12,1.08345,3,117.483,2,179.589,0\C,12,1.39818,3,114.48,2,-4.8605,0\H,14,1.08253,12,127.811,3,-166.541,0\C,4,1.50681,2,126.15,1,-3.58636,0\N,16,1.35034,4,116.695,2,3.87587,0\C,17,1.34272,16,117.719,4,-176.121,0\H,18,1.08891,17,118.061,16,174.759,0\C,18,1.38586,17,124.408,16,-3.59935,0\C,20,1.38642,18,115.727,17,-4.27956,0\C,21,1.34458,20,122.701,18,8.68743,0\N,21,1.39107,20,124.053,18,-179.118,0\N,22,1.39646,21,115.988,20,-177.877,0\C,20,1.48665,18,122.831,17,-174.708,0\C,25,1.41757,20,119.094,18,41.289,0\H,26,1.08646,25,126.204,20,18.9208,0\C,26,1.40557,25,117.933,20,-165.074,0\H,28,1.08605,26,117.006,25,-177.347,0\C,28,1.34231,26,123.361,25,-5.13602,0\N,30,1.35799,28,119.606,26,-3.93492,0\C,31,1.37597,30,120.609,28,7.70931,0\H,32,1.0884,31,116.545,30,161.669,0\C,30,1.55623,28,123.614,26,-173.304,0\H,34,1.09658,30,113.163,28,178.634,0\H,34,1.09685,30,107.772,28,66.9578,0\C,34,1.51478,30,113.232,28,-43.9496,0\H,37,1.09607,34,104.447,30,-39.2575,0\H,37,1.09692,34,112.472,30,76.3446,0\C,37,1.5428,34,109.582,30,-159.384,0\H,40,1.09607,37,103.285,34,58.0351,0\H,40,1.09704,37,108.112,34,170.968,0\C,40,1.54099,37,115.276,34,-58.2248,0\H,43,1.09694,40,110.633,37,170.255,0\H,43,1.09741,40,113.253,37,56.9412,0\C,43,1.49759,40,110.405,37,-70.191,0\H,46,1.09666,43,110.264,40,-29.2542,0\H,46,1.09713,43,102.109,40,86.7476,0\C,46,1.53285,43,110.279,40,-153.502,0\H,49,1.09666,46,105.606,43,-59.5748,0\H,49,1.09729,46,111.469,43,62.1469,0\H,49,1.09787,46,117.925,43,177.934,0\S,23,1.60824,21,107.073,20,-177.923,0\S,10,1.69651,8,110.669,7,1.18489,0\S,5,1.82005,3,106.908,2,-2.09124,0\H,11,2.51441,10,114.019,8,-130.68,0\C,56,1.09671,11,120.654,10,78.8073,0\H,57,1.09728,56,98.7267,11,174.024,0\H,57,1.09757,56,109.43,11,63.4256,0\C,57,1.58702,56,114.636,11,-60.9969,0\H,60,1.09711,57,108.325,56,50.371,0\H,60,1.09726,57,104.039,56,174.213,0\C,60,1.56491,57,109.169,56,-64.455,0\H,63,1.09734,60,117,57,-54.3492,0\H,63,1.09734,60,111.5,57,59.112,0\C,63,1.572,60,111.447,57,-177.502,0\H,66,1.09649,63,111.262,60,70.4448,0\H,66,1.097,63,115.574,60,-55.7083,0\C,66,1.54579,63,110.343,60,179.903,0\H,69,1.09664,66,109.068,63,61.3408,0\H,69,1.09776,66,113.572,63,-52.1888,0\C,69,1.55209,66,111.107,63,-172.221,0\H,72,1.09716,69,103.97,66,65.1724,0\H,72,1.09723,69,112.164,66,-178.679,0\C,72,1.51036,69,115.946,66,-52.6824,0\N,75,1.33095,72,120.717,69,126.926,0\C,76,1.3325,75,121.38,72,178.127,0\H,77,1.08921,76,113.426,75,175.698,0\C,75,1.39399,72,117.29,69,-68.5736,0\H,79,1.08613,75,120.928,72,7.03424,0\C,79,1.38254,75,119.656,72,-177.154,0\H,81,1.08597,79,115.877,75,-179.279,0\C,81,1.41292,79,121.102,75,1.13896,0\C,83,1.51415,81,122.739,79,173.925,0\C,84,1.38272,83,119.058,81,34.6347,0\H,85,1.08897,84,112.067,83,-3.10406,0\N,85,1.34622,84,123.27,83,-171.698,0\C,87,1.38306,85,122.004,84,-8.46554,0\C,88,1.42301,87,118.226,85,13.5446,0\N,89,1.34871,88,125.557,87,176.944,0\C,89,1.38164,88,117.762,87,-10.1909,0\N,91,1.31366,89,114.291,88,-177.296,0\C,88,1.47442,87,117.104,85,-172.156,0\C,93,1.43089,88,128.648,87,9.77496,0\C,94,1.4339,93,114.778,88,-177.158,0\C,95,1.39487,94,112.371,93,170.135,0\H,96,1.08412,95,132.262,94,176.813,0\C,95,1.4008,94,111.698,93,-12.4258,0\C,98,1.40459,95,121.304,94,-175.422,0\N,99,1.35222,98,116.645,95,164.97,0\C,100,1.3764,99,111.218,98,176.137,0\H,101,1.08187,100,121.775,99,-172.972,0\C,101,1.34819,100,112.842,99,6.15308,0\H,103,1.08206,101,129.814,100,-164.518,0\C,96,1.40601,95,109.241,94,5.10016,0\H,105,1.08133,96,128.207,95,169.373,0\S,92,1.62862,91,105.796,89,2.98315,0\S,103,1.71403,101,115.226,100,-1.60118,0\S,94,1.74668,93,128.905,88,-7.31114,0\S,93,1.76183,88,122.713,87,-172.555,0\\\@

 Total job time:  88.35s(wall), 1058.30s(cpu) 
 Fri Oct 12 12:46:45 2018

        *************************************************************
        *                                                           *
        *  Thank you very much for using Q-Chem.  Have a nice day.  *
        *                                                           *
        *************************************************************


