
Running Job 1 of 1 ./10/29.qcin
qchem ./10/29.qcin_17735.0 /tmpu/cab_g/afmv_a/scratch_qchem/qchem17735/ 1
/tmpu/appuserlic/qchem4.4/serial-multicore/exe/qcprog.exe_s ./10/29.qcin_17735.0 /tmpu/cab_g/afmv_a/scratch_qchem/qchem17735/
Check license passed

                  Welcome to Q-Chem
     A Quantum Leap Into The Future Of Chemistry


 Q-Chem 4.4, Q-Chem, Inc., Pleasanton, CA (2016)

 Y. Shao,  Z. Gan,  E. Epifanovsky,  A. T. B. Gilbert,  M. Wormit,  
 J. Kussmann,  A. W. Lange,  A. Behn,  J. Deng,  X. Feng,  D. Ghosh,  
 M. Goldey,  P. R. Horn,  L. D. Jacobson,  I. Kaliman,  F. Rob,  
 R. Z. Khaliullin,  T. Kus,  A. Landau,  J. Liu,  E. I. Proynov,  Y. M. Rhee,  
 R. M. Richard,  M. A. Rohrdanz,  R. P. Steele,  E. J. Sundstrom,  
 H. L. Woodcock III,  P. M. Zimmerman,  D. Zuev,  B. Albrecht,  E. Alguire,  
 B. Austin,  S. A. Baeppler,  G. J. O. Beran,  Y. A. Bernard,  E. Berquist,  
 K. Brandhorst,  K. B. Bravaya,  S. T. Brown,  D. Casanova,  C.-M. Chang,  
 Y. Chen,  S. H. Chien,  K. D. Closser,  M. P. Coons,  D. L. Crittenden,  
 S. Dasgupta,  M. Diedenhofen,  R. A. DiStasio Jr.,  H. Do,  A. D. Dutoi,  
 R. G. Edgar,  P.-T. Fang,  S. Fatehi,  Q. Feng,  L. Fusti-Molnar,  
 A. Ghysels,  A. Golubeva-Zadorozhnaya,  J. Gomes,  A. Gunina,  
 M. W. D. Hanson-Heine,  P. H. P. Harbach,  A. W. Hauser,  J. E. Herr,  
 E. G. Hohenstein,  Z. C. Holden,  K. Hui,  T.-C. Jagau,  H. Ji,  B. Kaduk,  
 K. Khistyaev,  Jaehoon Kim,  Jihan Kim,  R. A. King,  P. Klunzinger,  
 K. Koh,  D. Kosenkov,  T. Kowalczyk,  C. M. Krauter,  A. Kunitsa,  
 K. U. Lao,  A. Laurent,  K. V. Lawler,  J. Lee,  D. Lefrancois,  S. Lehtola,  
 S. V. Levchenko,  C. Y. Lin,  Y.-S. Lin,  F. Liu,  E. Livshits,  
 R. C. Lochan,  A. Luenser,  P. Manohar,  S. F. Manzer,  S.-P. Mao,  Y. Mao,  
 N. Mardirossian,  A. V. Marenich,  L. A. Martinez-Martinez,  S. A. Maurer,  
 N. J. Mayhall,  J.-M. Mewes,  A. F. Morrison,  K. Nanda,  T. S. Nguyen-Beck,  
 C. M. Oana,  R. Olivares-Amaya,  D. P. O'Neill,  J. A. Parkhill,  
 T. M. Perrine,  R. Peverati,  P. A. Pieniazek,  F. Plasser,  A. Prociuk,  
 D. R. Rehn,  E. Rosta,  N. J. Russ,  N. Sergueev,  S. M. Sharada,  
 S. Sharma,  D. W. Small,  A. Sodt,  T. Stauch,  T. Stein,  D. Stuck,  
 Y.-C. Su,  A. J. W. Thom,  T. Tsuchimochi,  L. Vogt,  O. Vydrov,  T. Wang,  
 M. A. Watson,  J. Wenzel,  A. White,  C. F. Williams,  V. Vanovschi,  
 K. Yao,  S. Yeganeh,  S. R. Yost,  Z.-Q. You,  I. Y. Zhang,  X. Zhang,  
 Y. Zhao,  B. R. Brooks,  G. K. L. Chan,  D. M. Chipman,  C. J. Cramer,  
 W. A. Goddard III,  M. S. Gordon,  W. J. Hehre,  A. Klamt,  
 H. F. Schaefer III,  M. W. Schmidt,  C. D. Sherrill,  D. G. Truhlar,  
 A. Warshel,  X. Xu,  A. Aspuru-Guzik,  R. Baer,  A. T. Bell,  N. A. Besley,  
 J.-D. Chai,  A. Dreuw,  B. D. Dunietz,  T. R. Furlani,  S. R. Gwaltney,  
 C.-P. Hsu,  Y. Jung,  J. Kong,  D. S. Lambrecht,  W. Liang,  C. Ochsenfeld,  
 V. A. Rassolov,  L. V. Slipchenko,  J. E. Subotnik,  T. Van Voorhis,  
 J. M. Herbert,  A. I. Krylov,  P. M. W. Gill,  M. Head-Gordon

 Contributors to earlier versions of Q-Chem not listed above: 
 R. D. Adamson,  J. Baker,  E. F. C. Byrd,  A. K. Chakraborty,  C.-L. Cheng,  
 H. Dachsel,  R. J. Doerksen,  G. Hawkins,  A. Heyden,  S. Hirata,  
 G. Kedziora,  F. J. Keil,  C. Kelley,  P. P. Korambath,  W. Kurlancheek,  
 A. M. Lee,  M. S. Lee,  D. Liotard,  I. Lotan,  P. E. Maslen,  N. Nair,  
 D. Neuhauser,  R. Olson,  B. Peters,  J. Ritchie,  N. E. Schultz,  
 N. Shenvi,  A. C. Simmonett,  K. S. Thanthiriwatte,  Q. Wu,  W. Zhang

 Please cite Q-Chem as follows:
 Y. Shao et al., Mol. Phys. 113, 184-215 (2015)
 DOI: 10.1080/00268976.2014.952696

 Q-Chem 4.4.2 for Intel X86 Linux

 Parts of Q-Chem use Armadillo 5.200.1 (Boston Tea Smuggler).
 http://arma.sourceforge.net/

 Q-Chem begins on Fri Oct 12 13:09:57 2018  

Host: 
0

     Scratch files written to /tmpu/cab_g/afmv_a/scratch_qchem/qchem17735//
 Dec716 11556_ 22328  22283 4050   
Processing $rem in /tmpu/appuserlic/qchem4.4/serial-multicore/config/preferences.
 MEM_TOTAL  2000 
FILE_GEOM_ORG=        593

Checking the input file for inconsistencies... 	...done.

--------------------------------------------------------------
User input:
--------------------------------------------------------------
$comment
SP
$end

$rem
MEM_STATIC 5000
MEM_TOTAL 20000
JOBTYPE SP
EXCHANGE B3LYP
BASIS 6-31g(d,p)
$end

$molecule
0 1
C           1.880000     11.032000     -2.572000
C           3.006000     11.068000     -1.751000
N           1.122000      9.939000     -2.619000
C           3.482000      9.897000     -1.191000
C           1.547000      8.778000     -2.122000
C           2.832000      8.663000     -1.417000
C           3.239000      7.383000     -0.718000
C           4.575000      7.169000     -0.433000
C           2.335000      6.403000     -0.130000
N           5.014000      6.146000      0.324000
N           1.030000      6.479000     -0.260000
C           2.771000      5.314000      0.600000
C           4.175000      5.127000      0.737000
S           0.434000      5.148000      0.465000
N           1.821000      4.447000      1.006000
C           4.800000      3.973000      1.409000
S           3.861000      2.687000      2.163000
C           6.190000      3.658000      1.536000
C           5.315000      1.733000      2.552000
S           7.578000      4.620000      1.090000
C           6.472000      2.485000      2.311000
C           5.374000      0.494000      3.211000
C           8.547000      3.353000      1.916000
C           7.832000      2.346000      2.588000
N           4.278000     -0.293000      3.122000
S           6.731000     -0.269000      4.066000
C           4.423000     -1.436000      3.875000
C           5.656000     -1.560000      4.406000
C           1.367000     12.350000     -3.102000
H           3.556000     11.992000     -1.598000
H           4.369000      9.994000     -0.572000
H           0.856000      7.954000     -2.295000
H           5.195000      8.018000     -0.717000
H           9.617000      3.441000      1.787000
H           8.397000      1.574000      3.098000
H           3.607000     -2.132000      4.017000
H           6.006000     -2.204000      5.202000
H           0.442000     12.147000     -3.656000
C           2.275000     13.065000     -4.138000
H           1.114000     13.000000     -2.255000
H           3.195000     13.482000     -3.711000
H           1.734000     13.965000     -4.458000
C           2.643000     12.118000     -5.303000
H           3.175000     11.246000     -4.903000
C           3.393000     12.910000     -6.435000
H           1.636000     11.825000     -5.623000
H           4.275000     13.414000     -6.020000
H           2.777000     13.788000     -6.667000
C           3.776000     11.975000     -7.630000
H           4.516000     11.269000     -7.233000
C           4.470000     12.839000     -8.766000
H           2.907000     11.528000     -8.129000
H           3.947000     13.749000     -9.086000
H           4.610000     12.234000     -9.671000
H           5.427000     13.290000     -8.477000
C           7.250000      8.315000     13.196000
C           6.087000      8.349000     12.483000
N           7.900000      7.201000     13.569000
C           5.556000      7.059000     12.095000
C           7.432000      5.984000     13.199000
C           6.215000      5.846000     12.439000
C           5.699000      4.505000     12.025000
C           5.200000      4.299000     10.706000
C           5.639000      3.408000     12.890000
N           4.511000      3.202000     10.327000
N           6.092000      3.445000     14.154000
C           4.969000      2.242000     12.548000
C           4.380000      2.187000     11.253000
S           5.655000      2.010000     14.780000
N           4.803000      1.300000     13.504000
C           3.450000      1.057000     10.876000
S           2.348000      0.180000     11.976000
C           3.376000      0.532000      9.619000
C           1.611000     -0.733000     10.692000
S           4.480000      0.626000      8.287000
C           2.400000     -0.493000      9.574000
C           0.628000     -1.730000     10.810000
C           3.597000     -0.722000      7.530000
C           2.531000     -1.200000      8.323000
N           0.217000     -2.396000      9.737000
S          -0.337000     -2.060000     12.273000
C          -0.692000     -3.330000     10.017000
C          -0.908000     -3.448000     11.373000
C           8.050000      9.643000     13.407000
H           5.576000      9.275000     12.236000
H           4.680000      7.051000     11.453000
H           7.972000      5.096000     13.526000
H           5.154000      5.184000     10.073000
H           3.999000     -1.065000      6.585000
H           1.939000     -2.079000      8.095000
H          -1.053000     -3.992000      9.241000
H          -1.584000     -4.182000     11.792000
H           9.071000      9.447000     13.756000
C           7.248000     10.663000     14.250000
H           8.259000     10.022000     12.399000
H           6.947000     10.234000     15.214000
H           6.348000     10.962000     13.699000
C           8.041000     12.010000     14.423000
H           9.092000     11.712000     14.521000
C           7.435000     12.992000     15.401000
H           8.064000     12.496000     13.439000
H           7.378000     12.662000     16.446000
H           6.421000     13.197000     15.037000
C           8.198000     14.343000     15.402000
H           9.292000     14.259000     15.411000
C           7.588000     15.246000     16.546000
H           8.010000     14.747000     14.399000
H           8.031000     15.015000     17.522000
H           6.493000     15.207000     16.584000
H           7.949000     16.256000     16.313000
$end

--------------------------------------------------------------
 ----------------------------------------------------------------
             Standard Nuclear Orientation (Angstroms)
    I     Atom           X                Y                Z
 ----------------------------------------------------------------
    1      C      10.3251908768     2.1844413932    -2.3581369808
    2      C       9.4903091250     2.8065045913    -1.4311942436
    3      N      10.0359315089     0.9645225398    -2.8048460685
    4      C       8.5170713703     2.0683235759    -0.7836496031
    5      C       9.1286964911     0.2003568417    -2.1977790142
    6      C       8.3365020660     0.6949828073    -1.0623283781
    7      C       7.2000578209    -0.1167685228    -0.4773461085
    8      C       6.7602241433     0.1683611164     0.8021711539
    9      C       6.3700796726    -1.0729510886    -1.1986027718
   10      N       5.6587975240    -0.3837616077     1.3446828127
   11      N       6.6141359980    -1.4237283540    -2.4408156441
   12      C       5.2705552190    -1.6941298334    -0.6381565720
   13      C       4.9732215227    -1.4125490909     0.7246563126
   14      S       5.5090361845    -2.5632670949    -2.8049692657
   15      N       4.6537211643    -2.6202235759    -1.4003187129
   16      C       3.8907283894    -2.0563015754     1.4912829199
   17      S       2.7998206481    -3.2451711283     0.7837926470
   18      C       3.5582141448    -1.8973992876     2.8739030196
   19      C       1.9912166592    -3.5597205369     2.3403180271
   20      S       4.2139182846    -0.7717928726     4.0375035867
   21      C       2.3982028575    -2.6244068866     3.3004141733
   22      C       0.9321976015    -4.4480318153     2.5898469994
   23      C       2.9224696556    -1.3684246353     5.1341881259
   24      C       1.9907348973    -2.2672797375     4.5857468387
   25      N       0.8157461311    -5.5033164545     1.7523988605
   26      S      -0.2355234051    -4.4686541026     3.9279969805
   27      C      -0.3030292665    -6.2499771520     2.0444988647
   28      C      -0.9324848758    -5.8344314031     3.1619662542
   29      C      11.3254806030     3.0541067185    -3.0822196318
   30      H       9.6359828938     3.8479353426    -1.1593741867
   31      H       7.9096560634     2.6113276252    -0.0656438598
   32      H       9.0475864581    -0.7981240928    -2.6253804477
   33      H       7.2812377782     1.0219686232     1.2331653725
   34      H       2.9953282501    -1.0209960578     6.1555940240
   35      H       1.1994572411    -2.6360148965     5.2285711174
   36      H      -0.6229171825    -7.0679667058     1.4128337548
   37      H      -1.9289067365    -6.0580316444     3.5197349050
   38      H      11.8374252755     2.4254224413    -3.8214210468
   39      C      12.4783192472     3.6285192120    -2.2161951818
   40      H      10.7860993798     3.8392236661    -3.6268087198
   41      H      12.1611845811     4.4078989593    -1.5129094554
   42      H      13.1363337555     4.1806761176    -2.8997305930
   43      C      13.1998991245     2.5066706265    -1.4350189970
   44      H      12.4779676874     2.0028683104    -0.7804915137
   45      C      14.4811806404     3.0739507430    -0.7224890351
   46      H      13.4678375107     1.8483192481    -2.2699324558
   47      H      14.2089629264     3.9169265481    -0.0748361125
   48      H      15.0548909027     3.6128564285    -1.4870812120
   49      C      15.2338777791     1.9576198872     0.0751270617
   50      H      14.5584982018     1.6627039247     0.8878582606
   51      C      16.5486101658     2.5723348309     0.7171802443
   52      H      15.6036777984     1.1428035180    -0.5599266605
   53      H      17.2088586499     3.1387157173     0.0483651498
   54      H      17.1663404697     1.7764628075     1.1526650248
   55      H      16.3694261868     3.3487233238     1.4707616996
   56      C      -5.7271041011     6.3557714541     0.7679859318
   57      C      -4.9652312554     5.8208320445    -0.2297533102
   58      N      -6.5186244160     5.6592223265     1.5992138813
   59      C      -5.0235255642     4.3793576300    -0.3536818614
   60      C      -6.5723550004     4.3075805577     1.5144167520
   61      C      -5.8238994493     3.5868258867     0.5153872268
   62      C      -5.8772109519     2.0953492015     0.4227147880
   63      C      -4.6848767528     1.3413333893     0.2202368572
   64      C      -7.0689123510     1.3668568795     0.4889017372
   65      N      -4.6712999077     0.0310670314    -0.1034740334
   66      N      -8.2667309958     1.9375056507     0.6983402106
   67      C      -7.1157469068     0.0117628867     0.1940343174
   68      C      -5.8854528711    -0.6244226425    -0.1355344283
   69      S      -9.3282658729     0.7183720798     0.5282606969
   70      N      -8.3293149042    -0.5783878933     0.1055426654
   71      C      -5.8677661467    -2.0335204644    -0.6814826933
   72      S      -7.1235974333    -2.7895576913    -1.7036512173
   73      C      -4.8778914076    -2.9322962012    -0.4103735348
   74      C      -6.1978461085    -4.2386605670    -1.9653367920
   75      S      -3.6845434336    -2.9562551367     0.8455016908
   76      C      -5.1288078381    -4.1533236042    -1.0822061226
   77      C      -6.5901588422    -5.3840793427    -2.6783084235
   78      C      -3.3937960879    -4.6704502040     0.4623003702
   79      C      -4.2243214892    -5.1549714581    -0.5716994905
   80      N      -5.7971046333    -6.4483462042    -2.7252878793
   81      S      -7.9997159580    -5.4906022835    -3.7656425949
   82      C      -6.3233858243    -7.4634865862    -3.4105287952
   83      C      -7.6128885913    -7.1965647384    -3.8170399769
   84      C      -5.5101487194     7.8524424037     1.1692482286
   85      H      -4.3681890526     6.4285727708    -0.9033984822
   86      H      -4.3638339956     3.9123929104    -1.0791851247
   87      H      -7.2325499174     3.7682042068     2.1928626406
   88      H      -3.7769469764     1.9225684351     0.0657721601
   89      H      -2.6648638973    -5.1671448087     1.0901780106
   90      H      -4.2810246634    -6.1920813254    -0.8819846387
   91      H      -5.8093028593    -8.4142290902    -3.4610104367
   92      H      -8.2146657585    -7.9192920097    -4.3525981273
   93      H      -5.9800612918     8.0832448027     2.1328718206
   94      C      -5.8738579914     8.8110734230     0.0103715594
   95      H      -4.4515371242     7.9306769498     1.4460276466
   96      H      -6.9024970012     8.6469991861    -0.3344754102
   97      H      -5.1879962785     8.6432267417    -0.8289276735
   98      C      -5.6142251536    10.3106383179     0.4067084306
   99      H      -5.8887607010    10.3774793561     1.4665062929
  100      C      -6.1316353866    11.3350943442    -0.5785938077
  101      H      -4.5262486159    10.4392575551     0.4755934450
  102      H      -7.2184625172    11.3569054910    -0.7286106803
  103      H      -5.6450604114    11.1096111919    -1.5352124054
  104      C      -5.7081201125    12.7743079732    -0.1827782665
  105      H      -5.8267782744    13.0179432735     0.8804879660
  106      C      -6.4079995996    13.7797253783    -1.1805505577
  107      H      -4.6161004362    12.7618431360    -0.2918958840
  108      H      -7.4320704466    14.0132715551    -0.8660333347
  109      H      -6.3768067418    13.4400000647    -2.2224736435
  110      H      -5.8582062086    14.7199674306    -1.0449699156
 ----------------------------------------------------------------
 Molecular Point Group                 C1    NOp =  1
 Largest Abelian Subgroup              C1    NOp =  1
 Nuclear Repulsion Energy = 10464.6762599227 hartrees
 There are      270 alpha and      270 beta electrons
 Requested basis set is 6-31G(d,p)
 There are 406 shells and 1262 basis functions

 Total QAlloc Memory Limit  20000 MB
 Mega-Array Size      4888 MB
 MEM_STATIC part      5000 MB
 A cutoff of  1.0D-08 yielded  12318 shell pairs
 There are    128568 function pairs
 
 -------------------------------------------------------
 OpenMP Integral Computing Module                       
 Release: version 1.0, May 2013, Q-Chem Inc. Pittsburgh 
 -------------------------------------------------------
 Integral Job Info:
 Integral job number is                      11
 Integral operator is                         1
 short-range coefficients                     0
 long-range coefficients              100000000
 Omega coefficients                           0
 if combine SR and LR in K                    0
 Integral screening is                        0
 Integral computing path is                   2
 max size of driver memory is            800000
 size of driver memory is                593474
 size of scratch memory is             15166112
 max col of scratch BK array               1296
 max len of scratch array in speh3          155
 max len of scratch index in speh4           18
 max int batch size is                      520
 min int batch size is                       52
 fixed nKL is                                52
 max L of basis functions is                  2
 order of int derivative is                   0
 number of shells is                        406
 number of basis is                        1262
 number of cartesian basis is              1262
 number of contracted shell pairs         12318
 number of primitive shell pairs          40854
 maxK2 (contraction) of shell pair           36
 max number of K2 of shell pair               1
 max number of CS2 of shell pair           1246
 max number of PS2 of shell pair           7476
 mem total for path MDJ                  276424
 -------------------------------------------------------
 Smallest overlap matrix eigenvalue = 4.28E-04

 Scale SEOQF with 1.000000e-03/1.000000e-02/1.000000e-02

 Standard Electronic Orientation quadrupole field applied
 Nucleus-field energy     =     0.0000000705 hartrees
 Guess from superposition of atomic densities
 Warning:  Energy on first SCF cycle will be non-variational
 A restricted hybrid HF-DFT SCF calculation will be
 performed using Pulay DIIS extrapolation
 Exchange:     0.2000 Hartree-Fock + 0.0800 Slater + 0.7200 B88
 Correlation:  0.1900 VWN1RPA + 0.8100 LYP
 Using SG-1 standard quadrature grid
 SCF converges when DIIS error is below 1.0E-05
 using 16 threads for integral computing 
 -------------------------------------------------------
 OpenMP BLAS3 based DFT computing Module                
 Release: version 1.0, May 2013, Q-Chem Inc. Pittsburgh 
 -------------------------------------------------------
 ---------------------------------------
  Cycle       Energy         DIIS Error
 ---------------------------------------
    1   -5679.8532876383      2.13E-02
    2   -5662.5130027766      2.12E-03
    3   -5660.0835235138      3.67E-03
    4   -5662.9734821072      1.40E-03
    5   -5663.4693951516      3.63E-04
    6   -5663.4676429353      3.87E-04
    7   -5663.4987917759      1.26E-04
    8   -5663.5016853532      4.63E-05
    9   -5663.5020058267      2.51E-05
   10   -5663.5021305883      6.73E-06 Convergence criterion met
 ---------------------------------------
 SCF time:  CPU 991.58 s  wall 82.91 s
 SCF   energy in the final basis set = -5663.5021305883
 Total energy in the final basis set = -5663.5021305883
 
 --------------------------------------------------------------
 
                    Orbital Energies (a.u.)
 --------------------------------------------------------------
 
 Alpha MOs
 -- Occupied --
-88.990 -88.986 -88.930 -88.925 -88.924 -88.923 -88.918 -88.907
-14.398 -14.390 -14.390 -14.381 -14.357 -14.349 -14.341 -14.335
-14.328 -14.324 -10.268 -10.268 -10.267 -10.267 -10.258 -10.257
-10.255 -10.254 -10.246 -10.242 -10.242 -10.239 -10.238 -10.236
-10.235 -10.234 -10.232 -10.229 -10.228 -10.227 -10.226 -10.226
-10.226 -10.225 -10.225 -10.225 -10.224 -10.223 -10.223 -10.221
-10.219 -10.216 -10.212 -10.211 -10.207 -10.202 -10.196 -10.194
-10.187 -10.184 -10.184 -10.184 -10.182 -10.181 -10.181 -10.178
-10.177 -10.177 -10.176 -10.172  -8.045  -8.042  -7.991  -7.986
 -7.983  -7.982  -7.977  -7.968  -6.010  -6.007  -6.005  -6.003
 -6.001  -5.999  -5.955  -5.952  -5.949  -5.948  -5.947  -5.947
 -5.947  -5.943  -5.943  -5.942  -5.941  -5.939  -5.939  -5.938
 -5.933  -5.932  -5.929  -5.924  -1.046  -1.041  -0.973  -0.964
 -0.951  -0.947  -0.940  -0.934  -0.915  -0.914  -0.908  -0.906
 -0.843  -0.841  -0.832  -0.825  -0.809  -0.809  -0.806  -0.806
 -0.804  -0.800  -0.798  -0.793  -0.784  -0.781  -0.766  -0.763
 -0.750  -0.747  -0.741  -0.736  -0.722  -0.720  -0.710  -0.704
 -0.693  -0.691  -0.676  -0.675  -0.655  -0.653  -0.645  -0.642
 -0.636  -0.635  -0.628  -0.623  -0.613  -0.610  -0.599  -0.594
 -0.593  -0.589  -0.583  -0.581  -0.580  -0.578  -0.577  -0.574
 -0.550  -0.545  -0.541  -0.535  -0.531  -0.523  -0.520  -0.505
 -0.505  -0.504  -0.502  -0.502  -0.486  -0.484  -0.477  -0.476
 -0.472  -0.472  -0.470  -0.467  -0.466  -0.462  -0.448  -0.446
 -0.442  -0.440  -0.439  -0.437  -0.434  -0.433  -0.432  -0.430
 -0.429  -0.428  -0.424  -0.423  -0.416  -0.416  -0.414  -0.409
 -0.409  -0.407  -0.402  -0.400  -0.398  -0.397  -0.396  -0.396
 -0.395  -0.392  -0.391  -0.390  -0.386  -0.384  -0.383  -0.379
 -0.379  -0.378  -0.375  -0.374  -0.366  -0.361  -0.360  -0.354
 -0.353  -0.352  -0.351  -0.350  -0.347  -0.346  -0.345  -0.343
 -0.342  -0.337  -0.335  -0.335  -0.333  -0.332  -0.327  -0.327
 -0.324  -0.317  -0.315  -0.314  -0.307  -0.303  -0.299  -0.298
 -0.295  -0.294  -0.293  -0.290  -0.287  -0.283  -0.281  -0.279
 -0.274  -0.272  -0.267  -0.264  -0.259  -0.248  -0.245  -0.243
 -0.242  -0.240  -0.232  -0.232  -0.193  -0.189
 -- Virtual --
 -0.117  -0.114  -0.078  -0.075  -0.040  -0.038  -0.030  -0.022
 -0.020  -0.018  -0.016  -0.013  -0.006  -0.002  -0.001   0.002
  0.003   0.005   0.016   0.018   0.026   0.029   0.033   0.034
  0.049   0.051   0.059   0.064   0.067   0.073   0.083   0.088
  0.095   0.098   0.098   0.102   0.104   0.104   0.105   0.110
  0.112   0.114   0.115   0.120   0.122   0.123   0.123   0.126
  0.129   0.131   0.132   0.134   0.136   0.138   0.145   0.146
  0.148   0.152   0.153   0.157   0.158   0.159   0.163   0.164
  0.166   0.168   0.169   0.173   0.176   0.176   0.178   0.181
  0.183   0.188   0.188   0.189   0.191   0.191   0.197   0.198
  0.200   0.200   0.204   0.209   0.212   0.213   0.217   0.219
  0.219   0.222   0.223   0.226   0.230   0.231   0.232   0.235
  0.236   0.240   0.242   0.246   0.247   0.251   0.252   0.254
  0.258   0.259   0.261   0.263   0.272   0.274   0.276   0.277
  0.280   0.283   0.285   0.286   0.289   0.295   0.299   0.301
  0.306   0.308   0.311   0.311   0.316   0.321   0.323   0.326
  0.327   0.329   0.330   0.334   0.337   0.340   0.340   0.342
  0.342   0.350   0.353   0.358   0.362   0.363   0.365   0.370
  0.371   0.372   0.379   0.383   0.389   0.392   0.397   0.401
  0.406   0.407   0.410   0.414   0.416   0.421   0.426   0.429
  0.437   0.438   0.443   0.447   0.457   0.461   0.466   0.466
  0.472   0.476   0.486   0.489   0.492   0.496   0.498   0.499
  0.504   0.506   0.508   0.508   0.510   0.511   0.515   0.516
  0.517   0.523   0.525   0.525   0.527   0.530   0.530   0.532
  0.533   0.537   0.538   0.539   0.542   0.543   0.548   0.548
  0.550   0.552   0.552   0.556   0.557   0.558   0.561   0.562
  0.563   0.566   0.566   0.569   0.573   0.577   0.580   0.581
  0.581   0.586   0.587   0.588   0.589   0.590   0.592   0.592
  0.595   0.599   0.601   0.604   0.606   0.609   0.611   0.614
  0.615   0.617   0.618   0.621   0.623   0.625   0.626   0.627
  0.631   0.632   0.633   0.635   0.638   0.639   0.642   0.643
  0.643   0.645   0.652   0.657   0.658   0.661   0.662   0.668
  0.669   0.673   0.675   0.680   0.682   0.684   0.686   0.691
  0.692   0.694   0.696   0.706   0.707   0.712   0.715   0.716
  0.719   0.723   0.731   0.732   0.735   0.737   0.739   0.743
  0.746   0.751   0.752   0.753   0.754   0.758   0.767   0.767
  0.768   0.773   0.778   0.780   0.782   0.787   0.788   0.791
  0.794   0.796   0.797   0.798   0.798   0.803   0.806   0.808
  0.809   0.810   0.814   0.816   0.818   0.819   0.822   0.823
  0.824   0.824   0.827   0.828   0.830   0.832   0.835   0.837
  0.839   0.840   0.841   0.845   0.846   0.848   0.850   0.852
  0.852   0.854   0.854   0.856   0.860   0.862   0.864   0.868
  0.871   0.874   0.875   0.878   0.883   0.884   0.887   0.890
  0.892   0.893   0.898   0.900   0.901   0.901   0.905   0.909
  0.912   0.914   0.916   0.917   0.920   0.922   0.924   0.926
  0.927   0.930   0.934   0.935   0.937   0.938   0.943   0.947
  0.947   0.948   0.949   0.951   0.952   0.953   0.956   0.958
  0.964   0.967   0.968   0.970   0.973   0.973   0.975   0.978
  0.981   0.982   0.984   0.989   0.992   0.993   0.995   1.000
  1.003   1.005   1.006   1.010   1.011   1.016   1.018   1.020
  1.021   1.026   1.029   1.032   1.033   1.036   1.037   1.046
  1.051   1.053   1.057   1.057   1.063   1.066   1.069   1.071
  1.073   1.081   1.092   1.095   1.099   1.100   1.106   1.108
  1.111   1.115   1.124   1.132   1.134   1.141   1.143   1.150
  1.151   1.157   1.159   1.165   1.167   1.171   1.175   1.181
  1.182   1.184   1.197   1.205   1.211   1.213   1.221   1.224
  1.235   1.235   1.240   1.248   1.254   1.261   1.263   1.264
  1.267   1.275   1.276   1.281   1.283   1.286   1.288   1.299
  1.306   1.307   1.312   1.315   1.320   1.320   1.324   1.329
  1.331   1.332   1.337   1.342   1.346   1.348   1.351   1.358
  1.358   1.361   1.363   1.375   1.377   1.378   1.389   1.399
  1.403   1.407   1.409   1.413   1.415   1.422   1.427   1.431
  1.434   1.440   1.446   1.452   1.455   1.461   1.464   1.466
  1.469   1.471   1.476   1.487   1.487   1.491   1.493   1.500
  1.516   1.521   1.527   1.536   1.536   1.547   1.551   1.554
  1.558   1.568   1.582   1.582   1.584   1.587   1.596   1.605
  1.608   1.615   1.629   1.631   1.636   1.640   1.642   1.646
  1.652   1.656   1.660   1.664   1.665   1.665   1.670   1.676
  1.681   1.682   1.684   1.687   1.696   1.699   1.710   1.714
  1.716   1.721   1.725   1.725   1.731   1.734   1.735   1.741
  1.746   1.755   1.756   1.760   1.763   1.771   1.772   1.776
  1.781   1.782   1.782   1.787   1.792   1.793   1.799   1.804
  1.815   1.816   1.819   1.824   1.826   1.834   1.834   1.840
  1.842   1.843   1.845   1.852   1.854   1.864   1.865   1.869
  1.870   1.874   1.874   1.879   1.881   1.883   1.889   1.893
  1.895   1.900   1.905   1.906   1.910   1.910   1.914   1.917
  1.921   1.930   1.933   1.933   1.935   1.937   1.942   1.947
  1.949   1.951   1.957   1.967   1.968   1.983   1.985   1.988
  1.992   1.997   2.000   2.002   2.005   2.014   2.023   2.024
  2.024   2.032   2.043   2.044   2.053   2.055   2.058   2.066
  2.066   2.073   2.078   2.078   2.086   2.087   2.090   2.095
  2.100   2.104   2.109   2.114   2.116   2.121   2.123   2.127
  2.129   2.136   2.137   2.146   2.152   2.155   2.156   2.158
  2.160   2.162   2.169   2.172   2.173   2.176   2.180   2.183
  2.184   2.189   2.195   2.196   2.203   2.205   2.211   2.220
  2.221   2.223   2.229   2.231   2.236   2.240   2.248   2.254
  2.257   2.260   2.264   2.266   2.267   2.270   2.277   2.277
  2.281   2.282   2.285   2.287   2.293   2.295   2.297   2.302
  2.303   2.304   2.306   2.309   2.314   2.314   2.319   2.321
  2.323   2.328   2.334   2.344   2.345   2.352   2.353   2.360
  2.361   2.368   2.374   2.374   2.380   2.384   2.384   2.388
  2.391   2.399   2.401   2.404   2.405   2.409   2.415   2.416
  2.421   2.424   2.426   2.430   2.433   2.435   2.437   2.444
  2.445   2.449   2.450   2.454   2.458   2.458   2.462   2.467
  2.473   2.478   2.481   2.483   2.487   2.491   2.493   2.496
  2.497   2.509   2.515   2.521   2.525   2.528   2.529   2.530
  2.536   2.537   2.546   2.547   2.550   2.552   2.560   2.561
  2.573   2.577   2.580   2.586   2.592   2.597   2.598   2.600
  2.603   2.610   2.611   2.622   2.624   2.630   2.634   2.635
  2.642   2.647   2.648   2.654   2.654   2.663   2.664   2.668
  2.673   2.684   2.686   2.688   2.689   2.693   2.695   2.698
  2.699   2.703   2.713   2.714   2.724   2.726   2.734   2.735
  2.744   2.751   2.756   2.762   2.770   2.777   2.781   2.789
  2.789   2.794   2.796   2.813   2.821   2.829   2.831   2.832
  2.840   2.843   2.847   2.852   2.857   2.858   2.862   2.867
  2.872   2.874   2.877   2.877   2.888   2.888   2.893   2.895
  2.899   2.916   2.919   2.922   2.922   2.929   2.933   2.944
  2.947   2.956   2.962   2.973   2.985   2.989   3.008   3.021
  3.022   3.033   3.043   3.050   3.060   3.067   3.084   3.123
  3.160   3.170   3.179   3.182   3.194   3.202   3.210   3.229
  3.239   3.247   3.252   3.255   3.257   3.270   3.272   3.286
  3.286   3.298   3.299   3.306   3.312   3.321   3.322   3.337
  3.338   3.346   3.350   3.356   3.389   3.405   3.418   3.420
  3.424   3.436   3.459   3.472   3.484   3.487   3.516   3.525
  3.533   3.545   3.553   3.567   3.574   3.585   3.590   3.604
  3.619   3.637   3.706   3.732   3.841   3.847   3.908   3.926
  3.934   3.946   3.951   3.952   3.961   3.980   3.985   3.988
  4.012   4.067   4.077   4.080   4.081   4.089   4.117   4.119
  4.124   4.129   4.141   4.144   4.152   4.168   4.184   4.197
  4.207   4.213   4.233   4.243   4.247   4.251   4.256   4.263
  4.276   4.293   4.327   4.343   4.363   4.368   4.374   4.396
  4.414   4.417   4.430   4.431   4.453   4.463   4.472   4.486
  4.495   4.511   4.512   4.524   4.557   4.577   4.635   4.636
  4.675   4.691   4.701   4.716   4.754   4.758   4.774   4.790
 --------------------------------------------------------------
 
          Ground-State Mulliken Net Atomic Charges

     Atom                 Charge (a.u.)
  ----------------------------------------
      1 C                     0.281828
      2 C                    -0.106133
      3 N                    -0.477891
      4 C                    -0.077448
      5 C                     0.088586
      6 C                    -0.000386
      7 C                     0.060353
      8 C                     0.064234
      9 C                     0.233973
     10 N                    -0.537118
     11 N                    -0.545182
     12 C                     0.212900
     13 C                     0.298555
     14 S                     0.595698
     15 N                    -0.561256
     16 C                    -0.223360
     17 S                     0.377673
     18 C                    -0.124767
     19 C                    -0.207762
     20 S                     0.299063
     21 C                     0.128342
     22 C                     0.042649
     23 C                    -0.306141
     24 C                    -0.088541
     25 N                    -0.436422
     26 S                     0.276839
     27 C                     0.127697
     28 C                    -0.319456
     29 C                    -0.243821
     30 H                     0.090288
     31 H                     0.099478
     32 H                     0.124510
     33 H                     0.104735
     34 H                     0.127832
     35 H                     0.128636
     36 H                     0.122588
     37 H                     0.135630
     38 H                     0.114491
     39 C                    -0.192232
     40 H                     0.110651
     41 H                     0.084849
     42 H                     0.094319
     43 C                    -0.173088
     44 H                     0.100866
     45 C                    -0.175875
     46 H                     0.100728
     47 H                     0.089620
     48 H                     0.091372
     49 C                    -0.169519
     50 H                     0.104472
     51 C                    -0.331887
     52 H                     0.104835
     53 H                     0.100936
     54 H                     0.096867
     55 H                     0.099276
     56 C                     0.271113
     57 C                    -0.097957
     58 N                    -0.489408
     59 C                    -0.101267
     60 C                     0.096584
     61 C                     0.029911
     62 C                     0.016831
     63 C                     0.059170
     64 C                     0.233476
     65 N                    -0.480191
     66 N                    -0.532741
     67 C                     0.232682
     68 C                     0.224710
     69 S                     0.597513
     70 N                    -0.558703
     71 C                    -0.212417
     72 S                     0.312673
     73 C                    -0.081995
     74 C                    -0.200834
     75 S                     0.270364
     76 C                     0.114032
     77 C                     0.065146
     78 C                    -0.313878
     79 C                    -0.048930
     80 N                    -0.433322
     81 S                     0.253222
     82 C                     0.131245
     83 C                    -0.305683
     84 C                    -0.230462
     85 H                     0.099240
     86 H                     0.098980
     87 H                     0.118994
     88 H                     0.111307
     89 H                     0.126561
     90 H                     0.122232
     91 H                     0.115801
     92 H                     0.120347
     93 H                     0.115950
     94 C                    -0.182468
     95 H                     0.105238
     96 H                     0.106742
     97 H                     0.090764
     98 C                    -0.183101
     99 H                     0.091557
    100 C                    -0.166351
    101 H                     0.086606
    102 H                     0.093880
    103 H                     0.092936
    104 C                    -0.180621
    105 H                     0.095814
    106 C                    -0.325667
    107 H                     0.090861
    108 H                     0.109047
    109 H                     0.107401
    110 H                     0.099987
  ----------------------------------------
  Sum of atomic charges =     0.000000

 -----------------------------------------------------------------
                    Cartesian Multipole Moments
 -----------------------------------------------------------------
    Charge (ESU x 10^10)
                 0.0000
    Dipole Moment (Debye)
         X      -0.8069      Y       0.9047      Z       1.0141
       Tot       1.5805
    Quadrupole Moments (Debye-Ang)
        XX    -443.4413     XY      38.8894     YY    -409.8401
        XZ      15.0416     YZ      -4.1574     ZZ    -431.9538
    Octopole Moments (Debye-Ang^2)
       XXX     -81.6718    XXY       2.1780    XYY     -79.8939
       YYY    -127.5797    XXZ     -56.4611    XYZ      -8.9081
       YYZ    -136.8116    XZZ     -73.9503    YZZ     -96.6269
       ZZZ      85.9735
    Hexadecapole Moments (Debye-Ang^3)
      XXXX -133409.5481   XXXY    3366.3315   XXYY  -31133.2209
      XYYY    1997.4895   YYYY  -56985.1488   XXXZ    1063.2102
      XXYZ     262.7892   XYYZ     669.5287   YYYZ     814.2110
      XXZZ  -24644.3419   XYZZ     577.1446   YYZZ  -11576.0830
      XZZZ     428.4181   YZZZ     106.4953   ZZZZ  -11580.1656
 -----------------------------------------------------------------
Archival summary:
1\1\mn246\SP\ProcedureUnspecified\6-31G**\8105042\afmv_a\FriOct1213:11:232018FriOct1213:11:232018\0\\#,ProcedureUnspecified,6-31G**,\\0,1\S\C,1,1.76183\C,2,1.43089,1,108.606\C,3,1.4339,2,114.778,1,4.91015,0\C,4,1.39487,3,112.371,2,170.135,0\H,5,1.08412,4,132.262,3,176.813,0\C,4,1.4008,3,111.698,2,-12.4258,0\C,7,1.40459,4,121.304,3,-175.422,0\N,8,1.35222,7,116.645,4,164.97,0\C,9,1.3764,8,111.218,7,176.137,0\H,10,1.08187,9,121.775,8,-172.972,0\C,10,1.34819,9,112.842,8,6.15308,0\H,12,1.08206,10,129.814,9,-164.518,0\C,5,1.40601,4,109.241,3,5.10016,0\H,14,1.08133,5,128.207,4,169.373,0\C,2,1.47442,1,122.713,3,-178.08,0\N,16,1.38306,2,117.104,1,-172.555,0\C,17,1.34622,16,122.004,2,-172.156,0\H,18,1.08897,17,123.603,16,-175.754,0\C,18,1.38272,17,123.27,16,-8.46554,0\C,16,1.42301,2,124.4,1,1.35674,0\N,21,1.34871,16,125.557,2,3.09622,0\C,21,1.38164,16,117.762,2,175.961,0\N,23,1.31366,21,114.291,16,-177.296,0\C,20,1.51415,18,119.058,17,-171.698,0\C,25,1.41292,20,122.739,18,34.6347,0\H,26,1.08597,25,123.02,20,-5.62626,0\C,26,1.38254,25,121.102,20,173.925,0\H,28,1.08613,26,119.285,25,177.02,0\C,28,1.39399,26,119.656,25,1.13896,0\N,30,1.33095,28,120.135,26,-12.5585,0\C,31,1.3325,30,121.38,28,14.0654,0\H,32,1.08921,31,113.426,30,175.698,0\C,30,1.51036,28,117.29,26,-177.154,0\H,34,1.09716,30,107.583,28,175.589,0\H,34,1.09723,30,108.928,28,59.0435,0\C,34,1.55209,30,115.946,28,-68.5736,0\H,37,1.09664,34,113.957,30,71.0087,0\H,37,1.09776,34,106.496,30,-176.833,0\C,37,1.54579,34,111.107,30,-52.6824,0\H,40,1.09649,37,99.4982,34,-55.21,0\H,40,1.097,37,109.125,34,59.7647,0\C,40,1.572,37,110.343,34,-172.221,0\H,43,1.09734,40,106.71,37,51.0588,0\H,43,1.09734,40,110.032,37,-55.8794,0\C,43,1.56491,40,111.447,37,179.903,0\H,46,1.09711,43,105.857,40,66.0896,0\H,46,1.09726,43,113.381,40,-62.0282,0\C,46,1.58702,43,109.169,40,-177.502,0\H,49,1.09671,46,114.636,43,-64.455,0\H,49,1.09728,46,116.86,43,50.3389,0\H,49,1.09757,46,110.237,43,171.551,0\S,24,1.62862,23,105.796,21,2.98315,0\S,12,1.71403,10,115.226,9,-1.60118,0\S,3,1.74668,2,128.905,1,174.757,0\H,13,2.69036,12,83.3901,10,54.3213,0\C,56,1.08272,13,149.291,12,148.469,0\C,57,1.41198,56,131.548,13,111.221,0\H,58,1.08402,57,124.658,56,-2.78971,0\C,58,1.44292,57,112.929,56,-175.618,0\C,60,1.38926,58,131.653,57,171.331,0\C,61,1.40507,60,125.979,58,5.54412,0\N,62,1.32808,61,120.297,60,11.705,0\C,63,1.33306,62,113.121,61,-178.4,0\H,64,1.08201,63,120.367,62,175.439,0\C,64,1.37816,63,111.934,62,4.74825,0\H,66,1.08226,64,122.472,63,177.565,0\C,60,1.41606,58,108.641,57,-2.11396,0\C,68,1.36424,60,110.195,58,168.727,0\C,69,1.51127,68,123.434,60,178.955,0\N,70,1.38017,69,116.163,68,-40.0967,0\C,71,1.34973,70,117.243,69,-171.915,0\H,72,1.08905,71,118.405,70,168.316,0\C,70,1.42372,69,120.689,68,145.891,0\N,74,1.35235,70,124.424,69,-2.73431,0\C,74,1.3876,70,117.155,69,170.197,0\N,76,1.34323,74,114.703,70,-175.437,0\C,76,1.3983,74,121.836,70,-2.17314,0\C,78,1.4953,76,123.169,74,-169.782,0\C,79,1.42267,78,122.537,76,135.619,0\H,80,1.0861,79,120.681,78,4.2589,0\C,79,1.44143,78,121.546,76,-45.3802,0\H,82,1.08953,79,119.912,78,2.97569,0\N,82,1.35536,79,121.428,78,-179.767,0\C,84,1.34262,82,120.133,79,1.94628,0\C,85,1.36459,84,125.341,82,-2.26757,0\H,86,1.0861,85,122.756,84,-177.59,0\C,85,1.56464,84,114.786,82,166.983,0\H,88,1.09666,85,111.546,84,-4.86708,0\H,88,1.09699,85,105.47,84,-112.715,0\C,88,1.54734,85,111.59,84,125.67,0\H,91,1.09681,88,109.349,85,64.4906,0\H,91,1.09724,88,111.291,85,-55.7795,0\C,91,1.57264,88,111.296,85,178.37,0\H,94,1.09682,91,105.088,88,36.6631,0\H,94,1.09772,91,106.928,88,-69.4332,0\C,94,1.51263,91,115.161,88,171.222,0\H,97,1.09668,94,106.092,91,58.0283,0\H,97,1.09735,94,116.186,91,-63.1666,0\C,97,1.55157,94,111.634,91,174.228,0\H,100,1.09726,97,115.065,94,44.5527,0\H,100,1.09753,97,103.632,94,-65.8098,0\C,100,1.57995,97,107.954,94,174.505,0\H,103,1.09635,100,112.978,97,42.8168,0\H,103,1.09644,100,111.6,97,-83.6606,0\H,103,1.09759,100,104.196,97,164.164,0\S,77,1.62544,76,104.325,74,-0.844162,0\S,68,1.73259,60,117.002,58,3.20707,0\S,61,1.73937,60,105.233,58,-161.611,0\S,66,1.75002,64,112.766,63,-17.7321,0\\\@

 Total job time:  86.03s(wall), 1001.74s(cpu) 
 Fri Oct 12 13:11:23 2018

        *************************************************************
        *                                                           *
        *  Thank you very much for using Q-Chem.  Have a nice day.  *
        *                                                           *
        *************************************************************


