
Running Job 1 of 1 ./10/39.qcin
qchem ./10/39.qcin_18177.0 /tmpu/cab_g/afmv_a/scratch_qchem/qchem18177/ 1
/tmpu/appuserlic/qchem4.4/serial-multicore/exe/qcprog.exe_s ./10/39.qcin_18177.0 /tmpu/cab_g/afmv_a/scratch_qchem/qchem18177/
Check license passed

                  Welcome to Q-Chem
     A Quantum Leap Into The Future Of Chemistry


 Q-Chem 4.4, Q-Chem, Inc., Pleasanton, CA (2016)

 Y. Shao,  Z. Gan,  E. Epifanovsky,  A. T. B. Gilbert,  M. Wormit,  
 J. Kussmann,  A. W. Lange,  A. Behn,  J. Deng,  X. Feng,  D. Ghosh,  
 M. Goldey,  P. R. Horn,  L. D. Jacobson,  I. Kaliman,  F. Rob,  
 R. Z. Khaliullin,  T. Kus,  A. Landau,  J. Liu,  E. I. Proynov,  Y. M. Rhee,  
 R. M. Richard,  M. A. Rohrdanz,  R. P. Steele,  E. J. Sundstrom,  
 H. L. Woodcock III,  P. M. Zimmerman,  D. Zuev,  B. Albrecht,  E. Alguire,  
 B. Austin,  S. A. Baeppler,  G. J. O. Beran,  Y. A. Bernard,  E. Berquist,  
 K. Brandhorst,  K. B. Bravaya,  S. T. Brown,  D. Casanova,  C.-M. Chang,  
 Y. Chen,  S. H. Chien,  K. D. Closser,  M. P. Coons,  D. L. Crittenden,  
 S. Dasgupta,  M. Diedenhofen,  R. A. DiStasio Jr.,  H. Do,  A. D. Dutoi,  
 R. G. Edgar,  P.-T. Fang,  S. Fatehi,  Q. Feng,  L. Fusti-Molnar,  
 A. Ghysels,  A. Golubeva-Zadorozhnaya,  J. Gomes,  A. Gunina,  
 M. W. D. Hanson-Heine,  P. H. P. Harbach,  A. W. Hauser,  J. E. Herr,  
 E. G. Hohenstein,  Z. C. Holden,  K. Hui,  T.-C. Jagau,  H. Ji,  B. Kaduk,  
 K. Khistyaev,  Jaehoon Kim,  Jihan Kim,  R. A. King,  P. Klunzinger,  
 K. Koh,  D. Kosenkov,  T. Kowalczyk,  C. M. Krauter,  A. Kunitsa,  
 K. U. Lao,  A. Laurent,  K. V. Lawler,  J. Lee,  D. Lefrancois,  S. Lehtola,  
 S. V. Levchenko,  C. Y. Lin,  Y.-S. Lin,  F. Liu,  E. Livshits,  
 R. C. Lochan,  A. Luenser,  P. Manohar,  S. F. Manzer,  S.-P. Mao,  Y. Mao,  
 N. Mardirossian,  A. V. Marenich,  L. A. Martinez-Martinez,  S. A. Maurer,  
 N. J. Mayhall,  J.-M. Mewes,  A. F. Morrison,  K. Nanda,  T. S. Nguyen-Beck,  
 C. M. Oana,  R. Olivares-Amaya,  D. P. O'Neill,  J. A. Parkhill,  
 T. M. Perrine,  R. Peverati,  P. A. Pieniazek,  F. Plasser,  A. Prociuk,  
 D. R. Rehn,  E. Rosta,  N. J. Russ,  N. Sergueev,  S. M. Sharada,  
 S. Sharma,  D. W. Small,  A. Sodt,  T. Stauch,  T. Stein,  D. Stuck,  
 Y.-C. Su,  A. J. W. Thom,  T. Tsuchimochi,  L. Vogt,  O. Vydrov,  T. Wang,  
 M. A. Watson,  J. Wenzel,  A. White,  C. F. Williams,  V. Vanovschi,  
 K. Yao,  S. Yeganeh,  S. R. Yost,  Z.-Q. You,  I. Y. Zhang,  X. Zhang,  
 Y. Zhao,  B. R. Brooks,  G. K. L. Chan,  D. M. Chipman,  C. J. Cramer,  
 W. A. Goddard III,  M. S. Gordon,  W. J. Hehre,  A. Klamt,  
 H. F. Schaefer III,  M. W. Schmidt,  C. D. Sherrill,  D. G. Truhlar,  
 A. Warshel,  X. Xu,  A. Aspuru-Guzik,  R. Baer,  A. T. Bell,  N. A. Besley,  
 J.-D. Chai,  A. Dreuw,  B. D. Dunietz,  T. R. Furlani,  S. R. Gwaltney,  
 C.-P. Hsu,  Y. Jung,  J. Kong,  D. S. Lambrecht,  W. Liang,  C. Ochsenfeld,  
 V. A. Rassolov,  L. V. Slipchenko,  J. E. Subotnik,  T. Van Voorhis,  
 J. M. Herbert,  A. I. Krylov,  P. M. W. Gill,  M. Head-Gordon

 Contributors to earlier versions of Q-Chem not listed above: 
 R. D. Adamson,  J. Baker,  E. F. C. Byrd,  A. K. Chakraborty,  C.-L. Cheng,  
 H. Dachsel,  R. J. Doerksen,  G. Hawkins,  A. Heyden,  S. Hirata,  
 G. Kedziora,  F. J. Keil,  C. Kelley,  P. P. Korambath,  W. Kurlancheek,  
 A. M. Lee,  M. S. Lee,  D. Liotard,  I. Lotan,  P. E. Maslen,  N. Nair,  
 D. Neuhauser,  R. Olson,  B. Peters,  J. Ritchie,  N. E. Schultz,  
 N. Shenvi,  A. C. Simmonett,  K. S. Thanthiriwatte,  Q. Wu,  W. Zhang

 Please cite Q-Chem as follows:
 Y. Shao et al., Mol. Phys. 113, 184-215 (2015)
 DOI: 10.1080/00268976.2014.952696

 Q-Chem 4.4.2 for Intel X86 Linux

 Parts of Q-Chem use Armadillo 5.200.1 (Boston Tea Smuggler).
 http://arma.sourceforge.net/

 Q-Chem begins on Fri Oct 12 13:27:22 2018  

Host: 
0

     Scratch files written to /tmpu/cab_g/afmv_a/scratch_qchem/qchem18177//
 Dec716 11556_ 22328  22283 4050   
Processing $rem in /tmpu/appuserlic/qchem4.4/serial-multicore/config/preferences.
 MEM_TOTAL  2000 
FILE_GEOM_ORG=        593

Checking the input file for inconsistencies... 	...done.

--------------------------------------------------------------
User input:
--------------------------------------------------------------
$comment
SP
$end

$rem
MEM_STATIC 5000
MEM_TOTAL 20000
JOBTYPE SP
EXCHANGE B3LYP
BASIS 6-31g(d,p)
$end

$molecule
0 1
C           1.880000     11.032000     -2.572000
C           3.006000     11.068000     -1.751000
N           1.122000      9.939000     -2.619000
C           3.482000      9.897000     -1.191000
C           1.547000      8.778000     -2.122000
C           2.832000      8.663000     -1.417000
C           3.239000      7.383000     -0.718000
C           4.575000      7.169000     -0.433000
C           2.335000      6.403000     -0.130000
N           5.014000      6.146000      0.324000
N           1.030000      6.479000     -0.260000
C           2.771000      5.314000      0.600000
C           4.175000      5.127000      0.737000
S           0.434000      5.148000      0.465000
N           1.821000      4.447000      1.006000
C           4.800000      3.973000      1.409000
S           3.861000      2.687000      2.163000
C           6.190000      3.658000      1.536000
C           5.315000      1.733000      2.552000
S           7.578000      4.620000      1.090000
C           6.472000      2.485000      2.311000
C           5.374000      0.494000      3.211000
C           8.547000      3.353000      1.916000
C           7.832000      2.346000      2.588000
N           4.278000     -0.293000      3.122000
S           6.731000     -0.269000      4.066000
C           4.423000     -1.436000      3.875000
C           5.656000     -1.560000      4.406000
C           1.367000     12.350000     -3.102000
H           3.556000     11.992000     -1.598000
H           4.369000      9.994000     -0.572000
H           0.856000      7.954000     -2.295000
H           5.195000      8.018000     -0.717000
H           9.617000      3.441000      1.787000
H           8.397000      1.574000      3.098000
H           3.607000     -2.132000      4.017000
H           6.006000     -2.204000      5.202000
H           0.442000     12.147000     -3.656000
C           2.275000     13.065000     -4.138000
H           1.114000     13.000000     -2.255000
H           3.195000     13.482000     -3.711000
H           1.734000     13.965000     -4.458000
C           2.643000     12.118000     -5.303000
H           3.175000     11.246000     -4.903000
C           3.393000     12.910000     -6.435000
H           1.636000     11.825000     -5.623000
H           4.275000     13.414000     -6.020000
H           2.777000     13.788000     -6.667000
C           3.776000     11.975000     -7.630000
H           4.516000     11.269000     -7.233000
C           4.470000     12.839000     -8.766000
H           2.907000     11.528000     -8.129000
H           3.947000     13.749000     -9.086000
H           4.610000     12.234000     -9.671000
H           5.427000     13.290000     -8.477000
C           3.290000      9.359000      2.509000
C           1.965000      9.161000      2.012000
N           3.851000     10.536000      2.572000
C           1.220000     10.286000      1.574000
C           3.179000     11.581000      2.194000
C           1.845000     11.524000      1.744000
C           1.135000     12.821000      1.506000
C           1.903000     13.893000      0.802000
C          -0.132000     13.128000      2.000000
N           1.370000     15.099000      0.609000
N          -0.992000     12.349000      2.608000
C          -0.649000     14.358000      1.820000
C           0.156000     15.348000      1.125000
S          -2.367000     13.132000      2.834000
N          -1.862000     14.594000      2.331000
C          -0.377000     16.736000      0.861000
S          -1.768000     17.547000      1.489000
C           0.304000     17.683000      0.004000
C          -1.468000     19.047000      0.722000
S           1.608000     17.495000     -1.105000
C          -0.364000     18.869000     -0.090000
C          -2.295000     20.237000      0.875000
C           1.395000     19.195000     -1.548000
C           0.259000     19.784000     -0.967000
N          -1.820000     21.448000      0.585000
S          -3.919000     20.072000      1.435000
C          -2.842000     22.333000      0.667000
C          -4.007000     21.781000      1.157000
C           4.299000      8.199000      2.636000
H           1.512000      8.175000      1.972000
H           0.194000     10.287000      1.219000
H           3.658000     12.547000      2.350000
H           2.869000     13.717000      0.331000
H           2.066000     19.661000     -2.257000
H          -0.039000     20.799000     -1.202000
H          -2.636000     23.359000      0.391000
H          -4.970000     22.274000      1.136000
H           3.766000      7.271000      2.393000
C           4.684000      8.056000      4.122000
H           5.187000      8.268000      1.996000
H           3.883000      8.404000      4.786000
H           5.495000      8.748000      4.382000
C           4.906000      6.533000      4.536000
H           3.941000      6.024000      4.420000
C           5.434000      6.248000      6.006000
H           5.523000      6.063000      3.761000
H           4.868000      6.660000      6.851000
H           6.455000      6.642000      6.088000
C           5.534000      4.721000      6.339000
H           6.249000      4.231000      5.666000
C           4.171000      3.875000      6.190000
H           5.871000      4.518000      7.363000
H           4.186000      2.854000      6.591000
H           3.952000      3.745000      5.123000
H           3.322000      4.358000      6.689000
$end

--------------------------------------------------------------
 ----------------------------------------------------------------
             Standard Nuclear Orientation (Angstroms)
    I     Atom           X                Y                Z
 ----------------------------------------------------------------
    1      C      -1.6170247186     3.0028528409    -0.9718576267
    2      C      -1.0919872971     2.6034053929     0.2561449964
    3      N      -0.9084907795     2.8390812398    -2.0865685847
    4      C       0.2491456106     2.2824132509     0.3548545123
    5      C       0.3938350073     2.5600215419    -2.0462172516
    6      C       1.0958664193     2.3290037516    -0.7752893712
    7      C       2.5346498007     1.8585346985    -0.7404863341
    8      C       3.2742169209     2.0441669259     0.4129858809
    9      C       3.1943612202     1.0433608891    -1.7522335869
   10      N       4.5001828361     1.5192393823     0.5967184277
   11      N       2.6187407250     0.7276991083    -2.8900910849
   12      C       4.4748480736     0.5455601502    -1.6057247390
   13      C       5.1897076084     0.8921614899    -0.4251327871
   14      S       3.7364967039    -0.0995172755    -3.7378744452
   15      N       4.9832572352    -0.1181314993    -2.6640529106
   16      C       6.5897215057     0.5146475472    -0.1579824356
   17      S       7.5441325211    -0.4560575724    -1.2764028326
   18      C       7.4145210152     0.8712278749     0.9555750344
   19      C       9.0207210203    -0.2988353152    -0.2912528105
   20      S       6.9750192214     1.7147201727     2.4205879753
   21      C       8.7222521338     0.2831362197     0.9474801940
   22      C      10.2861686765    -0.8493038463    -0.5529962451
   23      C       8.6320832832     1.3114331442     2.9845243794
   24      C       9.4008928801     0.4812415629     2.1499156436
   25      N      10.5828368398    -1.0986782202    -1.8484909084
   26      S      11.6320384231    -1.1711502190     0.5604185642
   27      C      11.8086103098    -1.7129401044    -1.9695063534
   28      C      12.4698447943    -1.7970296205    -0.7976173187
   29      C      -3.1009409494     3.2772514113    -1.0342358647
   30      H      -1.7052955341     2.6048992172     1.1525465666
   31      H       0.5953451187     1.9910751035     1.3420763640
   32      H       0.8601461722     2.5262820303    -3.0299863011
   33      H       2.6806798240     2.4836769270     1.2132368874
   34      H       8.9265914789     1.7860214288     3.9104379190
   35      H      10.4022796730     0.2207207147     2.4734312982
   36      H      12.1655291216    -2.0902790866    -2.9185375722
   37      H      13.3235031528    -2.4038347772    -0.5257590676
   38      H      -3.3533718898     3.4990259225    -2.0786709687
   39      C      -3.5938045339     4.5265602364    -0.2562269016
   40      H      -3.6434189293     2.3685674533    -0.7445306596
   41      H      -3.5602675961     4.4140050444     0.8341054342
   42      H      -4.6706722162     4.6108895087    -0.4519960732
   43      C      -2.7918891040     5.7852366778    -0.6588722282
   44      H      -1.7302519338     5.6214102741    -0.4363965481
   45      C      -3.4300436840     7.0691582631    -0.0142854652
   46      H      -2.9526058387     5.7629424452    -1.7432942394
   47      H      -3.4920667334     6.9516868226     1.0749888813
   48      H      -4.4996142501     7.0464962122    -0.2585583362
   49      C      -2.6386434468     8.3606024789    -0.4077273313
   50      H      -1.6518976929     8.2621583679     0.0616196342
   51      C      -3.3639754210     9.6266848057     0.2164177392
   52      H      -2.6381793371     8.5592013603    -1.4868609046
   53      H      -4.4432949270     9.7166058719     0.0403137755
   54      H      -2.9143955523    10.5504954033    -0.1697194404
   55      H      -3.3713256972     9.6550601459     1.3127351264
   56      C       1.3011113812    -1.2447321820     1.0396326608
   57      C       0.9054897552    -1.2101873054    -0.3330028264
   58      N       0.4455645272    -1.1651291776     2.0223441862
   59      C      -0.4725865866    -1.0918997833    -0.6482926269
   60      C      -0.8221597200    -1.0757566031     1.7551723764
   61      C      -1.3417980944    -1.0942394674     0.4456154499
   62      C      -2.8297310920    -1.1596926224     0.2883758905
   63      C      -3.6436824581    -0.2843466182     1.1860821601
   64      C      -3.4955186399    -2.0598791500    -0.5422655223
   65      N      -4.9752101720    -0.3294693973     1.1582994007
   66      N      -2.9995474682    -2.8874317271    -1.4284225789
   67      C      -4.8407986555    -2.1128934537    -0.5426694936
   68      C      -5.5646375477    -1.2303429353     0.3563921509
   69      S      -4.1856792792    -3.5906199507    -2.2367589254
   70      N      -5.4188426181    -3.0081932224    -1.3504377161
   71      C      -7.0744277895    -1.2160207053     0.3820300063
   72      S      -8.2233781806    -2.3043383686    -0.3125660365
   73      C      -7.8326832403    -0.2204571472     1.1092994701
   74      C      -9.6123652710    -1.5431304735     0.3351734198
   75      S      -7.3668601218     1.2664860362     1.8425455348
   76      C      -9.1791149254    -0.4030144442     0.9849992255
   77      C     -10.9792271489    -2.0115068934     0.1460963565
   78      C      -9.0733383111     1.5433414079     2.2205684080
   79      C      -9.9330895697     0.5933604804     1.6432106241
   80      N     -11.9580123172    -1.6294608890     0.9660149164
   81      S     -11.3353032703    -3.0735897781    -1.1666834201
   82      C     -13.1309205287    -2.0835082681     0.4634611333
   83      C     -12.9754455872    -2.9108515775    -0.6289488589
   84      C       2.7559276004    -0.9806510888     1.4796110062
   85      H       1.6306753204    -1.2832527759    -1.1378458750
   86      H      -0.9146990647    -1.0995648677    -1.6398468631
   87      H      -1.4996285503    -1.1024706225     2.6079650505
   88      H      -3.2051892254     0.4884914067     1.8156995616
   89      H      -9.3709527868     2.4158073863     2.7865248908
   90      H     -11.0102796307     0.6739322322     1.7293718998
   91      H     -14.0382170434    -1.7967636145     0.9790952457
   92      H     -13.7862402061    -3.2322077010    -1.2694184740
   93      H       3.3638176018    -0.8915418151     0.5702973730
   94      C       3.2831195801    -2.2461725709     2.1848726561
   95      H       2.9129779486    -0.0846326171     2.0923026796
   96      H       2.7817921839    -3.1528236467     1.8239631542
   97      H       2.9966724628    -2.2489896600     3.2441767262
   98      C       4.8264125330    -2.4999394444     1.8781835046
   99      H       4.9132932789    -2.6915657651     0.8013858963
  100      C       5.5335318779    -3.6969244095     2.6450721702
  101      H       5.3518940898    -1.5450879999     1.9979409777
  102      H       5.0918686684    -4.6983418069     2.5661937466
  103      H       5.5665881532    -3.4499100038     3.7138528614
  104      C       7.0213875777    -3.9148997136     2.2075905322
  105      H       7.6188997379    -3.0226403851     2.4336580199
  106      C       7.2626291467    -4.1943513791     0.6393446102
  107      H       7.5066201531    -4.7588035425     2.7132877492
  108      H       8.2686868655    -4.5253723706     0.3534425819
  109      H       7.1177874382    -3.2570136769     0.0881922616
  110      H       6.5920797818    -4.9670979598     0.2439748195
 ----------------------------------------------------------------
 Molecular Point Group                 C1    NOp =  1
 Largest Abelian Subgroup              C1    NOp =  1
 Nuclear Repulsion Energy = 11670.0955068658 hartrees
 There are      270 alpha and      270 beta electrons
 Requested basis set is 6-31G(d,p)
 There are 406 shells and 1262 basis functions

 Total QAlloc Memory Limit  20000 MB
 Mega-Array Size      4888 MB
 MEM_STATIC part      5000 MB
 A cutoff of  1.0D-08 yielded  15544 shell pairs
 There are    158464 function pairs
 
 -------------------------------------------------------
 OpenMP Integral Computing Module                       
 Release: version 1.0, May 2013, Q-Chem Inc. Pittsburgh 
 -------------------------------------------------------
 Integral Job Info:
 Integral job number is                      11
 Integral operator is                         1
 short-range coefficients                     0
 long-range coefficients              100000000
 Omega coefficients                           0
 if combine SR and LR in K                    0
 Integral screening is                        0
 Integral computing path is                   2
 max size of driver memory is            800000
 size of driver memory is                593474
 size of scratch memory is             15166112
 max col of scratch BK array               1296
 max len of scratch array in speh3          155
 max len of scratch index in speh4           18
 max int batch size is                      520
 min int batch size is                       52
 fixed nKL is                                52
 max L of basis functions is                  2
 order of int derivative is                   0
 number of shells is                        406
 number of basis is                        1262
 number of cartesian basis is              1262
 number of contracted shell pairs         15544
 number of primitive shell pairs          47536
 maxK2 (contraction) of shell pair           36
 max number of K2 of shell pair               1
 max number of CS2 of shell pair           1586
 max number of PS2 of shell pair           8808
 mem total for path MDJ                  336120
 -------------------------------------------------------
 Smallest overlap matrix eigenvalue = 4.08E-04

 Scale SEOQF with 1.000000e-02/1.000000e-02/1.000000e-01

 Standard Electronic Orientation quadrupole field applied
 Nucleus-field energy     =    -0.0000000214 hartrees
 Guess from superposition of atomic densities
 Warning:  Energy on first SCF cycle will be non-variational
 A restricted hybrid HF-DFT SCF calculation will be
 performed using Pulay DIIS extrapolation
 Exchange:     0.2000 Hartree-Fock + 0.0800 Slater + 0.7200 B88
 Correlation:  0.1900 VWN1RPA + 0.8100 LYP
 Using SG-1 standard quadrature grid
 SCF converges when DIIS error is below 1.0E-05
 using 16 threads for integral computing 
 -------------------------------------------------------
 OpenMP BLAS3 based DFT computing Module                
 Release: version 1.0, May 2013, Q-Chem Inc. Pittsburgh 
 -------------------------------------------------------
 ---------------------------------------
  Cycle       Energy         DIIS Error
 ---------------------------------------
    1   -5680.0446110476      2.15E-02
    2   -5662.4559326593      2.18E-03
    3   -5660.8655763852      3.44E-03
    4   -5663.3145738154      9.05E-04
    5   -5663.4664272094      3.71E-04
    6   -5663.4821549501      2.42E-04
    7   -5663.4931157723      8.34E-05
    8   -5663.4944063187      2.72E-05
    9   -5663.4945396548      1.12E-05
   10   -5663.4945665603      3.87E-06 Convergence criterion met
 ---------------------------------------
 SCF time:  CPU 1208.48 s  wall 97.86 s
 SCF   energy in the final basis set = -5663.4945665603
 Total energy in the final basis set = -5663.4945665603
 
 --------------------------------------------------------------
 
                    Orbital Energies (a.u.)
 --------------------------------------------------------------
 
 Alpha MOs
 -- Occupied --
-88.992 -88.989 -88.931 -88.929 -88.927 -88.924 -88.919 -88.907
-14.393 -14.384 -14.383 -14.372 -14.351 -14.350 -14.343 -14.341
-14.323 -14.320 -10.270 -10.268 -10.267 -10.266 -10.257 -10.257
-10.249 -10.247 -10.247 -10.246 -10.243 -10.241 -10.239 -10.236
-10.235 -10.235 -10.229 -10.228 -10.228 -10.227 -10.225 -10.225
-10.224 -10.224 -10.224 -10.224 -10.222 -10.219 -10.217 -10.217
-10.213 -10.209 -10.208 -10.207 -10.201 -10.199 -10.193 -10.192
-10.186 -10.181 -10.179 -10.179 -10.178 -10.178 -10.177 -10.176
-10.176 -10.173 -10.170 -10.165  -8.048  -8.045  -7.993  -7.990
 -7.984  -7.984  -7.978  -7.967  -6.013  -6.010  -6.007  -6.005
 -6.004  -6.002  -5.957  -5.954  -5.954  -5.951  -5.950  -5.949
 -5.948  -5.947  -5.945  -5.945  -5.943  -5.942  -5.941  -5.939
 -5.935  -5.931  -5.928  -5.923  -1.056  -1.049  -0.975  -0.963
 -0.960  -0.955  -0.949  -0.940  -0.917  -0.917  -0.908  -0.907
 -0.849  -0.844  -0.836  -0.825  -0.815  -0.811  -0.810  -0.808
 -0.804  -0.798  -0.792  -0.791  -0.780  -0.771  -0.766  -0.758
 -0.750  -0.743  -0.741  -0.731  -0.721  -0.719  -0.710  -0.702
 -0.693  -0.684  -0.677  -0.677  -0.654  -0.652  -0.645  -0.643
 -0.636  -0.630  -0.627  -0.623  -0.612  -0.608  -0.598  -0.595
 -0.594  -0.588  -0.583  -0.579  -0.579  -0.577  -0.572  -0.557
 -0.554  -0.546  -0.543  -0.537  -0.532  -0.525  -0.520  -0.515
 -0.506  -0.503  -0.502  -0.500  -0.490  -0.486  -0.480  -0.480
 -0.473  -0.472  -0.466  -0.461  -0.461  -0.451  -0.448  -0.446
 -0.440  -0.440  -0.438  -0.434  -0.433  -0.431  -0.428  -0.426
 -0.425  -0.424  -0.423  -0.418  -0.416  -0.415  -0.413  -0.412
 -0.412  -0.408  -0.406  -0.403  -0.400  -0.398  -0.397  -0.396
 -0.395  -0.393  -0.391  -0.389  -0.388  -0.386  -0.384  -0.379
 -0.377  -0.376  -0.374  -0.366  -0.365  -0.361  -0.357  -0.356
 -0.354  -0.353  -0.351  -0.349  -0.345  -0.342  -0.342  -0.338
 -0.336  -0.335  -0.334  -0.332  -0.330  -0.325  -0.318  -0.318
 -0.316  -0.315  -0.309  -0.307  -0.306  -0.304  -0.299  -0.298
 -0.297  -0.295  -0.293  -0.292  -0.290  -0.288  -0.282  -0.279
 -0.274  -0.272  -0.265  -0.260  -0.259  -0.252  -0.251  -0.243
 -0.240  -0.239  -0.232  -0.224  -0.194  -0.189
 -- Virtual --
 -0.117  -0.113  -0.077  -0.069  -0.041  -0.032  -0.022  -0.020
 -0.018  -0.014  -0.013  -0.012  -0.007  -0.004  -0.003   0.002
  0.004   0.004   0.014   0.026   0.032   0.034   0.037   0.045
  0.050   0.053   0.055   0.063   0.070   0.078   0.087   0.087
  0.095   0.098   0.102   0.102   0.106   0.111   0.111   0.114
  0.114   0.118   0.119   0.121   0.123   0.125   0.127   0.129
  0.131   0.133   0.134   0.135   0.140   0.144   0.146   0.147
  0.153   0.156   0.158   0.159   0.162   0.163   0.163   0.165
  0.166   0.170   0.171   0.173   0.176   0.176   0.177   0.178
  0.182   0.185   0.185   0.188   0.192   0.195   0.197   0.198
  0.202   0.204   0.205   0.208   0.210   0.213   0.219   0.221
  0.223   0.224   0.225   0.228   0.231   0.233   0.235   0.237
  0.238   0.240   0.241   0.245   0.248   0.251   0.251   0.259
  0.260   0.265   0.267   0.268   0.272   0.275   0.277   0.279
  0.282   0.285   0.287   0.290   0.296   0.300   0.301   0.308
  0.310   0.311   0.312   0.316   0.318   0.321   0.329   0.329
  0.330   0.332   0.336   0.340   0.342   0.343   0.349   0.350
  0.351   0.354   0.356   0.362   0.366   0.368   0.370   0.376
  0.378   0.384   0.385   0.390   0.391   0.398   0.403   0.406
  0.407   0.409   0.414   0.417   0.422   0.425   0.429   0.436
  0.437   0.441   0.447   0.449   0.458   0.460   0.463   0.471
  0.473   0.477   0.480   0.484   0.486   0.488   0.494   0.496
  0.503   0.504   0.507   0.510   0.512   0.515   0.517   0.517
  0.519   0.521   0.523   0.529   0.531   0.534   0.535   0.536
  0.538   0.540   0.541   0.542   0.544   0.544   0.547   0.549
  0.550   0.554   0.554   0.557   0.558   0.561   0.562   0.565
  0.566   0.568   0.572   0.573   0.577   0.578   0.581   0.584
  0.585   0.586   0.590   0.593   0.595   0.597   0.598   0.599
  0.602   0.605   0.607   0.609   0.614   0.617   0.618   0.619
  0.620   0.621   0.626   0.626   0.627   0.629   0.632   0.632
  0.634   0.635   0.638   0.640   0.641   0.646   0.648   0.651
  0.656   0.660   0.661   0.667   0.671   0.672   0.674   0.678
  0.681   0.683   0.685   0.687   0.691   0.693   0.695   0.698
  0.702   0.707   0.710   0.716   0.717   0.719   0.722   0.723
  0.730   0.733   0.735   0.736   0.740   0.743   0.744   0.747
  0.750   0.752   0.757   0.761   0.765   0.766   0.770   0.772
  0.775   0.779   0.781   0.784   0.786   0.790   0.792   0.794
  0.799   0.800   0.803   0.805   0.807   0.809   0.811   0.813
  0.814   0.817   0.819   0.821   0.823   0.824   0.828   0.830
  0.831   0.832   0.835   0.837   0.838   0.839   0.841   0.843
  0.844   0.844   0.845   0.848   0.849   0.852   0.855   0.856
  0.862   0.864   0.867   0.871   0.873   0.876   0.878   0.880
  0.883   0.885   0.886   0.887   0.890   0.892   0.895   0.899
  0.899   0.901   0.908   0.909   0.915   0.916   0.916   0.918
  0.919   0.920   0.924   0.928   0.928   0.932   0.932   0.935
  0.938   0.941   0.942   0.944   0.945   0.948   0.950   0.950
  0.954   0.957   0.958   0.960   0.964   0.965   0.967   0.969
  0.975   0.979   0.980   0.982   0.985   0.987   0.989   0.994
  0.997   0.999   1.000   1.004   1.006   1.007   1.009   1.012
  1.018   1.021   1.024   1.025   1.028   1.032   1.034   1.036
  1.037   1.039   1.041   1.045   1.048   1.052   1.058   1.062
  1.064   1.068   1.069   1.073   1.080   1.082   1.085   1.094
  1.097   1.100   1.106   1.108   1.111   1.112   1.117   1.119
  1.123   1.126   1.132   1.137   1.142   1.146   1.147   1.154
  1.161   1.163   1.166   1.174   1.176   1.183   1.187   1.189
  1.195   1.205   1.208   1.214   1.223   1.225   1.237   1.245
  1.247   1.249   1.254   1.259   1.266   1.268   1.269   1.276
  1.280   1.284   1.285   1.289   1.293   1.303   1.304   1.308
  1.313   1.318   1.324   1.328   1.331   1.333   1.334   1.336
  1.342   1.346   1.349   1.357   1.361   1.365   1.368   1.370
  1.378   1.382   1.384   1.388   1.393   1.400   1.402   1.409
  1.411   1.413   1.417   1.422   1.427   1.427   1.429   1.437
  1.443   1.450   1.451   1.457   1.461   1.463   1.467   1.468
  1.473   1.477   1.491   1.493   1.497   1.511   1.515   1.515
  1.522   1.526   1.534   1.543   1.544   1.547   1.555   1.557
  1.564   1.572   1.579   1.583   1.586   1.591   1.600   1.610
  1.613   1.621   1.632   1.637   1.643   1.644   1.647   1.649
  1.651   1.654   1.656   1.666   1.670   1.671   1.679   1.686
  1.689   1.692   1.695   1.699   1.706   1.708   1.712   1.720
  1.722   1.723   1.726   1.731   1.735   1.735   1.745   1.752
  1.753   1.758   1.764   1.766   1.772   1.778   1.779   1.781
  1.785   1.786   1.790   1.793   1.795   1.808   1.813   1.817
  1.819   1.824   1.826   1.832   1.835   1.838   1.843   1.848
  1.854   1.856   1.859   1.862   1.865   1.868   1.876   1.877
  1.880   1.885   1.888   1.890   1.891   1.895   1.897   1.904
  1.907   1.909   1.911   1.913   1.916   1.917   1.921   1.923
  1.929   1.934   1.935   1.940   1.941   1.944   1.949   1.954
  1.961   1.965   1.973   1.978   1.983   1.986   1.986   1.991
  2.002   2.008   2.009   2.010   2.024   2.027   2.034   2.036
  2.046   2.048   2.051   2.054   2.058   2.061   2.063   2.075
  2.080   2.082   2.088   2.090   2.093   2.101   2.110   2.112
  2.116   2.118   2.121   2.122   2.129   2.132   2.132   2.136
  2.137   2.144   2.150   2.155   2.156   2.158   2.162   2.165
  2.171   2.173   2.175   2.177   2.180   2.185   2.185   2.187
  2.195   2.197   2.200   2.201   2.206   2.215   2.217   2.223
  2.225   2.228   2.232   2.235   2.241   2.244   2.249   2.253
  2.260   2.262   2.265   2.267   2.269   2.272   2.275   2.281
  2.288   2.289   2.293   2.295   2.300   2.305   2.308   2.309
  2.315   2.315   2.319   2.323   2.326   2.331   2.333   2.337
  2.338   2.345   2.347   2.349   2.354   2.359   2.363   2.366
  2.368   2.374   2.375   2.384   2.385   2.387   2.392   2.397
  2.402   2.406   2.411   2.413   2.416   2.418   2.424   2.427
  2.432   2.435   2.439   2.443   2.445   2.447   2.450   2.456
  2.458   2.461   2.463   2.465   2.471   2.475   2.478   2.481
  2.483   2.485   2.490   2.492   2.494   2.496   2.501   2.506
  2.512   2.519   2.522   2.528   2.530   2.531   2.533   2.538
  2.540   2.545   2.548   2.555   2.557   2.558   2.563   2.568
  2.575   2.577   2.581   2.584   2.590   2.596   2.604   2.607
  2.609   2.616   2.618   2.626   2.635   2.638   2.642   2.649
  2.650   2.654   2.658   2.664   2.665   2.670   2.675   2.682
  2.684   2.686   2.687   2.692   2.692   2.694   2.702   2.703
  2.706   2.712   2.713   2.721   2.724   2.727   2.737   2.739
  2.756   2.764   2.768   2.773   2.779   2.787   2.794   2.801
  2.804   2.812   2.814   2.816   2.823   2.831   2.834   2.838
  2.843   2.848   2.855   2.860   2.864   2.866   2.867   2.869
  2.877   2.881   2.885   2.887   2.890   2.893   2.901   2.906
  2.915   2.920   2.923   2.927   2.928   2.933   2.943   2.945
  2.949   2.960   2.967   2.971   2.992   2.997   3.018   3.023
  3.038   3.051   3.053   3.059   3.066   3.083   3.086   3.102
  3.180   3.181   3.184   3.195   3.207   3.211   3.222   3.231
  3.244   3.253   3.256   3.257   3.258   3.279   3.289   3.290
  3.294   3.304   3.307   3.312   3.315   3.330   3.333   3.340
  3.354   3.356   3.363   3.393   3.398   3.412   3.425   3.433
  3.438   3.455   3.477   3.487   3.494   3.512   3.517   3.539
  3.549   3.551   3.556   3.564   3.586   3.588   3.596   3.605
  3.619   3.630   3.737   3.766   3.865   3.888   3.912   3.928
  3.935   3.951   3.951   3.967   3.991   3.993   4.001   4.003
  4.011   4.049   4.066   4.075   4.098   4.104   4.122   4.131
  4.143   4.146   4.158   4.161   4.172   4.185   4.189   4.205
  4.211   4.223   4.251   4.258   4.273   4.276   4.280   4.287
  4.296   4.306   4.344   4.356   4.368   4.393   4.403   4.408
  4.426   4.446   4.451   4.461   4.469   4.489   4.496   4.501
  4.512   4.516   4.540   4.551   4.582   4.615   4.640   4.663
  4.695   4.704   4.716   4.721   4.757   4.766   4.795   4.810
 --------------------------------------------------------------
 
          Ground-State Mulliken Net Atomic Charges

     Atom                 Charge (a.u.)
  ----------------------------------------
      1 C                     0.281527
      2 C                    -0.108881
      3 N                    -0.480861
      4 C                    -0.074023
      5 C                     0.085568
      6 C                    -0.000945
      7 C                     0.080446
      8 C                     0.051281
      9 C                     0.228567
     10 N                    -0.525125
     11 N                    -0.552714
     12 C                     0.213132
     13 C                     0.290655
     14 S                     0.593585
     15 N                    -0.560920
     16 C                    -0.225194
     17 S                     0.374272
     18 C                    -0.125719
     19 C                    -0.207140
     20 S                     0.299485
     21 C                     0.127439
     22 C                     0.040145
     23 C                    -0.305975
     24 C                    -0.088098
     25 N                    -0.439214
     26 S                     0.275969
     27 C                     0.132399
     28 C                    -0.312176
     29 C                    -0.249490
     30 H                     0.089700
     31 H                     0.108252
     32 H                     0.122404
     33 H                     0.106834
     34 H                     0.128637
     35 H                     0.129181
     36 H                     0.119039
     37 H                     0.133327
     38 H                     0.112550
     39 C                    -0.192205
     40 H                     0.116569
     41 H                     0.085525
     42 H                     0.097551
     43 C                    -0.173133
     44 H                     0.099686
     45 C                    -0.175428
     46 H                     0.099926
     47 H                     0.089700
     48 H                     0.091637
     49 C                    -0.169447
     50 H                     0.104159
     51 C                    -0.331649
     52 H                     0.104213
     53 H                     0.100837
     54 H                     0.096260
     55 H                     0.099264
     56 C                     0.257471
     57 C                    -0.140069
     58 N                    -0.455731
     59 C                    -0.047296
     60 C                     0.071548
     61 C                     0.033401
     62 C                    -0.050675
     63 C                     0.071117
     64 C                     0.312633
     65 N                    -0.513982
     66 N                    -0.561103
     67 C                     0.201848
     68 C                     0.305047
     69 S                     0.603504
     70 N                    -0.567883
     71 C                    -0.237711
     72 S                     0.326569
     73 C                    -0.113563
     74 C                    -0.229921
     75 S                     0.281107
     76 C                     0.145155
     77 C                     0.059201
     78 C                    -0.322300
     79 C                    -0.048535
     80 N                    -0.421765
     81 S                     0.288139
     82 C                     0.125667
     83 C                    -0.311451
     84 C                    -0.204234
     85 H                     0.090531
     86 H                     0.117951
     87 H                     0.097137
     88 H                     0.119112
     89 H                     0.122335
     90 H                     0.122238
     91 H                     0.115745
     92 H                     0.125317
     93 H                     0.084363
     94 C                    -0.183467
     95 H                     0.124360
     96 H                     0.094931
     97 H                     0.106784
     98 C                    -0.198095
     99 H                     0.097469
    100 C                    -0.177170
    101 H                     0.109737
    102 H                     0.093751
    103 H                     0.095002
    104 C                    -0.186081
    105 H                     0.095401
    106 C                    -0.338240
    107 H                     0.089025
    108 H                     0.095990
    109 H                     0.121519
    110 H                     0.096784
  ----------------------------------------
  Sum of atomic charges =     0.000000

 -----------------------------------------------------------------
                    Cartesian Multipole Moments
 -----------------------------------------------------------------
    Charge (ESU x 10^10)
                 0.0000
    Dipole Moment (Debye)
         X       0.5404      Y      -0.7506      Z      -0.5931
       Tot       1.0987
    Quadrupole Moments (Debye-Ang)
        XX    -361.1272     XY      -5.2724     YY    -441.8137
        XZ      24.5671     YZ      20.4293     ZZ    -441.1904
    Octopole Moments (Debye-Ang^2)
       XXX      -2.0835    XXY    -271.7486    XYY     -46.9313
       YYY     -50.2577    XXZ     -11.1990    XYZ     -46.2798
       YYZ     -18.7466    XZZ      56.0664    YZZ      -5.4125
       ZZZ     -41.0273
    Hexadecapole Moments (Debye-Ang^3)
      XXXX -102839.0745   XXXY    -785.4898   XXYY  -23697.5882
      XYYY       9.7992   YYYY  -21542.9252   XXXZ    2778.1202
      XXYZ    1370.7023   XYYZ      85.1169   YYYZ     163.9074
      XXZZ  -21706.4711   XYZZ      96.1951   YYZZ   -4590.2800
      XZZZ     181.0634   YZZZ     285.5742   ZZZZ   -6666.6424
 -----------------------------------------------------------------
Archival summary:
1\1\mn246\SP\ProcedureUnspecified\6-31G**\8105042\afmv_a\FriOct1213:29:042018FriOct1213:29:042018\0\\#,ProcedureUnspecified,6-31G**,\\0,1\S\C,1,1.76183\C,2,1.43089,1,108.606\C,3,1.4339,2,114.778,1,4.91015,0\C,4,1.39487,3,112.371,2,170.135,0\H,5,1.08412,4,132.262,3,176.813,0\C,4,1.4008,3,111.698,2,-12.4258,0\C,7,1.40459,4,121.304,3,-175.422,0\N,8,1.35222,7,116.645,4,164.97,0\C,9,1.3764,8,111.218,7,176.137,0\H,10,1.08187,9,121.775,8,-172.972,0\C,10,1.34819,9,112.842,8,6.15308,0\H,12,1.08206,10,129.814,9,-164.518,0\C,5,1.40601,4,109.241,3,5.10016,0\H,14,1.08133,5,128.207,4,169.373,0\C,2,1.47442,1,122.713,3,-178.08,0\N,16,1.38306,2,117.104,1,-172.555,0\C,17,1.34622,16,122.004,2,-172.156,0\H,18,1.08897,17,123.603,16,-175.754,0\C,18,1.38272,17,123.27,16,-8.46554,0\C,16,1.42301,2,124.4,1,1.35674,0\N,21,1.34871,16,125.557,2,3.09622,0\C,21,1.38164,16,117.762,2,175.961,0\N,23,1.31366,21,114.291,16,-177.296,0\C,20,1.51415,18,119.058,17,-171.698,0\C,25,1.41292,20,122.739,18,34.6347,0\H,26,1.08597,25,123.02,20,-5.62626,0\C,26,1.38254,25,121.102,20,173.925,0\H,28,1.08613,26,119.285,25,177.02,0\C,28,1.39399,26,119.656,25,1.13896,0\N,30,1.33095,28,120.135,26,-12.5585,0\C,31,1.3325,30,121.38,28,14.0654,0\H,32,1.08921,31,113.426,30,175.698,0\C,30,1.51036,28,117.29,26,-177.154,0\H,34,1.09716,30,107.583,28,175.589,0\H,34,1.09723,30,108.928,28,59.0435,0\C,34,1.55209,30,115.946,28,-68.5736,0\H,37,1.09664,34,113.957,30,71.0087,0\H,37,1.09776,34,106.496,30,-176.833,0\C,37,1.54579,34,111.107,30,-52.6824,0\H,40,1.09649,37,99.4982,34,-55.21,0\H,40,1.097,37,109.125,34,59.7647,0\C,40,1.572,37,110.343,34,-172.221,0\H,43,1.09734,40,106.71,37,51.0588,0\H,43,1.09734,40,110.032,37,-55.8794,0\C,43,1.56491,40,111.447,37,179.903,0\H,46,1.09711,43,105.857,40,66.0896,0\H,46,1.09726,43,113.381,40,-62.0282,0\C,46,1.58702,43,109.169,40,-177.502,0\H,49,1.09671,46,114.636,43,-64.455,0\H,49,1.09728,46,116.86,43,50.3389,0\H,49,1.09757,46,110.237,43,171.551,0\S,24,1.62862,23,105.796,21,2.98315,0\S,12,1.71403,10,115.226,9,-1.60118,0\S,3,1.74668,2,128.905,1,174.757,0\H,17,2.66531,16,78.1783,2,107.94,0\C,56,1.09742,17,107.542,16,-168.121,0\H,57,1.09677,56,108.495,17,4.75058,0\C,57,1.54171,56,104.849,17,123.964,0\H,59,1.09709,57,111.816,56,86.9598,0\H,59,1.09735,57,110.759,56,-160.85,0\C,57,1.54266,56,107.455,17,-121.063,0\N,62,1.30538,57,113.137,56,170.042,0\C,63,1.29865,62,119.282,57,-165.158,0\H,64,1.08946,63,116.379,62,-174.666,0\C,64,1.40901,63,123.389,62,-1.71035,0\C,66,1.3972,64,119.882,63,5.76815,0\H,67,1.08568,66,117.497,64,179.584,0\C,67,1.41862,66,115.479,64,-6.26761,0\H,69,1.08582,67,119.318,66,-175.863,0\C,66,1.49765,64,117.682,63,-172.34,0\C,71,1.39412,66,124.419,64,130.639,0\N,72,1.31,71,129.06,66,8.38184,0\C,72,1.34632,71,120.186,66,-174.942,0\N,74,1.33723,72,117.289,71,179.249,0\C,74,1.45298,72,118.274,71,1.08897,0\N,76,1.34241,74,123.953,72,-2.36369,0\C,77,1.33258,76,118.289,74,3.58071,0\H,78,1.08902,77,116.003,76,-177.429,0\C,76,1.51008,74,120.954,72,-178.528,0\C,80,1.44742,76,122.604,74,170.498,0\C,81,1.36443,80,112.281,76,-179.78,0\C,82,1.38197,81,117.554,80,-6.6415,0\C,82,1.41226,81,112.953,80,177.517,0\H,84,1.08363,82,128.332,81,178.007,0\C,84,1.40534,82,109.985,81,-1.95847,0\H,86,1.0817,84,126.289,82,179.937,0\C,83,1.4572,82,128.334,81,-175.773,0\N,88,1.33276,83,121.125,82,23.4231,0\C,89,1.35441,88,108.157,83,-172.868,0\H,90,1.08226,89,117.412,88,175.818,0\C,90,1.37914,89,113.415,88,-6.7633,0\H,92,1.08206,90,124.231,89,168.912,0\C,59,1.5938,57,111.949,56,-29.7102,0\H,94,1.09646,59,107.722,57,-45.9058,0\H,94,1.09716,59,107.058,57,64.0391,0\C,94,1.58774,59,117.28,57,-174.651,0\H,97,1.09733,94,118.296,59,-55.0896,0\H,97,1.09745,94,108.308,59,66.3828,0\C,97,1.56608,94,113.149,59,-176.474,0\H,100,1.09697,97,113.487,94,178.353,0\H,100,1.09739,97,110.278,94,-61.8265,0\S,73,1.59837,72,109.82,71,173.739,0\C,100,1.61111,97,115.996,94,57.4211,0\H,104,1.09686,100,112.428,97,48.6148,0\H,104,1.09697,100,108.728,97,-73.2899,0\H,104,1.09703,100,116.317,97,169.335,0\S,83,1.71122,82,106.888,81,7.34925,0\S,81,1.7221,80,131.769,76,-12.2696,0\S,88,1.72575,83,119.344,82,-156.312,0\\\@

 Total job time:  101.08s(wall), 1217.64s(cpu) 
 Fri Oct 12 13:29:04 2018

        *************************************************************
        *                                                           *
        *  Thank you very much for using Q-Chem.  Have a nice day.  *
        *                                                           *
        *************************************************************


