
Running Job 1 of 1 ./10/54.qcin
qchem ./10/54.qcin_18951.0 /tmpu/cab_g/afmv_a/scratch_qchem/qchem18951/ 1
/tmpu/appuserlic/qchem4.4/serial-multicore/exe/qcprog.exe_s ./10/54.qcin_18951.0 /tmpu/cab_g/afmv_a/scratch_qchem/qchem18951/
Check license passed

                  Welcome to Q-Chem
     A Quantum Leap Into The Future Of Chemistry


 Q-Chem 4.4, Q-Chem, Inc., Pleasanton, CA (2016)

 Y. Shao,  Z. Gan,  E. Epifanovsky,  A. T. B. Gilbert,  M. Wormit,  
 J. Kussmann,  A. W. Lange,  A. Behn,  J. Deng,  X. Feng,  D. Ghosh,  
 M. Goldey,  P. R. Horn,  L. D. Jacobson,  I. Kaliman,  F. Rob,  
 R. Z. Khaliullin,  T. Kus,  A. Landau,  J. Liu,  E. I. Proynov,  Y. M. Rhee,  
 R. M. Richard,  M. A. Rohrdanz,  R. P. Steele,  E. J. Sundstrom,  
 H. L. Woodcock III,  P. M. Zimmerman,  D. Zuev,  B. Albrecht,  E. Alguire,  
 B. Austin,  S. A. Baeppler,  G. J. O. Beran,  Y. A. Bernard,  E. Berquist,  
 K. Brandhorst,  K. B. Bravaya,  S. T. Brown,  D. Casanova,  C.-M. Chang,  
 Y. Chen,  S. H. Chien,  K. D. Closser,  M. P. Coons,  D. L. Crittenden,  
 S. Dasgupta,  M. Diedenhofen,  R. A. DiStasio Jr.,  H. Do,  A. D. Dutoi,  
 R. G. Edgar,  P.-T. Fang,  S. Fatehi,  Q. Feng,  L. Fusti-Molnar,  
 A. Ghysels,  A. Golubeva-Zadorozhnaya,  J. Gomes,  A. Gunina,  
 M. W. D. Hanson-Heine,  P. H. P. Harbach,  A. W. Hauser,  J. E. Herr,  
 E. G. Hohenstein,  Z. C. Holden,  K. Hui,  T.-C. Jagau,  H. Ji,  B. Kaduk,  
 K. Khistyaev,  Jaehoon Kim,  Jihan Kim,  R. A. King,  P. Klunzinger,  
 K. Koh,  D. Kosenkov,  T. Kowalczyk,  C. M. Krauter,  A. Kunitsa,  
 K. U. Lao,  A. Laurent,  K. V. Lawler,  J. Lee,  D. Lefrancois,  S. Lehtola,  
 S. V. Levchenko,  C. Y. Lin,  Y.-S. Lin,  F. Liu,  E. Livshits,  
 R. C. Lochan,  A. Luenser,  P. Manohar,  S. F. Manzer,  S.-P. Mao,  Y. Mao,  
 N. Mardirossian,  A. V. Marenich,  L. A. Martinez-Martinez,  S. A. Maurer,  
 N. J. Mayhall,  J.-M. Mewes,  A. F. Morrison,  K. Nanda,  T. S. Nguyen-Beck,  
 C. M. Oana,  R. Olivares-Amaya,  D. P. O'Neill,  J. A. Parkhill,  
 T. M. Perrine,  R. Peverati,  P. A. Pieniazek,  F. Plasser,  A. Prociuk,  
 D. R. Rehn,  E. Rosta,  N. J. Russ,  N. Sergueev,  S. M. Sharada,  
 S. Sharma,  D. W. Small,  A. Sodt,  T. Stauch,  T. Stein,  D. Stuck,  
 Y.-C. Su,  A. J. W. Thom,  T. Tsuchimochi,  L. Vogt,  O. Vydrov,  T. Wang,  
 M. A. Watson,  J. Wenzel,  A. White,  C. F. Williams,  V. Vanovschi,  
 K. Yao,  S. Yeganeh,  S. R. Yost,  Z.-Q. You,  I. Y. Zhang,  X. Zhang,  
 Y. Zhao,  B. R. Brooks,  G. K. L. Chan,  D. M. Chipman,  C. J. Cramer,  
 W. A. Goddard III,  M. S. Gordon,  W. J. Hehre,  A. Klamt,  
 H. F. Schaefer III,  M. W. Schmidt,  C. D. Sherrill,  D. G. Truhlar,  
 A. Warshel,  X. Xu,  A. Aspuru-Guzik,  R. Baer,  A. T. Bell,  N. A. Besley,  
 J.-D. Chai,  A. Dreuw,  B. D. Dunietz,  T. R. Furlani,  S. R. Gwaltney,  
 C.-P. Hsu,  Y. Jung,  J. Kong,  D. S. Lambrecht,  W. Liang,  C. Ochsenfeld,  
 V. A. Rassolov,  L. V. Slipchenko,  J. E. Subotnik,  T. Van Voorhis,  
 J. M. Herbert,  A. I. Krylov,  P. M. W. Gill,  M. Head-Gordon

 Contributors to earlier versions of Q-Chem not listed above: 
 R. D. Adamson,  J. Baker,  E. F. C. Byrd,  A. K. Chakraborty,  C.-L. Cheng,  
 H. Dachsel,  R. J. Doerksen,  G. Hawkins,  A. Heyden,  S. Hirata,  
 G. Kedziora,  F. J. Keil,  C. Kelley,  P. P. Korambath,  W. Kurlancheek,  
 A. M. Lee,  M. S. Lee,  D. Liotard,  I. Lotan,  P. E. Maslen,  N. Nair,  
 D. Neuhauser,  R. Olson,  B. Peters,  J. Ritchie,  N. E. Schultz,  
 N. Shenvi,  A. C. Simmonett,  K. S. Thanthiriwatte,  Q. Wu,  W. Zhang

 Please cite Q-Chem as follows:
 Y. Shao et al., Mol. Phys. 113, 184-215 (2015)
 DOI: 10.1080/00268976.2014.952696

 Q-Chem 4.4.2 for Intel X86 Linux

 Parts of Q-Chem use Armadillo 5.200.1 (Boston Tea Smuggler).
 http://arma.sourceforge.net/

 Q-Chem begins on Fri Oct 12 13:54:52 2018  

Host: 
0

     Scratch files written to /tmpu/cab_g/afmv_a/scratch_qchem/qchem18951//
 Dec716 11556_ 22328  22283 4050   
Processing $rem in /tmpu/appuserlic/qchem4.4/serial-multicore/config/preferences.
 MEM_TOTAL  2000 
FILE_GEOM_ORG=        593

Checking the input file for inconsistencies... 	...done.

--------------------------------------------------------------
User input:
--------------------------------------------------------------
$comment
SP
$end

$rem
MEM_STATIC 5000
MEM_TOTAL 20000
JOBTYPE SP
EXCHANGE B3LYP
BASIS 6-31g(d,p)
$end

$molecule
0 1
C         -27.641000     -0.932000     -5.170000
C         -26.987000     -2.158000     -5.042000
N         -27.030000      0.219000     -5.416000
C         -25.568000     -2.070000     -5.103000
C         -25.697000      0.244000     -5.644000
C         -24.898000     -0.900000     -5.480000
C         -23.369000     -0.801000     -5.616000
C         -22.797000      0.453000     -5.267000
C         -22.441000     -1.850000     -5.798000
N         -21.464000      0.706000     -5.462000
N         -22.813000     -3.138000     -6.115000
C         -21.014000     -1.553000     -5.888000
C         -20.589000     -0.223000     -5.827000
S         -21.366000     -3.807000     -6.673000
N         -20.330000     -2.654000     -6.288000
C         -19.145000      0.086000     -6.115000
S         -17.876000     -1.086000     -6.348000
C         -18.599000      1.327000     -6.088000
C         -16.605000      0.182000     -6.378000
S         -19.334000      2.896000     -5.853000
C         -17.168000      1.388000     -6.263000
C         -15.245000     -0.063000     -6.457000
C         -17.705000      3.693000     -6.194000
C         -16.756000      2.750000     -6.438000
N         -14.318000      0.864000     -6.539000
S         -14.618000     -1.707000     -6.516000
C         -13.035000      0.315000     -6.463000
C         -13.052000     -1.021000     -6.109000
C         -29.207000     -0.734000     -5.132000
H         -27.473000     -3.045000     -4.647000
H         -25.059000     -3.014000     -4.934000
H         -25.321000      1.203000     -5.997000
H         -23.457000      1.248000     -4.925000
H         -17.620000      4.772000     -6.215000
H         -15.720000      3.069000     -6.458000
H         -12.145000      0.868000     -6.735000
H         -12.202000     -1.685000     -6.020000
H         -29.411000      0.253000     -4.699000
C         -29.906000     -1.751000     -4.185000
H         -29.632000     -0.887000     -6.132000
H         -29.306000     -1.836000     -3.271000
H         -29.926000     -2.738000     -4.665000
C         -31.373000     -1.494000     -3.916000
H         -31.446000     -0.415000     -3.732000
C         -31.866000     -2.335000     -2.632000
H         -32.019000     -1.759000     -4.762000
H         -32.447000     -1.673000     -1.978000
H         -30.984000     -2.424000     -1.985000
C         -32.456000     -3.724000     -2.954000
H         -32.821000     -4.194000     -2.033000
C         -31.376000     -4.777000     -3.433000
H         -33.224000     -3.768000     -3.736000
H         -31.320000     -4.720000     -4.528000
H         -31.667000     -5.801000     -3.168000
H         -30.404000     -4.543000     -2.983000
C         -29.784000      1.649000     -0.675000
C         -29.032000      1.161000     -1.727000
N         -29.894000      2.962000     -0.298000
C         -28.309000      2.146000     -2.477000
C         -29.209000      3.865000     -1.100000
C         -28.406000      3.529000     -2.277000
C         -27.758000      4.491000     -3.251000
C         -26.873000      4.053000     -4.260000
C         -28.054000      5.887000     -3.279000
N         -26.484000      4.799000     -5.255000
N         -28.994000      6.608000     -2.510000
C         -27.514000      6.691000     -4.339000
C         -26.842000      6.068000     -5.443000
S         -28.918000      8.110000     -3.120000
N         -27.973000      7.930000     -4.365000
C         -26.644000      6.715000     -6.817000
S         -27.139000      8.324000     -7.318000
C         -26.219000      5.979000     -7.903000
C         -26.789000      7.964000     -9.011000
S         -25.751000      4.318000     -8.040000
C         -26.244000      6.662000     -9.119000
C         -27.151000      8.688000    -10.195000
C         -25.798000      4.509000     -9.781000
C         -26.044000      5.749000    -10.220000
N         -26.509000      8.492000    -11.344000
S         -28.395000      9.892000    -10.292000
C         -27.112000      9.128000    -12.405000
C         -28.142000      9.904000    -12.090000
C         -30.614000      0.668000      0.211000
H         -28.953000      0.100000     -1.942000
H         -27.674000      1.782000     -3.279000
H         -29.353000      4.867000     -0.698000
H         -26.560000      3.014000     -4.351000
H         -25.689000      3.604000    -10.364000
H         -26.210000      5.931000    -11.276000
H         -26.766000      9.064000    -13.428000
H         -28.766000     10.505000    -12.738000
H         -31.484000      1.236000      0.563000
C         -29.919000      0.177000      1.442000
H         -31.064000     -0.162000     -0.347000
H         -29.452000      1.036000      1.941000
H         -29.085000     -0.440000      1.086000
C         -30.825000     -0.612000      2.372000
H         -31.362000      0.108000      3.002000
C         -30.066000     -1.635000      3.297000
H         -31.619000     -1.094000      1.788000
H         -29.859000     -2.482000      2.631000
H         -30.800000     -1.983000      4.035000
C         -28.784000     -1.063000      4.063000
H         -28.005000     -0.645000      3.414000
C         -28.254000     -2.033000      5.142000
H         -29.221000     -0.200000      4.580000
H         -28.001000     -2.929000      4.562000
H         -29.019000     -2.192000      5.913000
H         -27.436000     -1.639000      5.758000
$end

--------------------------------------------------------------
 ----------------------------------------------------------------
             Standard Nuclear Orientation (Angstroms)
    I     Atom           X                Y                Z
 ----------------------------------------------------------------
    1      C       1.8588621371    -2.4052527959     2.6539931359
    2      C       1.0241843716    -3.4691669117     2.9983414800
    3      N       1.4610807262    -1.3269336905     1.9924526186
    4      C      -0.3016488879    -3.3557608377     2.4940288484
    5      C       0.1549601178    -1.1666558112     1.6796300527
    6      C      -0.7877683125    -2.1847708893     1.9003964321
    7      C      -2.2354379026    -2.0178685978     1.4079186327
    8      C      -2.4060999760    -1.2063317388     0.2530232334
    9      C      -3.3769112607    -2.7550925860     1.7929489744
   10      N      -3.6546255315    -0.8810578616    -0.2099063962
   11      N      -3.3914124723    -3.6120505750     2.8714802534
   12      C      -4.6742458077    -2.4555601209     1.1930811760
   13      C      -4.7730796930    -1.4138451511     0.2666321571
   14      S      -5.0446093460    -3.8184893164     3.1490719372
   15      N      -5.6603815822    -3.1077313157     1.8581119775
   16      C      -6.1399660262    -0.9880896845    -0.1958773400
   17      S      -7.6408559378    -1.7932734103     0.1745853986
   18      C      -6.3804421459     0.0021807370    -1.0905626077
   19      C      -8.5698618209    -0.7443954947    -0.9483429996
   20      S      -5.2944353481     1.1296690661    -1.8693888418
   21      C      -7.7555622383     0.1608454228    -1.4979656621
   22      C      -9.9160639413    -0.8899935491    -1.2354092940
   23      C      -6.7461571717     1.9821092236    -2.6250213747
   24      C      -7.9024434317     1.3671719715    -2.2586332458
   25      N     -10.6102301591    -0.0878723634    -2.0100813959
   26      S     -10.8669802018    -2.1821282224    -0.5105008503
   27      C     -11.9047359577    -0.5708396631    -2.2204699055
   28      C     -12.0709847150    -1.8596352284    -1.7494408816
   29      C       3.3761506741    -2.2744792670     3.0708117773
   30      H       1.4031881464    -4.4210317392     3.3579238612
   31      H      -0.9294253739    -4.2163591484     2.7038984063
   32      H      -0.0940150645    -0.1817511772     1.2876603847
   33      H      -1.5236000501    -0.7674319841    -0.2086583518
   34      H      -6.6033680604     2.8675186437    -3.2312955937
   35      H      -8.8095712871     1.6415791670    -2.7852039865
   36      H     -12.6973318936     0.0403669348    -2.6329152680
   37      H     -12.9811591985    -2.4451985205    -1.7533190945
   38      H       3.8986107639    -1.7317651585     2.2734593765
   39      C       4.0835187620    -3.6570652157     3.1590471599
   40      H       3.4574806302    -1.8120402238     4.0625625371
   41      H       3.7637665669    -4.2606351327     2.3010944287
   42      H       3.7572191923    -4.1731431170     4.0712758542
   43      C       5.5862527659    -3.6139779902     3.3334977387
   44      H       5.9349905892    -2.8498347041     2.6278824265
   45      C       6.2338247511    -5.0514802004     2.9970101171
   46      H       5.8942876823    -3.3336788326     4.3482902655
   47      H       7.1028478345    -4.9032781514     2.3440506748
   48      H       5.5737101129    -5.5000019325     2.2436636363
   49      C       6.4004267237    -5.9881620297     4.2119076163
   50      H       6.9037481830    -6.9115555787     3.9014597746
   51      C       5.0316612560    -6.5532778306     4.7702759768
   52      H       6.8874754763    -5.5673058692     5.1001348421
   53      H       4.6805922009    -5.8629699242     5.5485018520
   54      H       5.1624157279    -7.5386207821     5.2344790961
   55      H       4.2997917990    -6.6243054561     3.9570342081
   56      C       5.6847436944    -2.9708390458    -1.4082448561
   57      C       4.5796487533    -2.7434872148    -0.6098537764
   58      N       6.1723571435    -2.1311069373    -2.3753441840
   59      C       3.8989722152    -1.5025281189    -0.8382262196
   60      C       5.4951175510    -0.9260579213    -2.5058869100
   61      C       4.3390035684    -0.5020312721    -1.7142835623
   62      C       3.6600370644     0.8517213221    -1.7338386151
   63      C       2.4533320334     1.0948206859    -1.0425241661
   64      C       4.2242310470     1.9959245231    -2.3739168799
   65      N       1.9649472975     2.2850648588    -0.8359783878
   66      N       5.4741298431     2.1226057980    -3.0192903021
   67      C       3.5884442821     3.2719806665    -2.2034120167
   68      C       2.5148559550     3.4203685965    -1.2632428160
   69      S       5.5476622424     3.6964745298    -3.4084049396
   70      N       4.2724426233     4.2872979713    -2.7011619940
   71      C       2.0766073174     4.7525723649    -0.6477265682
   72      S       2.7377419302     6.3463203718    -0.9760180762
   73      C       1.2152335682     4.7978750463     0.4282380833
   74      C       1.8537883885     7.0523592700     0.3798890778
   75      S       0.3872921541     3.5371492816     1.2778247834
   76      C       1.0380027284     6.0652777401     0.9832602820
   77      C       2.0094951608     8.3325929578     1.0074503145
   78      C      -0.0224286421     4.7152774590     2.5082368554
   79      C       0.3453644393     5.9752384550     2.2473469593
   80      N       1.0415194233     8.8526614271     1.7580052816
   81      S       3.4001213868     9.3578388291     0.8605129027
   82      C       1.4389156929     9.9883071481     2.4259955520
   83      C       2.6557810890    10.4260601028     2.1261423238
   84      C       6.5049350888    -4.2890225035    -1.2471999914
   85      H       4.2203094418    -3.4748147632     0.1072391577
   86      H       3.0004811729    -1.3224333268    -0.2558133825
   87      H       5.9558373906    -0.3527124121    -3.3092275329
   88      H       1.9149853019     0.3094122454    -0.5142369542
   89      H      -0.4812617210     4.3266710985     3.4078213719
   90      H       0.2394333085     6.7427140561     3.0060140781
   91      H       0.8114578976    10.5397095084     3.1134496611
   92      H       3.1826200982    11.2904239595     2.5079757712
   93      H       7.5386595946    -4.0405389167    -1.5175655830
   94      C       6.1004118213    -5.4069570625    -2.1560730562
   95      H       6.5918734661    -4.6341775360    -0.2098602582
   96      H       5.9869647882    -5.0035739017    -3.1706580926
   97      H       5.0888563833    -5.6928800898    -1.8430481076
   98      C       7.0447846503    -6.5960703521    -2.1068130876
   99      H       7.8781142151    -6.3866474867    -2.7889955411
  100      C       6.3810278593    -7.9640366190    -2.5146491025
  101      H       7.5196887349    -6.6460197843    -1.1189936888
  102      H       5.8192533972    -8.2564829627    -1.6187146240
  103      H       7.2033344325    -8.6827921471    -2.6228451767
  104      C       5.5204040420    -7.9461414434    -3.8624140701
  105      H       4.6960755617    -7.2229091292    -3.8759630996
  106      C       5.1257375465    -9.3628339853    -4.3349197304
  107      H       6.2583884055    -7.5541602678    -4.5728764809
  108      H       4.5349819021    -9.7452801692    -3.4935115743
  109      H       6.0263824439    -9.9482750520    -4.5608500874
  110      H       4.6188534422    -9.4027688494    -5.3071798352
 ----------------------------------------------------------------
 Molecular Point Group                 C1    NOp =  1
 Largest Abelian Subgroup              C1    NOp =  1
 Nuclear Repulsion Energy = 11205.3996972655 hartrees
 There are      270 alpha and      270 beta electrons
 Requested basis set is 6-31G(d,p)
 There are 406 shells and 1262 basis functions

 Total QAlloc Memory Limit  20000 MB
 Mega-Array Size      4888 MB
 MEM_STATIC part      5000 MB
 A cutoff of  1.0D-08 yielded  13774 shell pairs
 There are    138235 function pairs
 
 -------------------------------------------------------
 OpenMP Integral Computing Module                       
 Release: version 1.0, May 2013, Q-Chem Inc. Pittsburgh 
 -------------------------------------------------------
 Integral Job Info:
 Integral job number is                      11
 Integral operator is                         1
 short-range coefficients                     0
 long-range coefficients              100000000
 Omega coefficients                           0
 if combine SR and LR in K                    0
 Integral screening is                        0
 Integral computing path is                   2
 max size of driver memory is            800000
 size of driver memory is                593474
 size of scratch memory is             15166112
 max col of scratch BK array               1296
 max len of scratch array in speh3          155
 max len of scratch index in speh4           18
 max int batch size is                      520
 min int batch size is                       52
 fixed nKL is                                52
 max L of basis functions is                  2
 order of int derivative is                   0
 number of shells is                        406
 number of basis is                        1262
 number of cartesian basis is              1262
 number of contracted shell pairs         13774
 number of primitive shell pairs          43448
 maxK2 (contraction) of shell pair           36
 max number of K2 of shell pair               1
 max number of CS2 of shell pair           1295
 max number of PS2 of shell pair           7644
 mem total for path MDJ                  278920
 -------------------------------------------------------
 Smallest overlap matrix eigenvalue = 4.51E-04

 Scale SEOQF with 1.000000e-02/1.000000e-02/1.000000e-02

 Standard Electronic Orientation quadrupole field applied
 Nucleus-field energy     =     0.0000001095 hartrees
 Guess from superposition of atomic densities
 Warning:  Energy on first SCF cycle will be non-variational
 A restricted hybrid HF-DFT SCF calculation will be
 performed using Pulay DIIS extrapolation
 Exchange:     0.2000 Hartree-Fock + 0.0800 Slater + 0.7200 B88
 Correlation:  0.1900 VWN1RPA + 0.8100 LYP
 Using SG-1 standard quadrature grid
 SCF converges when DIIS error is below 1.0E-05
 using 16 threads for integral computing 
 -------------------------------------------------------
 OpenMP BLAS3 based DFT computing Module                
 Release: version 1.0, May 2013, Q-Chem Inc. Pittsburgh 
 -------------------------------------------------------
 ---------------------------------------
  Cycle       Energy         DIIS Error
 ---------------------------------------
    1   -5679.7971196823      2.13E-02
    2   -5662.4862991536      2.16E-03
    3   -5660.5082700897      3.59E-03
    4   -5663.2333579734      1.05E-03
    5   -5663.4738879384      3.33E-04
    6   -5663.4853203256      2.32E-04
    7   -5663.4956143724      8.89E-05
    8   -5663.4972796508      2.66E-05
    9   -5663.4973921575      1.33E-05
   10   -5663.4974275140      5.10E-06 Convergence criterion met
 ---------------------------------------
 SCF time:  CPU 1064.89 s  wall 87.46 s
 SCF   energy in the final basis set = -5663.4974275140
 Total energy in the final basis set = -5663.4974275140
 
 --------------------------------------------------------------
 
                    Orbital Energies (a.u.)
 --------------------------------------------------------------
 
 Alpha MOs
 -- Occupied --
-88.993 -88.988 -88.930 -88.924 -88.920 -88.918 -88.905 -88.903
-14.395 -14.389 -14.383 -14.381 -14.355 -14.343 -14.342 -14.335
-14.334 -14.331 -10.271 -10.269 -10.267 -10.265 -10.265 -10.263
-10.261 -10.254 -10.250 -10.245 -10.242 -10.242 -10.237 -10.236
-10.236 -10.235 -10.235 -10.233 -10.231 -10.230 -10.229 -10.229
-10.228 -10.226 -10.226 -10.225 -10.225 -10.224 -10.221 -10.216
-10.213 -10.211 -10.211 -10.207 -10.207 -10.197 -10.197 -10.191
-10.188 -10.187 -10.186 -10.182 -10.181 -10.181 -10.180 -10.177
-10.176 -10.176 -10.173 -10.171  -8.048  -8.044  -7.989  -7.983
 -7.980  -7.980  -7.964  -7.964  -6.014  -6.009  -6.008  -6.006
 -6.003  -6.002  -5.953  -5.949  -5.948  -5.945  -5.944  -5.944
 -5.944  -5.941  -5.941  -5.940  -5.937  -5.937  -5.929  -5.928
 -5.925  -5.924  -5.920  -5.920  -1.045  -1.034  -0.968  -0.966
 -0.963  -0.960  -0.948  -0.920  -0.914  -0.913  -0.904  -0.902
 -0.848  -0.840  -0.831  -0.826  -0.813  -0.806  -0.805  -0.801
 -0.801  -0.798  -0.793  -0.789  -0.787  -0.775  -0.771  -0.766
 -0.751  -0.748  -0.742  -0.739  -0.728  -0.725  -0.707  -0.707
 -0.695  -0.695  -0.678  -0.677  -0.657  -0.654  -0.646  -0.641
 -0.638  -0.632  -0.629  -0.619  -0.613  -0.608  -0.599  -0.594
 -0.593  -0.586  -0.584  -0.581  -0.580  -0.573  -0.571  -0.557
 -0.549  -0.546  -0.541  -0.538  -0.525  -0.521  -0.510  -0.507
 -0.505  -0.501  -0.500  -0.499  -0.488  -0.482  -0.480  -0.478
 -0.474  -0.473  -0.472  -0.470  -0.463  -0.458  -0.458  -0.454
 -0.450  -0.444  -0.439  -0.439  -0.438  -0.437  -0.435  -0.433
 -0.428  -0.427  -0.427  -0.425  -0.423  -0.420  -0.417  -0.414
 -0.412  -0.409  -0.406  -0.405  -0.404  -0.400  -0.398  -0.396
 -0.396  -0.390  -0.388  -0.388  -0.385  -0.384  -0.383  -0.379
 -0.378  -0.377  -0.368  -0.366  -0.365  -0.356  -0.355  -0.353
 -0.351  -0.350  -0.348  -0.348  -0.344  -0.344  -0.343  -0.342
 -0.339  -0.338  -0.337  -0.335  -0.332  -0.328  -0.323  -0.316
 -0.315  -0.312  -0.309  -0.309  -0.306  -0.303  -0.301  -0.299
 -0.295  -0.295  -0.289  -0.283  -0.283  -0.280  -0.279  -0.276
 -0.271  -0.270  -0.266  -0.263  -0.256  -0.255  -0.252  -0.251
 -0.247  -0.246  -0.238  -0.229  -0.199  -0.194
 -- Virtual --
 -0.118  -0.109  -0.078  -0.069  -0.041  -0.038  -0.035  -0.033
 -0.027  -0.026  -0.011  -0.010  -0.006  -0.001   0.001   0.005
  0.010   0.015   0.027   0.027   0.030   0.039   0.045   0.045
  0.052   0.058   0.062   0.063   0.068   0.070   0.076   0.080
  0.087   0.090   0.094   0.096   0.099   0.103   0.109   0.112
  0.114   0.117   0.117   0.118   0.118   0.121   0.123   0.123
  0.126   0.128   0.129   0.131   0.135   0.139   0.144   0.146
  0.150   0.155   0.156   0.157   0.159   0.160   0.163   0.163
  0.164   0.167   0.171   0.174   0.177   0.178   0.180   0.183
  0.184   0.187   0.189   0.191   0.191   0.192   0.194   0.195
  0.199   0.202   0.207   0.209   0.211   0.215   0.221   0.223
  0.224   0.226   0.228   0.229   0.231   0.236   0.238   0.239
  0.242   0.243   0.245   0.246   0.249   0.253   0.253   0.258
  0.260   0.263   0.266   0.270   0.272   0.273   0.279   0.281
  0.283   0.287   0.290   0.292   0.302   0.302   0.303   0.305
  0.310   0.314   0.315   0.319   0.319   0.321   0.324   0.327
  0.329   0.333   0.336   0.336   0.342   0.345   0.346   0.347
  0.350   0.354   0.358   0.364   0.366   0.367   0.368   0.371
  0.372   0.378   0.379   0.381   0.387   0.392   0.394   0.396
  0.402   0.404   0.409   0.414   0.419   0.421   0.425   0.432
  0.440   0.447   0.456   0.458   0.460   0.463   0.466   0.473
  0.475   0.477   0.486   0.490   0.492   0.495   0.497   0.497
  0.498   0.498   0.503   0.504   0.510   0.512   0.515   0.519
  0.520   0.523   0.525   0.527   0.528   0.529   0.531   0.532
  0.535   0.535   0.539   0.541   0.542   0.544   0.546   0.549
  0.552   0.553   0.556   0.557   0.558   0.559   0.561   0.561
  0.563   0.569   0.570   0.572   0.574   0.576   0.576   0.579
  0.580   0.586   0.587   0.592   0.596   0.597   0.599   0.599
  0.600   0.605   0.605   0.607   0.610   0.612   0.615   0.616
  0.618   0.622   0.623   0.624   0.626   0.627   0.628   0.630
  0.631   0.635   0.636   0.636   0.638   0.640   0.642   0.643
  0.644   0.646   0.651   0.654   0.656   0.660   0.662   0.665
  0.670   0.674   0.678   0.680   0.682   0.686   0.687   0.689
  0.694   0.696   0.701   0.703   0.708   0.709   0.710   0.714
  0.715   0.719   0.720   0.729   0.731   0.734   0.737   0.741
  0.748   0.753   0.757   0.760   0.766   0.767   0.770   0.770
  0.774   0.775   0.779   0.783   0.789   0.793   0.795   0.797
  0.797   0.799   0.800   0.801   0.805   0.808   0.811   0.812
  0.813   0.815   0.817   0.819   0.821   0.823   0.825   0.828
  0.829   0.830   0.832   0.834   0.836   0.838   0.839   0.840
  0.842   0.845   0.846   0.847   0.853   0.856   0.857   0.861
  0.863   0.863   0.864   0.865   0.868   0.869   0.870   0.872
  0.876   0.877   0.879   0.886   0.888   0.889   0.891   0.893
  0.896   0.897   0.899   0.901   0.906   0.910   0.911   0.913
  0.913   0.916   0.920   0.922   0.925   0.927   0.929   0.930
  0.934   0.936   0.939   0.942   0.943   0.946   0.947   0.948
  0.950   0.953   0.954   0.955   0.957   0.963   0.968   0.969
  0.969   0.975   0.975   0.980   0.982   0.983   0.988   0.991
  0.993   0.994   0.997   1.002   1.004   1.006   1.010   1.013
  1.014   1.020   1.022   1.023   1.023   1.026   1.027   1.028
  1.029   1.036   1.038   1.044   1.048   1.049   1.053   1.055
  1.061   1.066   1.066   1.071   1.074   1.078   1.079   1.084
  1.089   1.091   1.095   1.097   1.101   1.108   1.112   1.114
  1.116   1.118   1.120   1.129   1.133   1.138   1.141   1.143
  1.149   1.151   1.156   1.160   1.168   1.177   1.180   1.184
  1.189   1.199   1.200   1.204   1.222   1.223   1.224   1.228
  1.233   1.241   1.243   1.249   1.252   1.256   1.264   1.266
  1.267   1.269   1.274   1.278   1.280   1.287   1.290   1.299
  1.303   1.310   1.319   1.327   1.329   1.331   1.332   1.335
  1.341   1.349   1.352   1.355   1.362   1.365   1.367   1.368
  1.377   1.378   1.379   1.382   1.386   1.394   1.394   1.396
  1.402   1.404   1.405   1.415   1.420   1.427   1.428   1.430
  1.431   1.441   1.444   1.453   1.461   1.463   1.470   1.472
  1.477   1.483   1.488   1.491   1.494   1.498   1.501   1.513
  1.516   1.519   1.528   1.533   1.539   1.546   1.552   1.554
  1.571   1.577   1.581   1.590   1.595   1.598   1.601   1.610
  1.611   1.614   1.616   1.630   1.632   1.642   1.643   1.653
  1.657   1.658   1.661   1.662   1.664   1.669   1.675   1.677
  1.678   1.681   1.688   1.689   1.694   1.696   1.699   1.709
  1.711   1.714   1.716   1.716   1.718   1.722   1.731   1.740
  1.741   1.744   1.747   1.751   1.759   1.766   1.767   1.774
  1.778   1.781   1.782   1.787   1.797   1.798   1.800   1.812
  1.820   1.823   1.823   1.827   1.830   1.831   1.836   1.838
  1.843   1.846   1.853   1.856   1.857   1.861   1.863   1.868
  1.874   1.876   1.877   1.878   1.889   1.894   1.895   1.897
  1.900   1.905   1.905   1.908   1.910   1.913   1.922   1.925
  1.928   1.931   1.938   1.940   1.943   1.948   1.950   1.956
  1.956   1.959   1.964   1.967   1.970   1.976   1.978   1.984
  1.991   1.995   2.003   2.004   2.005   2.009   2.014   2.015
  2.026   2.028   2.038   2.044   2.044   2.047   2.048   2.058
  2.059   2.064   2.071   2.081   2.085   2.089   2.090   2.093
  2.098   2.102   2.106   2.110   2.114   2.118   2.122   2.124
  2.124   2.127   2.130   2.138   2.142   2.143   2.145   2.152
  2.154   2.164   2.165   2.173   2.175   2.183   2.183   2.185
  2.190   2.191   2.197   2.199   2.210   2.211   2.212   2.214
  2.221   2.224   2.230   2.236   2.237   2.239   2.240   2.245
  2.250   2.251   2.256   2.264   2.273   2.281   2.284   2.287
  2.287   2.291   2.292   2.295   2.300   2.300   2.306   2.315
  2.315   2.319   2.319   2.323   2.324   2.326   2.328   2.329
  2.337   2.343   2.350   2.350   2.351   2.354   2.358   2.360
  2.363   2.364   2.368   2.374   2.385   2.387   2.389   2.396
  2.399   2.401   2.403   2.406   2.406   2.408   2.418   2.421
  2.421   2.424   2.430   2.434   2.436   2.438   2.443   2.450
  2.451   2.453   2.455   2.457   2.463   2.464   2.471   2.474
  2.478   2.482   2.484   2.487   2.488   2.493   2.495   2.500
  2.507   2.509   2.512   2.515   2.526   2.529   2.532   2.538
  2.539   2.545   2.547   2.549   2.556   2.563   2.568   2.570
  2.575   2.582   2.583   2.588   2.589   2.597   2.602   2.603
  2.608   2.612   2.615   2.618   2.628   2.633   2.641   2.646
  2.647   2.649   2.651   2.653   2.663   2.668   2.668   2.674
  2.681   2.683   2.685   2.687   2.690   2.694   2.695   2.701
  2.703   2.705   2.709   2.714   2.718   2.722   2.725   2.734
  2.734   2.741   2.742   2.747   2.756   2.763   2.768   2.778
  2.779   2.787   2.795   2.804   2.810   2.814   2.819   2.824
  2.828   2.840   2.841   2.845   2.848   2.854   2.861   2.864
  2.866   2.880   2.883   2.885   2.888   2.889   2.893   2.907
  2.909   2.911   2.914   2.920   2.929   2.934   2.947   2.952
  2.959   2.964   2.971   2.972   2.986   2.989   3.003   3.009
  3.020   3.027   3.037   3.047   3.056   3.060   3.089   3.092
  3.159   3.172   3.176   3.179   3.185   3.203   3.213   3.235
  3.239   3.245   3.249   3.271   3.272   3.280   3.287   3.292
  3.301   3.303   3.312   3.319   3.333   3.333   3.338   3.340
  3.346   3.354   3.365   3.376   3.389   3.399   3.410   3.415
  3.441   3.445   3.454   3.470   3.473   3.491   3.514   3.532
  3.532   3.552   3.569   3.575   3.580   3.581   3.596   3.605
  3.613   3.633   3.708   3.721   3.830   3.852   3.905   3.907
  3.945   3.948   3.954   3.959   3.961   3.965   3.978   3.980
  4.054   4.065   4.069   4.070   4.083   4.097   4.113   4.119
  4.120   4.126   4.143   4.152   4.157   4.164   4.176   4.186
  4.196   4.206   4.225   4.242   4.251   4.254   4.255   4.258
  4.273   4.280   4.304   4.331   4.362   4.370   4.373   4.382
  4.397   4.426   4.427   4.445   4.458   4.469   4.486   4.490
  4.497   4.498   4.534   4.536   4.577   4.591   4.646   4.655
  4.677   4.686   4.705   4.715   4.743   4.766   4.783   4.792
 --------------------------------------------------------------
 
          Ground-State Mulliken Net Atomic Charges

     Atom                 Charge (a.u.)
  ----------------------------------------
      1 C                     0.250586
      2 C                    -0.110360
      3 N                    -0.485441
      4 C                    -0.096683
      5 C                     0.037516
      6 C                     0.061002
      7 C                     0.039793
      8 C                     0.065459
      9 C                     0.184802
     10 N                    -0.539909
     11 N                    -0.562396
     12 C                     0.200139
     13 C                     0.360446
     14 S                     0.610042
     15 N                    -0.545525
     16 C                    -0.213095
     17 S                     0.331346
     18 C                    -0.128759
     19 C                    -0.245042
     20 S                     0.261375
     21 C                     0.174190
     22 C                     0.086721
     23 C                    -0.295310
     24 C                    -0.051643
     25 N                    -0.456494
     26 S                     0.240965
     27 C                     0.113276
     28 C                    -0.294912
     29 C                    -0.217200
     30 H                     0.107302
     31 H                     0.121260
     32 H                     0.128354
     33 H                     0.126485
     34 H                     0.136307
     35 H                     0.128971
     36 H                     0.121961
     37 H                     0.127698
     38 H                     0.120757
     39 C                    -0.190490
     40 H                     0.119673
     41 H                     0.089675
     42 H                     0.097432
     43 C                    -0.187582
     44 H                     0.096176
     45 C                    -0.190402
     46 H                     0.095487
     47 H                     0.098026
     48 H                     0.090131
     49 C                    -0.177474
     50 H                     0.098421
     51 C                    -0.324195
     52 H                     0.100409
     53 H                     0.103296
     54 H                     0.102198
     55 H                     0.103300
     56 C                     0.252140
     57 C                    -0.104115
     58 N                    -0.480599
     59 C                    -0.117803
     60 C                     0.057583
     61 C                     0.055338
     62 C                     0.041687
     63 C                     0.064330
     64 C                     0.202420
     65 N                    -0.521410
     66 N                    -0.546285
     67 C                     0.155974
     68 C                     0.323853
     69 S                     0.615867
     70 N                    -0.526002
     71 C                    -0.213620
     72 S                     0.333732
     73 C                    -0.109192
     74 C                    -0.222198
     75 S                     0.285485
     76 C                     0.127034
     77 C                     0.053207
     78 C                    -0.307170
     79 C                    -0.033067
     80 N                    -0.441649
     81 S                     0.237085
     82 C                     0.139261
     83 C                    -0.300363
     84 C                    -0.244278
     85 H                     0.097998
     86 H                     0.115293
     87 H                     0.127655
     88 H                     0.121903
     89 H                     0.125845
     90 H                     0.119997
     91 H                     0.116701
     92 H                     0.129364
     93 H                     0.113038
     94 C                    -0.155279
     95 H                     0.093910
     96 H                     0.112067
     97 H                     0.083307
     98 C                    -0.190671
     99 H                     0.096479
    100 C                    -0.180821
    101 H                     0.088055
    102 H                     0.087836
    103 H                     0.090784
    104 C                    -0.183447
    105 H                     0.101989
    106 C                    -0.313813
    107 H                     0.095302
    108 H                     0.106652
    109 H                     0.103405
    110 H                     0.101147
  ----------------------------------------
  Sum of atomic charges =     0.000000

 -----------------------------------------------------------------
                    Cartesian Multipole Moments
 -----------------------------------------------------------------
    Charge (ESU x 10^10)
                 0.0000
    Dipole Moment (Debye)
         X      -2.2339      Y      -0.7591      Z       3.1368
       Tot       3.9251
    Quadrupole Moments (Debye-Ang)
        XX    -418.1023     XY      14.5964     YY    -407.7905
        XZ      10.4760     YZ      -2.9956     ZZ    -430.8551
    Octopole Moments (Debye-Ang^2)
       XXX    -759.2893    XXY     -42.0295    XYY     151.6258
       YYY     331.3248    XXZ     -44.2291    XYZ      10.7014
       YYZ     189.5978    XZZ     -10.9288    YZZ      62.2799
       ZZZ      48.5430
    Hexadecapole Moments (Debye-Ang^3)
      XXXX  -69490.7989   XXXY    1772.5661   XXYY  -21406.1852
      XYYY    1492.5599   YYYY  -51399.1189   XXXZ    1846.6983
      XXYZ    -461.6872   XYYZ     278.0146   YYYZ    1741.0303
      XXZZ  -14976.2808   XYZZ      18.3162   YYZZ  -10720.9871
      XZZZ    -121.1821   YZZZ     -89.9706   ZZZZ  -13164.4996
 -----------------------------------------------------------------
Archival summary:
1\1\mn246\SP\ProcedureUnspecified\6-31G**\8105042\afmv_a\FriOct1213:56:222018FriOct1213:56:222018\0\\#,ProcedureUnspecified,6-31G**,\\0,1\S\C,1,1.7311\C,2,1.37903,1,131.128\C,2,1.39491,1,113.933,3,175.628,0\C,4,1.41559,2,113.001,1,-172.481,0\C,5,1.43425,4,119.899,2,166.691,0\N,6,1.33071,5,121.109,4,29.7125,0\C,7,1.37616,6,112.721,5,-171.364,0\H,8,1.08182,7,124.165,6,177.728,0\C,8,1.32752,7,115.289,6,-5.39814,0\H,10,1.08189,8,129.058,7,-179.55,0\C,4,1.44422,2,110.644,1,-7.82752,0\H,12,1.08435,4,127.96,2,-166.363,0\C,12,1.33822,4,111.171,2,4.20123,0\H,14,1.08203,12,128.08,4,-174.553,0\C,3,1.53156,2,121.391,1,3.21123,0\N,16,1.33187,3,119.629,2,-6.17469,0\C,17,1.30302,16,124.962,3,163.266,0\H,18,1.08893,17,113.368,16,-173.376,0\C,18,1.41179,17,123.729,16,-1.2944,0\C,20,1.42731,18,114.798,17,8.88841,0\N,21,1.41237,20,128.802,18,-172.81,0\C,16,1.43476,3,124.571,2,167.598,0\N,23,1.32154,16,123.686,3,3.97395,0\C,20,1.5146,18,122.056,17,-167.332,0\C,25,1.40075,20,120.375,18,9.97556,0\H,26,1.08578,25,118.487,20,-6.46745,0\C,26,1.43369,25,124.661,20,171.037,0\H,28,1.08544,26,122.09,25,-177.669,0\C,28,1.38215,26,115.466,25,5.26644,0\N,30,1.37047,28,126.25,26,-0.00314866,0\C,31,1.38847,30,115.125,28,-2.39309,0\H,32,1.08919,31,108.656,30,179.018,0\C,30,1.56085,28,119.964,26,-179.95,0\H,34,1.09671,30,113.894,28,36.888,0\H,34,1.09701,30,106.167,28,149.843,0\C,34,1.49648,30,115.226,28,-93.2706,0\H,37,1.0968,34,105.707,30,66.2736,0\H,37,1.09771,34,108.347,30,-46.2135,0\C,37,1.51929,34,113.389,30,-171.785,0\H,40,1.09712,37,107.612,34,84.0691,0\H,40,1.09719,37,109.504,34,-28.2199,0\S,24,1.57336,23,107.476,16,-166.991,0\C,40,1.57424,37,114.182,34,-154.841,0\H,44,1.09718,40,103.648,37,78.2964,0\H,44,1.0975,40,106.184,37,-169.324,0\C,44,1.59921,40,115.818,37,-48.0455,0\H,47,1.09671,44,114.979,40,57.6314,0\H,47,1.09683,44,100.825,40,-54.9136,0\C,47,1.54468,44,112.646,40,-169.27,0\H,50,1.09692,47,102.869,44,-60.2621,0\H,50,1.09719,47,114.991,44,174.3,0\H,50,1.0977,47,110.027,44,62.0867,0\S,6,1.73394,5,125.294,4,-151.631,0\S,3,1.75639,2,110.557,1,174.177,0\H,29,2.37465,28,153.761,26,69.0081,0\C,56,1.09664,29,118.986,28,5.18584,0\H,57,1.09771,56,107.742,29,-178.418,0\C,57,1.51344,56,113.288,29,69.1926,0\H,59,1.09693,57,113.125,56,159.457,0\H,59,1.09701,57,105.15,56,-81.5376,0\C,57,1.55554,56,108.193,29,-60.4053,0\H,62,1.09694,57,105.331,56,74.811,0\H,62,1.09728,57,106.835,56,-163.147,0\C,62,1.57892,57,112.231,56,-42.2989,0\N,65,1.32614,62,110.646,57,150.514,0\C,66,1.35259,65,120.091,62,172.325,0\H,67,1.08888,66,114.282,65,-170.322,0\C,65,1.39541,62,124.947,57,-32.9954,0\H,69,1.08581,65,122.773,62,16.6498,0\C,67,1.405,66,121.717,65,7.37546,0\C,71,1.39997,67,116.088,66,-1.64897,0\H,72,1.08572,71,122.97,67,179.242,0\C,71,1.53823,67,120.169,66,174.07,0\C,74,1.41234,71,128.077,67,163.774,0\N,75,1.37761,74,123.137,71,-11.7421,0\C,74,1.42179,71,115.783,67,-29.2402,0\H,77,1.08839,74,118.516,71,-0.4544,0\N,77,1.37074,74,121.272,71,173.926,0\C,79,1.32736,77,123.435,74,8.40563,0\C,80,1.39759,79,118.527,77,6.61867,0\N,81,1.35649,80,129.193,79,-176.635,0\C,80,1.50451,79,122.791,77,-176.325,0\C,83,1.35607,80,124.791,79,2.76426,0\C,84,1.44295,83,115.822,80,-174.004,0\C,85,1.3359,84,112.968,83,2.23878,0\C,86,1.38415,85,125.366,84,175.026,0\N,87,1.31354,86,124.894,85,5.81994,0\C,88,1.39759,87,111.546,86,-173.728,0\H,89,1.08254,88,122.711,87,-165.576,0\C,89,1.38221,88,112.478,87,9.68642,0\H,91,1.08227,89,127.187,88,-177.387,0\C,85,1.43367,84,109.874,83,-170.363,0\H,93,1.08418,85,123.805,84,-171.658,0\C,93,1.35992,85,115.869,84,-10.1989,0\H,95,1.08255,93,129.263,85,-176.971,0\S,82,1.59716,81,109.265,80,159.72,0\C,59,1.61214,57,110.451,56,38.336,0\H,98,1.09705,59,108.782,57,-133.381,0\H,98,1.09748,59,105.431,57,-30.1563,0\C,98,1.54308,59,114.854,57,92.2798,0\H,101,1.09652,98,109.745,59,176.42,0\H,101,1.09694,98,116.908,59,49.7346,0\C,101,1.58261,98,113.65,59,-70.9523,0\H,104,1.09638,101,109.802,98,-29.1569,0\H,104,1.09703,101,111.526,98,-150.829,0\H,104,1.09791,101,107.585,98,91.3574,0\S,83,1.74305,80,125.891,79,-169.563,0\S,84,1.74849,83,130.891,80,5.05787,0\S,91,1.75744,89,109.204,88,-23.0357,0\\\@

 Total job time:  90.66s(wall), 1074.78s(cpu) 
 Fri Oct 12 13:56:22 2018

        *************************************************************
        *                                                           *
        *  Thank you very much for using Q-Chem.  Have a nice day.  *
        *                                                           *
        *************************************************************


