
Running Job 1 of 1 ./10/56.qcin
qchem ./10/56.qcin_19027.0 /tmpu/cab_g/afmv_a/scratch_qchem/qchem19027/ 1
/tmpu/appuserlic/qchem4.4/serial-multicore/exe/qcprog.exe_s ./10/56.qcin_19027.0 /tmpu/cab_g/afmv_a/scratch_qchem/qchem19027/
Check license passed

                  Welcome to Q-Chem
     A Quantum Leap Into The Future Of Chemistry


 Q-Chem 4.4, Q-Chem, Inc., Pleasanton, CA (2016)

 Y. Shao,  Z. Gan,  E. Epifanovsky,  A. T. B. Gilbert,  M. Wormit,  
 J. Kussmann,  A. W. Lange,  A. Behn,  J. Deng,  X. Feng,  D. Ghosh,  
 M. Goldey,  P. R. Horn,  L. D. Jacobson,  I. Kaliman,  F. Rob,  
 R. Z. Khaliullin,  T. Kus,  A. Landau,  J. Liu,  E. I. Proynov,  Y. M. Rhee,  
 R. M. Richard,  M. A. Rohrdanz,  R. P. Steele,  E. J. Sundstrom,  
 H. L. Woodcock III,  P. M. Zimmerman,  D. Zuev,  B. Albrecht,  E. Alguire,  
 B. Austin,  S. A. Baeppler,  G. J. O. Beran,  Y. A. Bernard,  E. Berquist,  
 K. Brandhorst,  K. B. Bravaya,  S. T. Brown,  D. Casanova,  C.-M. Chang,  
 Y. Chen,  S. H. Chien,  K. D. Closser,  M. P. Coons,  D. L. Crittenden,  
 S. Dasgupta,  M. Diedenhofen,  R. A. DiStasio Jr.,  H. Do,  A. D. Dutoi,  
 R. G. Edgar,  P.-T. Fang,  S. Fatehi,  Q. Feng,  L. Fusti-Molnar,  
 A. Ghysels,  A. Golubeva-Zadorozhnaya,  J. Gomes,  A. Gunina,  
 M. W. D. Hanson-Heine,  P. H. P. Harbach,  A. W. Hauser,  J. E. Herr,  
 E. G. Hohenstein,  Z. C. Holden,  K. Hui,  T.-C. Jagau,  H. Ji,  B. Kaduk,  
 K. Khistyaev,  Jaehoon Kim,  Jihan Kim,  R. A. King,  P. Klunzinger,  
 K. Koh,  D. Kosenkov,  T. Kowalczyk,  C. M. Krauter,  A. Kunitsa,  
 K. U. Lao,  A. Laurent,  K. V. Lawler,  J. Lee,  D. Lefrancois,  S. Lehtola,  
 S. V. Levchenko,  C. Y. Lin,  Y.-S. Lin,  F. Liu,  E. Livshits,  
 R. C. Lochan,  A. Luenser,  P. Manohar,  S. F. Manzer,  S.-P. Mao,  Y. Mao,  
 N. Mardirossian,  A. V. Marenich,  L. A. Martinez-Martinez,  S. A. Maurer,  
 N. J. Mayhall,  J.-M. Mewes,  A. F. Morrison,  K. Nanda,  T. S. Nguyen-Beck,  
 C. M. Oana,  R. Olivares-Amaya,  D. P. O'Neill,  J. A. Parkhill,  
 T. M. Perrine,  R. Peverati,  P. A. Pieniazek,  F. Plasser,  A. Prociuk,  
 D. R. Rehn,  E. Rosta,  N. J. Russ,  N. Sergueev,  S. M. Sharada,  
 S. Sharma,  D. W. Small,  A. Sodt,  T. Stauch,  T. Stein,  D. Stuck,  
 Y.-C. Su,  A. J. W. Thom,  T. Tsuchimochi,  L. Vogt,  O. Vydrov,  T. Wang,  
 M. A. Watson,  J. Wenzel,  A. White,  C. F. Williams,  V. Vanovschi,  
 K. Yao,  S. Yeganeh,  S. R. Yost,  Z.-Q. You,  I. Y. Zhang,  X. Zhang,  
 Y. Zhao,  B. R. Brooks,  G. K. L. Chan,  D. M. Chipman,  C. J. Cramer,  
 W. A. Goddard III,  M. S. Gordon,  W. J. Hehre,  A. Klamt,  
 H. F. Schaefer III,  M. W. Schmidt,  C. D. Sherrill,  D. G. Truhlar,  
 A. Warshel,  X. Xu,  A. Aspuru-Guzik,  R. Baer,  A. T. Bell,  N. A. Besley,  
 J.-D. Chai,  A. Dreuw,  B. D. Dunietz,  T. R. Furlani,  S. R. Gwaltney,  
 C.-P. Hsu,  Y. Jung,  J. Kong,  D. S. Lambrecht,  W. Liang,  C. Ochsenfeld,  
 V. A. Rassolov,  L. V. Slipchenko,  J. E. Subotnik,  T. Van Voorhis,  
 J. M. Herbert,  A. I. Krylov,  P. M. W. Gill,  M. Head-Gordon

 Contributors to earlier versions of Q-Chem not listed above: 
 R. D. Adamson,  J. Baker,  E. F. C. Byrd,  A. K. Chakraborty,  C.-L. Cheng,  
 H. Dachsel,  R. J. Doerksen,  G. Hawkins,  A. Heyden,  S. Hirata,  
 G. Kedziora,  F. J. Keil,  C. Kelley,  P. P. Korambath,  W. Kurlancheek,  
 A. M. Lee,  M. S. Lee,  D. Liotard,  I. Lotan,  P. E. Maslen,  N. Nair,  
 D. Neuhauser,  R. Olson,  B. Peters,  J. Ritchie,  N. E. Schultz,  
 N. Shenvi,  A. C. Simmonett,  K. S. Thanthiriwatte,  Q. Wu,  W. Zhang

 Please cite Q-Chem as follows:
 Y. Shao et al., Mol. Phys. 113, 184-215 (2015)
 DOI: 10.1080/00268976.2014.952696

 Q-Chem 4.4.2 for Intel X86 Linux

 Parts of Q-Chem use Armadillo 5.200.1 (Boston Tea Smuggler).
 http://arma.sourceforge.net/

 Q-Chem begins on Fri Oct 12 13:57:46 2018  

Host: 
0

     Scratch files written to /tmpu/cab_g/afmv_a/scratch_qchem/qchem19027//
 Dec716 11556_ 22328  22283 4050   
Processing $rem in /tmpu/appuserlic/qchem4.4/serial-multicore/config/preferences.
 MEM_TOTAL  2000 
FILE_GEOM_ORG=        593

Checking the input file for inconsistencies... 	...done.

--------------------------------------------------------------
User input:
--------------------------------------------------------------
$comment
SP
$end

$rem
MEM_STATIC 5000
MEM_TOTAL 20000
JOBTYPE SP
EXCHANGE B3LYP
BASIS 6-31g(d,p)
$end

$molecule
0 1
C          -3.255000    -13.671000    -14.522000
C          -2.389000    -12.852000    -15.312000
N          -3.274000    -13.520000    -13.220000
C          -1.560000    -11.933000    -14.715000
C          -2.513000    -12.588000    -12.650000
C          -1.601000    -11.747000    -13.296000
C          -0.789000    -10.824000    -12.434000
C          -1.434000    -10.226000    -11.368000
C           0.512000    -10.394000    -12.621000
N          -0.891000     -9.351000    -10.469000
N           1.191000    -10.646000    -13.719000
C           1.113000     -9.537000    -11.706000
C           0.405000     -9.198000    -10.547000
S           2.634000     -9.908000    -13.549000
N           2.377000     -9.215000    -12.043000
C           0.919000     -8.392000     -9.445000
S          -0.120000     -7.165000     -8.609000
C           2.188000     -8.533000     -8.855000
C           1.196000     -6.903000     -7.370000
S           3.411000     -9.771000     -9.008000
C           2.275000     -7.698000     -7.705000
C           1.096000     -6.207000     -6.153000
C           4.065000     -9.230000     -7.401000
C           3.338000     -8.161000     -6.875000
N           2.133000     -5.443000     -5.823000
S          -0.192000     -6.415000     -4.914000
C           1.982000     -4.985000     -4.531000
C           0.804000     -5.321000     -3.919000
C          -4.238000    -14.663000    -15.023000
H          -2.411000    -12.975000    -16.391000
H          -0.880000    -11.371000    -15.349000
H          -2.567000    -12.656000    -11.564000
H          -2.457000    -10.521000    -11.138000
H           4.945000     -9.673000     -6.954000
H           3.569000     -7.637000     -5.955000
H           2.712000     -4.360000     -4.033000
H           0.443000     -4.929000     -2.977000
H          -4.124000    -14.890000    -16.090000
C          -5.703000    -14.074000    -14.990000
H          -4.206000    -15.601000    -14.454000
H          -5.666000    -13.163000    -15.601000
H          -6.149000    -13.766000    -14.036000
C          -6.590000    -15.164000    -15.582000
H          -6.006000    -16.025000    -15.930000
C          -7.469000    -14.666000    -16.730000
H          -7.244000    -15.542000    -14.787000
H          -7.857000    -13.693000    -16.406000
H          -8.327000    -15.341000    -16.836000
C          -6.609000    -14.609000    -18.045000
H          -5.838000    -13.832000    -17.967000
C          -7.618000    -14.329000    -19.191000
H          -6.124000    -15.575000    -18.231000
H          -8.324000    -15.162000    -19.294000
H          -7.053000    -14.278000    -20.131000
H          -8.187000    -13.393000    -19.138000
C           9.101000     -0.069000     -6.737000
C           9.299000     -1.414000     -7.061000
N           8.163000      0.662000     -7.337000
C           8.301000     -2.019000     -7.903000
C           7.269000      0.099000     -8.192000
C           7.296000     -1.264000     -8.487000
C           6.171000     -1.895000     -9.261000
C           5.986000     -1.673000    -10.597000
C           5.381000     -2.954000     -8.741000
N           5.097000     -2.321000    -11.333000
N           5.431000     -3.433000     -7.473000
C           4.538000     -3.652000     -9.576000
C           4.384000     -3.350000    -10.917000
S           4.624000     -4.822000     -7.486000
N           4.038000     -4.790000     -8.993000
C           3.533000     -4.147000    -11.788000
S           2.076000     -5.120000    -11.303000
C           3.645000     -4.135000    -13.139000
C           1.674000     -5.513000    -12.995000
S           4.701000     -3.282000    -14.236000
C           2.628000     -4.827000    -13.769000
C           0.535000     -6.176000    -13.480000
C           3.677000     -3.850000    -15.576000
C           2.635000     -4.629000    -15.168000
N           0.649000     -6.937000    -14.593000
S          -0.860000     -6.547000    -12.421000
C          -0.381000     -7.817000    -14.705000
C          -1.237000     -7.725000    -13.655000
C          10.094000      0.705000     -5.833000
H          10.013000     -1.995000     -6.484000
H           8.483000     -3.061000     -8.151000
H           6.516000      0.759000     -8.620000
H           6.532000     -0.916000    -11.158000
H           3.858000     -3.462000    -16.569000
H           1.868000     -5.097000    -15.774000
H          -0.589000     -8.529000    -15.492000
H          -2.161000     -8.287000    -13.607000
H          11.114000      0.318000     -5.948000
C           9.629000      0.658000     -4.321000
H          10.312000      1.707000     -6.221000
H           9.467000     -0.357000     -3.937000
H           8.603000      1.046000     -4.333000
C          10.580000      1.543000     -3.450000
H          11.632000      1.253000     -3.571000
C           9.992000      1.609000     -2.001000
H          10.594000      2.566000     -3.844000
H           8.898000      1.685000     -1.975000
H          10.399000      2.469000     -1.455000
C          10.324000      0.285000     -1.248000
H          10.312000     -0.624000     -1.861000
C           9.433000      0.031000     -0.004000
H          11.322000      0.171000     -0.808000
H           9.657000      0.761000      0.783000
H           9.662000     -0.955000      0.419000
H           8.376000      0.111000     -0.285000
$end

--------------------------------------------------------------
 ----------------------------------------------------------------
             Standard Nuclear Orientation (Angstroms)
    I     Atom           X                Y                Z
 ----------------------------------------------------------------
    1      C       9.7844297914    -0.9063747450     1.0297127941
    2      C       9.1497351141     0.3677682147     1.1658722038
    3      N       9.0503469418    -1.9737417455     0.8291733808
    4      C       7.7806729197     0.4750152058     1.1171096087
    5      C       7.7281921863    -1.8581552326     0.7233832086
    6      C       6.9797842277    -0.6855631120     0.8691715695
    7      C       5.4857496014    -0.8103913293     0.7879591829
    8      C       4.9758073851    -1.6781541027    -0.1591056011
    9      C       4.5234396565    -0.0857361005     1.4671530942
   10      N       3.6564093057    -1.9346729018    -0.4082276872
   11      N       4.8158613982     0.9610629133     2.2079974434
   12      C       3.1718088829    -0.3461255528     1.2717903932
   13      C       2.8129214404    -1.4186701180     0.4469789243
   14      S       3.3986864465     1.5457920380     2.7607179940
   15      N       2.3736567879     0.4528200836     2.0063570024
   16      C       1.4518478903    -1.8871571888     0.2098404505
   17      S       0.9099181169    -2.4170312392    -1.4362128936
   18      C       0.4707793662    -2.0756114787     1.1999573788
   19      C      -0.6730586458    -2.9868662993    -0.7255135387
   20      S       0.5651234227    -2.0846886629     2.9443193836
   21      C      -0.6724232550    -2.7009218827     0.6260508833
   22      C      -1.6505635406    -3.7824754736    -1.3476029393
   23      C      -0.9712546813    -3.0553854347     2.9559855109
   24      C      -1.4503741377    -3.2893326016     1.6661485950
   25      N      -2.9169472826    -3.4461702997    -1.1214701284
   26      S      -1.3601538634    -5.3202669840    -2.2354027422
   27      C      -3.7545942681    -4.4188790260    -1.6254684037
   28      C      -3.1380162997    -5.4351831420    -2.3052342110
   29      C      11.2439676622    -1.1721552723     1.0081741100
   30      H       9.7797365566     1.2419461239     1.3028582088
   31      H       7.3390488853     1.4541810330     1.2795980547
   32      H       7.2584318991    -2.8390193593     0.6588321618
   33      H       5.6643713471    -2.3019330507    -0.7276418746
   34      H      -1.4581660938    -3.3597121351     3.8729154623
   35      H      -2.3745316817    -3.8002861776     1.4228457444
   36      H      -4.8329097771    -4.3757771188    -1.5423607099
   37      H      -3.6318297111    -6.1954460051    -2.8964175106
   38      H      11.8492002234    -0.3102711747     1.3145453703
   39      C      11.7563120382    -1.3966895885    -0.4687560106
   40      H      11.5163493278    -2.0365990348     1.6271847801
   41      H      11.4796202616    -0.4864711223    -1.0160721939
   42      H      11.3598761867    -2.2269397790    -1.0666015064
   43      C      13.2633621467    -1.5953656728    -0.3476742860
   44      H      13.6122688804    -1.4726731873     0.6851333656
   45      C      14.0672621369    -0.6634569139    -1.2553305376
   46      H      13.4952463960    -2.6305551558    -0.6255905127
   47      H      13.5422367536    -0.6612948323    -2.2179273754
   48      H      15.0576893907    -1.1033409445    -1.4243893868
   49      C      14.1682432974     0.7506950322    -0.5755871459
   50      H      13.1820262751     1.2304635950    -0.5374805705
   51      C      15.1843554277     1.5531130516    -1.4319973635
   52      H      14.5607649606     0.6612321005     0.4446579854
   53      H      16.1780155572     1.0914169393    -1.3829030977
   54      H      15.2804989305     2.5533504241    -0.9896088175
   55      H      14.9280727669     1.7200446041    -2.4851445776
   56      C     -10.0042873072     1.6135343839     0.4397140020
   57      C      -9.1347951079     1.4028382545     1.5133971286
   58      N      -9.5825792159     2.1501940144    -0.7041232796
   59      C      -7.7332800690     1.5848400196     1.2420597862
   60      C      -8.2636588601     2.3915568364    -0.9264363091
   61      C      -7.2935981407     2.0975287221     0.0317143412
   62      C      -5.8329132472     2.1723948781    -0.3199342057
   63      C      -5.1871661214     3.3606225429    -0.5187574092
   64      C      -4.9614335057     1.0558498376    -0.2207816327
   65      N      -3.8786498445     3.4660910344    -0.6878211562
   66      N      -5.3328381764    -0.2188887307     0.0564640222
   67      C      -3.6005076635     1.2400260516    -0.3158498942
   68      C      -3.0203340084     2.4744752873    -0.5454900789
   69      S      -3.9807700649    -1.0153870008     0.4003263893
   70      N      -2.8884365028     0.1232873846     0.0457886154
   71      C      -1.5755827945     2.6469001649    -0.5773427320
   72      S      -0.3336801234     1.3968980655    -1.0245289428
   73      C      -0.9738002975     3.8508230612    -0.4151191642
   74      C       1.0009424176     2.5764701455    -0.9450973293
   75      S      -1.5910955678     5.4603529538    -0.1421465025
   76      C       0.3865180693     3.8087209034    -0.6555653105
   77      C       2.3449468919     2.3847467646    -1.3042757228
   78      C       0.0531377994     6.0793911261    -0.4251453989
   79      C       0.9618068585     5.0987227642    -0.6928749362
   80      N       3.3017872270     3.0682530405    -0.6348268867
   81      S       2.8909799831     0.9038087700    -2.1491529442
   82      C       4.5259908612     2.4985728903    -0.7917790720
   83      C       4.4637569796     1.3751017722    -1.5518051181
   84      C     -11.5378213933     1.4455624685     0.5893791023
   85      H      -9.5009841081     0.8805229082     2.3928164228
   86      H      -7.0785776677     1.4275372335     2.0947101244
   87      H      -7.9970472381     2.8059530377    -1.8975115026
   88      H      -5.7038397617     4.3165012417    -0.5910779628
   89      H       0.2021281884     7.1485389823    -0.4890102993
   90      H       2.0201814716     5.2018902139    -0.9020367292
   91      H       5.4851461284     2.8248555862    -0.4134435387
   92      H       5.3476077044     0.8288226416    -1.8556323843
   93      H     -11.8626096294     1.6907205208     1.6081058229
   94      C     -11.9840274763    -0.0167627480     0.1806211143
   95      H     -12.0924155896     2.2544776343     0.0993244810
   96      H     -11.4534987902    -0.8108467354     0.7208941324
   97      H     -11.5925346525    -0.1537246959    -0.8349274043
   98      C     -13.5437589649    -0.1234502696     0.2266912381
   99      H     -13.9446870552     0.1760323664     1.2039382985
  100      C     -13.9530742823    -1.5219293411    -0.3446390145
  101      H     -13.9841563908     0.6384227713    -0.4271899261
  102      H     -13.3473028233    -1.8393523750    -1.2022936986
  103      H     -15.0035327796    -1.5205343368    -0.6607086261
  104      C     -13.7179631509    -2.6133535432     0.7433522387
  105      H     -12.8440770088    -2.4592356806     1.3873745171
  106      C     -13.6432844879    -4.0559327900     0.1782670999
  107      H     -14.4755728339    -2.7421231768     1.5256858950
  108      H     -14.6232484000    -4.3700967196    -0.2004369486
  109      H     -13.3880260964    -4.7553005023     0.9840548862
  110      H     -12.9085741210    -4.0958157731    -0.6348872670
 ----------------------------------------------------------------
 Molecular Point Group                 C1    NOp =  1
 Largest Abelian Subgroup              C1    NOp =  1
 Nuclear Repulsion Energy = 11900.6540675063 hartrees
 There are      270 alpha and      270 beta electrons
 Requested basis set is 6-31G(d,p)
 There are 406 shells and 1262 basis functions

 Total QAlloc Memory Limit  20000 MB
 Mega-Array Size      4888 MB
 MEM_STATIC part      5000 MB
 A cutoff of  1.0D-08 yielded  13999 shell pairs
 There are    151957 function pairs
 
 -------------------------------------------------------
 OpenMP Integral Computing Module                       
 Release: version 1.0, May 2013, Q-Chem Inc. Pittsburgh 
 -------------------------------------------------------
 Integral Job Info:
 Integral job number is                      11
 Integral operator is                         1
 short-range coefficients                     0
 long-range coefficients              100000000
 Omega coefficients                           0
 if combine SR and LR in K                    0
 Integral screening is                        0
 Integral computing path is                   2
 max size of driver memory is            800000
 size of driver memory is                593474
 size of scratch memory is             15166112
 max col of scratch BK array               1296
 max len of scratch array in speh3          155
 max len of scratch index in speh4           18
 max int batch size is                      520
 min int batch size is                       52
 fixed nKL is                                52
 max L of basis functions is                  2
 order of int derivative is                   0
 number of shells is                        406
 number of basis is                        1262
 number of cartesian basis is              1262
 number of contracted shell pairs         13999
 number of primitive shell pairs          44823
 maxK2 (contraction) of shell pair           36
 max number of K2 of shell pair               1
 max number of CS2 of shell pair           1599
 max number of PS2 of shell pair           8790
 mem total for path MDJ                  338824
 -------------------------------------------------------
 Smallest overlap matrix eigenvalue = 3.76E-04

 Scale SEOQF with 1.000000e-02/1.000000e-02/1.000000e-01

 Standard Electronic Orientation quadrupole field applied
 Nucleus-field energy     =     0.0000000190 hartrees
 Guess from superposition of atomic densities
 Warning:  Energy on first SCF cycle will be non-variational
 A restricted hybrid HF-DFT SCF calculation will be
 performed using Pulay DIIS extrapolation
 Exchange:     0.2000 Hartree-Fock + 0.0800 Slater + 0.7200 B88
 Correlation:  0.1900 VWN1RPA + 0.8100 LYP
 Using SG-1 standard quadrature grid
 SCF converges when DIIS error is below 1.0E-05
 using 16 threads for integral computing 
 -------------------------------------------------------
 OpenMP BLAS3 based DFT computing Module                
 Release: version 1.0, May 2013, Q-Chem Inc. Pittsburgh 
 -------------------------------------------------------
 ---------------------------------------
  Cycle       Energy         DIIS Error
 ---------------------------------------
    1   -5680.3349355530      2.16E-02
    2   -5662.4716650173      2.16E-03
    3   -5661.0010430165      3.38E-03
    4   -5663.2962393347      9.72E-04
    5   -5663.4509075222      4.53E-04
    6   -5663.4805920317      2.38E-04
    7   -5663.4912032878      7.16E-05
    8   -5663.4920966474      2.72E-05
    9   -5663.4922357141      9.25E-06 Convergence criterion met
 ---------------------------------------
 SCF time:  CPU 1088.62 s  wall 89.39 s
 SCF   energy in the final basis set = -5663.4922357141
 Total energy in the final basis set = -5663.4922357141
 
 --------------------------------------------------------------
 
                    Orbital Energies (a.u.)
 --------------------------------------------------------------
 
 Alpha MOs
 -- Occupied --
-88.988 -88.976 -88.932 -88.928 -88.927 -88.918 -88.917 -88.901
-14.389 -14.381 -14.366 -14.362 -14.352 -14.352 -14.345 -14.330
-14.324 -14.319 -10.274 -10.269 -10.259 -10.255 -10.250 -10.246
-10.244 -10.240 -10.239 -10.237 -10.236 -10.236 -10.234 -10.234
-10.233 -10.232 -10.231 -10.230 -10.228 -10.225 -10.224 -10.224
-10.222 -10.222 -10.222 -10.222 -10.217 -10.215 -10.214 -10.214
-10.211 -10.207 -10.206 -10.205 -10.203 -10.197 -10.196 -10.190
-10.187 -10.184 -10.184 -10.183 -10.182 -10.182 -10.181 -10.178
-10.175 -10.175 -10.172 -10.169  -8.043  -8.031  -7.992  -7.987
 -7.985  -7.976  -7.976  -7.961  -6.008  -6.003  -6.001  -5.996
 -5.990  -5.989  -5.956  -5.953  -5.951  -5.949  -5.949  -5.948
 -5.946  -5.944  -5.941  -5.941  -5.940  -5.937  -5.936  -5.932
 -5.932  -5.925  -5.922  -5.917  -1.040  -1.027  -0.974  -0.970
 -0.964  -0.959  -0.952  -0.930  -0.910  -0.906  -0.902  -0.886
 -0.844  -0.835  -0.834  -0.825  -0.814  -0.808  -0.804  -0.803
 -0.800  -0.800  -0.797  -0.790  -0.787  -0.776  -0.772  -0.765
 -0.751  -0.745  -0.744  -0.736  -0.722  -0.716  -0.714  -0.704
 -0.696  -0.689  -0.679  -0.668  -0.660  -0.650  -0.642  -0.641
 -0.636  -0.634  -0.627  -0.624  -0.613  -0.606  -0.601  -0.595
 -0.592  -0.591  -0.584  -0.582  -0.579  -0.572  -0.572  -0.571
 -0.558  -0.549  -0.547  -0.533  -0.523  -0.518  -0.513  -0.512
 -0.505  -0.502  -0.501  -0.493  -0.489  -0.484  -0.483  -0.476
 -0.474  -0.471  -0.463  -0.463  -0.460  -0.456  -0.453  -0.450
 -0.444  -0.442  -0.440  -0.439  -0.434  -0.430  -0.429  -0.427
 -0.426  -0.423  -0.422  -0.421  -0.417  -0.415  -0.414  -0.413
 -0.409  -0.405  -0.404  -0.400  -0.399  -0.398  -0.396  -0.396
 -0.390  -0.389  -0.388  -0.385  -0.384  -0.383  -0.382  -0.382
 -0.381  -0.378  -0.376  -0.368  -0.367  -0.362  -0.362  -0.356
 -0.352  -0.351  -0.351  -0.349  -0.343  -0.340  -0.340  -0.338
 -0.337  -0.335  -0.332  -0.331  -0.328  -0.326  -0.325  -0.321
 -0.317  -0.314  -0.303  -0.303  -0.302  -0.300  -0.297  -0.296
 -0.294  -0.293  -0.291  -0.287  -0.287  -0.282  -0.281  -0.276
 -0.272  -0.271  -0.258  -0.256  -0.252  -0.252  -0.248  -0.247
 -0.243  -0.238  -0.235  -0.230  -0.200  -0.186
 -- Virtual --
 -0.114  -0.096  -0.076  -0.068  -0.042  -0.032  -0.026  -0.023
 -0.022  -0.021  -0.013  -0.009  -0.007  -0.004  -0.003   0.002
  0.004   0.008   0.015   0.023   0.026   0.031   0.035   0.041
  0.045   0.053   0.059   0.068   0.072   0.079   0.080   0.090
  0.092   0.094   0.099   0.104   0.105   0.107   0.108   0.109
  0.113   0.113   0.115   0.116   0.118   0.120   0.121   0.124
  0.126   0.129   0.130   0.134   0.135   0.136   0.147   0.147
  0.149   0.150   0.152   0.157   0.158   0.159   0.161   0.165
  0.165   0.169   0.171   0.173   0.176   0.179   0.181   0.181
  0.184   0.191   0.191   0.192   0.194   0.195   0.199   0.201
  0.202   0.205   0.208   0.209   0.211   0.215   0.218   0.220
  0.224   0.224   0.226   0.226   0.234   0.236   0.236   0.239
  0.245   0.246   0.253   0.254   0.255   0.258   0.264   0.265
  0.265   0.266   0.271   0.274   0.277   0.281   0.282   0.285
  0.286   0.288   0.289   0.290   0.293   0.294   0.299   0.301
  0.302   0.310   0.312   0.320   0.322   0.328   0.328   0.333
  0.334   0.335   0.338   0.338   0.342   0.346   0.349   0.352
  0.355   0.357   0.363   0.365   0.370   0.373   0.376   0.376
  0.382   0.384   0.386   0.389   0.391   0.395   0.404   0.409
  0.411   0.413   0.421   0.422   0.426   0.431   0.437   0.440
  0.445   0.448   0.449   0.454   0.456   0.463   0.466   0.471
  0.479   0.485   0.488   0.490   0.494   0.498   0.502   0.503
  0.506   0.508   0.508   0.508   0.509   0.513   0.515   0.519
  0.522   0.524   0.526   0.527   0.531   0.534   0.536   0.537
  0.538   0.540   0.540   0.544   0.545   0.547   0.549   0.552
  0.556   0.561   0.562   0.565   0.566   0.569   0.569   0.571
  0.572   0.573   0.574   0.577   0.578   0.582   0.585   0.586
  0.588   0.589   0.591   0.593   0.599   0.601   0.604   0.604
  0.605   0.609   0.613   0.615   0.616   0.616   0.620   0.624
  0.626   0.627   0.627   0.629   0.631   0.632   0.632   0.637
  0.637   0.642   0.643   0.644   0.647   0.650   0.652   0.654
  0.655   0.657   0.661   0.664   0.665   0.672   0.673   0.675
  0.677   0.679   0.681   0.682   0.685   0.691   0.695   0.697
  0.698   0.703   0.704   0.705   0.708   0.712   0.718   0.722
  0.728   0.730   0.732   0.736   0.743   0.745   0.750   0.752
  0.756   0.757   0.759   0.762   0.764   0.765   0.768   0.774
  0.777   0.779   0.783   0.785   0.787   0.789   0.793   0.795
  0.796   0.800   0.801   0.805   0.809   0.811   0.813   0.814
  0.815   0.818   0.819   0.820   0.823   0.824   0.827   0.827
  0.830   0.834   0.836   0.838   0.840   0.840   0.843   0.843
  0.845   0.847   0.848   0.849   0.850   0.852   0.854   0.857
  0.858   0.858   0.864   0.865   0.868   0.869   0.871   0.872
  0.877   0.879   0.879   0.880   0.882   0.888   0.890   0.891
  0.892   0.895   0.899   0.901   0.903   0.905   0.909   0.912
  0.914   0.916   0.918   0.923   0.924   0.925   0.928   0.928
  0.931   0.932   0.935   0.938   0.940   0.942   0.945   0.947
  0.948   0.950   0.951   0.953   0.953   0.955   0.960   0.963
  0.966   0.967   0.970   0.974   0.978   0.981   0.982   0.985
  0.987   0.989   0.991   0.995   0.997   0.999   1.000   1.002
  1.003   1.005   1.008   1.010   1.012   1.014   1.019   1.021
  1.027   1.031   1.032   1.034   1.038   1.041   1.047   1.048
  1.056   1.060   1.062   1.065   1.067   1.073   1.074   1.076
  1.083   1.085   1.090   1.095   1.096   1.103   1.106   1.112
  1.119   1.123   1.127   1.128   1.134   1.137   1.147   1.149
  1.151   1.158   1.163   1.166   1.168   1.177   1.180   1.187
  1.189   1.195   1.199   1.200   1.202   1.211   1.219   1.222
  1.227   1.234   1.240   1.244   1.251   1.255   1.260   1.264
  1.268   1.272   1.276   1.285   1.291   1.295   1.298   1.310
  1.313   1.318   1.319   1.324   1.327   1.334   1.340   1.344
  1.353   1.354   1.356   1.357   1.358   1.364   1.367   1.369
  1.370   1.373   1.379   1.382   1.388   1.392   1.396   1.401
  1.405   1.408   1.415   1.417   1.418   1.426   1.437   1.439
  1.440   1.444   1.447   1.464   1.465   1.469   1.477   1.482
  1.490   1.491   1.495   1.500   1.509   1.512   1.517   1.520
  1.527   1.532   1.537   1.544   1.549   1.555   1.556   1.560
  1.581   1.583   1.586   1.600   1.602   1.608   1.609   1.616
  1.622   1.626   1.630   1.639   1.640   1.649   1.660   1.661
  1.662   1.663   1.667   1.670   1.671   1.682   1.690   1.692
  1.695   1.699   1.701   1.703   1.705   1.712   1.712   1.720
  1.724   1.728   1.741   1.742   1.747   1.752   1.755   1.763
  1.765   1.767   1.773   1.774   1.776   1.780   1.781   1.785
  1.788   1.789   1.798   1.800   1.803   1.805   1.813   1.815
  1.818   1.820   1.822   1.825   1.830   1.833   1.834   1.843
  1.847   1.849   1.855   1.863   1.865   1.866   1.871   1.879
  1.880   1.884   1.884   1.886   1.887   1.891   1.893   1.895
  1.900   1.901   1.909   1.916   1.919   1.919   1.925   1.930
  1.933   1.942   1.944   1.946   1.951   1.952   1.957   1.964
  1.969   1.971   1.973   1.976   1.978   1.981   1.985   1.993
  1.996   2.005   2.009   2.011   2.016   2.018   2.024   2.035
  2.036   2.040   2.043   2.044   2.047   2.055   2.059   2.066
  2.068   2.074   2.076   2.087   2.088   2.104   2.106   2.108
  2.111   2.112   2.115   2.116   2.118   2.119   2.120   2.129
  2.131   2.133   2.146   2.148   2.159   2.159   2.162   2.163
  2.165   2.168   2.178   2.178   2.182   2.187   2.199   2.200
  2.202   2.206   2.209   2.211   2.216   2.220   2.221   2.224
  2.227   2.228   2.235   2.238   2.243   2.244   2.248   2.254
  2.262   2.268   2.269   2.271   2.273   2.275   2.283   2.284
  2.287   2.288   2.293   2.298   2.299   2.303   2.306   2.308
  2.311   2.315   2.321   2.323   2.327   2.334   2.340   2.345
  2.347   2.349   2.359   2.361   2.364   2.366   2.368   2.371
  2.374   2.380   2.383   2.384   2.386   2.393   2.396   2.400
  2.404   2.404   2.409   2.413   2.415   2.419   2.423   2.425
  2.427   2.431   2.432   2.442   2.446   2.449   2.452   2.455
  2.457   2.462   2.463   2.466   2.468   2.472   2.477   2.483
  2.489   2.494   2.495   2.497   2.500   2.502   2.508   2.515
  2.517   2.520   2.522   2.525   2.527   2.528   2.531   2.533
  2.547   2.549   2.553   2.553   2.556   2.559   2.565   2.566
  2.569   2.576   2.581   2.582   2.591   2.593   2.596   2.602
  2.606   2.608   2.613   2.619   2.632   2.636   2.640   2.647
  2.651   2.654   2.656   2.662   2.663   2.669   2.678   2.679
  2.686   2.692   2.692   2.700   2.701   2.708   2.716   2.718
  2.720   2.723   2.724   2.727   2.731   2.732   2.735   2.745
  2.751   2.752   2.757   2.761   2.766   2.784   2.786   2.788
  2.797   2.800   2.806   2.809   2.811   2.814   2.825   2.832
  2.838   2.839   2.848   2.853   2.860   2.864   2.865   2.871
  2.882   2.884   2.885   2.892   2.896   2.905   2.906   2.910
  2.916   2.918   2.923   2.937   2.941   2.945   2.950   2.954
  2.962   2.964   2.966   2.976   3.003   3.008   3.017   3.019
  3.054   3.060   3.071   3.077   3.093   3.100   3.108   3.119
  3.157   3.176   3.178   3.188   3.204   3.224   3.237   3.243
  3.246   3.250   3.260   3.265   3.273   3.279   3.284   3.296
  3.299   3.299   3.306   3.307   3.320   3.332   3.335   3.342
  3.348   3.352   3.361   3.367   3.378   3.393   3.406   3.424
  3.434   3.443   3.458   3.461   3.485   3.489   3.518   3.540
  3.556   3.565   3.565   3.568   3.572   3.584   3.593   3.594
  3.617   3.657   3.732   3.753   3.868   3.886   3.901   3.913
  3.927   3.934   3.959   3.965   3.975   3.990   3.995   3.999
  4.030   4.043   4.089   4.093   4.099   4.107   4.115   4.125
  4.142   4.151   4.156   4.168   4.181   4.183   4.188   4.207
  4.218   4.222   4.256   4.260   4.264   4.274   4.276   4.291
  4.305   4.314   4.328   4.335   4.372   4.385   4.395   4.409
  4.425   4.439   4.453   4.460   4.475   4.476   4.491   4.491
  4.519   4.523   4.541   4.553   4.572   4.605   4.670   4.671
  4.690   4.700   4.716   4.719   4.744   4.748   4.809   4.820
 --------------------------------------------------------------
 
          Ground-State Mulliken Net Atomic Charges

     Atom                 Charge (a.u.)
  ----------------------------------------
      1 C                     0.275003
      2 C                    -0.129800
      3 N                    -0.472534
      4 C                    -0.067507
      5 C                     0.053265
      6 C                     0.037848
      7 C                     0.076841
      8 C                     0.022016
      9 C                     0.224545
     10 N                    -0.495004
     11 N                    -0.562745
     12 C                     0.266150
     13 C                     0.270835
     14 S                     0.616193
     15 N                    -0.558887
     16 C                    -0.223349
     17 S                     0.313126
     18 C                    -0.103491
     19 C                    -0.192174
     20 S                     0.267122
     21 C                     0.153036
     22 C                     0.012316
     23 C                    -0.304110
     24 C                    -0.063593
     25 N                    -0.414717
     26 S                     0.269844
     27 C                     0.123499
     28 C                    -0.298322
     29 C                    -0.230738
     30 H                     0.087849
     31 H                     0.112246
     32 H                     0.102520
     33 H                     0.111737
     34 H                     0.134208
     35 H                     0.113178
     36 H                     0.120343
     37 H                     0.133539
     38 H                     0.099120
     39 C                    -0.164871
     40 H                     0.124526
     41 H                     0.090806
     42 H                     0.113061
     43 C                    -0.188342
     44 H                     0.091067
     45 C                    -0.169379
     46 H                     0.087567
     47 H                     0.093417
     48 H                     0.088078
     49 C                    -0.173665
     50 H                     0.095714
     51 C                    -0.319650
     52 H                     0.097619
     53 H                     0.105493
     54 H                     0.091375
     55 H                     0.105677
     56 C                     0.262135
     57 C                    -0.123655
     58 N                    -0.473677
     59 C                    -0.064049
     60 C                     0.072577
     61 C                     0.041720
     62 C                     0.003868
     63 C                     0.054177
     64 C                     0.236173
     65 N                    -0.528742
     66 N                    -0.560841
     67 C                     0.147648
     68 C                     0.330703
     69 S                     0.647596
     70 N                    -0.558213
     71 C                    -0.226779
     72 S                     0.341666
     73 C                    -0.080948
     74 C                    -0.189876
     75 S                     0.269425
     76 C                     0.120687
     77 C                     0.008215
     78 C                    -0.325451
     79 C                    -0.032091
     80 N                    -0.437438
     81 S                     0.275683
     82 C                     0.134334
     83 C                    -0.312169
     84 C                    -0.221963
     85 H                     0.093171
     86 H                     0.097553
     87 H                     0.106593
     88 H                     0.110966
     89 H                     0.125188
     90 H                     0.116573
     91 H                     0.121684
     92 H                     0.125601
     93 H                     0.090614
     94 C                    -0.179483
     95 H                     0.114474
     96 H                     0.099634
     97 H                     0.114544
     98 C                    -0.180628
     99 H                     0.095656
    100 C                    -0.174209
    101 H                     0.093485
    102 H                     0.099785
    103 H                     0.091162
    104 C                    -0.178675
    105 H                     0.093356
    106 C                    -0.322550
    107 H                     0.090916
    108 H                     0.101973
    109 H                     0.095831
    110 H                     0.098167
  ----------------------------------------
  Sum of atomic charges =     0.000000

 -----------------------------------------------------------------
                    Cartesian Multipole Moments
 -----------------------------------------------------------------
    Charge (ESU x 10^10)
                 0.0000
    Dipole Moment (Debye)
         X       2.4283      Y      -2.4310      Z       1.8088
       Tot       3.8831
    Quadrupole Moments (Debye-Ang)
        XX    -414.1917     XY      33.1404     YY    -434.7945
        XZ     -15.2570     YZ       7.8479     ZZ    -436.5386
    Octopole Moments (Debye-Ang^2)
       XXX     344.6194    XXY      -3.9157    XYY     -55.3039
       YYY     -34.3414    XXZ     132.0923    XYZ     -13.1909
       YYZ     -32.5762    XZZ     -34.5835    YZZ     -47.4472
       ZZZ      41.2011
    Hexadecapole Moments (Debye-Ang^3)
      XXXX -126023.2977   XXXY    1194.1553   XXYY  -25468.7481
      XYYY     624.0391   YYYY  -17926.6329   XXXZ   -1340.0884
      XXYZ     494.8717   XYYZ     104.2146   YYYZ     336.9415
      XXZZ  -22666.4784   XYZZ     179.9842   YYZZ   -3851.9214
      XZZZ     -61.0276   YZZZ      49.2121   ZZZZ   -4945.1808
 -----------------------------------------------------------------
Archival summary:
1\1\mn246\SP\ProcedureUnspecified\6-31G**\8105042\afmv_a\FriOct1213:59:182018FriOct1213:59:182018\0\\#,ProcedureUnspecified,6-31G**,\\0,1\S\C,1,1.78295\C,2,1.40432,1,127.929\N,3,1.3531,2,118.768,1,148.533,0\C,4,1.35935,3,111.594,2,-161.191,0\H,5,1.08147,4,129.19,3,-177.741,0\C,5,1.35783,4,111.722,3,1.4947,0\H,7,1.08255,5,122.493,4,-174.801,0\C,2,1.40705,1,105.17,3,-170.555,0\C,9,1.38205,2,119.491,1,-4.33056,0\C,10,1.35569,9,112.895,2,3.86222,0\C,9,1.41296,2,128.049,1,169.095,0\H,12,1.08377,9,119.315,2,4.46131,0\C,12,1.36348,9,112.342,2,-176.515,0\H,14,1.08137,12,127.423,9,173.154,0\C,11,1.45535,10,122.906,9,172.031,0\N,16,1.31919,11,123.675,10,-17.3117,0\C,17,1.3236,16,124.718,11,172.282,0\H,18,1.08898,17,112.993,16,-174.517,0\C,18,1.3669,17,123.703,16,7.61608,0\C,16,1.38319,11,121.72,10,160.515,0\N,21,1.37293,16,123.512,11,-7.5851,0\C,21,1.37662,16,123.061,11,-177.02,0\N,23,1.35638,21,114.239,16,177.671,0\C,20,1.50428,18,122.411,17,-172.524,0\C,25,1.38604,20,122.044,18,116.031,0\H,26,1.08646,25,123.21,20,-14.9852,0\C,25,1.39482,20,120.281,18,-72.0333,0\H,28,1.08894,25,121.502,20,8.2772,0\N,28,1.35913,25,121.675,20,-170.379,0\C,30,1.33199,28,121.282,25,0.392182,0\C,31,1.39757,30,121.567,28,-6.74112,0\H,32,1.08641,31,118.99,30,174.49,0\C,31,1.54995,30,116.093,28,-177.513,0\H,34,1.09639,31,112.17,30,34.3161,0\H,34,1.09699,31,111.001,30,140.135,0\C,34,1.58259,31,110.742,30,-95.7385,0\H,37,1.09698,34,104.706,31,54.9968,0\H,37,1.09724,34,113.905,31,-54.5457,0\C,37,1.56405,34,109.669,31,175.338,0\H,40,1.09634,37,109.61,34,-56.6401,0\H,40,1.09793,37,111.825,34,54.7823,0\C,40,1.56515,37,108.119,34,-173.359,0\H,43,1.09694,40,113.549,37,38.8789,0\H,43,1.09698,40,110.761,37,160.195,0\C,43,1.55891,40,109.351,37,-78.085,0\H,46,1.09645,43,115.577,40,35.6564,0\H,46,1.09663,43,118.419,40,-80.8104,0\C,46,1.55111,43,113.837,40,161.302,0\H,49,1.09656,46,110.441,43,68.3389,0\H,49,1.09664,46,109.646,43,-52.2936,0\H,49,1.09707,46,109.664,43,-174.961,0\S,24,1.60647,23,106.216,21,-8.6595,0\S,10,1.74532,9,113.793,2,177.434,0\S,7,1.74716,5,117.118,4,0.0859594,0\H,6,2.86044,5,129.591,4,-121.655,0\C,56,1.08637,6,127.361,5,-55.0976,0\C,57,1.37412,56,118.038,6,-126.662,0\H,58,1.08621,57,121.3,56,3.61962,0\C,58,1.42997,57,120.556,56,-176.699,0\N,60,1.31086,58,119.441,57,-1.419,0\C,61,1.33141,60,119.84,58,-1.55625,0\H,62,1.08947,61,110.777,60,174.371,0\C,62,1.39869,61,126.574,60,3.37535,0\C,60,1.4837,58,126.7,57,-177.428,0\H,65,1.09682,60,113.453,58,-11.9111,0\H,65,1.09756,60,112.15,58,-135.858,0\C,64,1.50144,62,117.2,61,176.395,0\C,68,1.38202,64,117.157,62,39.6833,0\H,69,1.08924,68,118.947,64,-6.15757,0\N,69,1.36699,68,126.787,64,179.496,0\C,71,1.30733,69,115.433,68,8.54702,0\C,68,1.38292,64,128.484,62,-146.174,0\N,73,1.31535,68,122.611,64,-7.83129,0\C,73,1.39028,68,120.621,64,179.571,0\N,75,1.3472,73,112.848,68,179.769,0\C,72,1.45885,71,111.646,69,172.367,0\C,77,1.40654,72,125.406,71,-148.208,0\C,78,1.42383,77,109.581,72,172.568,0\C,79,1.38148,78,119.053,77,1.35205,0\C,80,1.40553,79,123.401,78,-169.716,0\N,81,1.32965,80,116.355,79,-51.792,0\C,82,1.37907,81,109.752,80,171.204,0\H,83,1.08237,82,123.297,81,-178.69,0\C,83,1.36935,82,115.557,81,4.21124,0\H,85,1.08229,83,125.949,82,169.88,0\C,79,1.42592,78,108.982,77,-160.589,0\H,87,1.08367,79,119.74,78,-178.98,0\C,87,1.3957,79,114.686,78,-3.51809,0\H,89,1.08188,87,125.563,79,-175.581,0\C,65,1.57931,60,110.988,58,101.221,0\H,91,1.09722,65,119.994,60,61.0811,0\H,91,1.09755,65,105.465,60,-57.3992,0\C,91,1.5249,65,105.36,60,-177.595,0\H,94,1.09664,91,108.17,65,-112.946,0\H,94,1.09703,91,111.994,65,3.59723,0\C,94,1.52923,91,113.142,65,127.1,0\H,97,1.09647,94,105.697,91,42.8006,0\H,97,1.09682,94,108.771,91,157.78,0\C,97,1.57228,94,108.982,91,-80.2527,0\H,100,1.0968,97,110.596,94,-53.3731,0\H,100,1.09739,97,110.519,94,67.3797,0\C,100,1.55235,97,105.572,94,-170.812,0\H,103,1.09666,100,117.098,97,-61.0149,0\H,103,1.09678,100,110.532,97,64.0159,0\H,103,1.09792,100,107.815,97,-179.798,0\S,74,1.62966,73,106.454,68,-177.466,0\S,78,1.74694,77,131.754,72,11.0199,0\S,85,1.78294,83,112.44,82,-5.41789,0\S,77,1.81217,72,121.37,71,26.7503,0\\\@

 Total job time:  92.58s(wall), 1098.40s(cpu) 
 Fri Oct 12 13:59:18 2018

        *************************************************************
        *                                                           *
        *  Thank you very much for using Q-Chem.  Have a nice day.  *
        *                                                           *
        *************************************************************


