
Running Job 1 of 1 ./10/65.qcin
qchem ./10/65.qcin_19526.0 /tmpu/cab_g/afmv_a/scratch_qchem/qchem19526/ 1
/tmpu/appuserlic/qchem4.4/serial-multicore/exe/qcprog.exe_s ./10/65.qcin_19526.0 /tmpu/cab_g/afmv_a/scratch_qchem/qchem19526/
Check license passed

                  Welcome to Q-Chem
     A Quantum Leap Into The Future Of Chemistry


 Q-Chem 4.4, Q-Chem, Inc., Pleasanton, CA (2016)

 Y. Shao,  Z. Gan,  E. Epifanovsky,  A. T. B. Gilbert,  M. Wormit,  
 J. Kussmann,  A. W. Lange,  A. Behn,  J. Deng,  X. Feng,  D. Ghosh,  
 M. Goldey,  P. R. Horn,  L. D. Jacobson,  I. Kaliman,  F. Rob,  
 R. Z. Khaliullin,  T. Kus,  A. Landau,  J. Liu,  E. I. Proynov,  Y. M. Rhee,  
 R. M. Richard,  M. A. Rohrdanz,  R. P. Steele,  E. J. Sundstrom,  
 H. L. Woodcock III,  P. M. Zimmerman,  D. Zuev,  B. Albrecht,  E. Alguire,  
 B. Austin,  S. A. Baeppler,  G. J. O. Beran,  Y. A. Bernard,  E. Berquist,  
 K. Brandhorst,  K. B. Bravaya,  S. T. Brown,  D. Casanova,  C.-M. Chang,  
 Y. Chen,  S. H. Chien,  K. D. Closser,  M. P. Coons,  D. L. Crittenden,  
 S. Dasgupta,  M. Diedenhofen,  R. A. DiStasio Jr.,  H. Do,  A. D. Dutoi,  
 R. G. Edgar,  P.-T. Fang,  S. Fatehi,  Q. Feng,  L. Fusti-Molnar,  
 A. Ghysels,  A. Golubeva-Zadorozhnaya,  J. Gomes,  A. Gunina,  
 M. W. D. Hanson-Heine,  P. H. P. Harbach,  A. W. Hauser,  J. E. Herr,  
 E. G. Hohenstein,  Z. C. Holden,  K. Hui,  T.-C. Jagau,  H. Ji,  B. Kaduk,  
 K. Khistyaev,  Jaehoon Kim,  Jihan Kim,  R. A. King,  P. Klunzinger,  
 K. Koh,  D. Kosenkov,  T. Kowalczyk,  C. M. Krauter,  A. Kunitsa,  
 K. U. Lao,  A. Laurent,  K. V. Lawler,  J. Lee,  D. Lefrancois,  S. Lehtola,  
 S. V. Levchenko,  C. Y. Lin,  Y.-S. Lin,  F. Liu,  E. Livshits,  
 R. C. Lochan,  A. Luenser,  P. Manohar,  S. F. Manzer,  S.-P. Mao,  Y. Mao,  
 N. Mardirossian,  A. V. Marenich,  L. A. Martinez-Martinez,  S. A. Maurer,  
 N. J. Mayhall,  J.-M. Mewes,  A. F. Morrison,  K. Nanda,  T. S. Nguyen-Beck,  
 C. M. Oana,  R. Olivares-Amaya,  D. P. O'Neill,  J. A. Parkhill,  
 T. M. Perrine,  R. Peverati,  P. A. Pieniazek,  F. Plasser,  A. Prociuk,  
 D. R. Rehn,  E. Rosta,  N. J. Russ,  N. Sergueev,  S. M. Sharada,  
 S. Sharma,  D. W. Small,  A. Sodt,  T. Stauch,  T. Stein,  D. Stuck,  
 Y.-C. Su,  A. J. W. Thom,  T. Tsuchimochi,  L. Vogt,  O. Vydrov,  T. Wang,  
 M. A. Watson,  J. Wenzel,  A. White,  C. F. Williams,  V. Vanovschi,  
 K. Yao,  S. Yeganeh,  S. R. Yost,  Z.-Q. You,  I. Y. Zhang,  X. Zhang,  
 Y. Zhao,  B. R. Brooks,  G. K. L. Chan,  D. M. Chipman,  C. J. Cramer,  
 W. A. Goddard III,  M. S. Gordon,  W. J. Hehre,  A. Klamt,  
 H. F. Schaefer III,  M. W. Schmidt,  C. D. Sherrill,  D. G. Truhlar,  
 A. Warshel,  X. Xu,  A. Aspuru-Guzik,  R. Baer,  A. T. Bell,  N. A. Besley,  
 J.-D. Chai,  A. Dreuw,  B. D. Dunietz,  T. R. Furlani,  S. R. Gwaltney,  
 C.-P. Hsu,  Y. Jung,  J. Kong,  D. S. Lambrecht,  W. Liang,  C. Ochsenfeld,  
 V. A. Rassolov,  L. V. Slipchenko,  J. E. Subotnik,  T. Van Voorhis,  
 J. M. Herbert,  A. I. Krylov,  P. M. W. Gill,  M. Head-Gordon

 Contributors to earlier versions of Q-Chem not listed above: 
 R. D. Adamson,  J. Baker,  E. F. C. Byrd,  A. K. Chakraborty,  C.-L. Cheng,  
 H. Dachsel,  R. J. Doerksen,  G. Hawkins,  A. Heyden,  S. Hirata,  
 G. Kedziora,  F. J. Keil,  C. Kelley,  P. P. Korambath,  W. Kurlancheek,  
 A. M. Lee,  M. S. Lee,  D. Liotard,  I. Lotan,  P. E. Maslen,  N. Nair,  
 D. Neuhauser,  R. Olson,  B. Peters,  J. Ritchie,  N. E. Schultz,  
 N. Shenvi,  A. C. Simmonett,  K. S. Thanthiriwatte,  Q. Wu,  W. Zhang

 Please cite Q-Chem as follows:
 Y. Shao et al., Mol. Phys. 113, 184-215 (2015)
 DOI: 10.1080/00268976.2014.952696

 Q-Chem 4.4.2 for Intel X86 Linux

 Parts of Q-Chem use Armadillo 5.200.1 (Boston Tea Smuggler).
 http://arma.sourceforge.net/

 Q-Chem begins on Fri Oct 12 14:14:19 2018  

Host: 
0

     Scratch files written to /tmpu/cab_g/afmv_a/scratch_qchem/qchem19526//
 Dec716 11556_ 22328  22283 4050   
Processing $rem in /tmpu/appuserlic/qchem4.4/serial-multicore/config/preferences.
 MEM_TOTAL  2000 
FILE_GEOM_ORG=        593

Checking the input file for inconsistencies... 	...done.

--------------------------------------------------------------
User input:
--------------------------------------------------------------
$comment
SP
$end

$rem
MEM_STATIC 5000
MEM_TOTAL 20000
JOBTYPE SP
EXCHANGE B3LYP
BASIS 6-31g(d,p)
$end

$molecule
0 1
C          10.309000     11.800000      8.060000
C          11.325000     11.210000      7.278000
N           9.310000     12.515000      7.580000
C          11.335000     11.524000      5.905000
C           9.247000     12.660000      6.276000
C          10.203000     12.181000      5.359000
C          10.039000     12.448000      3.896000
C           9.885000     13.751000      3.433000
C          10.290000     11.475000      2.948000
N           9.753000     14.122000      2.180000
N          10.559000     10.207000      3.227000
C          10.228000     11.856000      1.626000
C           9.861000     13.222000      1.227000
S          10.657000      9.623000      1.753000
N          10.404000     10.852000      0.745000
C           9.781000     13.676000     -0.166000
S          10.060000     12.778000     -1.611000
C           9.482000     14.974000     -0.528000
C           9.816000     14.167000     -2.758000
S           9.156000     16.287000      0.514000
C           9.607000     15.292000     -1.890000
C           9.928000     14.324000     -4.204000
C           9.171000     17.353000     -0.871000
C           9.451000     16.678000     -2.075000
N           9.388000     15.362000     -4.813000
S          10.486000     12.979000     -5.130000
C           9.291000     15.058000     -6.132000
C           9.855000     13.899000     -6.480000
C          10.365000     11.506000      9.541000
H          12.091000     10.649000      7.805000
H          12.103000     11.114000      5.256000
H           8.324000     13.179000      6.024000
H           9.770000     14.587000      4.121000
H           9.147000     18.411000     -0.644000
H           9.505000     17.154000     -3.048000
H           8.893000     15.735000     -6.878000
H           9.852000     13.486000     -7.480000
H           9.423000     11.688000     10.073000
C          11.491000     12.239000     10.307000
H          10.472000     10.421000      9.666000
H          12.405000     12.344000      9.709000
H          11.504000     11.781000     11.304000
C          10.921000     13.622000     10.656000
H          10.877000     14.319000      9.810000
C          11.779000     14.289000     11.809000
H           9.899000     13.595000     11.054000
H          12.781000     14.418000     11.381000
H          11.879000     13.585000     12.645000
C          11.084000     15.535000     12.413000
H          10.859000     16.159000     11.539000
C          11.870000     16.466000     13.293000
H          10.151000     15.170000     12.859000
H          11.330000     17.399000     13.501000
H          12.852000     16.750000     12.895000
H          12.084000     16.068000     14.293000
C           8.125000     20.703000     -3.017000
C           8.636000     21.252000     -1.781000
N           6.938000     20.142000     -3.097000
C           7.894000     21.067000     -0.640000
C           6.247000     19.852000     -1.957000
C           6.725000     20.264000     -0.692000
C           6.013000     19.836000      0.589000
C           4.572000     19.713000      0.613000
C           6.647000     19.532000      1.821000
N           3.789000     19.277000      1.613000
N           7.924000     19.655000      2.114000
C           5.869000     18.980000      2.856000
C           4.392000     18.939000      2.738000
S           8.040000     19.145000      3.611000
N           6.556000     18.612000      3.950000
C           3.439000     18.439000      3.769000
S           3.940000     17.464000      5.234000
C           2.066000     18.696000      3.816000
C           2.296000     17.523000      5.860000
S           1.022000     19.697000      2.766000
C           1.477000     18.217000      4.957000
C           1.937000     16.886000      7.077000
C          -0.295000     19.401000      3.898000
C           0.074000     18.588000      4.964000
N           0.917000     17.408000      7.767000
S           2.807000     15.579000      7.819000
C           0.775000     16.646000      8.941000
C           1.659000     15.613000      9.119000
C           8.915000     20.849000     -4.291000
H           9.576000     21.794000     -1.813000
H           8.276000     21.475000      0.291000
H           5.336000     19.257000     -2.002000
H           4.009000     20.109000     -0.231000
H          -1.255000     19.863000      3.710000
H          -0.558000     18.286000      5.791000
H          -0.024000     16.903000      9.624000
H           1.735000     14.844000      9.877000
H           8.264000     21.315000     -5.041000
C           9.473000     19.504000     -4.876000
H           9.716000     21.583000     -4.139000
H           8.648000     18.786000     -4.962000
H          10.131000     19.047000     -4.127000
C          10.175000     19.688000     -6.156000
H           9.619000     20.260000     -6.910000
C          10.526000     18.268000     -6.717000
H          11.090000     20.229000     -5.883000
H           9.611000     17.721000     -6.976000
H          11.090000     17.769000     -5.919000
C          11.281000     18.424000     -8.091000
H          10.546000     18.894000     -8.757000
C          11.704000     17.061000     -8.721000
H          12.140000     19.099000     -7.995000
H          10.879000     16.361000     -8.903000
H          12.475000     16.540000     -8.140000
H          12.106000     17.399000     -9.685000
$end

--------------------------------------------------------------
 ----------------------------------------------------------------
             Standard Nuclear Orientation (Angstroms)
    I     Atom           X                Y                Z
 ----------------------------------------------------------------
    1      C       5.8573681764     5.1465794300    -0.0198884997
    2      C       4.9623858810     6.2375128173     0.0075165217
    3      N       5.5111916568     3.8954485207    -0.2532535894
    4      C       3.5898003262     5.9376555352    -0.0920801906
    5      C       4.2439077320     3.6597776301    -0.5059603075
    6      C       3.2162376970     4.6224722296    -0.4688199348
    7      C       1.8003816428     4.2192053073    -0.7358057453
    8      C       1.2093761205     3.1995514291     0.0037295420
    9      C       0.9611752632     4.9898803454    -1.5169757896
   10      N      -0.0243246863     2.7650387684    -0.1156650436
   11      N       1.3447532479     6.0580726291    -2.2024385345
   12      C      -0.3556671429     4.5955206257    -1.6012105147
   13      C      -0.8474945739     3.3807828078    -0.9361061531
   14      S      -0.0229294658     6.4179192138    -2.9258266947
   15      N      -1.1097495157     5.3362808330    -2.4365470280
   16      C      -2.2390144438     2.9191953298    -0.9958928736
   17      S      -3.5750819380     3.6252510564    -1.8257597073
   18      C      -2.7004771779     1.8028798510    -0.3279550794
   19      C      -4.8199264331     2.4332349796    -1.2478965267
   20      S      -1.8002342420     0.7555633991     0.6763854534
   21      C      -4.0876942362     1.5860861091    -0.3485051764
   22      C      -6.2638060969     2.3088092134    -1.4147459954
   23      C      -3.2872573107    -0.0454082683     1.1258437731
   24      C      -4.4206229891     0.5289336795     0.5181805719
   25      N      -6.8771581831     1.1712548005    -1.1507494500
   26      S      -7.0974140573     3.5571652218    -2.2659627979
   27      C      -8.0908826651     1.2103082239    -1.7564999860
   28      C      -8.3919156436     2.3792037323    -2.3270641248
   29      C       7.3175110924     5.4894134419     0.1628148261
   30      H       5.3832855044     7.2165990981     0.2159381180
   31      H       2.8524265419     6.7341013443    -0.0592324281
   32      H       4.1284283533     2.6122287996    -0.7781733873
   33      H       1.7864070298     2.6028398056     0.7083113812
   34      H      -3.2057073186    -0.7561666884     1.9380266756
   35      H      -5.4377165832     0.1812250113     0.6625422797
   36      H      -8.8184262221     0.4099399899    -1.6987067110
   37      H      -9.3025720302     2.5832511916    -2.8744648737
   38      H       8.0099921765     4.7089536222    -0.1761017092
   39      C       7.7170585055     5.8841500721     1.6038095719
   40      H       7.5622160057     6.3044120502    -0.5301467702
   41      H       6.9279290759     6.4469312672     2.1181801287
   42      H       8.7405214138     6.2709915397     1.5212301904
   43      C       7.9900385686     4.5607754429     2.3342556520
   44      H       7.0869468937     4.0015079756     2.6083109871
   45      C       8.8304477576     4.8290177992     3.6503941072
   46      H       8.5984003116     3.8518223423     1.7590178829
   47      H       8.1835691535     5.4527217466     4.2799736953
   48      H       9.7127726769     5.4336472620     3.4045527974
   49      C       9.3954779726     3.5230792535     4.2632744959
   50      H       8.5141047645     2.8770262050     4.3616296003
   51      C       9.9516051450     3.5419507843     5.6594562296
   52      H      10.0768624433     3.1097841199     3.5099270757
   53      H      10.1426521180     2.5323728050     6.0462460407
   54      H       9.3170692101     4.0491177392     6.3967009834
   55      H      10.9266282668     4.0373042581     5.7497604263
   56      C      -5.5912114880    -3.2146198094     2.3787704896
   57      C      -4.5799408399    -3.1178289810     3.4074498429
   58      N      -5.3374259159    -3.7213226412     1.1917847595
   59      C      -3.2917906328    -3.4616250561     3.0770814080
   60      C      -4.0470018348    -3.9571404206     0.8171160180
   61      C      -2.9820485437    -3.7908746672     1.7318198974
   62      C      -1.5320621038    -3.9397835913     1.2774473009
   63      C      -1.1823371952    -4.9203540590     0.2732759778
   64      C      -0.4356869921    -3.1807464495     1.7612036774
   65      N       0.0122200969    -5.1361747453    -0.3008662583
   66      N      -0.4435477618    -2.2989958157     2.7380153420
   67      C       0.8073430475    -3.3126659894     1.1141437454
   68      C       1.0163731217    -4.3848015471     0.1121628205
   69      S       1.0483957056    -1.7659469871     2.8053104859
   70      N       1.7675095823    -2.4813098332     1.5513578429
   71      C       2.2861296277    -4.6811515728    -0.6096855554
   72      S       3.7272547459    -3.5542734987    -0.6436737893
   73      C       2.5920579757    -5.8645198720    -1.2875013963
   74      C       4.6782511667    -4.7643525933    -1.4977272960
   75      S       1.6655622341    -7.3807584903    -1.4800191700
   76      C       3.8870897703    -5.8982429416    -1.7347132091
   77      C       6.0187101232    -4.5168938233    -1.8948078205
   78      C       3.0836740921    -8.0756438312    -2.2608021880
   79      C       4.1453560017    -7.1829960507    -2.3582571148
   80      N       6.8347727901    -5.5716987796    -1.9968481465
   81      S       6.7261350963    -2.9458645399    -2.1119020355
   82      C       8.1038938805    -5.0831697633    -2.3570634406
   83      C       8.2257393121    -3.7251905960    -2.5029238943
   84      C      -7.0130420033    -2.8186005111     2.6788683091
   85      H      -4.8863660710    -2.7887881978     4.3954901967
   86      H      -2.5286926781    -3.3871603421     3.8460323283
   87      H      -3.8141143818    -4.2346652392    -0.2098768784
   88      H      -1.9311606119    -5.6612282052    -0.0032922597
   89      H       3.0457639051    -9.1078182335    -2.5826201814
   90      H       5.1219873779    -7.3892499651    -2.7804033902
   91      H       8.9015211871    -5.7975877606    -2.5130653795
   92      H       9.0465800142    -3.1002331437    -2.8305665725
   93      H      -7.6614986106    -3.6647772245     2.4201290619
   94      C      -7.5168394826    -1.5461994834     1.9108854156
   95      H      -7.1375950679    -2.7079576808     3.7631679439
   96      H      -7.3254562581    -1.6806436117     0.8390448315
   97      H      -6.8720731484    -0.7009527509     2.1804189677
   98      C      -8.9306917580    -1.2410888644     2.1810506489
   99      H      -9.6177889376    -2.0883934921     2.0593611519
  100      C      -9.3566154910    -0.0696766829     1.2319961327
  101      H      -8.9366139621    -0.9083427991     3.2268422073
  102      H      -9.3363407969    -0.3974145851     0.1852431513
  103      H      -8.6385603378     0.7377194907     1.4228081236
  104      C     -10.8689914546     0.2867296687     1.4926308525
  105      H     -11.4186825426    -0.6182685645     1.2036690807
  106      C     -11.3848466174     1.4682748481     0.6143128918
  107      H     -11.0521955874     0.4758170702     2.5572454308
  108      H     -11.2887489157     1.3149985150    -0.4678241594
  109      H     -10.9182066862     2.4280566126     0.8682993857
  110      H     -12.4493952091     1.4708054898     0.8824059574
 ----------------------------------------------------------------
 Molecular Point Group                 C1    NOp =  1
 Largest Abelian Subgroup              C1    NOp =  1
 Nuclear Repulsion Energy = 11505.2083241879 hartrees
 There are      270 alpha and      270 beta electrons
 Requested basis set is 6-31G(d,p)
 There are 406 shells and 1262 basis functions

 Total QAlloc Memory Limit  20000 MB
 Mega-Array Size      4888 MB
 MEM_STATIC part      5000 MB
 A cutoff of  1.0D-08 yielded  13681 shell pairs
 There are    140343 function pairs
 
 -------------------------------------------------------
 OpenMP Integral Computing Module                       
 Release: version 1.0, May 2013, Q-Chem Inc. Pittsburgh 
 -------------------------------------------------------
 Integral Job Info:
 Integral job number is                      11
 Integral operator is                         1
 short-range coefficients                     0
 long-range coefficients              100000000
 Omega coefficients                           0
 if combine SR and LR in K                    0
 Integral screening is                        0
 Integral computing path is                   2
 max size of driver memory is            800000
 size of driver memory is                593474
 size of scratch memory is             15166112
 max col of scratch BK array               1296
 max len of scratch array in speh3          155
 max len of scratch index in speh4           18
 max int batch size is                      520
 min int batch size is                       52
 fixed nKL is                                52
 max L of basis functions is                  2
 order of int derivative is                   0
 number of shells is                        406
 number of basis is                        1262
 number of cartesian basis is              1262
 number of contracted shell pairs         13681
 number of primitive shell pairs          43724
 maxK2 (contraction) of shell pair           36
 max number of K2 of shell pair               1
 max number of CS2 of shell pair           1345
 max number of PS2 of shell pair           7980
 mem total for path MDJ                  285992
 -------------------------------------------------------
 Smallest overlap matrix eigenvalue = 3.78E-04

 Scale SEOQF with 1.000000e-02/1.000000e-02/1.000000e-02

 Standard Electronic Orientation quadrupole field applied
 Nucleus-field energy     =     0.0000001001 hartrees
 Guess from superposition of atomic densities
 Warning:  Energy on first SCF cycle will be non-variational
 A restricted hybrid HF-DFT SCF calculation will be
 performed using Pulay DIIS extrapolation
 Exchange:     0.2000 Hartree-Fock + 0.0800 Slater + 0.7200 B88
 Correlation:  0.1900 VWN1RPA + 0.8100 LYP
 Using SG-1 standard quadrature grid
 SCF converges when DIIS error is below 1.0E-05
 using 16 threads for integral computing 
 -------------------------------------------------------
 OpenMP BLAS3 based DFT computing Module                
 Release: version 1.0, May 2013, Q-Chem Inc. Pittsburgh 
 -------------------------------------------------------
 ---------------------------------------
  Cycle       Energy         DIIS Error
 ---------------------------------------
    1   -5680.6535335737      2.17E-02
    2   -5662.5069443385      2.17E-03
    3   -5660.8294707646      3.50E-03
    4   -5663.3399498418      9.31E-04
    5   -5663.5017773879      3.41E-04
    6   -5663.5116781629      2.52E-04
    7   -5663.5240680730      7.66E-05
    8   -5663.5252109110      2.17E-05
    9   -5663.5252979467      8.16E-06 Convergence criterion met
 ---------------------------------------
 SCF time:  CPU 991.94 s  wall 81.27 s
 SCF   energy in the final basis set = -5663.5252979467
 Total energy in the final basis set = -5663.5252979467
 
 --------------------------------------------------------------
 
                    Orbital Energies (a.u.)
 --------------------------------------------------------------
 
 Alpha MOs
 -- Occupied --
-88.986 -88.986 -88.926 -88.926 -88.925 -88.924 -88.908 -88.901
-14.394 -14.391 -14.387 -14.382 -14.348 -14.344 -14.344 -14.342
-14.327 -14.323 -10.271 -10.266 -10.265 -10.265 -10.259 -10.256
-10.255 -10.250 -10.246 -10.245 -10.240 -10.238 -10.238 -10.233
-10.230 -10.230 -10.229 -10.229 -10.229 -10.228 -10.224 -10.223
-10.222 -10.221 -10.221 -10.220 -10.218 -10.215 -10.214 -10.214
-10.214 -10.208 -10.207 -10.204 -10.200 -10.199 -10.196 -10.188
-10.185 -10.183 -10.181 -10.180 -10.177 -10.176 -10.175 -10.174
-10.174 -10.174 -10.174 -10.170  -8.043  -8.043  -7.988  -7.987
 -7.985  -7.983  -7.968  -7.962  -6.008  -6.008  -6.002  -6.002
 -6.001  -6.000  -5.951  -5.951  -5.949  -5.948  -5.947  -5.947
 -5.945  -5.945  -5.944  -5.943  -5.941  -5.939  -5.932  -5.929
 -5.926  -5.924  -5.922  -5.919  -1.066  -1.060  -0.978  -0.974
 -0.963  -0.962  -0.951  -0.939  -0.930  -0.922  -0.909  -0.904
 -0.842  -0.840  -0.838  -0.832  -0.810  -0.809  -0.808  -0.808
 -0.804  -0.801  -0.798  -0.792  -0.784  -0.779  -0.769  -0.762
 -0.751  -0.748  -0.739  -0.736  -0.724  -0.716  -0.707  -0.707
 -0.692  -0.688  -0.674  -0.670  -0.656  -0.653  -0.649  -0.648
 -0.636  -0.630  -0.629  -0.626  -0.610  -0.604  -0.598  -0.591
 -0.590  -0.589  -0.580  -0.577  -0.575  -0.575  -0.572  -0.569
 -0.552  -0.550  -0.543  -0.536  -0.525  -0.524  -0.514  -0.511
 -0.507  -0.503  -0.499  -0.495  -0.492  -0.490  -0.484  -0.483
 -0.479  -0.476  -0.472  -0.469  -0.463  -0.462  -0.450  -0.445
 -0.443  -0.440  -0.436  -0.434  -0.432  -0.432  -0.430  -0.427
 -0.426  -0.424  -0.423  -0.420  -0.418  -0.414  -0.413  -0.412
 -0.411  -0.408  -0.404  -0.404  -0.400  -0.400  -0.395  -0.394
 -0.390  -0.390  -0.386  -0.386  -0.385  -0.385  -0.382  -0.381
 -0.376  -0.374  -0.373  -0.370  -0.367  -0.366  -0.360  -0.354
 -0.354  -0.352  -0.351  -0.350  -0.350  -0.349  -0.345  -0.344
 -0.343  -0.342  -0.334  -0.334  -0.330  -0.325  -0.325  -0.325
 -0.323  -0.321  -0.318  -0.307  -0.306  -0.305  -0.298  -0.297
 -0.295  -0.293  -0.292  -0.289  -0.288  -0.286  -0.285  -0.283
 -0.276  -0.270  -0.265  -0.265  -0.252  -0.251  -0.248  -0.248
 -0.246  -0.243  -0.231  -0.229  -0.191  -0.190
 -- Virtual --
 -0.109  -0.109  -0.072  -0.070  -0.035  -0.033  -0.025  -0.022
 -0.019  -0.013  -0.011  -0.006  -0.003  -0.001   0.000   0.003
  0.018   0.022   0.022   0.034   0.035   0.039   0.042   0.045
  0.047   0.052   0.063   0.065   0.070   0.079   0.081   0.091
  0.095   0.100   0.101   0.104   0.107   0.108   0.110   0.111
  0.112   0.115   0.117   0.118   0.120   0.121   0.126   0.128
  0.129   0.132   0.135   0.136   0.139   0.141   0.145   0.147
  0.150   0.152   0.156   0.158   0.160   0.163   0.165   0.167
  0.168   0.168   0.173   0.176   0.177   0.180   0.183   0.184
  0.186   0.188   0.194   0.195   0.195   0.199   0.199   0.201
  0.205   0.207   0.207   0.212   0.216   0.217   0.217   0.220
  0.223   0.226   0.228   0.230   0.232   0.234   0.236   0.238
  0.241   0.244   0.248   0.248   0.251   0.253   0.256   0.258
  0.261   0.266   0.268   0.270   0.271   0.276   0.279   0.281
  0.282   0.286   0.288   0.290   0.297   0.298   0.302   0.306
  0.309   0.309   0.316   0.318   0.319   0.321   0.321   0.327
  0.328   0.330   0.332   0.335   0.336   0.337   0.345   0.346
  0.349   0.356   0.358   0.364   0.365   0.366   0.369   0.370
  0.375   0.381   0.384   0.386   0.389   0.392   0.396   0.402
  0.404   0.410   0.415   0.418   0.423   0.430   0.435   0.443
  0.444   0.449   0.451   0.455   0.462   0.466   0.466   0.469
  0.476   0.477   0.480   0.486   0.489   0.492   0.497   0.498
  0.499   0.502   0.506   0.509   0.512   0.514   0.515   0.517
  0.521   0.522   0.522   0.530   0.532   0.533   0.533   0.536
  0.539   0.540   0.541   0.544   0.545   0.548   0.551   0.552
  0.556   0.557   0.559   0.560   0.566   0.566   0.567   0.571
  0.572   0.572   0.575   0.576   0.579   0.580   0.584   0.587
  0.588   0.590   0.592   0.593   0.597   0.599   0.600   0.601
  0.604   0.605   0.610   0.611   0.612   0.614   0.616   0.618
  0.619   0.623   0.625   0.625   0.628   0.629   0.631   0.633
  0.635   0.639   0.640   0.640   0.644   0.646   0.647   0.648
  0.649   0.650   0.654   0.656   0.664   0.668   0.672   0.672
  0.673   0.677   0.682   0.683   0.685   0.686   0.689   0.693
  0.699   0.705   0.707   0.708   0.710   0.715   0.720   0.722
  0.725   0.728   0.735   0.738   0.740   0.744   0.750   0.751
  0.754   0.757   0.758   0.762   0.764   0.765   0.771   0.772
  0.773   0.780   0.782   0.784   0.785   0.790   0.791   0.793
  0.797   0.800   0.802   0.804   0.804   0.806   0.807   0.810
  0.811   0.811   0.813   0.816   0.818   0.821   0.823   0.823
  0.827   0.827   0.829   0.830   0.833   0.834   0.835   0.837
  0.837   0.840   0.841   0.843   0.846   0.849   0.852   0.854
  0.854   0.857   0.861   0.864   0.865   0.868   0.871   0.874
  0.875   0.876   0.877   0.879   0.883   0.887   0.888   0.891
  0.892   0.898   0.901   0.903   0.906   0.908   0.910   0.911
  0.912   0.913   0.915   0.917   0.923   0.926   0.928   0.930
  0.933   0.935   0.937   0.940   0.940   0.945   0.947   0.949
  0.951   0.953   0.957   0.957   0.960   0.963   0.967   0.969
  0.973   0.973   0.976   0.980   0.981   0.982   0.983   0.987
  0.992   0.994   0.997   0.998   1.001   1.005   1.009   1.011
  1.015   1.016   1.018   1.021   1.023   1.026   1.029   1.030
  1.033   1.040   1.042   1.044   1.046   1.046   1.051   1.055
  1.060   1.065   1.068   1.070   1.076   1.077   1.081   1.087
  1.091   1.095   1.098   1.108   1.108   1.110   1.117   1.120
  1.124   1.128   1.132   1.136   1.136   1.146   1.154   1.155
  1.159   1.169   1.171   1.172   1.174   1.181   1.182   1.190
  1.197   1.204   1.207   1.211   1.219   1.222   1.230   1.235
  1.236   1.243   1.245   1.254   1.258   1.270   1.273   1.277
  1.282   1.284   1.287   1.291   1.294   1.295   1.302   1.303
  1.307   1.312   1.315   1.318   1.321   1.328   1.331   1.339
  1.341   1.347   1.352   1.356   1.360   1.361   1.367   1.368
  1.376   1.377   1.382   1.391   1.396   1.398   1.405   1.409
  1.411   1.416   1.419   1.420   1.422   1.427   1.430   1.440
  1.442   1.448   1.451   1.455   1.457   1.463   1.469   1.474
  1.477   1.482   1.484   1.486   1.487   1.503   1.506   1.509
  1.515   1.523   1.530   1.537   1.539   1.554   1.561   1.564
  1.567   1.579   1.587   1.597   1.600   1.604   1.608   1.614
  1.617   1.625   1.627   1.630   1.632   1.633   1.649   1.649
  1.650   1.657   1.663   1.665   1.670   1.676   1.678   1.682
  1.689   1.691   1.694   1.697   1.704   1.706   1.707   1.712
  1.718   1.720   1.726   1.728   1.732   1.733   1.741   1.752
  1.754   1.758   1.761   1.764   1.770   1.776   1.778   1.781
  1.783   1.789   1.790   1.796   1.797   1.800   1.802   1.814
  1.815   1.817   1.826   1.830   1.831   1.844   1.848   1.852
  1.857   1.859   1.863   1.863   1.864   1.870   1.873   1.875
  1.878   1.884   1.885   1.888   1.894   1.895   1.901   1.902
  1.905   1.907   1.911   1.914   1.920   1.920   1.924   1.929
  1.933   1.939   1.940   1.941   1.948   1.951   1.959   1.962
  1.967   1.968   1.973   1.983   1.985   1.989   1.994   1.999
  1.999   2.009   2.014   2.022   2.029   2.034   2.037   2.037
  2.039   2.042   2.044   2.049   2.053   2.060   2.064   2.067
  2.069   2.085   2.087   2.088   2.090   2.096   2.098   2.104
  2.106   2.108   2.108   2.109   2.118   2.119   2.120   2.123
  2.130   2.138   2.142   2.146   2.151   2.152   2.155   2.156
  2.161   2.165   2.169   2.173   2.179   2.182   2.187   2.192
  2.194   2.197   2.205   2.209   2.211   2.222   2.223   2.225
  2.233   2.234   2.237   2.239   2.245   2.252   2.254   2.257
  2.263   2.266   2.270   2.272   2.276   2.283   2.283   2.287
  2.294   2.296   2.301   2.302   2.308   2.311   2.311   2.314
  2.316   2.321   2.323   2.328   2.332   2.333   2.337   2.339
  2.342   2.351   2.352   2.356   2.361   2.365   2.367   2.373
  2.374   2.379   2.381   2.383   2.385   2.387   2.393   2.397
  2.398   2.408   2.411   2.413   2.417   2.421   2.421   2.432
  2.433   2.433   2.437   2.441   2.442   2.447   2.451   2.452
  2.454   2.456   2.462   2.465   2.467   2.471   2.475   2.480
  2.481   2.485   2.488   2.490   2.491   2.499   2.504   2.506
  2.511   2.515   2.516   2.518   2.522   2.530   2.532   2.537
  2.539   2.542   2.547   2.551   2.553   2.558   2.563   2.566
  2.570   2.580   2.581   2.587   2.590   2.592   2.597   2.602
  2.610   2.615   2.626   2.632   2.634   2.639   2.646   2.649
  2.654   2.657   2.658   2.662   2.667   2.671   2.673   2.675
  2.679   2.680   2.682   2.685   2.693   2.694   2.694   2.696
  2.704   2.706   2.710   2.715   2.725   2.726   2.732   2.743
  2.750   2.752   2.773   2.774   2.781   2.782   2.789   2.791
  2.799   2.811   2.817   2.819   2.822   2.829   2.840   2.845
  2.846   2.847   2.852   2.853   2.857   2.864   2.868   2.875
  2.883   2.884   2.885   2.893   2.895   2.899   2.901   2.908
  2.916   2.924   2.931   2.934   2.935   2.939   2.943   2.957
  2.961   2.963   2.974   2.975   2.978   2.997   3.017   3.017
  3.045   3.046   3.059   3.075   3.080   3.093   3.094   3.106
  3.146   3.168   3.171   3.196   3.197   3.206   3.228   3.238
  3.241   3.247   3.255   3.260   3.263   3.264   3.270   3.285
  3.287   3.289   3.297   3.302   3.319   3.320   3.325   3.334
  3.345   3.356   3.358   3.363   3.395   3.408   3.422   3.426
  3.428   3.466   3.473   3.480   3.483   3.502   3.518   3.536
  3.543   3.550   3.571   3.592   3.597   3.598   3.600   3.606
  3.620   3.663   3.743   3.747   3.851   3.859   3.905   3.918
  3.947   3.949   3.954   3.969   3.977   3.980   3.994   3.999
  4.031   4.050   4.058   4.081   4.093   4.102   4.112   4.121
  4.143   4.143   4.155   4.158   4.163   4.171   4.191   4.200
  4.211   4.227   4.249   4.255   4.266   4.268   4.279   4.281
  4.287   4.299   4.336   4.357   4.374   4.380   4.386   4.407
  4.414   4.432   4.444   4.463   4.473   4.481   4.483   4.503
  4.506   4.518   4.527   4.548   4.572   4.614   4.648   4.661
  4.671   4.694   4.697   4.710   4.765   4.770   4.789   4.802
 --------------------------------------------------------------
 
          Ground-State Mulliken Net Atomic Charges

     Atom                 Charge (a.u.)
  ----------------------------------------
      1 C                     0.282430
      2 C                    -0.110263
      3 N                    -0.461941
      4 C                    -0.062246
      5 C                     0.059704
      6 C                     0.022968
      7 C                     0.000219
      8 C                     0.067098
      9 C                     0.239704
     10 N                    -0.517055
     11 N                    -0.524662
     12 C                     0.143523
     13 C                     0.345163
     14 S                     0.590291
     15 N                    -0.522244
     16 C                    -0.209280
     17 S                     0.321622
     18 C                    -0.135149
     19 C                    -0.236255
     20 S                     0.295076
     21 C                     0.153085
     22 C                     0.061078
     23 C                    -0.325680
     24 C                    -0.079173
     25 N                    -0.436312
     26 S                     0.270077
     27 C                     0.147758
     28 C                    -0.306010
     29 C                    -0.244646
     30 H                     0.095449
     31 H                     0.105702
     32 H                     0.100542
     33 H                     0.108805
     34 H                     0.140069
     35 H                     0.126399
     36 H                     0.115292
     37 H                     0.122554
     38 H                     0.110426
     39 C                    -0.173450
     40 H                     0.095818
     41 H                     0.100777
     42 H                     0.101492
     43 C                    -0.181352
     44 H                     0.102074
     45 C                    -0.179400
     46 H                     0.094100
     47 H                     0.085132
     48 H                     0.083188
     49 C                    -0.168824
     50 H                     0.094927
     51 C                    -0.320957
     52 H                     0.094144
     53 H                     0.101046
     54 H                     0.102967
     55 H                     0.095864
     56 C                     0.283086
     57 C                    -0.126019
     58 N                    -0.485582
     59 C                    -0.070731
     60 C                     0.076416
     61 C                     0.025907
     62 C                     0.027809
     63 C                     0.041958
     64 C                     0.243038
     65 N                    -0.498055
     66 N                    -0.554484
     67 C                     0.177166
     68 C                     0.301592
     69 S                     0.601929
     70 N                    -0.533484
     71 C                    -0.233858
     72 S                     0.312009
     73 C                    -0.110001
     74 C                    -0.217818
     75 S                     0.283442
     76 C                     0.169694
     77 C                     0.042527
     78 C                    -0.313921
     79 C                    -0.056627
     80 N                    -0.428277
     81 S                     0.280281
     82 C                     0.114928
     83 C                    -0.302110
     84 C                    -0.227354
     85 H                     0.093787
     86 H                     0.114492
     87 H                     0.112563
     88 H                     0.112200
     89 H                     0.132984
     90 H                     0.118115
     91 H                     0.112200
     92 H                     0.140639
     93 H                     0.115903
     94 C                    -0.182022
     95 H                     0.085919
     96 H                     0.122935
     97 H                     0.097378
     98 C                    -0.170623
     99 H                     0.090185
    100 C                    -0.171944
    101 H                     0.090627
    102 H                     0.091239
    103 H                     0.099826
    104 C                    -0.183123
    105 H                     0.092666
    106 C                    -0.317229
    107 H                     0.093918
    108 H                     0.094660
    109 H                     0.107733
    110 H                     0.099847
  ----------------------------------------
  Sum of atomic charges =     0.000000

 -----------------------------------------------------------------
                    Cartesian Multipole Moments
 -----------------------------------------------------------------
    Charge (ESU x 10^10)
                 0.0000
    Dipole Moment (Debye)
         X      -0.0493      Y       2.8117      Z       0.8714
       Tot       2.9441
    Quadrupole Moments (Debye-Ang)
        XX    -398.9565     XY      -1.1830     YY    -430.5643
        XZ      -8.2189     YZ      -2.5796     ZZ    -434.6429
    Octopole Moments (Debye-Ang^2)
       XXX     -12.3227    XXY      35.8730    XYY      79.9627
       YYY     124.6208    XXZ    -159.6635    XYZ      92.5241
       YYZ     -56.4231    XZZ     -42.9021    YZZ     -23.0884
       ZZZ      33.4486
    Hexadecapole Moments (Debye-Ang^3)
      XXXX  -72481.4743   XXXY    -970.7566   XXYY  -20477.9632
      XYYY     134.7327   YYYY  -43955.7412   XXXZ    -499.2476
      XXYZ      57.3755   XYYZ    -164.0588   YYYZ     484.3561
      XXZZ  -14379.8537   XYZZ    -215.7821   YYZZ   -9355.4612
      XZZZ    -154.0347   YZZZ    -269.2753   ZZZZ  -10767.2951
 -----------------------------------------------------------------
Archival summary:
1\1\mn246\SP\ProcedureUnspecified\6-31G**\8105042\afmv_a\FriOct1214:15:432018FriOct1214:15:432018\0\\#,ProcedureUnspecified,6-31G**,\\0,1\S\C,1,1.70763\C,2,1.38031,1,127.184\C,2,1.40421,1,115.768,3,172.171,0\C,4,1.40697,2,109.923,1,-1.09658,0\H,5,1.08454,4,123.011,2,179.799,0\C,5,1.40842,4,112.443,2,2.00853,0\H,7,1.08234,5,130.706,4,-169.468,0\C,4,1.43622,2,114.946,1,177.097,0\C,9,1.4588,4,121.731,2,-178.251,0\N,10,1.31906,9,120.724,4,24.4383,0\C,11,1.35705,10,107.561,9,162.049,0\H,12,1.08317,11,123.756,10,179.21,0\C,12,1.3351,11,114.684,10,5.8698,0\H,14,1.08193,12,124.828,11,-178.371,0\C,3,1.4673,2,123.487,1,-0.155269,0\N,16,1.31525,3,118.144,2,5.90899,0\C,17,1.31342,16,119.321,3,176.772,0\H,18,1.08879,17,112.044,16,179.766,0\C,18,1.39136,17,126.378,16,5.05204,0\C,20,1.38146,18,116.83,17,-11.0388,0\N,21,1.32591,20,124.474,18,-174.784,0\C,21,1.3772,20,117.11,18,6.52364,0\N,23,1.34728,21,114.561,20,176.317,0\C,20,1.49618,18,120.308,17,-178.904,0\C,25,1.40864,20,120.098,18,-54.8517,0\H,26,1.08848,25,125.938,20,-4.04632,0\N,26,1.31355,25,125.181,20,178.086,0\C,28,1.31895,26,117.223,25,4.00117,0\C,29,1.41134,28,124.766,26,-1.53232,0\H,30,1.08591,29,117.057,28,-179.784,0\C,30,1.40848,29,116.875,28,-6.53686,0\H,32,1.08588,30,120.229,29,-178.929,0\C,29,1.51094,28,119.358,26,174.967,0\H,34,1.09705,29,114.282,28,-15.5365,0\H,34,1.09741,29,107.917,28,-127.118,0\C,34,1.54658,29,114.849,28,109.865,0\H,37,1.09724,34,105.119,29,169.996,0\H,37,1.09728,34,112.45,29,35.5403,0\C,37,1.53603,34,105.61,29,-84.7924,0\H,40,1.09702,37,114.313,34,75.4284,0\H,40,1.09709,37,113.951,34,-45.2698,0\C,40,1.58444,37,110.085,34,-162.312,0\H,43,1.09719,40,105.08,37,-63.0489,0\H,43,1.0975,40,109.489,37,51.3591,0\C,43,1.54931,40,112.292,37,167.65,0\H,46,1.09664,43,105.814,40,-62.7045,0\H,46,1.09721,43,103.817,40,52.9068,0\C,46,1.50298,43,119.461,40,166.53,0\H,49,1.09699,46,114.587,43,-47.0518,0\H,49,1.09736,46,114.26,43,73.4597,0\H,49,1.09789,46,112.341,43,-169.171,0\S,22,1.5885,21,99.7208,20,-176.878,0\S,3,1.72403,2,107.761,1,178.512,0\S,10,1.72565,9,118.219,4,-168.051,0\H,13,2.11408,12,119.623,11,-50.026,0\C,56,1.09705,13,137.793,12,-26.298,0\H,57,1.09722,56,111.942,13,25.3461,0\C,57,1.56663,56,110.464,13,142.573,0\H,59,1.09747,57,110.432,56,-179.152,0\H,59,1.09765,57,109.867,56,59.7691,0\C,59,1.47141,57,107.762,56,-66.0952,0\H,62,1.09673,59,111.098,57,-64.8666,0\H,62,1.09706,59,111.865,57,50.1434,0\C,62,1.56927,59,112.753,57,173.198,0\H,65,1.09702,62,108.677,59,-55.9953,0\H,65,1.09702,62,111.437,59,58.1598,0\C,65,1.50615,62,114.756,59,-176.935,0\N,68,1.31533,65,117.596,62,71.0521,0\C,69,1.36425,68,119.797,65,-172.742,0\H,70,1.08902,69,120.352,68,170.865,0\C,70,1.41367,69,120.966,68,-6.34377,0\C,72,1.41918,70,118.438,69,-4.27913,0\H,73,1.08589,72,122.261,70,-175.67,0\C,73,1.37356,72,119.389,70,9.74207,0\H,75,1.08554,73,124.022,72,175.71,0\C,72,1.52679,70,120.757,69,174.741,0\C,77,1.41852,72,125.475,70,-144.404,0\N,78,1.31594,77,127.378,72,-5.43368,0\C,78,1.40756,77,118.401,72,171.564,0\N,80,1.34322,78,115.064,77,-174.532,0\C,77,1.44644,72,120.155,70,35.6636,0\H,82,1.08909,77,118.114,72,11.335,0\N,82,1.34283,77,128.38,72,-175.638,0\C,84,1.32041,82,116.828,77,-1.59374,0\C,85,1.49036,84,112.536,82,178.614,0\C,86,1.39764,85,126.139,84,21.6973,0\C,87,1.37049,86,112.701,85,173.623,0\C,88,1.40279,87,117.253,86,2.05035,0\C,89,1.41977,88,128.765,87,177.329,0\N,90,1.33753,89,117.383,88,30.8809,0\C,91,1.4068,90,107.223,89,178.153,0\H,92,1.0821,91,118.204,90,178.472,0\C,92,1.37121,91,116.828,90,-0.580706,0\H,94,1.08245,92,132.172,91,175.27,0\C,88,1.45124,87,109.278,86,-176.836,0\H,96,1.08377,88,119.75,87,-179.502,0\C,96,1.3905,88,113.724,87,4.59224,0\H,98,1.08184,96,128.199,88,175.679,0\C,57,1.57551,56,104.073,13,-100.261,0\H,100,1.09669,57,111.097,56,-170.797,0\H,100,1.09758,57,104.517,56,-54.2041,0\C,100,1.56,57,113.305,56,63.2454,0\H,103,1.09702,100,113.056,57,67.231,0\H,103,1.09715,100,114.869,57,-57.7023,0\H,103,1.09779,100,100.656,57,-174.637,0\S,79,1.58574,78,104.544,77,179.053,0\S,94,1.73466,92,110.129,91,-2.73928,0\S,89,1.76014,88,109.448,87,-0.0552395,0\S,98,1.76168,96,113.108,88,-3.14868,0\\\@

 Total job time:  84.40s(wall), 1001.71s(cpu) 
 Fri Oct 12 14:15:43 2018

        *************************************************************
        *                                                           *
        *  Thank you very much for using Q-Chem.  Have a nice day.  *
        *                                                           *
        *************************************************************


