
Running Job 1 of 1 ./10/84.qcin
qchem ./10/84.qcin_20451.0 /tmpu/cab_g/afmv_a/scratch_qchem/qchem20451/ 1
/tmpu/appuserlic/qchem4.4/serial-multicore/exe/qcprog.exe_s ./10/84.qcin_20451.0 /tmpu/cab_g/afmv_a/scratch_qchem/qchem20451/
Check license passed

                  Welcome to Q-Chem
     A Quantum Leap Into The Future Of Chemistry


 Q-Chem 4.4, Q-Chem, Inc., Pleasanton, CA (2016)

 Y. Shao,  Z. Gan,  E. Epifanovsky,  A. T. B. Gilbert,  M. Wormit,  
 J. Kussmann,  A. W. Lange,  A. Behn,  J. Deng,  X. Feng,  D. Ghosh,  
 M. Goldey,  P. R. Horn,  L. D. Jacobson,  I. Kaliman,  F. Rob,  
 R. Z. Khaliullin,  T. Kus,  A. Landau,  J. Liu,  E. I. Proynov,  Y. M. Rhee,  
 R. M. Richard,  M. A. Rohrdanz,  R. P. Steele,  E. J. Sundstrom,  
 H. L. Woodcock III,  P. M. Zimmerman,  D. Zuev,  B. Albrecht,  E. Alguire,  
 B. Austin,  S. A. Baeppler,  G. J. O. Beran,  Y. A. Bernard,  E. Berquist,  
 K. Brandhorst,  K. B. Bravaya,  S. T. Brown,  D. Casanova,  C.-M. Chang,  
 Y. Chen,  S. H. Chien,  K. D. Closser,  M. P. Coons,  D. L. Crittenden,  
 S. Dasgupta,  M. Diedenhofen,  R. A. DiStasio Jr.,  H. Do,  A. D. Dutoi,  
 R. G. Edgar,  P.-T. Fang,  S. Fatehi,  Q. Feng,  L. Fusti-Molnar,  
 A. Ghysels,  A. Golubeva-Zadorozhnaya,  J. Gomes,  A. Gunina,  
 M. W. D. Hanson-Heine,  P. H. P. Harbach,  A. W. Hauser,  J. E. Herr,  
 E. G. Hohenstein,  Z. C. Holden,  K. Hui,  T.-C. Jagau,  H. Ji,  B. Kaduk,  
 K. Khistyaev,  Jaehoon Kim,  Jihan Kim,  R. A. King,  P. Klunzinger,  
 K. Koh,  D. Kosenkov,  T. Kowalczyk,  C. M. Krauter,  A. Kunitsa,  
 K. U. Lao,  A. Laurent,  K. V. Lawler,  J. Lee,  D. Lefrancois,  S. Lehtola,  
 S. V. Levchenko,  C. Y. Lin,  Y.-S. Lin,  F. Liu,  E. Livshits,  
 R. C. Lochan,  A. Luenser,  P. Manohar,  S. F. Manzer,  S.-P. Mao,  Y. Mao,  
 N. Mardirossian,  A. V. Marenich,  L. A. Martinez-Martinez,  S. A. Maurer,  
 N. J. Mayhall,  J.-M. Mewes,  A. F. Morrison,  K. Nanda,  T. S. Nguyen-Beck,  
 C. M. Oana,  R. Olivares-Amaya,  D. P. O'Neill,  J. A. Parkhill,  
 T. M. Perrine,  R. Peverati,  P. A. Pieniazek,  F. Plasser,  A. Prociuk,  
 D. R. Rehn,  E. Rosta,  N. J. Russ,  N. Sergueev,  S. M. Sharada,  
 S. Sharma,  D. W. Small,  A. Sodt,  T. Stauch,  T. Stein,  D. Stuck,  
 Y.-C. Su,  A. J. W. Thom,  T. Tsuchimochi,  L. Vogt,  O. Vydrov,  T. Wang,  
 M. A. Watson,  J. Wenzel,  A. White,  C. F. Williams,  V. Vanovschi,  
 K. Yao,  S. Yeganeh,  S. R. Yost,  Z.-Q. You,  I. Y. Zhang,  X. Zhang,  
 Y. Zhao,  B. R. Brooks,  G. K. L. Chan,  D. M. Chipman,  C. J. Cramer,  
 W. A. Goddard III,  M. S. Gordon,  W. J. Hehre,  A. Klamt,  
 H. F. Schaefer III,  M. W. Schmidt,  C. D. Sherrill,  D. G. Truhlar,  
 A. Warshel,  X. Xu,  A. Aspuru-Guzik,  R. Baer,  A. T. Bell,  N. A. Besley,  
 J.-D. Chai,  A. Dreuw,  B. D. Dunietz,  T. R. Furlani,  S. R. Gwaltney,  
 C.-P. Hsu,  Y. Jung,  J. Kong,  D. S. Lambrecht,  W. Liang,  C. Ochsenfeld,  
 V. A. Rassolov,  L. V. Slipchenko,  J. E. Subotnik,  T. Van Voorhis,  
 J. M. Herbert,  A. I. Krylov,  P. M. W. Gill,  M. Head-Gordon

 Contributors to earlier versions of Q-Chem not listed above: 
 R. D. Adamson,  J. Baker,  E. F. C. Byrd,  A. K. Chakraborty,  C.-L. Cheng,  
 H. Dachsel,  R. J. Doerksen,  G. Hawkins,  A. Heyden,  S. Hirata,  
 G. Kedziora,  F. J. Keil,  C. Kelley,  P. P. Korambath,  W. Kurlancheek,  
 A. M. Lee,  M. S. Lee,  D. Liotard,  I. Lotan,  P. E. Maslen,  N. Nair,  
 D. Neuhauser,  R. Olson,  B. Peters,  J. Ritchie,  N. E. Schultz,  
 N. Shenvi,  A. C. Simmonett,  K. S. Thanthiriwatte,  Q. Wu,  W. Zhang

 Please cite Q-Chem as follows:
 Y. Shao et al., Mol. Phys. 113, 184-215 (2015)
 DOI: 10.1080/00268976.2014.952696

 Q-Chem 4.4.2 for Intel X86 Linux

 Parts of Q-Chem use Armadillo 5.200.1 (Boston Tea Smuggler).
 http://arma.sourceforge.net/

 Q-Chem begins on Fri Oct 12 14:46:27 2018  

Host: 
0

     Scratch files written to /tmpu/cab_g/afmv_a/scratch_qchem/qchem20451//
 Dec716 11556_ 22328  22283 4050   
Processing $rem in /tmpu/appuserlic/qchem4.4/serial-multicore/config/preferences.
 MEM_TOTAL  2000 
FILE_GEOM_ORG=        593

Checking the input file for inconsistencies... 	...done.

--------------------------------------------------------------
User input:
--------------------------------------------------------------
$comment
SP
$end

$rem
MEM_STATIC 5000
MEM_TOTAL 20000
JOBTYPE SP
EXCHANGE B3LYP
BASIS 6-31g(d,p)
$end

$molecule
0 1
C          10.309000     11.800000      8.060000
C          11.325000     11.210000      7.278000
N           9.310000     12.515000      7.580000
C          11.335000     11.524000      5.905000
C           9.247000     12.660000      6.276000
C          10.203000     12.181000      5.359000
C          10.039000     12.448000      3.896000
C           9.885000     13.751000      3.433000
C          10.290000     11.475000      2.948000
N           9.753000     14.122000      2.180000
N          10.559000     10.207000      3.227000
C          10.228000     11.856000      1.626000
C           9.861000     13.222000      1.227000
S          10.657000      9.623000      1.753000
N          10.404000     10.852000      0.745000
C           9.781000     13.676000     -0.166000
S          10.060000     12.778000     -1.611000
C           9.482000     14.974000     -0.528000
C           9.816000     14.167000     -2.758000
S           9.156000     16.287000      0.514000
C           9.607000     15.292000     -1.890000
C           9.928000     14.324000     -4.204000
C           9.171000     17.353000     -0.871000
C           9.451000     16.678000     -2.075000
N           9.388000     15.362000     -4.813000
S          10.486000     12.979000     -5.130000
C           9.291000     15.058000     -6.132000
C           9.855000     13.899000     -6.480000
C          10.365000     11.506000      9.541000
H          12.091000     10.649000      7.805000
H          12.103000     11.114000      5.256000
H           8.324000     13.179000      6.024000
H           9.770000     14.587000      4.121000
H           9.147000     18.411000     -0.644000
H           9.505000     17.154000     -3.048000
H           8.893000     15.735000     -6.878000
H           9.852000     13.486000     -7.480000
H           9.423000     11.688000     10.073000
C          11.491000     12.239000     10.307000
H          10.472000     10.421000      9.666000
H          12.405000     12.344000      9.709000
H          11.504000     11.781000     11.304000
C          10.921000     13.622000     10.656000
H          10.877000     14.319000      9.810000
C          11.779000     14.289000     11.809000
H           9.899000     13.595000     11.054000
H          12.781000     14.418000     11.381000
H          11.879000     13.585000     12.645000
C          11.084000     15.535000     12.413000
H          10.859000     16.159000     11.539000
C          11.870000     16.466000     13.293000
H          10.151000     15.170000     12.859000
H          11.330000     17.399000     13.501000
H          12.852000     16.750000     12.895000
H          12.084000     16.068000     14.293000
C          14.181000      8.749000      3.405000
C          15.355000      8.869000      4.149000
N          13.653000      9.834000      2.788000
C          15.873000     10.150000      4.351000
C          14.183000     11.034000      2.998000
C          15.256000     11.336000      3.835000
C          15.844000     12.748000      3.923000
C          17.207000     12.889000      4.001000
C          15.064000     13.948000      3.709000
N          17.856000     14.122000      4.004000
N          13.723000     13.985000      3.688000
C          15.719000     15.199000      3.668000
C          17.105000     15.267000      3.857000
S          13.344000     15.530000      3.299000
N          14.882000     16.150000      3.333000
C          17.960000     16.455000      3.728000
S          19.656000     16.470000      3.125000
C          17.545000     17.728000      4.066000
C          19.731000     18.210000      3.292000
S          16.142000     18.310000      4.940000
C          18.576000     18.702000      3.944000
C          20.742000     19.106000      2.807000
C          16.908000     19.869000      5.129000
C          18.212000     20.003000      4.475000
N          21.807000     18.507000      2.407000
S          20.852000     20.845000      2.886000
C          22.833000     19.401000      2.228000
C          22.470000     20.688000      2.347000
C          13.524000      7.435000      3.180000
H          15.872000      7.984000      4.508000
H          16.676000     10.372000      5.048000
H          13.770000     11.815000      2.362000
H          17.886000     12.043000      4.100000
H          16.430000     20.603000      5.764000
H          18.874000     20.859000      4.531000
H          23.760000     18.978000      1.863000
H          23.144000     21.529000      2.447000
H          12.627000      7.651000      2.587000
C          13.194000      6.485000      4.357000
H          14.022000      6.814000      2.424000
H          13.830000      6.682000      5.229000
H          13.429000      5.456000      4.058000
C          11.697000      6.380000      4.826000
H          11.621000      5.940000      5.828000
C          10.821000      5.639000      3.765000
H          11.329000      7.413000      4.801000
H          10.982000      4.558000      3.865000
H          11.087000      5.896000      2.732000
C           9.354000      5.810000      4.096000
H           8.846000      4.889000      3.785000
C           8.804000      6.884000      3.284000
H           9.146000      5.913000      5.168000
H           9.155000      7.838000      3.695000
H           7.711000      6.977000      3.285000
H           9.202000      6.823000      2.263000
$end

--------------------------------------------------------------
 ----------------------------------------------------------------
             Standard Nuclear Orientation (Angstroms)
    I     Atom           X                Y                Z
 ----------------------------------------------------------------
    1      C      -2.4925725861     5.2916643845    -1.6984775164
    2      C      -2.2649692001     4.7382545336    -0.4202700858
    3      N      -2.8623354072     4.6033556927    -2.7610840292
    4      C      -2.3112425249     3.3343347054    -0.3168636281
    5      C      -3.0587747520     3.3141751797    -2.6034921863
    6      C      -2.8293257363     2.5978563776    -1.4124814714
    7      C      -3.0517161506     1.1188569896    -1.3717713493
    8      C      -2.4127296992     0.2873112249    -2.2861683945
    9      C      -3.6692255058     0.5070028377    -0.2981090686
   10      N      -2.5052223023    -1.0214844330    -2.3459433406
   11      N      -4.2346749157     1.1545315489     0.7113459987
   12      C      -3.7162223442    -0.8693928332    -0.3020147597
   13      C      -3.1826906049    -1.6623274866    -1.4184575566
   14      S      -4.8131016147    -0.0777169421     1.5300780735
   15      N      -4.3968393078    -1.4094125961     0.7276901517
   16      C      -3.2092415630    -3.1284996878    -1.4694391498
   17      S      -3.8503288380    -4.2366365565    -0.3147488077
   18      C      -2.6621892874    -3.8647131661    -2.5009295871
   19      C      -3.3502191525    -5.7483744992    -1.1916779355
   20      S      -1.8637144572    -3.2653622545    -3.8862907062
   21      C      -2.6185403474    -5.2572687201    -2.3257816521
   22      C      -3.4356082163    -7.1735760206    -0.8923147262
   23      C      -1.4239961458    -4.9038511955    -4.3067758984
   24      C      -1.8757249725    -5.8480591662    -3.3644100590
   25      N      -3.2808774750    -8.0727413128    -1.8449348893
   26      S      -4.0610007054    -7.6485419412     0.6442908214
   27      C      -3.7946259324    -9.2435815916    -1.3902024801
   28      C      -4.1879554952    -9.2217899451    -0.1145465785
   29      C      -2.3643245347     6.7939391884    -1.7967417046
   30      H      -1.9600324210     5.4215771952     0.3666795319
   31      H      -2.1268032736     2.8500647568     0.6373846517
   32      H      -3.4559421498     2.9030830000    -3.5298049184
   33      H      -1.8310997045     0.6940112295    -3.1118600171
   34      H      -0.7177919055    -5.0015706951    -5.1211440401
   35      H      -1.7104037584    -6.9173700465    -3.4383298631
   36      H      -3.7927157121   -10.1638719765    -1.9614388223
   37      H      -4.6427357971   -10.0540313392     0.4061521241
   38      H      -2.8465351737     7.2310733476    -2.6798603979
   39      C      -0.9140811836     7.3277944952    -1.7358012918
   40      H      -2.9607327771     7.2372305981    -0.9892214667
   41      H      -0.2800270471     6.7419621866    -1.0584528894
   42      H      -1.0136368613     8.4158710766    -1.6352029813
   43      C      -0.3806899831     7.2403653212    -3.1735912510
   44      H      -0.1219818854     6.2249691796    -3.4984016507
   45      C       0.9004150664     8.1585310592    -3.3354662942
   46      H      -1.0818812860     7.6101680755    -3.9320064933
   47      H       1.6468985219     7.7294542410    -2.6554041391
   48      H       0.6768667263     9.1674549585    -2.9658574400
   49      C       1.3003711336     8.3530040563    -4.8195728934
   50      H       1.3725785263     7.3293164488    -5.2078083562
   51      C       2.6472700517     8.9308768208    -5.1525644438
   52      H       0.4563632692     8.8705432737    -5.2912018612
   53      H       2.8866824171     8.8429239574    -6.2204122855
   54      H       3.4843813853     8.4840812430    -4.6021079724
   55      H       2.7360114124    10.0075904904    -4.9601777378
   56      C      -2.4544982464     1.8217651643     4.1263280380
   57      C      -1.3677175943     2.5174151709     4.6566023846
   58      N      -2.2620763618     0.9012254620     3.1504804705
   59      C      -0.1204993337     2.3392950406     4.0542662414
   60      C      -1.0566552733     0.7549989001     2.6114277904
   61      C       0.0898196490     1.4836235807     2.9241630256
   62      C       1.4521046156     1.1590247866     2.3028359840
   63      C       2.5684152917     1.2159322650     3.0992944031
   64      C       1.6068584803     0.5846343546     0.9836230092
   65      N       3.8447630757     0.8643938213     2.6647186825
   66      N       0.6321799543     0.5297086366     0.0632557257
   67      C       2.8910499159     0.1858503444     0.5505748939
   68      C       3.9980813655     0.3708142572     1.3881969569
   69      S       1.2740073849    -0.3070210769    -1.1897119258
   70      N       2.8205334653    -0.4311772784    -0.6033312300
   71      C       5.3736106498    -0.0897269839     1.1540368550
   72      S       6.5287439801    -0.6396867979     2.4203153363
   73      C       5.9490383080    -0.1522478076    -0.0997462829
   74      C       7.7366069247    -0.9953528370     1.2055384944
   75      S       5.4464014391     0.4844799346    -1.6531113270
   76      C       7.3185275003    -0.5394524416    -0.0666868883
   77      C       8.9733229101    -1.7063443111     1.3642416624
   78      C       7.0542521933     0.2158534671    -2.2820896838
   79      C       7.9858077678    -0.4251045513    -1.3507116562
   80      N       9.3026961654    -1.8914875194     2.5931685321
   81      S      10.1900925135    -2.1451097134     0.1940200364
   82      C      10.6063042092    -2.3094583712     2.6924632203
   83      C      11.1884861828    -2.5843027233     1.5144039129
   84      C      -3.8303617004     1.9852436339     4.6640496628
   85      H      -1.4875416664     3.1320661630     5.5438686071
   86      H       0.7480715539     2.9531858630     4.2747762671
   87      H      -0.9783520819    -0.0914022262     1.9313544534
   88      H       2.5453941777     1.5736538490     4.1279164409
   89      H       7.2910480707     0.5957574027    -3.2670088237
   90      H       9.0387749811    -0.6139112460    -1.5231299841
   91      H      10.9532490388    -2.5158819850     3.6967050124
   92      H      12.2488930406    -2.7264335617     1.3504126917
   93      H      -4.4670522925     1.3389713794     4.0477126908
   94      C      -4.4677542958     3.3850978153     4.8397424349
   95      H      -4.0020779846     1.4566293313     5.6107605145
   96      H      -3.7065231844     4.1705181378     4.9253643475
   97      H      -5.0122023774     3.4092259051     5.7918249532
   98      C      -5.5582647693     3.8373770072     3.8013660870
   99      H      -5.7113007531     4.9232990863     3.8284442303
  100      C      -6.8832451798     3.0286933491     3.9820194925
  101      H      -5.1702954042     3.5003463165     2.8323314719
  102      H      -7.4416864674     3.4478904176     4.8287184627
  103      H      -6.7129773848     1.9708749475     4.2185001624
  104      C      -7.7994065002     3.2678292602     2.8011920491
  105      H      -8.8275801522     3.2352060743     3.1817451585
  106      C      -7.6667479500     2.1639822512     1.8635122052
  107      H      -7.6874332974     4.2570656132     2.3408330155
  108      H      -6.7151114175     2.2794903685     1.3312681025
  109      H      -8.4173047274     2.1178589311     1.0648657483
  110      H      -7.6012303795     1.2143585457     2.4098530019
 ----------------------------------------------------------------
 Molecular Point Group                 C1    NOp =  1
 Largest Abelian Subgroup              C1    NOp =  1
 Nuclear Repulsion Energy = 11867.0952127878 hartrees
 There are      270 alpha and      270 beta electrons
 Requested basis set is 6-31G(d,p)
 There are 406 shells and 1262 basis functions

 Total QAlloc Memory Limit  20000 MB
 Mega-Array Size      4888 MB
 MEM_STATIC part      5000 MB
 A cutoff of  1.0D-08 yielded  14059 shell pairs
 There are    147168 function pairs
 
 -------------------------------------------------------
 OpenMP Integral Computing Module                       
 Release: version 1.0, May 2013, Q-Chem Inc. Pittsburgh 
 -------------------------------------------------------
 Integral Job Info:
 Integral job number is                      11
 Integral operator is                         1
 short-range coefficients                     0
 long-range coefficients              100000000
 Omega coefficients                           0
 if combine SR and LR in K                    0
 Integral screening is                        0
 Integral computing path is                   2
 max size of driver memory is            800000
 size of driver memory is                593474
 size of scratch memory is             15166112
 max col of scratch BK array               1296
 max len of scratch array in speh3          155
 max len of scratch index in speh4           18
 max int batch size is                      520
 min int batch size is                       52
 fixed nKL is                                52
 max L of basis functions is                  2
 order of int derivative is                   0
 number of shells is                        406
 number of basis is                        1262
 number of cartesian basis is              1262
 number of contracted shell pairs         14059
 number of primitive shell pairs          44577
 maxK2 (contraction) of shell pair           36
 max number of K2 of shell pair               1
 max number of CS2 of shell pair           1464
 max number of PS2 of shell pair           8286
 mem total for path MDJ                  310744
 -------------------------------------------------------
 Smallest overlap matrix eigenvalue = 3.67E-04

 Scale SEOQF with 1.000000e-02/1.000000e-02/1.000000e-02

 Standard Electronic Orientation quadrupole field applied
 Nucleus-field energy     =     0.0000000728 hartrees
 Guess from superposition of atomic densities
 Warning:  Energy on first SCF cycle will be non-variational
 A restricted hybrid HF-DFT SCF calculation will be
 performed using Pulay DIIS extrapolation
 Exchange:     0.2000 Hartree-Fock + 0.0800 Slater + 0.7200 B88
 Correlation:  0.1900 VWN1RPA + 0.8100 LYP
 Using SG-1 standard quadrature grid
 SCF converges when DIIS error is below 1.0E-05
 using 16 threads for integral computing 
 -------------------------------------------------------
 OpenMP BLAS3 based DFT computing Module                
 Release: version 1.0, May 2013, Q-Chem Inc. Pittsburgh 
 -------------------------------------------------------
 ---------------------------------------
  Cycle       Energy         DIIS Error
 ---------------------------------------
    1   -5680.6420359558      2.17E-02
    2   -5662.4490421775      2.18E-03
    3   -5661.1050414841      3.29E-03
    4   -5663.3393680610      8.08E-04
    5   -5663.4602295336      3.28E-04
    6   -5663.4744921908      1.97E-04
    7   -5663.4820629224      7.07E-05
    8   -5663.4830659821      2.36E-05
    9   -5663.4831741070      7.50E-06 Convergence criterion met
 ---------------------------------------
 SCF time:  CPU 1049.63 s  wall 85.23 s
 SCF   energy in the final basis set = -5663.4831741070
 Total energy in the final basis set = -5663.4831741070
 
 --------------------------------------------------------------
 
                    Orbital Energies (a.u.)
 --------------------------------------------------------------
 
 Alpha MOs
 -- Occupied --
-88.989 -88.978 -88.929 -88.928 -88.923 -88.923 -88.919 -88.900
-14.385 -14.384 -14.384 -14.377 -14.352 -14.340 -14.339 -14.337
-14.334 -14.318 -10.268 -10.265 -10.263 -10.262 -10.259 -10.258
-10.246 -10.243 -10.242 -10.242 -10.241 -10.240 -10.239 -10.238
-10.235 -10.233 -10.232 -10.227 -10.227 -10.225 -10.224 -10.223
-10.222 -10.220 -10.219 -10.219 -10.217 -10.217 -10.216 -10.215
-10.215 -10.210 -10.209 -10.207 -10.207 -10.203 -10.194 -10.191
-10.189 -10.189 -10.183 -10.183 -10.176 -10.176 -10.175 -10.172
-10.172 -10.169 -10.168 -10.162  -8.044  -8.034  -7.990  -7.986
 -7.985  -7.982  -7.979  -7.961  -6.009  -6.004  -6.001  -5.999
 -5.993  -5.992  -5.954  -5.951  -5.950  -5.949  -5.947  -5.947
 -5.946  -5.946  -5.943  -5.943  -5.942  -5.942  -5.940  -5.939
 -5.935  -5.925  -5.921  -5.917  -1.056  -1.041  -0.983  -0.976
 -0.969  -0.950  -0.946  -0.945  -0.921  -0.911  -0.906  -0.904
 -0.843  -0.840  -0.833  -0.831  -0.815  -0.814  -0.808  -0.808
 -0.806  -0.800  -0.799  -0.796  -0.793  -0.780  -0.772  -0.765
 -0.755  -0.748  -0.744  -0.737  -0.727  -0.714  -0.712  -0.704
 -0.696  -0.689  -0.677  -0.669  -0.661  -0.650  -0.649  -0.642
 -0.638  -0.632  -0.630  -0.623  -0.615  -0.606  -0.604  -0.597
 -0.594  -0.587  -0.586  -0.578  -0.576  -0.572  -0.567  -0.566
 -0.548  -0.547  -0.538  -0.537  -0.528  -0.521  -0.521  -0.514
 -0.506  -0.505  -0.504  -0.495  -0.489  -0.486  -0.480  -0.477
 -0.476  -0.476  -0.472  -0.468  -0.467  -0.459  -0.453  -0.448
 -0.447  -0.441  -0.440  -0.440  -0.437  -0.434  -0.432  -0.430
 -0.429  -0.428  -0.423  -0.422  -0.418  -0.417  -0.414  -0.412
 -0.411  -0.410  -0.408  -0.403  -0.402  -0.401  -0.399  -0.398
 -0.394  -0.392  -0.390  -0.386  -0.386  -0.382  -0.381  -0.378
 -0.377  -0.374  -0.372  -0.371  -0.367  -0.364  -0.362  -0.357
 -0.355  -0.353  -0.349  -0.347  -0.346  -0.345  -0.345  -0.344
 -0.341  -0.339  -0.337  -0.332  -0.331  -0.323  -0.323  -0.320
 -0.318  -0.311  -0.305  -0.303  -0.303  -0.301  -0.296  -0.295
 -0.295  -0.293  -0.292  -0.291  -0.289  -0.285  -0.282  -0.282
 -0.279  -0.274  -0.266  -0.260  -0.257  -0.256  -0.248  -0.247
 -0.246  -0.240  -0.235  -0.227  -0.192  -0.188
 -- Virtual --
 -0.114  -0.102  -0.075  -0.067  -0.043  -0.033  -0.028  -0.020
 -0.016  -0.012  -0.010  -0.007  -0.002  -0.001   0.001   0.007
  0.007   0.009   0.021   0.026   0.037   0.040   0.044   0.047
  0.049   0.056   0.061   0.066   0.068   0.073   0.090   0.093
  0.094   0.100   0.103   0.103   0.104   0.107   0.109   0.111
  0.113   0.115   0.116   0.116   0.120   0.122   0.124   0.124
  0.128   0.131   0.132   0.134   0.137   0.139   0.141   0.145
  0.149   0.152   0.154   0.157   0.159   0.159   0.160   0.168
  0.168   0.169   0.170   0.171   0.173   0.177   0.179   0.180
  0.184   0.186   0.188   0.194   0.196   0.196   0.198   0.200
  0.205   0.207   0.208   0.209   0.212   0.214   0.216   0.219
  0.222   0.224   0.228   0.229   0.230   0.236   0.238   0.240
  0.244   0.247   0.251   0.252   0.256   0.257   0.258   0.260
  0.264   0.268   0.273   0.274   0.277   0.280   0.281   0.285
  0.285   0.287   0.291   0.294   0.299   0.302   0.304   0.311
  0.313   0.317   0.320   0.322   0.324   0.325   0.330   0.334
  0.335   0.335   0.341   0.342   0.346   0.349   0.354   0.355
  0.357   0.358   0.361   0.363   0.366   0.370   0.371   0.374
  0.378   0.382   0.386   0.387   0.390   0.393   0.397   0.402
  0.412   0.418   0.420   0.428   0.434   0.436   0.438   0.440
  0.446   0.451   0.453   0.456   0.459   0.461   0.471   0.475
  0.483   0.485   0.485   0.488   0.491   0.493   0.496   0.501
  0.503   0.506   0.507   0.511   0.513   0.514   0.516   0.518
  0.518   0.521   0.524   0.527   0.533   0.533   0.534   0.537
  0.538   0.541   0.542   0.544   0.545   0.550   0.550   0.553
  0.554   0.557   0.558   0.562   0.565   0.566   0.567   0.570
  0.572   0.574   0.576   0.578   0.579   0.581   0.582   0.585
  0.588   0.590   0.591   0.591   0.593   0.594   0.598   0.599
  0.602   0.603   0.604   0.608   0.609   0.612   0.617   0.620
  0.622   0.623   0.627   0.628   0.629   0.631   0.633   0.634
  0.636   0.639   0.641   0.643   0.646   0.650   0.650   0.654
  0.655   0.657   0.661   0.665   0.668   0.672   0.674   0.676
  0.682   0.683   0.685   0.690   0.693   0.695   0.698   0.702
  0.705   0.705   0.708   0.712   0.714   0.716   0.720   0.723
  0.727   0.729   0.731   0.734   0.737   0.746   0.749   0.751
  0.752   0.759   0.761   0.765   0.766   0.770   0.772   0.773
  0.774   0.778   0.780   0.782   0.786   0.788   0.789   0.793
  0.794   0.798   0.802   0.806   0.807   0.808   0.810   0.812
  0.814   0.815   0.817   0.819   0.820   0.825   0.826   0.827
  0.828   0.830   0.830   0.832   0.834   0.835   0.836   0.839
  0.840   0.843   0.844   0.845   0.849   0.851   0.854   0.854
  0.856   0.859   0.863   0.863   0.866   0.867   0.870   0.871
  0.875   0.876   0.878   0.880   0.881   0.884   0.888   0.892
  0.895   0.896   0.899   0.902   0.905   0.906   0.911   0.913
  0.913   0.914   0.915   0.918   0.919   0.921   0.924   0.925
  0.932   0.934   0.936   0.940   0.943   0.945   0.948   0.950
  0.952   0.954   0.956   0.960   0.962   0.964   0.967   0.969
  0.972   0.973   0.978   0.979   0.983   0.983   0.984   0.986
  0.987   0.990   0.996   0.999   1.000   1.004   1.007   1.009
  1.012   1.014   1.019   1.022   1.026   1.030   1.032   1.033
  1.035   1.036   1.041   1.045   1.046   1.047   1.051   1.053
  1.056   1.058   1.062   1.064   1.066   1.072   1.076   1.080
  1.087   1.090   1.095   1.100   1.102   1.107   1.112   1.114
  1.120   1.121   1.128   1.133   1.134   1.138   1.142   1.147
  1.148   1.161   1.164   1.169   1.174   1.177   1.181   1.187
  1.189   1.194   1.197   1.205   1.208   1.215   1.217   1.226
  1.236   1.239   1.243   1.249   1.256   1.260   1.265   1.269
  1.271   1.275   1.279   1.284   1.285   1.288   1.288   1.292
  1.294   1.301   1.309   1.312   1.317   1.323   1.329   1.330
  1.341   1.346   1.349   1.351   1.355   1.363   1.364   1.366
  1.370   1.378   1.386   1.388   1.393   1.397   1.410   1.412
  1.413   1.420   1.425   1.427   1.431   1.438   1.441   1.443
  1.444   1.449   1.452   1.456   1.464   1.471   1.473   1.474
  1.478   1.484   1.488   1.492   1.494   1.501   1.512   1.520
  1.527   1.531   1.535   1.540   1.542   1.557   1.560   1.565
  1.571   1.581   1.591   1.600   1.600   1.604   1.610   1.619
  1.621   1.629   1.634   1.638   1.638   1.640   1.652   1.661
  1.669   1.670   1.672   1.676   1.679   1.683   1.685   1.688
  1.696   1.697   1.698   1.704   1.707   1.711   1.715   1.716
  1.724   1.727   1.730   1.733   1.737   1.738   1.739   1.754
  1.759   1.761   1.764   1.774   1.778   1.783   1.783   1.786
  1.787   1.794   1.796   1.805   1.805   1.808   1.809   1.815
  1.818   1.822   1.828   1.833   1.836   1.841   1.846   1.848
  1.851   1.865   1.867   1.870   1.873   1.874   1.878   1.881
  1.883   1.885   1.886   1.893   1.894   1.896   1.901   1.904
  1.905   1.910   1.912   1.919   1.921   1.923   1.932   1.933
  1.936   1.940   1.942   1.947   1.948   1.949   1.952   1.960
  1.965   1.971   1.976   1.981   1.982   1.987   1.990   1.996
  1.997   2.003   2.006   2.010   2.015   2.018   2.024   2.037
  2.040   2.042   2.046   2.049   2.051   2.060   2.062   2.065
  2.073   2.081   2.085   2.089   2.092   2.100   2.106   2.109
  2.112   2.113   2.115   2.117   2.121   2.122   2.125   2.130
  2.138   2.144   2.145   2.150   2.151   2.153   2.157   2.162
  2.166   2.168   2.169   2.175   2.180   2.182   2.185   2.185
  2.191   2.193   2.194   2.208   2.212   2.216   2.219   2.226
  2.230   2.231   2.235   2.237   2.242   2.248   2.254   2.257
  2.263   2.273   2.275   2.279   2.284   2.286   2.286   2.289
  2.295   2.300   2.302   2.307   2.309   2.310   2.313   2.315
  2.319   2.323   2.326   2.331   2.333   2.335   2.337   2.337
  2.343   2.346   2.354   2.355   2.357   2.362   2.364   2.368
  2.370   2.377   2.381   2.382   2.386   2.388   2.392   2.393
  2.396   2.401   2.403   2.410   2.413   2.415   2.422   2.425
  2.431   2.434   2.441   2.441   2.446   2.449   2.451   2.454
  2.456   2.459   2.462   2.466   2.468   2.471   2.477   2.482
  2.485   2.490   2.493   2.496   2.498   2.502   2.505   2.512
  2.515   2.516   2.516   2.519   2.521   2.527   2.533   2.535
  2.537   2.541   2.544   2.545   2.550   2.561   2.564   2.568
  2.570   2.572   2.576   2.585   2.589   2.590   2.594   2.598
  2.609   2.612   2.613   2.625   2.633   2.635   2.642   2.643
  2.645   2.658   2.661   2.662   2.665   2.669   2.673   2.682
  2.683   2.685   2.687   2.691   2.695   2.696   2.702   2.705
  2.708   2.712   2.715   2.724   2.727   2.731   2.737   2.746
  2.752   2.756   2.762   2.775   2.780   2.784   2.786   2.794
  2.795   2.802   2.813   2.817   2.822   2.824   2.829   2.843
  2.845   2.850   2.852   2.855   2.858   2.863   2.870   2.881
  2.885   2.888   2.890   2.891   2.902   2.903   2.906   2.907
  2.916   2.926   2.927   2.930   2.938   2.947   2.947   2.952
  2.956   2.962   2.963   2.967   2.977   2.994   3.005   3.023
  3.023   3.045   3.064   3.076   3.093   3.099   3.105   3.136
  3.165   3.171   3.173   3.177   3.203   3.209   3.222   3.240
  3.241   3.255   3.259   3.261   3.263   3.272   3.286   3.289
  3.295   3.296   3.298   3.311   3.322   3.327   3.340   3.350
  3.360   3.363   3.367   3.371   3.396   3.410   3.424   3.429
  3.456   3.466   3.472   3.482   3.497   3.503   3.534   3.543
  3.546   3.552   3.566   3.578   3.596   3.596   3.597   3.598
  3.602   3.631   3.715   3.758   3.852   3.891   3.921   3.926
  3.934   3.943   3.950   3.953   3.979   3.991   4.003   4.023
  4.028   4.047   4.063   4.080   4.081   4.104   4.106   4.121
  4.124   4.131   4.144   4.147   4.163   4.174   4.186   4.207
  4.215   4.229   4.243   4.251   4.259   4.268   4.277   4.282
  4.298   4.316   4.324   4.363   4.370   4.389   4.403   4.410
  4.425   4.432   4.437   4.445   4.472   4.492   4.497   4.499
  4.510   4.521   4.549   4.552   4.617   4.643   4.664   4.673
  4.685   4.700   4.713   4.718   4.743   4.768   4.797   4.814
 --------------------------------------------------------------
 
          Ground-State Mulliken Net Atomic Charges

     Atom                 Charge (a.u.)
  ----------------------------------------
      1 C                     0.281710
      2 C                    -0.113749
      3 N                    -0.463269
      4 C                    -0.060303
      5 C                     0.058411
      6 C                     0.017654
      7 C                     0.010795
      8 C                     0.059188
      9 C                     0.247176
     10 N                    -0.523763
     11 N                    -0.539214
     12 C                     0.139224
     13 C                     0.340525
     14 S                     0.636341
     15 N                    -0.531862
     16 C                    -0.208236
     17 S                     0.324293
     18 C                    -0.134234
     19 C                    -0.237952
     20 S                     0.292716
     21 C                     0.154289
     22 C                     0.061816
     23 C                    -0.316338
     24 C                    -0.074344
     25 N                    -0.433764
     26 S                     0.270007
     27 C                     0.136647
     28 C                    -0.303228
     29 C                    -0.243936
     30 H                     0.092415
     31 H                     0.119136
     32 H                     0.097466
     33 H                     0.105539
     34 H                     0.126998
     35 H                     0.120848
     36 H                     0.114662
     37 H                     0.121283
     38 H                     0.110011
     39 C                    -0.173426
     40 H                     0.093981
     41 H                     0.100658
     42 H                     0.100298
     43 C                    -0.180720
     44 H                     0.101914
     45 C                    -0.179358
     46 H                     0.094365
     47 H                     0.084798
     48 H                     0.082901
     49 C                    -0.169155
     50 H                     0.094509
     51 C                    -0.320441
     52 H                     0.094553
     53 H                     0.100313
     54 H                     0.102525
     55 H                     0.095651
     56 C                     0.294390
     57 C                    -0.107792
     58 N                    -0.498370
     59 C                    -0.104335
     60 C                     0.085220
     61 C                     0.050893
     62 C                     0.061538
     63 C                     0.044520
     64 C                     0.192696
     65 N                    -0.523039
     66 N                    -0.546698
     67 C                     0.271125
     68 C                     0.264596
     69 S                     0.614412
     70 N                    -0.574023
     71 C                    -0.212520
     72 S                     0.364537
     73 C                    -0.111102
     74 C                    -0.197957
     75 S                     0.303034
     76 C                     0.098606
     77 C                     0.072572
     78 C                    -0.312608
     79 C                    -0.090213
     80 N                    -0.423290
     81 S                     0.269034
     82 C                     0.111713
     83 C                    -0.309736
     84 C                    -0.258414
     85 H                     0.101087
     86 H                     0.098425
     87 H                     0.106898
     88 H                     0.115725
     89 H                     0.137005
     90 H                     0.120236
     91 H                     0.114592
     92 H                     0.135228
     93 H                     0.118703
     94 C                    -0.188780
     95 H                     0.121858
     96 H                     0.088451
     97 H                     0.094403
     98 C                    -0.186369
     99 H                     0.096570
    100 C                    -0.177335
    101 H                     0.115033
    102 H                     0.086319
    103 H                     0.092501
    104 C                    -0.169775
    105 H                     0.085612
    106 C                    -0.321255
    107 H                     0.095961
    108 H                     0.119085
    109 H                     0.094200
    110 H                     0.098509
  ----------------------------------------
  Sum of atomic charges =     0.000000

 -----------------------------------------------------------------
                    Cartesian Multipole Moments
 -----------------------------------------------------------------
    Charge (ESU x 10^10)
                 0.0000
    Dipole Moment (Debye)
         X       2.3670      Y       0.1966      Z       2.3036
       Tot       3.3088
    Quadrupole Moments (Debye-Ang)
        XX    -407.3029     XY      -2.3515     YY    -419.1137
        XZ     -29.0559     YZ       8.5959     ZZ    -436.0795
    Octopole Moments (Debye-Ang^2)
       XXX     628.0177    XXY    -168.6946    XYY    -151.6238
       YYY    -300.9681    XXZ      18.8902    XYZ     -18.0006
       YYZ      83.7024    XZZ      17.6258    YZZ      21.3306
       ZZZ      59.9997
    Hexadecapole Moments (Debye-Ang^3)
      XXXX  -53183.1763   XXXY   -1852.9589   XXYY  -17138.9227
      XYYY    1530.6609   YYYY  -40025.0192   XXXZ    -209.9921
      XXYZ    -356.1967   XYYZ    -308.1673   YYYZ      65.0512
      XXZZ  -12921.6337   XYZZ    -146.8190   YYZZ  -10195.9901
      XZZZ    -499.0374   YZZZ     356.1763   ZZZZ  -16460.7180
 -----------------------------------------------------------------
Archival summary:
1\1\mn246\SP\ProcedureUnspecified\6-31G**\8105042\afmv_a\FriOct1214:47:562018FriOct1214:47:562018\0\\#,ProcedureUnspecified,6-31G**,\\0,1\S\N,1,1.63768\C,2,1.34167,1,105.132\C,3,1.41269,2,116.011,1,-11.7076,0\N,4,1.31042,3,110.728,2,13.4059,0\C,4,1.40048,3,119.864,2,-171.886,0\N,6,1.37718,4,120.912,3,-3.90714,0\C,7,1.39338,6,118.783,4,1.8664,0\H,8,1.08929,7,113.374,6,-178.672,0\C,8,1.37249,7,123.613,6,3.23268,0\C,6,1.46936,4,127.105,3,-174.065,0\C,11,1.38094,6,123.296,4,-34.2828,0\C,12,1.42356,11,113.085,6,-175.842,0\C,13,1.41464,12,113.132,11,-10.1135,0\C,14,1.43533,13,120.912,12,-165.657,0\N,15,1.2857,14,113.438,13,-170.966,0\C,16,1.37257,15,110.874,14,167.045,0\H,17,1.08235,16,115.445,15,178.294,0\C,17,1.3425,16,114.251,15,7.54843,0\H,19,1.08238,17,125.781,16,-166.538,0\C,13,1.45157,12,113.595,11,171.69,0\H,21,1.08357,13,125.012,12,-176.185,0\C,21,1.46495,13,107.73,12,-6.41252,0\H,23,1.08188,21,126.388,13,-169.085,0\C,10,1.53207,8,118.626,7,-176.004,0\C,25,1.39395,10,121.978,8,139.609,0\H,26,1.08859,25,119.171,10,-2.09326,0\N,26,1.32853,25,126.704,10,-175.665,0\C,28,1.35525,26,119.719,25,1.24532,0\C,29,1.39507,28,120.119,26,6.43738,0\H,30,1.086,29,120.452,28,169.881,0\C,30,1.39646,29,117.918,28,-6.78141,0\H,32,1.08623,30,123.677,29,-169.186,0\C,29,1.48623,28,117.818,26,-177.764,0\H,34,1.09677,29,105.621,28,5.30506,0\H,34,1.09781,29,113.819,28,-99.0757,0\C,34,1.54814,29,121.444,28,132.618,0\H,37,1.09703,34,108.827,29,138.793,0\H,37,1.09713,34,111.747,29,23.151,0\C,37,1.57226,34,118.081,29,-104.56,0\H,40,1.09688,37,104.463,34,41.355,0\H,40,1.09699,37,111.421,34,162.523,0\C,40,1.56275,37,111.276,34,-70.3457,0\H,43,1.09722,40,113.094,37,38.6279,0\H,43,1.09749,40,108.841,37,-79.2894,0\C,43,1.51357,40,109.954,37,167.98,0\H,46,1.09683,43,106.979,40,146.612,0\H,46,1.09684,43,114.088,40,30.2767,0\C,46,1.45441,43,109.139,40,-98.3527,0\H,49,1.09647,46,108.19,43,74.9967,0\H,49,1.09695,46,116.033,43,-168.43,0\H,49,1.09753,46,109.95,43,-40.7189,0\S,19,1.71263,17,111.792,16,-7.15563,0\S,23,1.74727,21,115.059,13,5.86786,0\S,14,1.7496,13,110.786,12,11.4194,0\N,50,2.79328,49,146.721,46,-121.036,0\C,56,1.32591,50,138.103,49,-100.371,0\C,57,1.3772,56,118.404,50,91.8293,0\N,58,1.34728,57,114.561,56,-2.45727,0\C,57,1.38146,56,124.474,50,-86.8471,0\C,60,1.39136,57,116.83,56,-174.784,0\H,61,1.08879,60,121.364,57,174.701,0\N,61,1.31342,60,126.378,57,-11.0388,0\C,63,1.31525,61,119.321,60,5.05204,0\C,64,1.4673,63,118.144,61,176.772,0\C,65,1.38031,64,123.487,63,5.90899,0\C,66,1.40421,65,116.619,64,-172.269,0\C,67,1.40697,66,109.923,65,171.931,0\H,68,1.08454,67,123.011,66,179.799,0\C,68,1.40842,67,112.443,66,2.00853,0\H,70,1.08234,68,130.706,67,-169.468,0\C,67,1.43622,66,114.946,65,-9.87496,0\C,72,1.4588,67,121.731,66,-178.251,0\N,73,1.31906,72,120.724,67,24.4383,0\C,74,1.35705,73,107.561,72,162.049,0\H,75,1.08317,74,123.756,73,179.21,0\C,75,1.3351,74,114.684,73,5.8698,0\H,77,1.08193,75,124.828,74,-178.371,0\C,60,1.49618,57,121.696,56,-7.09941,0\C,79,1.40864,60,120.098,57,137.884,0\H,80,1.08848,79,125.938,60,-4.04632,0\N,80,1.31355,79,125.181,60,178.086,0\C,82,1.31895,80,117.223,79,4.00117,0\C,83,1.41134,82,124.766,80,-1.53232,0\H,84,1.08591,83,117.057,82,-179.784,0\C,84,1.40848,83,116.875,82,-6.53686,0\H,86,1.08588,84,120.229,83,-178.929,0\C,83,1.51094,82,119.358,80,174.967,0\H,88,1.09705,83,114.282,82,-15.5365,0\H,88,1.09741,83,107.917,82,-127.118,0\C,88,1.54658,83,114.849,82,109.865,0\H,91,1.09724,88,105.119,83,169.996,0\H,91,1.09728,88,112.45,83,35.5403,0\C,91,1.53603,88,105.61,83,-84.7924,0\H,94,1.09702,91,114.313,88,75.4284,0\H,94,1.09709,91,113.951,88,-45.2698,0\C,94,1.58444,91,110.085,88,-162.312,0\H,97,1.09719,94,105.08,91,-63.0489,0\H,97,1.0975,94,109.489,91,51.3591,0\C,97,1.54931,94,112.292,91,167.65,0\H,100,1.09664,97,105.814,94,-62.7045,0\H,100,1.09721,97,103.817,94,52.9068,0\C,100,1.50298,97,119.461,94,166.53,0\H,103,1.09699,100,114.587,97,-47.0518,0\H,103,1.09736,100,114.26,97,73.4597,0\H,103,1.09789,100,112.341,97,-169.171,0\S,56,1.5885,50,82.8006,49,-3.82197,0\S,66,1.70763,65,127.184,64,-0.155269,0\S,65,1.72403,64,128.735,63,-172.464,0\S,73,1.72565,72,118.219,67,-168.051,0\\\@

 Total job time:  88.59s(wall), 1059.41s(cpu) 
 Fri Oct 12 14:47:56 2018

        *************************************************************
        *                                                           *
        *  Thank you very much for using Q-Chem.  Have a nice day.  *
        *                                                           *
        *************************************************************


