
Running Job 1 of 1 ./10/99.qcin
qchem ./10/99.qcin_21106.0 /tmpu/cab_g/afmv_a/scratch_qchem/qchem21106/ 1
/tmpu/appuserlic/qchem4.4/serial-multicore/exe/qcprog.exe_s ./10/99.qcin_21106.0 /tmpu/cab_g/afmv_a/scratch_qchem/qchem21106/
Check license passed

                  Welcome to Q-Chem
     A Quantum Leap Into The Future Of Chemistry


 Q-Chem 4.4, Q-Chem, Inc., Pleasanton, CA (2016)

 Y. Shao,  Z. Gan,  E. Epifanovsky,  A. T. B. Gilbert,  M. Wormit,  
 J. Kussmann,  A. W. Lange,  A. Behn,  J. Deng,  X. Feng,  D. Ghosh,  
 M. Goldey,  P. R. Horn,  L. D. Jacobson,  I. Kaliman,  F. Rob,  
 R. Z. Khaliullin,  T. Kus,  A. Landau,  J. Liu,  E. I. Proynov,  Y. M. Rhee,  
 R. M. Richard,  M. A. Rohrdanz,  R. P. Steele,  E. J. Sundstrom,  
 H. L. Woodcock III,  P. M. Zimmerman,  D. Zuev,  B. Albrecht,  E. Alguire,  
 B. Austin,  S. A. Baeppler,  G. J. O. Beran,  Y. A. Bernard,  E. Berquist,  
 K. Brandhorst,  K. B. Bravaya,  S. T. Brown,  D. Casanova,  C.-M. Chang,  
 Y. Chen,  S. H. Chien,  K. D. Closser,  M. P. Coons,  D. L. Crittenden,  
 S. Dasgupta,  M. Diedenhofen,  R. A. DiStasio Jr.,  H. Do,  A. D. Dutoi,  
 R. G. Edgar,  P.-T. Fang,  S. Fatehi,  Q. Feng,  L. Fusti-Molnar,  
 A. Ghysels,  A. Golubeva-Zadorozhnaya,  J. Gomes,  A. Gunina,  
 M. W. D. Hanson-Heine,  P. H. P. Harbach,  A. W. Hauser,  J. E. Herr,  
 E. G. Hohenstein,  Z. C. Holden,  K. Hui,  T.-C. Jagau,  H. Ji,  B. Kaduk,  
 K. Khistyaev,  Jaehoon Kim,  Jihan Kim,  R. A. King,  P. Klunzinger,  
 K. Koh,  D. Kosenkov,  T. Kowalczyk,  C. M. Krauter,  A. Kunitsa,  
 K. U. Lao,  A. Laurent,  K. V. Lawler,  J. Lee,  D. Lefrancois,  S. Lehtola,  
 S. V. Levchenko,  C. Y. Lin,  Y.-S. Lin,  F. Liu,  E. Livshits,  
 R. C. Lochan,  A. Luenser,  P. Manohar,  S. F. Manzer,  S.-P. Mao,  Y. Mao,  
 N. Mardirossian,  A. V. Marenich,  L. A. Martinez-Martinez,  S. A. Maurer,  
 N. J. Mayhall,  J.-M. Mewes,  A. F. Morrison,  K. Nanda,  T. S. Nguyen-Beck,  
 C. M. Oana,  R. Olivares-Amaya,  D. P. O'Neill,  J. A. Parkhill,  
 T. M. Perrine,  R. Peverati,  P. A. Pieniazek,  F. Plasser,  A. Prociuk,  
 D. R. Rehn,  E. Rosta,  N. J. Russ,  N. Sergueev,  S. M. Sharada,  
 S. Sharma,  D. W. Small,  A. Sodt,  T. Stauch,  T. Stein,  D. Stuck,  
 Y.-C. Su,  A. J. W. Thom,  T. Tsuchimochi,  L. Vogt,  O. Vydrov,  T. Wang,  
 M. A. Watson,  J. Wenzel,  A. White,  C. F. Williams,  V. Vanovschi,  
 K. Yao,  S. Yeganeh,  S. R. Yost,  Z.-Q. You,  I. Y. Zhang,  X. Zhang,  
 Y. Zhao,  B. R. Brooks,  G. K. L. Chan,  D. M. Chipman,  C. J. Cramer,  
 W. A. Goddard III,  M. S. Gordon,  W. J. Hehre,  A. Klamt,  
 H. F. Schaefer III,  M. W. Schmidt,  C. D. Sherrill,  D. G. Truhlar,  
 A. Warshel,  X. Xu,  A. Aspuru-Guzik,  R. Baer,  A. T. Bell,  N. A. Besley,  
 J.-D. Chai,  A. Dreuw,  B. D. Dunietz,  T. R. Furlani,  S. R. Gwaltney,  
 C.-P. Hsu,  Y. Jung,  J. Kong,  D. S. Lambrecht,  W. Liang,  C. Ochsenfeld,  
 V. A. Rassolov,  L. V. Slipchenko,  J. E. Subotnik,  T. Van Voorhis,  
 J. M. Herbert,  A. I. Krylov,  P. M. W. Gill,  M. Head-Gordon

 Contributors to earlier versions of Q-Chem not listed above: 
 R. D. Adamson,  J. Baker,  E. F. C. Byrd,  A. K. Chakraborty,  C.-L. Cheng,  
 H. Dachsel,  R. J. Doerksen,  G. Hawkins,  A. Heyden,  S. Hirata,  
 G. Kedziora,  F. J. Keil,  C. Kelley,  P. P. Korambath,  W. Kurlancheek,  
 A. M. Lee,  M. S. Lee,  D. Liotard,  I. Lotan,  P. E. Maslen,  N. Nair,  
 D. Neuhauser,  R. Olson,  B. Peters,  J. Ritchie,  N. E. Schultz,  
 N. Shenvi,  A. C. Simmonett,  K. S. Thanthiriwatte,  Q. Wu,  W. Zhang

 Please cite Q-Chem as follows:
 Y. Shao et al., Mol. Phys. 113, 184-215 (2015)
 DOI: 10.1080/00268976.2014.952696

 Q-Chem 4.4.2 for Intel X86 Linux

 Parts of Q-Chem use Armadillo 5.200.1 (Boston Tea Smuggler).
 http://arma.sourceforge.net/

 Q-Chem begins on Fri Oct 12 15:10:25 2018  

Host: 
0

     Scratch files written to /tmpu/cab_g/afmv_a/scratch_qchem/qchem21106//
 Dec716 11556_ 22328  22283 4050   
Processing $rem in /tmpu/appuserlic/qchem4.4/serial-multicore/config/preferences.
 MEM_TOTAL  2000 
FILE_GEOM_ORG=        593

Checking the input file for inconsistencies... 	...done.

--------------------------------------------------------------
User input:
--------------------------------------------------------------
$comment
SP
$end

$rem
MEM_STATIC 5000
MEM_TOTAL 20000
JOBTYPE SP
EXCHANGE B3LYP
BASIS 6-31g(d,p)
$end

$molecule
0 1
C         -13.602000     12.350000     -7.959000
C         -13.890000     12.979000     -6.733000
N         -13.112000     12.956000     -9.069000
C         -13.720000     14.409000     -6.754000
C         -12.785000     14.236000     -9.030000
C         -13.097000     15.029000     -7.893000
C         -12.789000     16.478000     -7.959000
C         -11.694000     16.948000     -8.662000
C         -13.465000     17.527000     -7.278000
N         -11.274000     18.246000     -8.742000
N         -14.580000     17.327000     -6.601000
C         -13.147000     18.827000     -7.463000
C         -11.948000     19.220000     -8.109000
S         -15.014000     18.832000     -6.071000
N         -13.804000     19.721000     -6.684000
C         -11.407000     20.602000     -8.162000
S         -11.850000     21.972000     -7.182000
C         -10.400000     21.007000     -9.058000
C         -10.523000     22.995000     -7.786000
S          -9.473000     20.138000    -10.282000
C          -9.894000     22.320000     -8.822000
C         -10.273000     24.349000     -7.337000
C          -8.507000     21.630000    -10.576000
C          -8.789000     22.627000     -9.621000
N         -10.905000     24.634000     -6.274000
S          -9.461000     25.680000     -8.200000
C         -10.849000     25.978000     -5.961000
C         -10.138000     26.661000     -6.900000
C         -13.885000     10.878000     -7.959000
H         -14.224000     12.469000     -5.834000
H         -14.031000     15.024000     -5.915000
H         -12.538000     14.771000     -9.946000
H         -11.117000     16.229000     -9.243000
H          -7.800000     21.621000    -11.395000
H          -8.245000     23.544000     -9.425000
H         -11.288000     26.357000     -5.048000
H         -10.010000     27.732000     -6.980000
H         -14.867000     10.625000     -7.541000
C         -12.865000     10.017000     -7.152000
H         -13.943000     10.432000     -8.960000
H         -12.784000     10.348000     -6.109000
H         -11.918000     10.153000     -7.688000
C         -13.109000      8.474000     -7.206000
H         -14.035000      8.232000     -6.670000
C         -11.973000      7.758000     -6.459000
H         -13.199000      8.238000     -8.273000
H         -11.955000      7.944000     -5.378000
H         -10.995000      8.112000     -6.807000
C         -12.125000      6.255000     -6.822000
H         -12.983000      5.770000     -6.340000
C         -10.904000      5.387000     -6.564000
H         -12.335000      6.113000     -7.889000
H         -10.061000      5.682000     -7.201000
H         -11.101000      4.315000     -6.688000
H         -10.749000      5.548000     -5.490000
C         -18.347000     21.960000     -5.115000
C         -19.033000     21.836000     -3.884000
N         -17.985000     20.922000     -5.848000
C         -19.316000     20.580000     -3.404000
C         -18.362000     19.694000     -5.430000
C         -18.915000     19.507000     -4.168000
C         -19.531000     18.168000     -3.797000
C         -20.511000     17.553000     -4.611000
C         -19.316000     17.524000     -2.529000
N         -21.251000     16.500000     -4.222000
N         -18.430000     18.000000     -1.621000
C         -19.999000     16.359000     -2.161000
C         -21.017000     15.857000     -3.037000
S         -18.444000     16.952000     -0.379000
N         -19.706000     15.978000     -0.898000
C         -22.006000     14.892000     -2.615000
S         -22.303000     14.337000     -0.935000
C         -23.073000     14.435000     -3.377000
C         -23.497000     13.224000     -1.416000
S         -23.477000     14.807000     -5.052000
C         -23.895000     13.553000     -2.704000
C         -23.975000     12.140000     -0.593000
C         -24.956000     13.918000     -4.775000
C         -24.960000     13.184000     -3.575000
N         -24.831000     11.227000     -1.049000
S         -23.375000     11.883000      0.998000
C         -25.028000     10.266000     -0.020000
C         -24.435000     10.532000      1.189000
C         -18.113000     23.364000     -5.657000
H         -19.437000     22.741000     -3.441000
H         -19.906000     20.518000     -2.494000
H         -18.218000     18.904000     -6.166000
H         -20.826000     18.046000     -5.529000
H         -25.714000     13.912000     -5.547000
H         -25.816000     12.540000     -3.412000
H         -25.619000      9.408000     -0.311000
H         -24.516000      9.989000      2.121000
H         -18.020000     24.042000     -4.799000
C         -19.218000     24.049000     -6.478000
H         -17.191000     23.433000     -6.247000
H         -19.866000     24.510000     -5.723000
H         -19.754000     23.290000     -7.061000
C         -18.614000     25.232000     -7.298000
H         -17.976000     25.814000     -6.622000
C         -19.771000     26.083000     -7.876000
H         -17.964000     24.930000     -8.129000
H         -20.501000     26.322000     -7.093000
H         -20.413000     25.505000     -8.553000
C         -19.284000     27.327000     -8.663000
H         -18.604000     27.089000     -9.490000
C         -18.551000     28.383000     -7.893000
H         -20.164000     27.660000     -9.227000
H         -18.390000     29.201000     -8.606000
H         -17.619000     27.974000     -7.484000
H         -19.212000     28.717000     -7.084000
$end

--------------------------------------------------------------
 ----------------------------------------------------------------
             Standard Nuclear Orientation (Angstroms)
    I     Atom           X                Y                Z
 ----------------------------------------------------------------
    1      C       0.6701712528     6.2865295417    -1.3415024010
    2      C       0.9172960857     5.3478564596    -0.3219519304
    3      N      -0.4736759731     6.3970580259    -2.0618030175
    4      C      -0.1395467549     4.3860529359    -0.1423462730
    5      C      -1.5106883003     5.6306492510    -1.7718495332
    6      C      -1.3899957814     4.5751850269    -0.8282444318
    7      C      -2.5661394726     3.6951020953    -0.6258560643
    8      C      -3.8558215921     4.1858045984    -0.7261809561
    9      C      -2.5535160431     2.3301252727    -0.2285942829
   10      N      -5.0108712725     3.4914809012    -0.4995119474
   11      N      -1.4381101888     1.6307963301    -0.1371458815
   12      C      -3.6842864204     1.5959719375    -0.1406952830
   13      C      -4.9688491281     2.1952767636    -0.1506137201
   14      S      -1.9399341165     0.1092895413     0.2720861277
   15      N      -3.5444221157     0.3358255734     0.3390912502
   16      C      -6.2470470297     1.5064607091     0.1610857624
   17      S      -6.4807296990    -0.0255178541     0.9560594047
   18      C      -7.5115212023     2.0369625836    -0.1560306640
   19      C      -8.2455368293     0.1708167686     1.0945603389
   20      S      -8.0145988568     3.5502836891    -0.9106418919
   21      C      -8.6101873484     1.3100812379     0.3919448909
   22      C      -9.1229363542    -0.7953529054     1.7223367598
   23      C      -9.7335319546     3.0986972623    -0.6156932451
   24      C      -9.8364295148     1.9517846409     0.1964406915
   25      N      -8.4899555787    -1.6505025614     2.4141983094
   26      S     -10.8560092928    -1.0873498832     1.4275996660
   27      C      -9.2875260180    -2.6970997338     2.8336703026
   28      C     -10.5591682938    -2.5479182769     2.3706348662
   29      C       1.8197269907     7.2148763978    -1.5936268150
   30      H       1.8155598222     5.3116024648     0.2876913321
   31      H      -0.0177090686     3.5348933108     0.5206393006
   32      H      -2.3755231314     5.5983625690    -2.4331424222
   33      H      -3.9822502052     5.2186112111    -1.0498741849
   34      H     -10.5020894261     3.7358211692    -1.0329264417
   35      H     -10.7152689611     1.5546709182     0.6916001799
   36      H      -8.8992552922    -3.4679735608     3.4855371497
   37      H     -11.3759411867    -3.2526887782     2.4481305551
   38      H       2.7837220477     6.6986010987    -1.6786582540
   39      C       2.0350953668     8.3008628539    -0.4948912328
   40      H       1.7636477858     7.7493266476    -2.5504439623
   41      H       2.1679532273     7.8569372342     0.4997191598
   42      H       1.1250294011     8.9110129931    -0.5406923873
   43      C       3.1851227334     9.3192831566    -0.7839554871
   44      H       4.1511446442     8.8015769664    -0.7379340955
   45      C       3.2069661183    10.3824727763     0.3252386794
   46      H       2.9864850099     9.6920907785    -1.7958065295
   47      H       3.4904987740     9.9993114409     1.3133063006
   48      H       2.2062968671    10.8040622699     0.4795997780
   49      C       4.1518236581    11.5006660833    -0.1951169276
   50      H       5.2124038822    11.2198975584    -0.1879319643
   51      C       4.0295660280    12.8456580312     0.5026500335
   52      H       3.9692839113    11.7287933939    -1.2521837046
   53      H       3.0435783308    13.2961143676     0.3342447192
   54      H       4.8129795302    13.5565997674     0.2124877819
   55      H       4.2379923552    12.5676208751     1.5431671194
   56      C      -1.4632015996    -4.5222520131    -0.0867424343
   57      C      -0.4619317775    -5.1438324710     0.6958363016
   58      N      -1.2995621140    -3.3474687276    -0.6688793174
   59      C       0.7311442359    -4.4905667468     0.8903575596
   60      C      -0.0878587186    -2.7587120480    -0.5689921115
   61      C       0.8805061933    -3.2581177143     0.2948859921
   62      C       2.3018532976    -2.7228973115     0.2371839142
   63      C       3.0265746022    -2.6761132459    -0.9768223798
   64      C       3.0746039320    -2.4061529102     1.4082152720
   65      N       4.3475482508    -2.4362104631    -1.0489699682
   66      N       2.5383322362    -2.4290469978     2.6523714234
   67      C       4.4240277217    -2.0420914945     1.3330306886
   68      C       5.0752867736    -2.0888948787     0.0565609121
   69      S       3.7146507035    -1.9449782012     3.6638140879
   70      N       4.9716726331    -1.8730649154     2.5568338046
   71      C       6.5126606541    -2.0767417602    -0.0891738791
   72      S       7.7179461879    -2.2405202309     1.2295745407
   73      C       7.2101554953    -2.2144609713    -1.2818667840
   74      C       9.0367824401    -2.0313168754     0.1747423759
   75      S       6.5813388497    -2.3482554698    -2.9231813969
   76      C       8.5816834360    -2.2204132370    -1.1224532387
   77      C      10.3757848107    -1.7084567831     0.6033482697
   78      C       8.2305106901    -2.6619472340    -3.4093096907
   79      C       9.1780509225    -2.3971590587    -2.4039108991
   80      N      11.3538948990    -1.4460114104    -0.2619054974
   81      S      10.7696406011    -1.5198332701     2.2666668762
   82      C      12.5095261796    -1.0901212487     0.4857772804
   83      C      12.4172109958    -1.2077916736     1.8502249994
   84      C      -2.7455800197    -5.3021439696    -0.3456055717
   85      H      -0.6229968874    -6.1765238807     0.9892583229
   86      H       1.5055801122    -5.0235616729     1.4346088640
   87      H       0.0531779299    -1.9039499041    -1.2293119893
   88      H       2.5528573594    -3.0240420116    -1.8930841043
   89      H       8.4278333955    -2.9442533584    -4.4349563170
   90      H      10.2185518500    -2.4822952396    -2.6939982148
   91      H      13.3434404982    -0.7439035726    -0.1099124291
   92      H      13.1858606896    -1.0706100424     2.5988189135
   93      H      -2.9196546926    -5.9551335792     0.5191484846
   94      C      -2.7957384893    -6.3054758377    -1.5096933220
   95      H      -3.6163107277    -4.6445025897    -0.4564245666
   96      H      -2.3867879907    -7.2298289593    -1.0845100719
   97      H      -2.1751687111    -5.9306029840    -2.3328758619
   98      C      -4.2802393656    -6.6253209052    -1.8711643182
   99      H      -4.8148652730    -6.8263583140    -0.9349468759
  100      C      -4.3118362676    -7.8425382140    -2.8273639099
  101      H      -4.8241773391    -5.8009951425    -2.3495820415
  102      H      -3.6932177267    -8.6578031060    -2.4326941028
  103      H      -3.7776285776    -7.6467373436    -3.7659059511
  104      C      -5.7477872230    -8.2882525201    -3.2061218945
  105      H      -6.3516332964    -7.4942880335    -3.6621518428
  106      C      -6.6188070694    -8.8079963662    -2.1031641611
  107      H      -5.6135774578    -8.9491641973    -4.0713204231
  108      H      -7.5352686981    -9.1534673087    -2.5972915849
  109      H      -6.7966780076    -8.0214096243    -1.3596392948
  110      H      -6.0972325090    -9.6579251286    -1.6465033715
 ----------------------------------------------------------------
 Molecular Point Group                 C1    NOp =  1
 Largest Abelian Subgroup              C1    NOp =  1
 Nuclear Repulsion Energy = 10822.3836034329 hartrees
 There are      270 alpha and      270 beta electrons
 Requested basis set is 6-31G(d,p)
 There are 406 shells and 1262 basis functions

 Total QAlloc Memory Limit  20000 MB
 Mega-Array Size      4888 MB
 MEM_STATIC part      5000 MB
 A cutoff of  1.0D-08 yielded  12258 shell pairs
 There are    128859 function pairs
 
 -------------------------------------------------------
 OpenMP Integral Computing Module                       
 Release: version 1.0, May 2013, Q-Chem Inc. Pittsburgh 
 -------------------------------------------------------
 Integral Job Info:
 Integral job number is                      11
 Integral operator is                         1
 short-range coefficients                     0
 long-range coefficients              100000000
 Omega coefficients                           0
 if combine SR and LR in K                    0
 Integral screening is                        0
 Integral computing path is                   2
 max size of driver memory is            800000
 size of driver memory is                593474
 size of scratch memory is             15166112
 max col of scratch BK array               1296
 max len of scratch array in speh3          155
 max len of scratch index in speh4           18
 max int batch size is                      520
 min int batch size is                       52
 fixed nKL is                                52
 max L of basis functions is                  2
 order of int derivative is                   0
 number of shells is                        406
 number of basis is                        1262
 number of cartesian basis is              1262
 number of contracted shell pairs         12258
 number of primitive shell pairs          40707
 maxK2 (contraction) of shell pair           36
 max number of K2 of shell pair               1
 max number of CS2 of shell pair           1252
 max number of PS2 of shell pair           7512
 mem total for path MDJ                  282040
 -------------------------------------------------------
 Smallest overlap matrix eigenvalue = 4.58E-04

 Scale SEOQF with 1.000000e-02/1.000000e-02/1.000000e-01

 Standard Electronic Orientation quadrupole field applied
 Nucleus-field energy     =     0.0000000103 hartrees
 Guess from superposition of atomic densities
 Warning:  Energy on first SCF cycle will be non-variational
 A restricted hybrid HF-DFT SCF calculation will be
 performed using Pulay DIIS extrapolation
 Exchange:     0.2000 Hartree-Fock + 0.0800 Slater + 0.7200 B88
 Correlation:  0.1900 VWN1RPA + 0.8100 LYP
 Using SG-1 standard quadrature grid
 SCF converges when DIIS error is below 1.0E-05
 using 16 threads for integral computing 
 -------------------------------------------------------
 OpenMP BLAS3 based DFT computing Module                
 Release: version 1.0, May 2013, Q-Chem Inc. Pittsburgh 
 -------------------------------------------------------
 ---------------------------------------
  Cycle       Energy         DIIS Error
 ---------------------------------------
    1   -5680.2535988985      2.15E-02
    2   -5662.5182829638      2.14E-03
    3   -5661.0861595067      3.31E-03
    4   -5663.3723046633      8.05E-04
    5   -5663.4990177156      2.97E-04
    6   -5663.5112016786      1.66E-04
    7   -5663.5158936023      7.58E-05
    8   -5663.5169746426      2.70E-05
    9   -5663.5171122767      6.80E-06 Convergence criterion met
 ---------------------------------------
 SCF time:  CPU 909.75 s  wall 76.41 s
 SCF   energy in the final basis set = -5663.5171122767
 Total energy in the final basis set = -5663.5171122767
 
 --------------------------------------------------------------
 
                    Orbital Energies (a.u.)
 --------------------------------------------------------------
 
 Alpha MOs
 -- Occupied --
-88.989 -88.978 -88.928 -88.925 -88.925 -88.917 -88.911 -88.907
-14.387 -14.383 -14.382 -14.373 -14.352 -14.345 -14.342 -14.336
-14.331 -14.327 -10.270 -10.267 -10.264 -10.257 -10.257 -10.256
-10.243 -10.242 -10.242 -10.241 -10.241 -10.236 -10.233 -10.233
-10.232 -10.231 -10.230 -10.230 -10.229 -10.229 -10.229 -10.229
-10.228 -10.227 -10.226 -10.225 -10.221 -10.217 -10.215 -10.214
-10.212 -10.212 -10.210 -10.202 -10.202 -10.201 -10.199 -10.198
-10.184 -10.182 -10.181 -10.180 -10.179 -10.179 -10.178 -10.177
-10.174 -10.173 -10.171 -10.167  -8.044  -8.034  -7.989  -7.988
 -7.985  -7.975  -7.970  -7.965  -6.009  -6.004  -6.002  -5.999
 -5.993  -5.991  -5.953  -5.952  -5.950  -5.949  -5.948  -5.946
 -5.945  -5.945  -5.942  -5.940  -5.936  -5.934  -5.932  -5.931
 -5.930  -5.927  -5.926  -5.922  -1.041  -1.031  -0.980  -0.964
 -0.954  -0.949  -0.949  -0.937  -0.918  -0.908  -0.899  -0.898
 -0.849  -0.836  -0.834  -0.825  -0.810  -0.808  -0.807  -0.806
 -0.804  -0.801  -0.798  -0.790  -0.787  -0.787  -0.768  -0.764
 -0.754  -0.747  -0.742  -0.739  -0.726  -0.712  -0.711  -0.708
 -0.695  -0.690  -0.675  -0.665  -0.654  -0.649  -0.647  -0.644
 -0.635  -0.630  -0.630  -0.620  -0.613  -0.605  -0.597  -0.597
 -0.593  -0.592  -0.583  -0.580  -0.578  -0.577  -0.570  -0.566
 -0.551  -0.540  -0.539  -0.533  -0.523  -0.521  -0.515  -0.514
 -0.511  -0.501  -0.500  -0.498  -0.494  -0.485  -0.475  -0.475
 -0.474  -0.473  -0.472  -0.467  -0.466  -0.461  -0.450  -0.447
 -0.445  -0.442  -0.440  -0.438  -0.437  -0.435  -0.434  -0.431
 -0.427  -0.427  -0.423  -0.420  -0.420  -0.414  -0.413  -0.412
 -0.410  -0.409  -0.407  -0.403  -0.402  -0.398  -0.397  -0.392
 -0.392  -0.392  -0.391  -0.390  -0.389  -0.386  -0.384  -0.380
 -0.379  -0.377  -0.376  -0.372  -0.365  -0.364  -0.357  -0.355
 -0.352  -0.351  -0.349  -0.347  -0.345  -0.344  -0.343  -0.338
 -0.334  -0.333  -0.331  -0.329  -0.325  -0.324  -0.323  -0.319
 -0.318  -0.317  -0.312  -0.309  -0.302  -0.301  -0.298  -0.298
 -0.297  -0.292  -0.290  -0.288  -0.287  -0.284  -0.281  -0.279
 -0.275  -0.266  -0.264  -0.263  -0.254  -0.253  -0.252  -0.249
 -0.248  -0.236  -0.234  -0.225  -0.194  -0.190
 -- Virtual --
 -0.117  -0.104  -0.075  -0.068  -0.036  -0.031  -0.031  -0.026
 -0.019  -0.017  -0.013  -0.011  -0.010  -0.004  -0.002   0.002
  0.007   0.014   0.024   0.024   0.032   0.037   0.040   0.042
  0.054   0.059   0.061   0.065   0.075   0.081   0.082   0.089
  0.091   0.102   0.102   0.103   0.108   0.108   0.110   0.113
  0.114   0.115   0.116   0.118   0.121   0.123   0.124   0.124
  0.126   0.131   0.133   0.136   0.138   0.140   0.145   0.149
  0.150   0.151   0.156   0.157   0.159   0.159   0.161   0.162
  0.166   0.168   0.172   0.174   0.177   0.177   0.179   0.186
  0.187   0.188   0.188   0.192   0.193   0.193   0.197   0.198
  0.199   0.206   0.207   0.210   0.213   0.214   0.217   0.218
  0.219   0.222   0.225   0.226   0.227   0.233   0.233   0.237
  0.240   0.242   0.244   0.246   0.251   0.257   0.257   0.265
  0.267   0.268   0.270   0.272   0.273   0.275   0.280   0.280
  0.282   0.283   0.293   0.294   0.299   0.300   0.305   0.306
  0.310   0.312   0.318   0.320   0.323   0.323   0.326   0.327
  0.329   0.331   0.333   0.335   0.337   0.343   0.352   0.355
  0.356   0.359   0.360   0.363   0.365   0.366   0.369   0.370
  0.373   0.376   0.377   0.379   0.389   0.393   0.396   0.398
  0.400   0.407   0.412   0.415   0.420   0.430   0.434   0.435
  0.446   0.448   0.451   0.452   0.457   0.464   0.467   0.468
  0.471   0.476   0.478   0.481   0.485   0.489   0.493   0.495
  0.498   0.502   0.506   0.507   0.508   0.511   0.513   0.515
  0.516   0.522   0.524   0.526   0.528   0.529   0.532   0.534
  0.534   0.539   0.539   0.542   0.543   0.547   0.547   0.550
  0.552   0.554   0.554   0.558   0.562   0.563   0.564   0.565
  0.567   0.569   0.570   0.571   0.573   0.576   0.581   0.584
  0.585   0.586   0.587   0.589   0.593   0.595   0.595   0.597
  0.601   0.605   0.605   0.607   0.609   0.611   0.615   0.616
  0.619   0.620   0.621   0.624   0.626   0.627   0.630   0.630
  0.632   0.634   0.635   0.637   0.640   0.640   0.642   0.646
  0.647   0.649   0.652   0.654   0.655   0.661   0.668   0.671
  0.673   0.681   0.685   0.686   0.689   0.693   0.697   0.698
  0.700   0.703   0.705   0.709   0.714   0.717   0.718   0.722
  0.725   0.729   0.731   0.736   0.737   0.742   0.744   0.745
  0.749   0.752   0.753   0.756   0.759   0.764   0.765   0.766
  0.771   0.775   0.776   0.778   0.783   0.788   0.788   0.789
  0.794   0.795   0.797   0.800   0.801   0.803   0.804   0.804
  0.807   0.810   0.812   0.812   0.814   0.818   0.821   0.823
  0.824   0.824   0.829   0.831   0.834   0.835   0.836   0.837
  0.838   0.839   0.840   0.842   0.844   0.844   0.848   0.851
  0.852   0.855   0.856   0.857   0.859   0.861   0.864   0.870
  0.871   0.872   0.874   0.878   0.880   0.881   0.889   0.889
  0.893   0.895   0.896   0.897   0.899   0.902   0.905   0.907
  0.910   0.912   0.914   0.917   0.920   0.922   0.922   0.927
  0.929   0.930   0.933   0.937   0.940   0.942   0.942   0.945
  0.947   0.950   0.955   0.957   0.958   0.959   0.960   0.962
  0.963   0.964   0.966   0.970   0.972   0.974   0.975   0.978
  0.980   0.982   0.987   0.991   0.997   0.998   0.999   1.000
  1.002   1.004   1.006   1.009   1.011   1.013   1.016   1.019
  1.026   1.028   1.033   1.034   1.036   1.037   1.045   1.049
  1.050   1.056   1.058   1.064   1.070   1.071   1.073   1.074
  1.076   1.080   1.089   1.095   1.098   1.107   1.109   1.113
  1.115   1.120   1.127   1.128   1.131   1.136   1.145   1.146
  1.149   1.167   1.170   1.177   1.178   1.181   1.185   1.187
  1.193   1.195   1.203   1.211   1.216   1.219   1.226   1.229
  1.236   1.238   1.239   1.249   1.258   1.262   1.262   1.265
  1.265   1.266   1.272   1.277   1.283   1.288   1.291   1.296
  1.298   1.310   1.316   1.317   1.320   1.332   1.333   1.337
  1.340   1.345   1.346   1.355   1.359   1.363   1.366   1.367
  1.371   1.374   1.376   1.378   1.381   1.387   1.388   1.395
  1.400   1.404   1.405   1.407   1.412   1.415   1.423   1.429
  1.435   1.441   1.445   1.458   1.466   1.467   1.471   1.473
  1.479   1.479   1.484   1.489   1.496   1.500   1.506   1.512
  1.517   1.526   1.527   1.531   1.535   1.536   1.545   1.555
  1.562   1.566   1.578   1.581   1.603   1.604   1.609   1.611
  1.612   1.616   1.617   1.624   1.627   1.633   1.643   1.652
  1.654   1.665   1.672   1.674   1.677   1.679   1.680   1.683
  1.689   1.693   1.693   1.695   1.702   1.703   1.706   1.719
  1.720   1.730   1.731   1.733   1.736   1.738   1.740   1.741
  1.746   1.747   1.752   1.763   1.765   1.767   1.773   1.782
  1.786   1.787   1.794   1.796   1.810   1.811   1.815   1.817
  1.828   1.830   1.831   1.833   1.834   1.838   1.846   1.848
  1.854   1.856   1.862   1.863   1.865   1.868   1.869   1.870
  1.871   1.872   1.877   1.881   1.882   1.887   1.887   1.891
  1.899   1.901   1.907   1.908   1.911   1.915   1.916   1.920
  1.923   1.932   1.940   1.944   1.948   1.950   1.951   1.956
  1.960   1.965   1.969   1.971   1.981   1.981   1.985   1.986
  1.996   1.999   2.006   2.009   2.018   2.023   2.026   2.028
  2.031   2.037   2.040   2.043   2.048   2.051   2.058   2.065
  2.068   2.069   2.073   2.074   2.082   2.085   2.086   2.099
  2.102   2.106   2.108   2.108   2.110   2.116   2.119   2.123
  2.133   2.135   2.139   2.143   2.144   2.148   2.149   2.156
  2.158   2.162   2.166   2.168   2.174   2.178   2.178   2.181
  2.189   2.190   2.200   2.200   2.202   2.207   2.216   2.222
  2.224   2.227   2.231   2.233   2.234   2.245   2.250   2.256
  2.258   2.263   2.267   2.269   2.271   2.281   2.282   2.282
  2.286   2.290   2.291   2.292   2.295   2.301   2.306   2.307
  2.311   2.314   2.317   2.321   2.332   2.337   2.339   2.342
  2.345   2.349   2.351   2.352   2.355   2.356   2.362   2.366
  2.368   2.371   2.377   2.378   2.379   2.385   2.393   2.395
  2.398   2.402   2.404   2.409   2.413   2.413   2.418   2.424
  2.426   2.428   2.429   2.431   2.434   2.435   2.439   2.440
  2.446   2.447   2.450   2.458   2.461   2.463   2.465   2.467
  2.469   2.474   2.480   2.485   2.487   2.490   2.497   2.500
  2.501   2.507   2.511   2.512   2.527   2.531   2.533   2.537
  2.538   2.541   2.544   2.551   2.551   2.555   2.562   2.565
  2.569   2.570   2.575   2.581   2.587   2.594   2.595   2.601
  2.602   2.611   2.613   2.614   2.623   2.626   2.632   2.646
  2.647   2.653   2.662   2.663   2.666   2.667   2.673   2.675
  2.678   2.680   2.681   2.686   2.689   2.695   2.696   2.697
  2.707   2.711   2.711   2.714   2.726   2.732   2.739   2.742
  2.749   2.753   2.764   2.768   2.769   2.778   2.782   2.786
  2.790   2.800   2.805   2.809   2.818   2.820   2.824   2.830
  2.838   2.840   2.850   2.857   2.864   2.869   2.874   2.875
  2.880   2.881   2.893   2.896   2.900   2.905   2.907   2.908
  2.919   2.923   2.924   2.933   2.933   2.949   2.951   2.959
  2.960   2.974   2.979   2.987   2.989   2.999   3.005   3.027
  3.035   3.044   3.046   3.064   3.079   3.087   3.093   3.105
  3.161   3.180   3.194   3.197   3.202   3.215   3.220   3.228
  3.229   3.241   3.242   3.248   3.258   3.265   3.269   3.277
  3.288   3.291   3.298   3.309   3.317   3.323   3.328   3.334
  3.347   3.349   3.353   3.369   3.373   3.384   3.424   3.424
  3.435   3.444   3.449   3.475   3.477   3.481   3.535   3.539
  3.544   3.557   3.560   3.575   3.591   3.595   3.599   3.607
  3.608   3.627   3.724   3.764   3.843   3.860   3.890   3.911
  3.922   3.941   3.945   3.947   3.959   3.960   3.984   4.002
  4.035   4.066   4.079   4.080   4.088   4.103   4.109   4.111
  4.135   4.140   4.142   4.150   4.158   4.159   4.190   4.194
  4.207   4.209   4.243   4.248   4.253   4.263   4.265   4.277
  4.281   4.290   4.338   4.341   4.363   4.374   4.376   4.388
  4.406   4.424   4.431   4.448   4.461   4.462   4.476   4.493
  4.502   4.512   4.527   4.538   4.575   4.593   4.642   4.661
  4.688   4.691   4.707   4.730   4.769   4.770   4.781   4.800
 --------------------------------------------------------------
 
          Ground-State Mulliken Net Atomic Charges

     Atom                 Charge (a.u.)
  ----------------------------------------
      1 C                     0.283505
      2 C                    -0.107294
      3 N                    -0.485833
      4 C                    -0.076408
      5 C                     0.074141
      6 C                     0.040082
      7 C                     0.061718
      8 C                     0.042447
      9 C                     0.222338
     10 N                    -0.532483
     11 N                    -0.556381
     12 C                     0.159658
     13 C                     0.296936
     14 S                     0.608950
     15 N                    -0.511714
     16 C                    -0.228578
     17 S                     0.361781
     18 C                    -0.120648
     19 C                    -0.245170
     20 S                     0.282330
     21 C                     0.153331
     22 C                     0.087188
     23 C                    -0.323805
     24 C                    -0.069897
     25 N                    -0.423426
     26 S                     0.257388
     27 C                     0.127836
     28 C                    -0.312007
     29 C                    -0.241581
     30 H                     0.103406
     31 H                     0.116973
     32 H                     0.111827
     33 H                     0.107297
     34 H                     0.133720
     35 H                     0.101611
     36 H                     0.122224
     37 H                     0.128191
     38 H                     0.100860
     39 C                    -0.186111
     40 H                     0.105577
     41 H                     0.087463
     42 H                     0.105457
     43 C                    -0.173240
     44 H                     0.093878
     45 C                    -0.171136
     46 H                     0.100476
     47 H                     0.094858
     48 H                     0.095056
     49 C                    -0.181359
     50 H                     0.091647
     51 C                    -0.315699
     52 H                     0.091826
     53 H                     0.102949
     54 H                     0.097471
     55 H                     0.097730
     56 C                     0.282029
     57 C                    -0.114905
     58 N                    -0.482077
     59 C                    -0.027209
     60 C                     0.061464
     61 C                     0.022235
     62 C                    -0.013277
     63 C                     0.074428
     64 C                     0.205127
     65 N                    -0.515964
     66 N                    -0.537910
     67 C                     0.229373
     68 C                     0.296999
     69 S                     0.598052
     70 N                    -0.581362
     71 C                    -0.225304
     72 S                     0.320471
     73 C                    -0.115393
     74 C                    -0.227378
     75 S                     0.297332
     76 C                     0.182332
     77 C                     0.085438
     78 C                    -0.296271
     79 C                    -0.092391
     80 N                    -0.443910
     81 S                     0.273245
     82 C                     0.107256
     83 C                    -0.302527
     84 C                    -0.239606
     85 H                     0.090356
     86 H                     0.110910
     87 H                     0.113853
     88 H                     0.116563
     89 H                     0.126821
     90 H                     0.118986
     91 H                     0.114362
     92 H                     0.141207
     93 H                     0.094279
     94 C                    -0.170763
     95 H                     0.118830
     96 H                     0.091913
     97 H                     0.106443
     98 C                    -0.176119
     99 H                     0.095646
    100 C                    -0.177385
    101 H                     0.103237
    102 H                     0.086018
    103 H                     0.091700
    104 C                    -0.184600
    105 H                     0.090254
    106 C                    -0.303661
    107 H                     0.085845
    108 H                     0.102348
    109 H                     0.106421
    110 H                     0.098883
  ----------------------------------------
  Sum of atomic charges =     0.000000

 -----------------------------------------------------------------
                    Cartesian Multipole Moments
 -----------------------------------------------------------------
    Charge (ESU x 10^10)
                 0.0000
    Dipole Moment (Debye)
         X       1.4627      Y      -3.7625      Z       2.5937
       Tot       4.7983
    Quadrupole Moments (Debye-Ang)
        XX    -372.6993     XY      20.7616     YY    -432.4236
        XZ       9.2838     YZ       0.1382     ZZ    -439.0517
    Octopole Moments (Debye-Ang^2)
       XXX      42.2972    XXY     -94.9689    XYY     -56.8673
       YYY    -198.7195    XXZ     198.7112    XYZ      62.9331
       YYZ      41.3304    XZZ      96.7956    YZZ     -81.4320
       ZZZ      18.8709
    Hexadecapole Moments (Debye-Ang^3)
      XXXX  -90718.4543   XXXY    1009.1515   XXYY  -26907.7857
      XYYY     710.1999   YYYY  -56765.7233   XXXZ    1345.2756
      XXYZ    -649.4151   XYYZ    -159.1327   YYYZ    -242.6880
      XXZZ  -18437.3101   XYZZ     -15.3139   YYZZ  -10628.4912
      XZZZ     -39.2689   YZZZ     109.1442   ZZZZ   -6862.3178
 -----------------------------------------------------------------
Archival summary:
1\1\mn246\SP\ProcedureUnspecified\6-31G**\8105042\afmv_a\FriOct1215:11:452018FriOct1215:11:452018\0\\#,ProcedureUnspecified,6-31G**,\\0,1\S\N,1,1.62179\C,2,1.35563,1,102.55\C,3,1.35105,2,116.218,1,13.6875,0\N,4,1.31968,3,114.515,2,-15.2113,0\C,3,1.41752,2,119.273,1,175.696,0\N,6,1.343,3,115.991,2,-172.903,0\C,7,1.3666,6,120.465,3,4.71973,0\H,8,1.0897,7,115.642,6,-177.251,0\C,8,1.38352,7,126.559,6,0.560708,0\C,10,1.48284,8,121.263,7,176.658,0\C,11,1.4209,10,117.654,8,33.46,0\H,12,1.08917,11,116.656,10,12.5361,0\N,12,1.32168,11,120.649,10,175.646,0\C,14,1.35626,12,119.865,11,8.04191,0\C,15,1.40771,14,125.948,12,-4.21885,0\H,16,1.08621,15,125.024,14,175.997,0\C,11,1.4387,10,123.113,8,-148.108,0\H,18,1.08576,11,119.452,10,-3.18425,0\C,6,1.48506,3,125.62,2,8.43114,0\C,20,1.40744,6,123.446,3,164.651,0\C,21,1.42678,20,114.409,6,171.727,0\C,22,1.38729,21,114.235,20,2.70245,0\C,22,1.39774,21,112.826,20,-172.665,0\H,24,1.08409,22,118.63,21,171.644,0\C,24,1.4091,22,112.969,21,-6.20788,0\H,26,1.08198,24,130.516,22,-172.479,0\C,23,1.44825,22,127.456,21,177.615,0\N,28,1.2691,23,112.561,22,172.765,0\C,29,1.3811,28,112.841,23,170.005,0\H,30,1.08163,29,121.053,28,175.996,0\C,30,1.36152,29,110.674,28,-1.00207,0\H,32,1.08158,30,127.557,29,-173.179,0\C,15,1.49896,14,120.464,12,175.613,0\H,34,1.09684,15,113.3,14,132.8,0\H,34,1.0974,15,114.147,14,16.7259,0\C,34,1.5598,15,114.747,14,-106.444,0\H,37,1.09663,34,104.086,15,63.9598,0\H,37,1.09726,34,111.935,15,-56.3712,0\C,37,1.56311,34,115.147,15,177.009,0\H,40,1.09649,37,105.004,34,-51.1606,0\H,40,1.09697,37,109.43,34,68.0715,0\C,40,1.53661,37,109.134,34,-175.77,0\H,43,1.09677,40,110.768,37,50.4008,0\H,43,1.09703,40,114.341,37,-66.8024,0\C,43,1.55367,40,105.358,37,168.111,0\H,46,1.0967,43,111.796,40,-43.2132,0\H,46,1.09714,43,113.672,40,72.5427,0\C,46,1.52014,43,115.731,40,-162.266,0\H,49,1.09698,46,113.239,43,-171.212,0\H,49,1.09701,46,101.294,43,-57.8899,0\H,49,1.09702,46,111.416,43,64.7173,0\S,20,1.74171,6,128.262,3,-15.8078,0\S,32,1.76371,30,115.453,29,1.56413,0\S,21,1.76427,20,132.521,6,1.70848,0\H,1,3.20622,2,136.225,3,118.787,0\C,56,1.08928,1,97.3755,2,78.5479,0\N,57,1.35087,56,114.413,1,-70.4382,0\C,58,1.32128,57,117.777,56,-168.05,0\C,57,1.39048,56,124.631,1,111.16,0\C,60,1.37689,57,120.973,56,166.544,0\H,61,1.0863,60,125.347,57,-168.893,0\C,61,1.37405,60,117.292,57,5.95045,0\H,63,1.08558,61,122.876,60,-170.25,0\C,60,1.51987,57,120.08,56,7.89716,0\C,65,1.41465,60,121.555,57,52.3359,0\H,66,1.08858,65,119.263,60,-0.500241,0\N,66,1.34452,65,123.73,60,167.952,0\C,68,1.36837,66,121.631,65,6.40014,0\C,69,1.43377,68,119.078,66,-3.00582,0\N,70,1.35136,69,128.774,68,-171.909,0\C,70,1.39969,69,118.506,68,-2.48514,0\N,72,1.355,70,115.803,69,-175.714,0\C,69,1.44479,68,116.727,66,-169.815,0\C,74,1.38852,69,125.843,68,-8.87824,0\C,75,1.38077,74,113.592,69,177.496,0\C,76,1.38766,75,115.665,74,2.71093,0\C,76,1.42444,75,108.212,74,-178.681,0\H,78,1.08353,76,130.741,75,178.088,0\C,78,1.40669,76,112.602,75,6.72976,0\H,80,1.08194,78,127.143,76,172.429,0\C,77,1.44252,76,127.784,75,165.608,0\N,82,1.33201,77,122.189,76,-5.34863,0\C,83,1.42168,82,107.734,77,-176.476,0\H,84,1.08172,83,114.655,82,173.34,0\C,84,1.37262,83,116.529,82,-5.65604,0\H,86,1.08168,84,128.997,83,-174.609,0\C,59,1.52307,58,118.991,57,171.35,0\H,88,1.09679,59,112.245,58,35.046,0\H,88,1.0975,59,107.715,58,153.912,0\C,88,1.53763,59,119.358,58,-90.9801,0\H,91,1.09656,88,104.142,59,-85.3814,0\H,91,1.09693,88,109.068,59,33.8739,0\C,91,1.56099,88,109.879,59,161.721,0\H,94,1.0967,91,107.667,88,46.7503,0\H,94,1.09739,91,114.735,88,-70.4223,0\C,94,1.5482,91,108.876,88,168.271,0\H,97,1.09686,94,110.526,91,-49.0474,0\H,97,1.09753,94,112.207,91,61.0759,0\C,97,1.55051,94,113.315,91,-177.542,0\H,100,1.0968,97,113.788,94,-56.7505,0\H,100,1.09699,97,104.628,94,-165.011,0\C,100,1.49844,97,117.273,94,64.5,0\H,103,1.09679,100,107.387,97,57.4563,0\H,103,1.0969,100,110.149,97,-62.9559,0\H,103,1.097,100,105.266,97,174.562,0\S,73,1.62514,72,106.258,70,-2.06891,0\S,77,1.7017,76,107.971,75,-14.1502,0\S,82,1.71969,77,121.636,76,179.531,0\S,80,1.74771,78,113.768,76,-13.2336,0\\\@

 Total job time:  79.54s(wall), 919.95s(cpu) 
 Fri Oct 12 15:11:45 2018

        *************************************************************
        *                                                           *
        *  Thank you very much for using Q-Chem.  Have a nice day.  *
        *                                                           *
        *************************************************************


