
Running Job 1 of 1 ./6/1.qcin
qchem ./6/1.qcin_44502.0 /tmpu/cab_g/afmv_a/scratch_qchem/qchem44502/ 1
/tmpu/appuserlic/qchem4.4/serial-multicore/exe/qcprog.exe_s ./6/1.qcin_44502.0 /tmpu/cab_g/afmv_a/scratch_qchem/qchem44502/
Check license passed

                  Welcome to Q-Chem
     A Quantum Leap Into The Future Of Chemistry


 Q-Chem 4.4, Q-Chem, Inc., Pleasanton, CA (2016)

 Y. Shao,  Z. Gan,  E. Epifanovsky,  A. T. B. Gilbert,  M. Wormit,  
 J. Kussmann,  A. W. Lange,  A. Behn,  J. Deng,  X. Feng,  D. Ghosh,  
 M. Goldey,  P. R. Horn,  L. D. Jacobson,  I. Kaliman,  F. Rob,  
 R. Z. Khaliullin,  T. Kus,  A. Landau,  J. Liu,  E. I. Proynov,  Y. M. Rhee,  
 R. M. Richard,  M. A. Rohrdanz,  R. P. Steele,  E. J. Sundstrom,  
 H. L. Woodcock III,  P. M. Zimmerman,  D. Zuev,  B. Albrecht,  E. Alguire,  
 B. Austin,  S. A. Baeppler,  G. J. O. Beran,  Y. A. Bernard,  E. Berquist,  
 K. Brandhorst,  K. B. Bravaya,  S. T. Brown,  D. Casanova,  C.-M. Chang,  
 Y. Chen,  S. H. Chien,  K. D. Closser,  M. P. Coons,  D. L. Crittenden,  
 S. Dasgupta,  M. Diedenhofen,  R. A. DiStasio Jr.,  H. Do,  A. D. Dutoi,  
 R. G. Edgar,  P.-T. Fang,  S. Fatehi,  Q. Feng,  L. Fusti-Molnar,  
 A. Ghysels,  A. Golubeva-Zadorozhnaya,  J. Gomes,  A. Gunina,  
 M. W. D. Hanson-Heine,  P. H. P. Harbach,  A. W. Hauser,  J. E. Herr,  
 E. G. Hohenstein,  Z. C. Holden,  K. Hui,  T.-C. Jagau,  H. Ji,  B. Kaduk,  
 K. Khistyaev,  Jaehoon Kim,  Jihan Kim,  R. A. King,  P. Klunzinger,  
 K. Koh,  D. Kosenkov,  T. Kowalczyk,  C. M. Krauter,  A. Kunitsa,  
 K. U. Lao,  A. Laurent,  K. V. Lawler,  J. Lee,  D. Lefrancois,  S. Lehtola,  
 S. V. Levchenko,  C. Y. Lin,  Y.-S. Lin,  F. Liu,  E. Livshits,  
 R. C. Lochan,  A. Luenser,  P. Manohar,  S. F. Manzer,  S.-P. Mao,  Y. Mao,  
 N. Mardirossian,  A. V. Marenich,  L. A. Martinez-Martinez,  S. A. Maurer,  
 N. J. Mayhall,  J.-M. Mewes,  A. F. Morrison,  K. Nanda,  T. S. Nguyen-Beck,  
 C. M. Oana,  R. Olivares-Amaya,  D. P. O'Neill,  J. A. Parkhill,  
 T. M. Perrine,  R. Peverati,  P. A. Pieniazek,  F. Plasser,  A. Prociuk,  
 D. R. Rehn,  E. Rosta,  N. J. Russ,  N. Sergueev,  S. M. Sharada,  
 S. Sharma,  D. W. Small,  A. Sodt,  T. Stauch,  T. Stein,  D. Stuck,  
 Y.-C. Su,  A. J. W. Thom,  T. Tsuchimochi,  L. Vogt,  O. Vydrov,  T. Wang,  
 M. A. Watson,  J. Wenzel,  A. White,  C. F. Williams,  V. Vanovschi,  
 K. Yao,  S. Yeganeh,  S. R. Yost,  Z.-Q. You,  I. Y. Zhang,  X. Zhang,  
 Y. Zhao,  B. R. Brooks,  G. K. L. Chan,  D. M. Chipman,  C. J. Cramer,  
 W. A. Goddard III,  M. S. Gordon,  W. J. Hehre,  A. Klamt,  
 H. F. Schaefer III,  M. W. Schmidt,  C. D. Sherrill,  D. G. Truhlar,  
 A. Warshel,  X. Xu,  A. Aspuru-Guzik,  R. Baer,  A. T. Bell,  N. A. Besley,  
 J.-D. Chai,  A. Dreuw,  B. D. Dunietz,  T. R. Furlani,  S. R. Gwaltney,  
 C.-P. Hsu,  Y. Jung,  J. Kong,  D. S. Lambrecht,  W. Liang,  C. Ochsenfeld,  
 V. A. Rassolov,  L. V. Slipchenko,  J. E. Subotnik,  T. Van Voorhis,  
 J. M. Herbert,  A. I. Krylov,  P. M. W. Gill,  M. Head-Gordon

 Contributors to earlier versions of Q-Chem not listed above: 
 R. D. Adamson,  J. Baker,  E. F. C. Byrd,  A. K. Chakraborty,  C.-L. Cheng,  
 H. Dachsel,  R. J. Doerksen,  G. Hawkins,  A. Heyden,  S. Hirata,  
 G. Kedziora,  F. J. Keil,  C. Kelley,  P. P. Korambath,  W. Kurlancheek,  
 A. M. Lee,  M. S. Lee,  D. Liotard,  I. Lotan,  P. E. Maslen,  N. Nair,  
 D. Neuhauser,  R. Olson,  B. Peters,  J. Ritchie,  N. E. Schultz,  
 N. Shenvi,  A. C. Simmonett,  K. S. Thanthiriwatte,  Q. Wu,  W. Zhang

 Please cite Q-Chem as follows:
 Y. Shao et al., Mol. Phys. 113, 184-215 (2015)
 DOI: 10.1080/00268976.2014.952696

 Q-Chem 4.4.2 for Intel X86 Linux

 Parts of Q-Chem use Armadillo 5.200.1 (Boston Tea Smuggler).
 http://arma.sourceforge.net/

 Q-Chem begins on Tue Oct  9 11:55:45 2018  

Host: 
0

     Scratch files written to /tmpu/cab_g/afmv_a/scratch_qchem/qchem44502//
 Dec716 11556_ 22328  22283 4050   
Processing $rem in /tmpu/appuserlic/qchem4.4/serial-multicore/config/preferences.
 MEM_TOTAL  2000 
FILE_GEOM_ORG=        593

Checking the input file for inconsistencies... 	...done.

--------------------------------------------------------------
User input:
--------------------------------------------------------------
$comment
SP
$end

$rem
MEM_STATIC 5000
MEM_TOTAL 20000
JOBTYPE SP
EXCHANGE B3LYP
BASIS 6-31g(d,p)
$end

$molecule
0 1
O         -22.979000     28.399000      0.195000
C         -22.019000     27.440000      0.622000
H         -22.119000     26.504000      0.058000
H         -22.295000     27.153000      1.644000
H         -20.981000     27.779000      0.521000
O         -24.852000     27.105000      0.219000
C         -24.305000     28.156000      0.042000
C         -25.112000     29.360000     -0.452000
H         -24.989000     30.119000      0.331000
H         -26.186000     29.158000     -0.554000
C         -24.707000     29.840000     -1.850000
H         -25.041000     30.854000     -2.102000
H         -23.612000     29.911000     -1.875000
C         -25.172000     28.912000     -2.936000
H         -24.990000     27.889000     -2.584000
H         -26.268000     28.879000     -2.963000
C         -24.337000     29.102000     -4.262000
C         -24.823000     30.201000     -5.095000
C         -24.161000     31.433000     -5.108000
H         -23.168000     31.578000     -4.691000
C         -24.707000     32.565000     -5.706000
H         -24.113000     33.470000     -5.800000
C         -26.012000     32.449000     -6.364000
H         -26.451000     33.291000     -6.891000
C         -26.693000     31.191000     -6.383000
H         -27.610000     31.091000     -6.957000
C         -26.095000     30.095000     -5.771000
H         -26.647000     29.165000     -5.678000
C         -21.861000     26.943000     -8.711000
C         -20.301000     28.632000     -7.978000
C         -17.114000     25.783000     -6.424000
C         -22.919000     23.838000     -4.939000
C         -18.153000     26.039000     -3.084000
C         -21.632000     28.233000     -8.175000
C         -20.748000     23.568000     -3.261000
C         -18.535000     25.669000     -8.376000
C         -20.571000     29.164000     -4.049000
C         -22.890000     24.538000     -3.705000
C         -22.892000     28.697000     -4.164000
C         -20.865000     28.277000     -2.993000
C         -21.539000     25.672000     -2.332000
C         -19.380000     23.968000     -2.997000
C         -21.593000     29.408000     -6.267000
C         -17.686000     24.332000     -4.736000
C         -23.836000     27.925000     -5.039000
C         -24.007000     26.444000     -4.756000
C         -17.428000     25.589000     -4.166000
C         -20.495000     23.043000     -7.297000
C         -18.341000     23.752000     -6.985000
C         -18.865000     24.327000     -8.137000
C         -19.482000     26.574000     -8.833000
C         -23.929000     25.692000     -5.973000
C         -21.722000     29.329000     -4.838000
C         -19.212000     27.836000     -8.350000
C         -21.797000     24.398000     -2.889000
C         -20.279000     29.379000     -6.793000
C         -19.910000     27.367000     -2.578000
C         -22.775000     23.869000     -7.196000
C         -17.706000     26.387000     -7.506000
C         -22.203000     27.971000     -3.073000
C         -21.151000     24.772000     -8.798000
C         -20.206000     26.053000     -2.186000
C         -19.257000     29.161000     -4.601000
C         -19.588000     22.845000     -5.070000
C         -20.848000     22.869000     -4.506000
C         -18.263000     28.238000     -4.071000
C         -23.432000     24.381000     -6.068000
C         -23.404000     25.835000     -3.649000
C         -21.804000     23.001000     -6.732000
C         -23.465000     27.903000     -6.513000
C         -17.986000     28.480000     -6.336000
C         -22.488000     26.580000     -2.914000
C         -18.597000     27.317000     -3.042000
C         -22.439000     24.725000     -8.267000
C         -17.040000     26.494000     -5.203000
C         -20.795000     26.126000     -8.987000
C         -17.517000     24.447000     -6.107000
C         -19.111000     29.235000     -5.965000
C         -17.470000     27.850000     -5.147000
C         -22.458000     28.729000     -7.058000
C         -23.608000     26.572000     -7.040000
C         -19.391000     22.959000     -6.442000
C         -18.037000     27.717000     -7.518000
C         -19.156000     25.252000     -2.580000
C         -21.928000     23.007000     -5.356000
C         -18.696000     23.478000     -4.157000
C         -22.857000     26.073000     -8.165000
C         -20.139000     23.910000     -8.402000
O         -10.726000     11.463000     -7.314000
C         -11.291000     10.339000     -8.063000
H         -10.550000      9.936000     -8.765000
H         -12.086000     10.672000     -8.743000
H         -11.694000      9.621000     -7.339000
O         -12.591000     12.194000     -6.366000
C         -11.448000     12.324000     -6.579000
C         -10.588000     13.200000     -5.715000
H          -9.566000     13.266000     -6.108000
H         -10.559000     12.567000     -4.820000
C         -11.250000     14.583000     -5.477000
H         -12.329000     14.470000     -5.316000
H         -10.884000     15.154000     -4.614000
C         -11.073000     15.489000     -6.696000
H         -10.027000     15.736000     -6.916000
H         -11.444000     14.839000     -7.498000
C         -11.894000     16.739000     -6.559000
C         -11.273000     17.820000     -5.669000
C         -10.322000     18.766000     -6.183000
H         -10.085000     18.774000     -7.243000
C          -9.627000     19.640000     -5.365000
H          -8.956000     20.326000     -5.875000
C          -9.772000     19.615000     -3.962000
H          -9.436000     20.482000     -3.401000
C         -10.761000     18.756000     -3.453000
H         -11.036000     18.811000     -2.404000
C         -11.478000     17.849000     -4.274000
H         -12.219000     17.205000     -3.810000
C         -16.748000     19.192000     -6.290000
C         -15.384000     20.793000     -7.588000
C         -17.353000     19.997000    -11.693000
C         -16.489000     14.517000     -8.288000
C         -14.764000     17.716000    -12.742000
C         -15.494000     19.823000     -6.541000
C         -16.228000     14.864000    -11.108000
C         -18.261000     20.094000     -9.449000
C         -12.518000     18.824000     -9.625000
C         -15.230000     14.481000     -8.929000
C         -12.406000     17.299000     -7.854000
C         -12.439000     17.525000    -10.175000
C         -13.908000     15.235000    -10.567000
C         -16.057000     15.738000    -12.212000
C         -13.466000     19.569000     -7.506000
C         -17.207000     17.844000    -12.443000
C         -13.374000     16.723000     -6.800000
C         -14.189000     15.531000     -7.045000
C         -15.978000     18.481000    -12.772000
C         -19.103000     16.707000     -9.067000
C         -18.868000     18.218000    -10.775000
C         -19.051000     18.910000     -9.642000
C         -17.718000     20.374000     -8.212000
C         -15.468000     15.795000     -6.560000
C         -12.548000     18.750000     -8.220000
C         -16.519000     21.098000     -8.411000
C         -15.127000     14.582000    -10.319000
C         -14.104000     20.634000     -8.190000
C         -13.047000     17.311000    -11.431000
C         -17.846000     15.994000     -7.147000
C         -17.477000     20.611000    -10.440000
C         -12.484000     16.574000     -9.163000
C         -18.641000     18.301000     -7.254000
C         -13.677000     16.118000    -11.659000
C         -13.201000     19.860000    -10.304000
C         -18.079000     15.961000    -11.231000
C         -17.444000     14.924000    -10.523000
C         -13.748000     19.608000    -11.561000
C         -16.652000     15.289000     -7.148000
C         -14.128000     14.975000     -8.311000
C         -18.407000     15.676000     -8.392000
C         -14.309000     17.705000     -6.173000
C         -15.103000     21.013000    -10.412000
C         -13.301000     15.469000     -9.329000
C         -13.683000     18.339000    -12.183000
C         -17.974000     17.256000     -6.525000
C         -16.071000     19.822000    -12.255000
C         -17.843000     19.471000     -7.139000
C         -18.051000     18.741000    -11.818000
C         -14.001000     20.763000     -9.575000
C         -14.946000     20.352000    -11.635000
C         -14.336000     19.053000     -6.543000
C         -15.550000     17.064000     -6.004000
C         -18.881000     16.816000    -10.462000
C         -16.360000     21.158000     -9.798000
C         -14.792000     16.358000    -12.489000
C         -17.618000     14.809000     -9.088000
C         -17.205000     16.448000    -12.240000
C         -16.803000     17.785000     -6.010000
C         -19.194000     18.045000     -8.542000
$end

--------------------------------------------------------------
 ----------------------------------------------------------------
             Standard Nuclear Orientation (Angstroms)
    I     Atom           X                Y                Z
 ----------------------------------------------------------------
    1      O       9.5621952778     4.2051522697    -1.9592360874
    2      C       8.3825420345     4.9942169185    -2.0562165269
    3      H       7.5613603213     4.4219669580    -2.5060860374
    4      H       8.5869957474     5.7746152937    -2.7993222093
    5      H       8.0290220416     5.3803326854    -1.0926272839
    6      O       9.6270280090     3.3498045354    -4.0681026006
    7      C      10.0870199544     3.4650713057    -2.9679844334
    8      C      11.3525784674     2.6913883730    -2.5876196481
    9      H      12.0809188248     3.4649242855    -2.3129170528
   10      H      11.7794389007     2.1113887071    -3.4159158259
   11      C      11.1253259150     1.6384758537    -1.4974084282
   12      H      12.0379551060     1.2889907682    -0.9991874585
   13      H      10.5508851632     2.1112566367    -0.6904467476
   14      C      10.3797435069     0.4361600591    -2.0027287253
   15      H       9.5730993651     0.8061839661    -2.6476818528
   16      H      10.9705551023    -0.0825076907    -2.7675551266
   17      C       9.7011366762    -0.3661877486    -0.8248782404
   18      C      10.6124686494    -1.3004741082    -0.1657355905
   19      C      11.1913802115    -0.9824276110     1.0671248351
   20      H      10.8497105017    -0.1592589130     1.6889110556
   21      C      12.2248149837    -1.7331825285     1.6198667508
   22      H      12.5664025526    -1.5263965087     2.6304381114
   23      C      12.7027345986    -2.9112357071     0.8896417511
   24      H      13.4683462983    -3.5578247063     1.3081813445
   25      C      12.1059152033    -3.2670620822    -0.3609102071
   26      H      12.3977659980    -4.1949559963    -0.8448533834
   27      C      11.0746250653    -2.4794697762    -0.8604129705
   28      H      10.6894120053    -2.6688656151    -1.8574050038
   29      C       5.4326123330    -3.2762398890     1.1491416360
   30      C       6.0539700414    -1.8762556271     3.0139656664
   31      C       2.4344569446     0.8735818473     2.8520866803
   32      C       4.6170845136    -0.4658505241    -2.9036350657
   33      C       4.1100210157     3.3927417749     1.0781150619
   34      C       6.4485418306    -2.6618349400     1.9200053169
   35      C       3.6161913516     2.0027436432    -2.1922415634
   36      C       2.6370463769    -1.5114678566     2.5158777695
   37      C       7.6628819564     1.5220025001     1.7270277693
   38      C       5.4724944192     0.6663162183    -2.8953067517
   39      C       8.5895861779     0.3618877013    -0.1205944701
   40      C       7.4195163844     2.3093288557     0.5828112653
   41      C       5.9503303224     2.5291403863    -1.7560767624
   42      C       3.2190981533     2.8648085133    -1.0966681283
   43      C       7.8466281684    -0.9115554061     1.9869840096
   44      C       2.0777065572     2.0852957612     0.9320847136
   45      C       8.2939194189    -0.8639299348    -0.9346566856
   46      C       7.3133269984    -0.7261871615    -2.0845072990
   47      C       3.0604548928     2.7422652203     1.6897850756
   48      C       1.9940483775    -1.4984830811    -0.8735324990
   49      C       1.4029599922    -0.2316191546     0.9390378616
   50      C       1.8434748842    -1.4810727432     1.3598909949
   51      C       3.7593161872    -2.3228263120     2.5988893932
   52      C       6.3610563219    -1.7963074473    -2.0580472776
   53      C       8.2372028679     0.3035849814     1.3268262689
   54      C       4.7160744925    -1.7379640305     3.3997530876
   55      C       4.9577931406     1.8833387281    -2.5291868199
   56      C       6.9369659961    -0.7897719127     3.0648506586
   57      C       6.2776725915     3.0866820007     0.5175055183
   58      C       3.9611986652    -2.4143817956    -1.9608807828
   59      C       2.9547900447    -0.3432954974     3.2187840937
   60      C       7.9214710263     1.6273816506    -0.5003644116
   61      C       3.3155282048    -3.0894173916     0.3077367699
   62      C       5.5270939500     3.2696480838    -0.6534048606
   63      C       6.7665698579     1.6212463173     2.8306963277
   64      C       1.9139341366     0.8924743576    -1.1870388537
   65      C       2.7990460519     0.8288014178    -2.2447697524
   66      C       5.6228876875     2.5184650139     2.7420695621
   67      C       5.0325243410    -1.6906394268    -2.5036839516
   68      C       6.7894670221     0.5178284602    -2.4559031231
   69      C       2.8559298229    -1.5850209374    -2.0067322050
   70      C       7.6750916907    -2.0127884997    -0.1549277324
   71      C       5.0534545878     0.6280912353     3.9115784001
   72      C       7.0429500546     1.6054049998    -1.6269099851
   73      C       5.3686612012     3.2628093501     1.5588711836
   74      C       4.1525582010    -3.1969649052    -0.8017353197
   75      C       3.2693787016     2.0146995188     2.9030191800
   76      C       4.1168957820    -3.0631728097     1.4708765845
   77      C       1.7077643026     0.9408534294     1.6211576254
   78      C       6.3796536287     0.4716439086     3.4756755007
   79      C       4.5844816000     1.9055574765     3.4372142579
   80      C       7.6006632124    -2.0244491569     1.2549213484
   81      C       6.5806940919    -2.5814659158    -0.8956293540
   82      C       1.5270156448    -0.2402723477    -0.4789654237
   83      C       4.1753001854    -0.4691874079     3.8296124028
   84      C       4.2016685149     3.3706100145    -0.2895489762
   85      C       3.2957834660    -0.4127580944    -2.5907840859
   86      C       2.1410550459     2.1252329829    -0.5098060545
   87      C       5.4667945844    -3.2598538958    -0.2811013759
   88      C       2.1735807297    -2.3021181833     0.3186875969
   89      O     -12.5837732467     2.5917274833    -1.4095774894
   90      C     -13.3357285271     1.6401089674    -2.2296917841
   91      H     -14.2571164311     1.3371586683    -1.7163113730
   92      H     -12.8043180752     0.6836231337    -2.3194235035
   93      H     -13.4734875506     2.0863602099    -3.2216551302
   94      O     -10.7022779592     2.6162359760    -2.5803314419
   95      C     -11.3079211228     2.9443700999    -1.6346875580
   96      C     -10.8864117997     4.1251834178    -0.8091684491
   97      H     -11.5207212956     4.2365407799     0.0788292994
   98      H     -11.1585097359     4.9208159020    -1.5130765845
   99      C      -9.3700482811     4.0746382355    -0.4841086641
  100      H      -8.8013686226     3.7293629178    -1.3560716225
  101      H      -8.9051318401     5.0242396361    -0.1893615132
  102      C      -9.0885088185     3.0896254656     0.6510615320
  103      H      -9.5497322162     3.3708002782     1.6059116261
  104      H      -9.5959135858     2.1901940248     0.2810500652
  105      C      -7.6119677132     2.8739261568     0.8202069499
  106      C      -6.8879881771     3.9755060935     1.6003846697
  107      C      -6.8289221580     3.9693444594     3.0356498855
  108      H      -7.2384414974     3.1303481500     3.5908184217
  109      C      -6.3272694882     5.0347255608     3.7632024318
  110      H      -6.3102131486     4.8993656312     4.8413136370
  111      C      -5.8924435948     6.2208327866     3.1354006389
  112      H      -5.2600607722     6.8949595997     3.7054453790
  113      C      -5.8634861208     6.2076332337     1.7303845406
  114      H      -5.3862160715     7.0213016132     1.1926038528
  115      C      -6.3791040546     5.1288224147     0.9680956432
  116      H      -6.3358228496     5.1926685294    -0.1150310396
  117      C      -2.8690782761     0.9899114821    -1.0788387297
  118      C      -2.7428852900     0.4868511650     1.3376683876
  119      C      -3.3298917622    -4.0838412890     0.9829912216
  120      C      -7.1851671012    -0.7957241409    -3.1030898691
  121      C      -6.8567285219    -3.9118731075     1.7165663134
  122      C      -3.1579485325     1.3469175487     0.2712644676
  123      C      -7.8108265571    -3.1859202478    -1.6760499904
  124      C      -2.1430711151    -2.4878161596    -0.4003270851
  125      C      -6.4462738934    -0.0901485343     2.8183000767
  126      C      -8.0994554868    -0.8015241312    -2.0254530527
  127      C      -7.2278512223     1.5018796887     1.2921306837
  128      C      -7.6481800596    -0.5785278345     2.2587920547
  129      C      -8.6988083115    -1.6485339377    -0.0448989436
  130      C      -7.5203097851    -4.0718239287    -0.6070749330
  131      C      -4.7653785017     1.3928347684     1.8595294024
  132      C      -5.2877186969    -4.7423070840     0.0069986547
  133      C      -6.8461229168     1.9917282957    -0.1199769053
  134      C      -7.3752019189     1.3755337580    -1.3387852172
  135      C      -5.5783615868    -4.4660188191     1.3721515784
  136      C      -4.1993417371    -2.6126193983    -3.2433593186
  137      C      -3.6094213774    -3.9924643036    -1.5102603583
  138      C      -2.6663688376    -3.0461386835    -1.6159094365
  139      C      -1.9062968468    -1.1321372234    -0.3029075402
  140      C      -6.3133839549     1.2389226787    -2.2302121769
  141      C      -6.1145004607     1.1482992502     2.2381496874
  142      C      -2.0776951001    -0.7511295824     1.0486966238
  143      C      -8.4477749659    -1.9930115243    -1.3836264931
  144      C      -3.7545383782     0.5221780741     2.3383656638
  145      C      -7.8016243960    -1.9787606036     2.1649889203
  146      C      -4.9608701771    -0.3511027239    -3.5269695559
  147      C      -2.4493326297    -3.0058364399     0.8251870412
  148      C      -8.0947141361     0.2800699969     1.2618030465
  149      C      -2.7409567746    -0.7458765725    -2.5878949613
  150      C      -8.4322473212    -2.4964699480     1.0666152313
  151      C      -5.4310776663    -0.9773546847     3.2461643863
  152      C      -5.9361862014    -4.1015503133    -2.2164980636
  153      C      -6.9171628644    -3.2101127326    -2.6886016819
  154      C      -5.6490789147    -2.3519696954     3.1708581588
  155      C      -6.1893640302     0.1678988457    -3.1473615690
  156      C      -8.1782068672     0.2590264894    -1.1831973901
  157      C      -5.2191030243    -1.7229990875    -3.6576836114
  158      C      -5.3834936975     2.1551230667    -0.3762890506
  159      C      -3.4798487105    -1.9011446208     2.7002754637
  160      C      -8.5339956833    -0.2643050254     0.0673334748
  161      C      -6.8387442445    -2.9101447290     2.6468285460
  162      C      -3.7408052203     0.1785132444    -3.0506708814
  163      C      -4.3445386269    -4.0123247635     1.9604215908
  164      C      -2.2537786712    -0.2539160602    -1.3471043465
  165      C      -3.9435694902    -4.5418713880    -0.2392906913
  166      C      -4.0797362529    -0.6641329588     2.9959274293
  167      C      -4.4078234028    -2.9387098332     2.8403483028
  168      C      -4.4168217491     1.8471511650     0.5857045314
  169      C      -5.1315343450     1.7305397668    -1.6937747265
  170      C      -4.6104729245    -3.7547572053    -2.5128236408
  171      C      -2.4890017541    -1.9157584860     1.7022380175
  172      C      -7.8308920164    -3.7333460572     0.7531917350
  173      C      -6.5274162396    -2.0108079462    -3.4044868667
  174      C      -6.3217836300    -4.5958558598    -0.9413107637
  175      C      -3.8588674911     1.1791208430    -2.1013802337
  176      C      -2.9668722875    -2.1509615430    -2.6585165359
 ----------------------------------------------------------------
 Molecular Point Group                 C1    NOp =  1
 Largest Abelian Subgroup              C1    NOp =  1
 Nuclear Repulsion Energy = 33629.0406263814 hartrees
 There are      462 alpha and      462 beta electrons
 Requested basis set is 6-31G(d,p)
 There are 676 shells and 2360 basis functions

 Total QAlloc Memory Limit  20000 MB
 Mega-Array Size      4888 MB
 MEM_STATIC part      5000 MB
 A cutoff of  1.0D-08 yielded  37154 shell pairs
 There are    523499 function pairs
 
 -------------------------------------------------------
 OpenMP Integral Computing Module                       
 Release: version 1.0, May 2013, Q-Chem Inc. Pittsburgh 
 -------------------------------------------------------
 Integral Job Info:
 Integral job number is                      11
 Integral operator is                         1
 short-range coefficients                     0
 long-range coefficients              100000000
 Omega coefficients                           0
 if combine SR and LR in K                    0
 Integral screening is                        0
 Integral computing path is                   2
 max size of driver memory is            800000
 size of driver memory is                593474
 size of scratch memory is              2260544
 max col of scratch BK array               1296
 max len of scratch array in speh3          155
 max len of scratch index in speh4           18
 max int batch size is                      520
 min int batch size is                       52
 fixed nKL is                                52
 max L of basis functions is                  2
 order of int derivative is                   0
 number of shells is                        676
 number of basis is                        2360
 number of cartesian basis is              2360
 number of contracted shell pairs         37154
 number of primitive shell pairs         113176
 maxK2 (contraction) of shell pair           36
 max number of K2 of shell pair               1
 max number of CS2 of shell pair           7126
 max number of PS2 of shell pair          34224
 mem total for path MDJ                 1488440
 -------------------------------------------------------
 Smallest overlap matrix eigenvalue = 2.44E-04

 Scale SEOQF with 1.000000e-02/1.000000e-02/1.000000e-01

 Standard Electronic Orientation quadrupole field applied
 Nucleus-field energy     =    -0.0000002186 hartrees
 Guess from superposition of atomic densities
 Warning:  Energy on first SCF cycle will be non-variational
 A restricted hybrid HF-DFT SCF calculation will be
 performed using Pulay DIIS extrapolation
 Exchange:     0.2000 Hartree-Fock + 0.0800 Slater + 0.7200 B88
 Correlation:  0.1900 VWN1RPA + 0.8100 LYP
 Using SG-1 standard quadrature grid
 SCF converges when DIIS error is below 1.0E-05
 using 16 threads for integral computing 
 -------------------------------------------------------
 OpenMP BLAS3 based DFT computing Module                
 Release: version 1.0, May 2013, Q-Chem Inc. Pittsburgh 
 -------------------------------------------------------
 ---------------------------------------
  Cycle       Energy         DIIS Error
 ---------------------------------------
    1   -5858.8736740512      1.84E-02
    2   -5803.1053622192      1.29E-03
    3   -5802.4221598940      1.74E-03
    4   -5803.9632713978      6.33E-04
    5   -5804.1793604273      3.06E-04
    6   -5804.2436176137      1.20E-04
    7   -5804.2524924426      4.91E-05
    8   -5804.2535180151      3.34E-05
    9   -5804.2544077143      7.99E-06 Convergence criterion met
 ---------------------------------------
 SCF time:  CPU 7133.70 s  wall 824.31 s
 SCF   energy in the final basis set = -5804.2544077143
 Total energy in the final basis set = -5804.2544077143
 
 --------------------------------------------------------------
 
                    Orbital Energies (a.u.)
 --------------------------------------------------------------
 
 Alpha MOs
 -- Occupied --
-19.190 -19.186 -19.132 -19.131 -10.316 -10.309 -10.252 -10.243
-10.242 -10.241 -10.239 -10.236 -10.234 -10.232 -10.232 -10.229
-10.226 -10.224 -10.222 -10.222 -10.222 -10.221 -10.220 -10.220
-10.220 -10.220 -10.220 -10.219 -10.219 -10.218 -10.218 -10.218
-10.218 -10.218 -10.218 -10.217 -10.217 -10.217 -10.217 -10.217
-10.217 -10.216 -10.216 -10.216 -10.216 -10.216 -10.216 -10.216
-10.216 -10.215 -10.215 -10.215 -10.215 -10.215 -10.215 -10.214
-10.214 -10.214 -10.214 -10.214 -10.214 -10.214 -10.214 -10.213
-10.213 -10.213 -10.213 -10.213 -10.213 -10.212 -10.212 -10.212
-10.212 -10.212 -10.212 -10.212 -10.212 -10.212 -10.212 -10.212
-10.212 -10.211 -10.211 -10.211 -10.211 -10.211 -10.211 -10.211
-10.211 -10.211 -10.210 -10.210 -10.210 -10.210 -10.210 -10.210
-10.210 -10.210 -10.210 -10.210 -10.209 -10.209 -10.209 -10.209
-10.209 -10.208 -10.208 -10.208 -10.208 -10.208 -10.208 -10.208
-10.207 -10.207 -10.207 -10.207 -10.207 -10.207 -10.207 -10.207
-10.206 -10.206 -10.206 -10.206 -10.205 -10.205 -10.205 -10.205
-10.204 -10.204 -10.203 -10.203 -10.203 -10.203 -10.202 -10.202
-10.202 -10.201 -10.201 -10.200 -10.199 -10.199 -10.198 -10.197
-10.197 -10.196 -10.192 -10.191  -1.105  -1.097  -1.022  -1.019
 -0.984  -0.981  -0.967  -0.964  -0.964  -0.962  -0.961  -0.959
 -0.936  -0.931  -0.928  -0.926  -0.926  -0.924  -0.922  -0.920
 -0.918  -0.916  -0.898  -0.896  -0.890  -0.890  -0.885  -0.883
 -0.871  -0.871  -0.849  -0.848  -0.842  -0.839  -0.839  -0.837
 -0.837  -0.833  -0.822  -0.818  -0.810  -0.803  -0.799  -0.797
 -0.794  -0.793  -0.793  -0.792  -0.790  -0.788  -0.784  -0.782
 -0.771  -0.768  -0.767  -0.765  -0.765  -0.764  -0.761  -0.759
 -0.752  -0.748  -0.746  -0.741  -0.733  -0.730  -0.715  -0.715
 -0.713  -0.713  -0.712  -0.711  -0.709  -0.708  -0.708  -0.706
 -0.706  -0.706  -0.705  -0.704  -0.703  -0.702  -0.674  -0.669
 -0.659  -0.657  -0.656  -0.655  -0.648  -0.644  -0.630  -0.628
 -0.626  -0.626  -0.624  -0.624  -0.621  -0.620  -0.616  -0.614
 -0.613  -0.613  -0.612  -0.611  -0.610  -0.608  -0.606  -0.606
 -0.602  -0.602  -0.601  -0.601  -0.569  -0.568  -0.563  -0.562
 -0.560  -0.558  -0.558  -0.557  -0.555  -0.553  -0.553  -0.551
 -0.536  -0.534  -0.531  -0.530  -0.528  -0.527  -0.524  -0.523
 -0.521  -0.520  -0.519  -0.518  -0.516  -0.516  -0.514  -0.511
 -0.506  -0.506  -0.504  -0.500  -0.494  -0.493  -0.488  -0.487
 -0.485  -0.481  -0.481  -0.478  -0.478  -0.476  -0.475  -0.473
 -0.472  -0.470  -0.469  -0.469  -0.468  -0.466  -0.465  -0.464
 -0.464  -0.463  -0.463  -0.461  -0.460  -0.459  -0.457  -0.456
 -0.455  -0.453  -0.451  -0.451  -0.448  -0.446  -0.442  -0.442
 -0.441  -0.440  -0.439  -0.438  -0.437  -0.435  -0.434  -0.433
 -0.429  -0.429  -0.428  -0.427  -0.427  -0.425  -0.425  -0.423
 -0.423  -0.422  -0.421  -0.420  -0.419  -0.419  -0.418  -0.417
 -0.415  -0.415  -0.415  -0.415  -0.414  -0.413  -0.411  -0.411
 -0.409  -0.408  -0.408  -0.407  -0.406  -0.400  -0.398  -0.397
 -0.393  -0.392  -0.390  -0.389  -0.389  -0.388  -0.387  -0.385
 -0.375  -0.375  -0.372  -0.371  -0.369  -0.368  -0.367  -0.365
 -0.363  -0.362  -0.360  -0.359  -0.358  -0.357  -0.356  -0.355
 -0.355  -0.355  -0.353  -0.350  -0.350  -0.350  -0.349  -0.347
 -0.347  -0.347  -0.346  -0.346  -0.344  -0.342  -0.341  -0.341
 -0.340  -0.339  -0.339  -0.337  -0.337  -0.336  -0.336  -0.334
 -0.332  -0.331  -0.330  -0.328  -0.327  -0.325  -0.323  -0.323
 -0.315  -0.305  -0.302  -0.297  -0.288  -0.279  -0.271  -0.269
 -0.269  -0.266  -0.266  -0.265  -0.264  -0.263  -0.263  -0.262
 -0.261  -0.260  -0.258  -0.257  -0.257  -0.256  -0.255  -0.254
 -0.247  -0.244  -0.243  -0.241  -0.220  -0.216  -0.209  -0.209
 -0.208  -0.207  -0.205  -0.203  -0.198  -0.198
 -- Virtual --
 -0.121  -0.121  -0.118  -0.117  -0.109  -0.105  -0.078  -0.076
 -0.074  -0.071  -0.057  -0.057  -0.051  -0.047  -0.025  -0.024
 -0.023  -0.021  -0.019  -0.016  -0.015  -0.014  -0.013  -0.012
 -0.009  -0.008  -0.007  -0.005  -0.003  -0.002   0.009   0.012
  0.014   0.015   0.038   0.038   0.042   0.043   0.046   0.048
  0.050   0.053   0.059   0.061   0.062   0.064   0.065   0.072
  0.073   0.076   0.083   0.085   0.087   0.088   0.089   0.098
  0.099   0.100   0.101   0.102   0.102   0.103   0.104   0.109
  0.111   0.114   0.116   0.118   0.119   0.121   0.122   0.123
  0.124   0.128   0.129   0.131   0.132   0.133   0.136   0.138
  0.141   0.143   0.147   0.149   0.149   0.153   0.156   0.156
  0.157   0.162   0.164   0.164   0.165   0.165   0.170   0.170
  0.171   0.172   0.173   0.175   0.176   0.179   0.182   0.185
  0.186   0.187   0.188   0.189   0.189   0.190   0.191   0.194
  0.196   0.196   0.199   0.199   0.203   0.204   0.206   0.208
  0.209   0.213   0.216   0.216   0.217   0.219   0.220   0.221
  0.223   0.224   0.226   0.228   0.229   0.229   0.231   0.231
  0.232   0.232   0.234   0.236   0.239   0.240   0.242   0.244
  0.245   0.247   0.249   0.250   0.252   0.258   0.259   0.262
  0.263   0.266   0.270   0.275   0.277   0.279   0.281   0.282
  0.285   0.287   0.289   0.290   0.291   0.293   0.302   0.304
  0.306   0.310   0.312   0.315   0.316   0.317   0.320   0.322
  0.322   0.324   0.326   0.327   0.330   0.330   0.332   0.332
  0.338   0.339   0.341   0.343   0.347   0.349   0.351   0.352
  0.352   0.355   0.359   0.368   0.371   0.376   0.382   0.386
  0.397   0.399   0.401   0.404   0.405   0.406   0.408   0.410
  0.412   0.415   0.416   0.418   0.420   0.420   0.425   0.429
  0.431   0.431   0.433   0.435   0.438   0.440   0.446   0.451
  0.452   0.453   0.457   0.459   0.461   0.461   0.462   0.467
  0.468   0.470   0.472   0.474   0.476   0.476   0.477   0.478
  0.479   0.481   0.482   0.482   0.484   0.485   0.487   0.487
  0.489   0.490   0.491   0.493   0.495   0.496   0.496   0.497
  0.499   0.499   0.500   0.502   0.504   0.504   0.505   0.505
  0.507   0.507   0.508   0.509   0.511   0.512   0.513   0.514
  0.515   0.516   0.516   0.517   0.517   0.519   0.520   0.520
  0.521   0.522   0.523   0.524   0.525   0.526   0.526   0.527
  0.528   0.529   0.529   0.530   0.532   0.532   0.533   0.534
  0.534   0.535   0.536   0.537   0.538   0.539   0.540   0.542
  0.543   0.543   0.544   0.545   0.545   0.546   0.547   0.547
  0.548   0.549   0.549   0.550   0.552   0.552   0.554   0.554
  0.555   0.556   0.557   0.558   0.558   0.558   0.559   0.560
  0.560   0.561   0.561   0.562   0.563   0.564   0.565   0.565
  0.566   0.567   0.567   0.568   0.569   0.570   0.571   0.573
  0.573   0.575   0.575   0.576   0.577   0.578   0.580   0.581
  0.582   0.583   0.584   0.585   0.586   0.587   0.588   0.589
  0.589   0.590   0.592   0.592   0.593   0.593   0.595   0.595
  0.596   0.596   0.597   0.598   0.599   0.600   0.601   0.602
  0.603   0.603   0.604   0.604   0.605   0.606   0.609   0.609
  0.611   0.611   0.613   0.614   0.616   0.617   0.618   0.619
  0.619   0.620   0.621   0.623   0.625   0.626   0.627   0.628
  0.630   0.631   0.633   0.633   0.634   0.634   0.635   0.635
  0.636   0.637   0.638   0.639   0.640   0.642   0.642   0.644
  0.645   0.647   0.647   0.648   0.648   0.650   0.650   0.651
  0.652   0.652   0.654   0.655   0.655   0.656   0.658   0.659
  0.659   0.661   0.662   0.663   0.664   0.664   0.665   0.666
  0.667   0.668   0.668   0.669   0.669   0.670   0.672   0.673
  0.673   0.675   0.676   0.678   0.679   0.680   0.682   0.682
  0.682   0.684   0.685   0.686   0.687   0.687   0.688   0.690
  0.690   0.693   0.695   0.695   0.696   0.698   0.698   0.699
  0.701   0.701   0.702   0.703   0.705   0.706   0.708   0.708
  0.709   0.711   0.713   0.715   0.715   0.717   0.718   0.719
  0.719   0.721   0.721   0.722   0.723   0.724   0.725   0.727
  0.727   0.730   0.731   0.733   0.733   0.734   0.735   0.736
  0.737   0.737   0.738   0.741   0.742   0.743   0.745   0.746
  0.748   0.750   0.753   0.754   0.755   0.755   0.756   0.758
  0.759   0.761   0.764   0.765   0.767   0.767   0.768   0.770
  0.770   0.771   0.773   0.774   0.776   0.779   0.780   0.783
  0.784   0.784   0.785   0.785   0.787   0.788   0.789   0.790
  0.791   0.793   0.795   0.795   0.796   0.796   0.797   0.798
  0.799   0.800   0.801   0.801   0.803   0.804   0.805   0.806
  0.807   0.808   0.808   0.809   0.809   0.811   0.811   0.813
  0.814   0.814   0.816   0.817   0.818   0.818   0.819   0.820
  0.822   0.822   0.823   0.824   0.825   0.826   0.827   0.828
  0.830   0.830   0.831   0.832   0.833   0.835   0.835   0.836
  0.838   0.840   0.842   0.844   0.846   0.847   0.848   0.850
  0.851   0.855   0.857   0.857   0.858   0.861   0.864   0.864
  0.868   0.870   0.874   0.876   0.880   0.886   0.889   0.890
  0.892   0.895   0.896   0.900   0.903   0.905   0.908   0.912
  0.913   0.914   0.915   0.917   0.920   0.923   0.925   0.928
  0.929   0.931   0.933   0.934   0.935   0.935   0.937   0.938
  0.940   0.941   0.944   0.945   0.947   0.947   0.950   0.950
  0.954   0.955   0.958   0.963   0.966   0.966   0.968   0.970
  0.973   0.975   0.981   0.982   0.983   0.986   0.988   0.993
  0.994   0.996   0.999   1.000   1.001   1.004   1.005   1.007
  1.007   1.011   1.012   1.015   1.016   1.017   1.019   1.020
  1.022   1.023   1.024   1.026   1.027   1.031   1.032   1.035
  1.036   1.037   1.039   1.039   1.041   1.042   1.043   1.045
  1.048   1.049   1.051   1.052   1.053   1.056   1.058   1.061
  1.061   1.063   1.065   1.067   1.068   1.070   1.072   1.075
  1.076   1.079   1.079   1.080   1.082   1.084   1.085   1.088
  1.088   1.090   1.090   1.091   1.093   1.096   1.097   1.098
  1.099   1.100   1.102   1.106   1.108   1.113   1.113   1.114
  1.116   1.119   1.121   1.122   1.123   1.125   1.127   1.131
  1.132   1.133   1.135   1.136   1.139   1.142   1.143   1.145
  1.147   1.148   1.150   1.153   1.156   1.157   1.160   1.161
  1.164   1.165   1.168   1.169   1.169   1.171   1.172   1.174
  1.175   1.178   1.179   1.180   1.181   1.183   1.185   1.186
  1.187   1.190   1.191   1.191   1.193   1.196   1.199   1.203
  1.205   1.207   1.209   1.213   1.215   1.217   1.220   1.221
  1.222   1.225   1.227   1.227   1.233   1.238   1.240   1.245
  1.247   1.248   1.251   1.255   1.258   1.259   1.261   1.262
  1.263   1.266   1.268   1.270   1.272   1.273   1.275   1.278
  1.279   1.280   1.282   1.284   1.286   1.287   1.289   1.292
  1.294   1.295   1.297   1.300   1.301   1.304   1.307   1.312
  1.316   1.318   1.319   1.322   1.325   1.327   1.327   1.334
  1.336   1.337   1.338   1.340   1.343   1.344   1.346   1.347
  1.352   1.353   1.354   1.357   1.360   1.362   1.365   1.366
  1.369   1.372   1.375   1.381   1.381   1.385   1.387   1.389
  1.391   1.393   1.394   1.398   1.399   1.402   1.403   1.404
  1.409   1.410   1.410   1.416   1.421   1.421   1.427   1.429
  1.430   1.431   1.435   1.439   1.442   1.446   1.446   1.451
  1.452   1.453   1.457   1.458   1.459   1.462   1.465   1.466
  1.467   1.468   1.470   1.471   1.473   1.476   1.477   1.479
  1.485   1.486   1.487   1.488   1.490   1.492   1.493   1.496
  1.498   1.500   1.506   1.508   1.510   1.512   1.514   1.514
  1.521   1.522   1.524   1.529   1.532   1.535   1.536   1.538
  1.540   1.546   1.546   1.547   1.550   1.551   1.553   1.554
  1.557   1.558   1.564   1.565   1.567   1.570   1.574   1.575
  1.577   1.579   1.583   1.584   1.585   1.586   1.588   1.592
  1.593   1.598   1.600   1.606   1.612   1.613   1.619   1.623
  1.626   1.627   1.632   1.634   1.637   1.643   1.643   1.646
  1.649   1.651   1.652   1.659   1.662   1.668   1.673   1.676
  1.683   1.683   1.690   1.691   1.695   1.695   1.697   1.702
  1.704   1.706   1.706   1.710   1.712   1.715   1.718   1.721
  1.722   1.725   1.728   1.729   1.731   1.731   1.733   1.735
  1.736   1.739   1.739   1.741   1.744   1.746   1.746   1.748
  1.750   1.752   1.753   1.756   1.757   1.759   1.761   1.761
  1.764   1.764   1.765   1.767   1.768   1.769   1.769   1.771
  1.771   1.772   1.774   1.774   1.775   1.778   1.778   1.780
  1.780   1.783   1.784   1.785   1.785   1.787   1.787   1.790
  1.792   1.793   1.793   1.795   1.796   1.796   1.797   1.799
  1.800   1.801   1.803   1.806   1.808   1.809   1.809   1.810
  1.811   1.814   1.816   1.819   1.822   1.823   1.824   1.827
  1.829   1.832   1.835   1.837   1.842   1.844   1.845   1.846
  1.850   1.851   1.852   1.855   1.857   1.860   1.860   1.863
  1.865   1.867   1.868   1.870   1.870   1.873   1.876   1.878
  1.879   1.879   1.880   1.881   1.883   1.884   1.887   1.889
  1.890   1.892   1.893   1.894   1.898   1.902   1.905   1.908
  1.910   1.912   1.913   1.915   1.916   1.919   1.921   1.923
  1.927   1.928   1.929   1.932   1.933   1.936   1.937   1.939
  1.940   1.943   1.944   1.947   1.947   1.949   1.954   1.954
  1.955   1.956   1.961   1.963   1.965   1.966   1.967   1.972
  1.974   1.974   1.977   1.979   1.981   1.982   1.984   1.986
  1.987   1.988   1.989   1.990   1.992   1.993   1.994   1.996
  1.997   1.998   1.999   2.000   2.002   2.004   2.006   2.007
  2.008   2.009   2.010   2.011   2.013   2.013   2.015   2.017
  2.018   2.020   2.022   2.022   2.024   2.026   2.027   2.028
  2.030   2.030   2.031   2.033   2.033   2.036   2.037   2.038
  2.039   2.040   2.042   2.043   2.044   2.045   2.046   2.048
  2.049   2.050   2.052   2.054   2.055   2.056   2.056   2.057
  2.059   2.061   2.064   2.064   2.065   2.066   2.067   2.068
  2.070   2.072   2.073   2.074   2.075   2.077   2.078   2.080
  2.081   2.082   2.086   2.087   2.088   2.090   2.092   2.094
  2.095   2.096   2.097   2.099   2.101   2.104   2.109   2.110
  2.113   2.114   2.115   2.118   2.120   2.122   2.122   2.125
  2.126   2.127   2.127   2.130   2.132   2.141   2.143   2.144
  2.150   2.153   2.154   2.156   2.157   2.161   2.164   2.173
  2.183   2.184   2.189   2.193   2.197   2.203   2.204   2.207
  2.210   2.211   2.218   2.220   2.223   2.225   2.225   2.226
  2.232   2.233   2.234   2.236   2.237   2.239   2.244   2.246
  2.248   2.254   2.256   2.258   2.260   2.263   2.266   2.267
  2.269   2.271   2.273   2.275   2.276   2.278   2.279   2.281
  2.285   2.285   2.288   2.292   2.296   2.296   2.298   2.299
  2.305   2.305   2.307   2.308   2.309   2.314   2.317   2.318
  2.320   2.325   2.326   2.332   2.332   2.335   2.337   2.337
  2.342   2.345   2.347   2.347   2.350   2.351   2.353   2.356
  2.357   2.359   2.360   2.363   2.364   2.365   2.367   2.370
  2.371   2.376   2.377   2.378   2.380   2.382   2.383   2.384
  2.384   2.386   2.387   2.390   2.391   2.391   2.393   2.394
  2.397   2.399   2.400   2.401   2.402   2.405   2.407   2.408
  2.409   2.412   2.415   2.415   2.418   2.419   2.420   2.422
  2.424   2.426   2.428   2.433   2.440   2.441   2.443   2.446
  2.447   2.450   2.454   2.455   2.458   2.459   2.461   2.463
  2.465   2.468   2.470   2.471   2.472   2.473   2.476   2.477
  2.479   2.483   2.486   2.487   2.487   2.488   2.490   2.493
  2.496   2.498   2.499   2.501   2.504   2.507   2.510   2.511
  2.511   2.515   2.516   2.518   2.519   2.521   2.522   2.524
  2.526   2.528   2.529   2.532   2.536   2.536   2.539   2.540
  2.542   2.546   2.548   2.554   2.557   2.558   2.565   2.567
  2.571   2.577   2.579   2.584   2.585   2.587   2.588   2.589
  2.591   2.594   2.595   2.597   2.598   2.600   2.602   2.605
  2.610   2.611   2.613   2.614   2.616   2.617   2.619   2.622
  2.623   2.624   2.628   2.629   2.631   2.632   2.633   2.636
  2.638   2.640   2.642   2.644   2.645   2.647   2.648   2.651
  2.652   2.652   2.654   2.656   2.656   2.658   2.661   2.663
  2.665   2.665   2.666   2.669   2.671   2.673   2.674   2.675
  2.677   2.678   2.679   2.682   2.684   2.685   2.686   2.688
  2.691   2.693   2.694   2.697   2.699   2.704   2.704   2.706
  2.710   2.715   2.716   2.720   2.723   2.723   2.726   2.726
  2.728   2.732   2.733   2.737   2.738   2.744   2.745   2.749
  2.751   2.753   2.755   2.757   2.759   2.759   2.761   2.763
  2.764   2.768   2.770   2.773   2.774   2.775   2.777   2.778
  2.780   2.785   2.785   2.788   2.790   2.791   2.791   2.794
  2.796   2.804   2.808   2.812   2.813   2.819   2.820   2.822
  2.824   2.828   2.829   2.834   2.838   2.841   2.843   2.847
  2.848   2.849   2.852   2.854   2.855   2.857   2.863   2.866
  2.868   2.869   2.871   2.872   2.873   2.877   2.878   2.880
  2.882   2.883   2.885   2.888   2.890   2.890   2.891   2.895
  2.899   2.900   2.903   2.904   2.907   2.908   2.908   2.910
  2.911   2.914   2.916   2.918   2.919   2.920   2.923   2.924
  2.926   2.926   2.930   2.930   2.931   2.934   2.936   2.938
  2.940   2.941   2.949   2.950   2.954   2.955   2.958   2.960
  2.962   2.966   2.966   2.974   2.979   2.981   2.983   2.987
  2.988   2.990   2.992   2.996   2.999   3.003   3.004   3.005
  3.008   3.012   3.013   3.015   3.019   3.021   3.028   3.031
  3.033   3.035   3.038   3.041   3.041   3.045   3.048   3.049
  3.051   3.055   3.056   3.059   3.061   3.064   3.064   3.067
  3.071   3.074   3.078   3.083   3.088   3.095   3.108   3.112
  3.129   3.131   3.133   3.136   3.149   3.150   3.154   3.156
  3.159   3.163   3.165   3.167   3.172   3.173   3.194   3.196
  3.204   3.206   3.211   3.221   3.235   3.235   3.238   3.244
  3.245   3.250   3.254   3.259   3.263   3.267   3.279   3.283
  3.294   3.295   3.312   3.317   3.320   3.321   3.324   3.324
  3.332   3.337   3.340   3.342   3.345   3.355   3.377   3.380
  3.398   3.401   3.413   3.418   3.420   3.420   3.431   3.446
  3.457   3.459   3.470   3.473   3.476   3.481   3.483   3.486
  3.487   3.488   3.502   3.515   3.516   3.524   3.536   3.549
  3.554   3.565   3.574   3.588   3.593   3.597   3.597   3.605
  3.613   3.627   3.678   3.697   3.823   3.826   4.026   4.049
  4.063   4.070   4.081   4.087   4.089   4.091   4.097   4.100
  4.100   4.104   4.105   4.110   4.113   4.114   4.117   4.121
  4.125   4.126   4.137   4.143   4.144   4.150   4.155   4.157
  4.160   4.163   4.166   4.169   4.172   4.174   4.176   4.179
  4.189   4.191   4.193   4.207   4.210   4.228   4.236   4.244
  4.246   4.250   4.251   4.254   4.256   4.257   4.261   4.263
  4.268   4.277   4.285   4.289   4.292   4.295   4.298   4.302
  4.310   4.323   4.329   4.333   4.379   4.390   4.395   4.398
  4.399   4.403   4.408   4.409   4.411   4.416   4.417   4.420
  4.424   4.427   4.428   4.437   4.443   4.452   4.459   4.471
  4.479   4.493   4.498   4.513   4.536   4.540   4.552   4.554
  4.556   4.563   4.623   4.623   4.629   4.633   4.645   4.645
  4.675   4.684   4.693   4.694   4.698   4.703   4.703   4.706
  4.711   4.714   4.718   4.719   4.747   4.749   4.792   4.820
  4.837   4.842   4.860   4.870   4.875   4.880   4.887   4.888
  4.893   4.912   4.957   4.957   4.965   4.971   4.983   4.989
  4.992   5.000   5.002   5.020   5.168   5.173   5.187   5.189
  5.197   5.206   5.212   5.217   5.316   5.332   5.337   5.342
  5.357   5.367
 --------------------------------------------------------------
 
          Ground-State Mulliken Net Atomic Charges

     Atom                 Charge (a.u.)
  ----------------------------------------
      1 O                    -0.466240
      2 C                    -0.087397
      3 H                     0.130161
      4 H                     0.120521
      5 H                     0.130101
      6 O                    -0.458775
      7 C                     0.592408
      8 C                    -0.238211
      9 H                     0.120743
     10 H                     0.124724
     11 C                    -0.192576
     12 H                     0.109370
     13 H                     0.118622
     14 C                    -0.189944
     15 H                     0.118824
     16 H                     0.111796
     17 C                     0.014115
     18 C                     0.093104
     19 C                    -0.108758
     20 H                     0.093530
     21 C                    -0.096413
     22 H                     0.095865
     23 C                    -0.097365
     24 H                     0.090931
     25 C                    -0.085151
     26 H                     0.097089
     27 C                    -0.102088
     28 H                     0.089627
     29 C                    -0.021665
     30 C                     0.025171
     31 C                    -0.028681
     32 C                     0.014296
     33 C                     0.006678
     34 C                    -0.028127
     35 C                    -0.003859
     36 C                    -0.007029
     37 C                    -0.015643
     38 C                     0.006892
     39 C                    -0.086532
     40 C                     0.025640
     41 C                    -0.042964
     42 C                    -0.031913
     43 C                     0.005391
     44 C                     0.020914
     45 C                    -0.084986
     46 C                     0.014130
     47 C                     0.005193
     48 C                    -0.014246
     49 C                     0.002196
     50 C                     0.010821
     51 C                     0.005223
     52 C                    -0.011850
     53 C                     0.028147
     54 C                    -0.011679
     55 C                    -0.005530
     56 C                    -0.012298
     57 C                     0.010132
     58 C                    -0.012494
     59 C                     0.053130
     60 C                     0.023117
     61 C                     0.018296
     62 C                    -0.028682
     63 C                    -0.023495
     64 C                     0.010452
     65 C                     0.001232
     66 C                    -0.017145
     67 C                     0.011933
     68 C                    -0.001605
     69 C                    -0.001735
     70 C                     0.055363
     71 C                    -0.019529
     72 C                     0.021098
     73 C                    -0.005191
     74 C                     0.004280
     75 C                    -0.011589
     76 C                     0.021178
     77 C                    -0.007353
     78 C                     0.028874
     79 C                    -0.004307
     80 C                    -0.004761
     81 C                     0.000713
     82 C                     0.017105
     83 C                    -0.020173
     84 C                     0.053886
     85 C                    -0.000438
     86 C                    -0.033583
     87 C                    -0.015105
     88 C                    -0.017327
     89 O                    -0.477370
     90 C                    -0.086153
     91 H                     0.130338
     92 H                     0.129642
     93 H                     0.133696
     94 O                    -0.437052
     95 C                     0.570911
     96 C                    -0.252447
     97 H                     0.116310
     98 H                     0.141535
     99 C                    -0.194789
    100 H                     0.128601
    101 H                     0.100692
    102 C                    -0.170357
    103 H                     0.110263
    104 H                     0.105288
    105 C                     0.023998
    106 C                     0.084052
    107 C                    -0.092142
    108 H                     0.089125
    109 C                    -0.095034
    110 H                     0.090117
    111 C                    -0.090579
    112 H                     0.097853
    113 C                    -0.097790
    114 H                     0.090497
    115 C                    -0.109715
    116 H                     0.092820
    117 C                    -0.023081
    118 C                    -0.017961
    119 C                    -0.027328
    120 C                    -0.038889
    121 C                     0.020124
    122 C                    -0.009025
    123 C                     0.011229
    124 C                     0.011498
    125 C                    -0.008247
    126 C                     0.005133
    127 C                    -0.116938
    128 C                     0.006991
    129 C                    -0.012064
    130 C                     0.015395
    131 C                     0.013318
    132 C                     0.007834
    133 C                    -0.089909
    134 C                     0.029152
    135 C                    -0.018055
    136 C                    -0.017203
    137 C                     0.000061
    138 C                     0.001610
    139 C                     0.013120
    140 C                     0.006772
    141 C                     0.011644
    142 C                    -0.014545
    143 C                    -0.007530
    144 C                    -0.011965
    145 C                    -0.003920
    146 C                     0.022697
    147 C                     0.010070
    148 C                     0.040962
    149 C                    -0.015598
    150 C                    -0.025604
    151 C                     0.002010
    152 C                    -0.038759
    153 C                     0.001110
    154 C                     0.001304
    155 C                     0.002424
    156 C                     0.041336
    157 C                     0.006144
    158 C                     0.030405
    159 C                     0.002665
    160 C                    -0.004660
    161 C                    -0.003584
    162 C                    -0.020768
    163 C                     0.003626
    164 C                     0.008547
    165 C                     0.003629
    166 C                     0.001708
    167 C                    -0.003654
    168 C                     0.042631
    169 C                    -0.004580
    170 C                     0.012020
    171 C                    -0.004868
    172 C                    -0.015746
    173 C                     0.007323
    174 C                     0.017320
    175 C                     0.014000
    176 C                    -0.002224
  ----------------------------------------
  Sum of atomic charges =     0.000000

 -----------------------------------------------------------------
                    Cartesian Multipole Moments
 -----------------------------------------------------------------
    Charge (ESU x 10^10)
                 0.0000
    Dipole Moment (Debye)
         X      -0.5185      Y       1.9956      Z       2.2444
       Tot       3.0477
    Quadrupole Moments (Debye-Ang)
        XX    -716.8886     XY     -22.6481     YY    -791.8269
        XZ       7.5915     YZ      11.4260     ZZ    -819.9598
    Octopole Moments (Debye-Ang^2)
       XXX    -181.1355    XXY      28.8628    XYY      38.8667
       YYY     279.7747    XXZ      39.3985    XYZ      28.6573
       YYZ     -11.6805    XZZ     -93.7871    YZZ      18.1506
       ZZZ      48.2573
    Hexadecapole Moments (Debye-Ang^3)
      XXXX -194600.4765   XXXY   -3135.2164   XXYY  -40243.9556
      XYYY    -638.0757   YYYY  -31433.5271   XXXZ    2457.2456
      XXYZ     515.5591   XYYZ     -99.9510   YYYZ    -143.7500
      XXZZ  -39984.8966   XYZZ    -664.8206   YYZZ   -8871.8027
      XZZZ     216.4119   YZZZ     240.6672   ZZZZ  -21196.2876
 -----------------------------------------------------------------
Archival summary:
1\1\mn366\SP\ProcedureUnspecified\6-31G**\428\afmv_a\TueOct912:09:462018TueOct912:09:462018\0\\#,ProcedureUnspecified,6-31G**,\\0,1\C\C,1,1.37964\C,2,1.36529,1,110.362\C,3,1.39966,2,105.862,1,-3.86273,0\C,4,1.39737,3,110.346,2,5.92272,0\C,3,1.40085,2,122.283,1,-147.741,0\C,4,1.40644,3,118.211,2,-141.334,0\C,7,1.39904,4,122.049,3,-0.393176,0\C,8,1.38958,7,118.646,4,0.156929,0\C,7,1.40623,4,117.314,3,141.413,0\C,10,1.3948,7,123.34,4,-1.0463,0\C,1,1.40796,2,121.211,3,146.252,0\C,10,1.40956,7,104.526,4,-142.678,0\C,13,1.39383,10,111.07,7,-2.64442,0\C,12,1.41339,1,121.037,2,-137.035,0\C,13,1.41451,10,119.669,7,142.82,0\C,16,1.40727,13,120.496,10,4.91092,0\C,16,1.41285,13,120.899,10,-139.611,0\C,18,1.38945,16,110.117,13,144.833,0\C,19,1.38422,18,118.565,16,-135.003,0\C,20,1.39852,19,119.729,18,-9.00064,0\C,20,1.40153,19,122.857,18,135.917,0\C,22,1.3566,20,106.069,19,-146.691,0\C,22,1.38406,20,123.285,19,1.02051,0\C,24,1.39311,22,115.788,20,-130.522,0\C,25,1.38788,24,111.53,22,133.513,0\C,23,1.39747,22,111.526,20,-2.58567,0\C,27,1.38356,23,121.554,22,143.836,0\C,28,1.35073,27,118.585,23,5.90364,0\C,26,1.40696,25,108.441,24,-2.84958,0\C,30,1.39812,26,117.002,25,-138.502,0\C,31,1.39064,30,123.337,26,-10.506,0\C,31,1.39661,30,121.781,26,137.845,0\C,29,1.40707,28,102.773,27,-143.736,0\C,34,1.402,29,115.57,28,141.054,0\C,18,1.41174,16,117.492,13,-0.986488,0\C,36,1.36826,18,118.602,16,142.73,0\C,37,1.41058,36,108.28,18,-145.615,0\C,38,1.38165,37,105.008,36,-0.917988,0\C,39,1.36718,38,112.895,37,-2.71729,0\C,23,1.41324,22,120.515,20,148.466,0\C,41,1.38642,23,119.464,22,-12.7418,0\C,42,1.3866,41,112.64,23,-137.352,0\C,43,1.40209,42,103.214,41,2.87075,0\C,44,1.36331,43,111.469,42,-1.37203,0\C,43,1.41277,42,122.175,41,148.361,0\C,46,1.38431,43,115.373,42,-4.84821,0\C,44,1.41527,43,117.068,42,142.69,0\C,28,1.41843,27,118.262,23,-140.578,0\C,49,1.35011,28,103.749,27,142.983,0\C,50,1.41068,49,121.641,28,-136.205,0\C,51,1.38115,50,125.341,49,142.143,0\C,12,1.42089,1,121.084,2,6.1381,0\C,51,1.42283,50,118.365,49,-7.05339,0\C,11,1.42341,10,118.427,7,1.46581,0\C,52,1.42438,51,116.321,50,-7.79359,0\C,56,1.34016,52,120.516,51,-138.265,0\C,57,1.40665,56,110.945,52,147.057,0\C,24,1.46462,22,117.092,20,-2.2482,0\C,19,1.4984,18,107.664,16,7.82286,0\C,59,1.49958,24,125.786,22,77.3201,0\C,61,1.50177,59,121.065,24,-6.63468,0\H,62,1.09697,61,112.025,59,-34.9184,0\H,62,1.09705,61,110.618,59,-155.491,0\C,62,1.52909,61,110.926,59,77.2375,0\H,65,1.09678,62,106.975,61,-50.3756,0\H,65,1.09762,62,106.258,61,61.894,0\C,61,1.53176,59,120.068,24,149.383,0\C,68,1.41028,61,122.027,59,-70.0804,0\H,69,1.08587,68,120.642,61,10.4973,0\C,69,1.41802,68,120.821,61,-172.056,0\H,71,1.08584,69,117.624,68,-173.438,0\C,71,1.40538,69,122.486,68,3.34572,0\H,73,1.08596,71,121.24,69,-162.452,0\C,73,1.41069,71,116.319,69,-6.88025,0\H,75,1.08671,73,122.779,71,-174.628,0\C,75,1.38421,73,121.664,71,6.52221,0\H,77,1.0862,75,117.548,73,173.875,0\C,65,1.55164,62,110.882,61,-170.945,0\H,79,1.09661,65,113.615,62,-171.561,0\H,79,1.09695,65,113.505,62,-48.1833,0\C,79,1.50116,65,111.345,62,78.2977,0\O,82,1.16992,79,121.316,65,47.7604,0\O,82,1.3427,79,112.408,65,-150.063,0\C,84,1.4641,82,124.39,79,-168.734,0\H,85,1.09641,84,107.865,82,66.5576,0\H,85,1.0974,84,110.402,82,-166.427,0\H,85,1.09787,84,111.312,82,-54.1626,0\C,5,3.52092,4,115.373,3,84.4718,0\C,89,1.39007,5,99.859,4,-11.9737,0\C,90,1.36645,89,112.702,5,-96.8122,0\C,91,1.38708,90,123.089,89,-136.213,0\C,89,1.39028,5,109.019,4,117.792,0\C,93,1.38616,89,120.723,5,106.781,0\C,92,1.39396,91,122.985,90,135.431,0\C,90,1.40249,89,116.637,5,121.011,0\C,96,1.38733,90,121.313,89,137.958,0\C,97,1.37798,96,110.378,90,-148.346,0\C,97,1.39585,96,117.974,90,-3.09366,0\C,99,1.37114,97,121.189,96,-143.865,0\C,98,1.39926,97,117.496,96,141.861,0\C,96,1.39988,90,121.615,89,-0.770814,0\C,102,1.37062,96,110.441,90,149.863,0\C,102,1.37332,96,121.288,90,-4.0469,0\C,101,1.40097,98,121.063,97,-136.335,0\C,101,1.40341,98,122.62,97,5.00171,0\C,94,1.40411,93,107.749,89,143.373,0\C,107,1.37799,94,120.959,93,-143.539,0\C,108,1.35358,107,120.349,94,136.596,0\C,108,1.37091,107,119.087,94,1.2724,0\C,110,1.36847,108,123.118,107,-7.79387,0\C,110,1.37816,108,109.2,107,142.56,0\C,109,1.39347,108,110.688,107,-136.998,0\C,113,1.38288,109,125.057,108,146.097,0\C,114,1.37487,113,122.893,109,-147.187,0\C,112,1.39405,110,122.665,108,-143.671,0\C,103,1.4078,102,120.652,96,-142.929,0\C,117,1.40474,103,118.949,102,128.232,0\C,118,1.37379,117,108.565,103,-141.2,0\C,114,1.41009,113,119.65,109,-6.07898,0\C,120,1.40519,114,108.879,113,-142.384,0\C,95,1.41162,92,121.964,91,-5.78838,0\C,122,1.38259,95,117.915,92,4.09865,0\C,123,1.38159,122,105.574,95,-139.646,0\C,124,1.35887,123,111.947,122,0.350412,0\C,125,1.35376,124,105.41,123,0.439514,0\C,124,1.38128,123,122.838,122,146.226,0\C,127,1.38068,124,117.639,123,-5.89702,0\C,128,1.39075,127,122.062,124,-0.226858,0\C,129,1.39889,128,119.742,127,2.85097,0\C,126,1.40526,125,116.862,124,147.972,0\C,116,1.41417,112,117.511,110,-1.08178,0\C,132,1.37117,116,106.729,112,141.386,0\C,132,1.38841,116,120.414,112,-0.473818,0\C,133,1.39626,132,111.372,116,3.27332,0\C,135,1.39079,133,106.041,132,-8.33974,0\C,135,1.39998,133,122.068,132,-147.404,0\C,104,1.41486,102,118.78,96,140.147,0\C,95,1.415,92,105.563,91,-142.48,0\C,105,1.41567,101,108.097,98,145.688,0\C,140,1.3546,105,111.437,101,0.529024,0\C,141,1.41186,140,121.554,105,-139.395,0\C,131,1.41983,126,116.581,125,-137.423,0\C,109,1.42079,108,120.827,107,3.56546,0\C,144,1.39182,109,120.873,108,0.0696726,0\C,128,1.42475,127,107.569,124,-145.91,0\C,115,1.48057,114,112.744,113,147.791,0\C,147,1.50091,115,118.038,114,-135.315,0\C,148,1.49668,147,60.2242,115,-120.8,0\C,149,1.46215,148,113.991,147,-116.715,0\C,150,1.39866,149,120.667,148,114.194,0\H,151,1.08672,150,123.124,149,-13.3976,0\C,151,1.39181,150,122.326,149,169.111,0\H,153,1.0866,151,120.008,150,172.656,0\C,150,1.44437,149,120.278,148,-74.4964,0\H,155,1.08547,150,118.075,149,2.82977,0\C,155,1.39045,150,121.796,149,-169.001,0\H,157,1.08645,155,121.533,150,-175.096,0\C,157,1.43062,155,118.852,150,-1.34681,0\H,159,1.08601,157,118.875,155,-176.494,0\C,149,1.57848,148,121.233,147,102.639,0\H,161,1.09683,149,120.766,148,92.5591,0\H,161,1.09707,149,107.099,148,-18.5674,0\C,161,1.50227,149,111.665,148,-135.423,0\H,164,1.09693,161,108.102,149,-73.0255,0\H,164,1.09758,161,109.408,149,39.3994,0\C,164,1.53259,161,112.591,149,159.166,0\H,167,1.09741,164,113.867,161,166.886,0\H,167,1.09758,164,103.383,161,50.3891,0\C,167,1.53131,164,113.657,161,-73.2652,0\O,170,1.19797,167,119.79,164,114.595,0\O,170,1.35674,167,114.244,164,-63.2232,0\C,172,1.42254,170,124.937,167,179.055,0\H,173,1.09662,172,113.749,170,-170.217,0\H,173,1.09683,172,106.635,170,63.4034,0\H,173,1.09736,172,111.054,170,-48.6419,0\\\@

 Total job time:  840.49s(wall), 7161.95s(cpu) 
 Tue Oct  9 12:09:46 2018

        *************************************************************
        *                                                           *
        *  Thank you very much for using Q-Chem.  Have a nice day.  *
        *                                                           *
        *************************************************************


