
Running Job 1 of 1 ./6/10.qcin
qchem ./6/10.qcin_42978.0 /tmpu/cab_g/afmv_a/scratch_qchem/qchem42978/ 1
/tmpu/appuserlic/qchem4.4/serial-multicore/exe/qcprog.exe_s ./6/10.qcin_42978.0 /tmpu/cab_g/afmv_a/scratch_qchem/qchem42978/
Check license passed

                  Welcome to Q-Chem
     A Quantum Leap Into The Future Of Chemistry


 Q-Chem 4.4, Q-Chem, Inc., Pleasanton, CA (2016)

 Y. Shao,  Z. Gan,  E. Epifanovsky,  A. T. B. Gilbert,  M. Wormit,  
 J. Kussmann,  A. W. Lange,  A. Behn,  J. Deng,  X. Feng,  D. Ghosh,  
 M. Goldey,  P. R. Horn,  L. D. Jacobson,  I. Kaliman,  F. Rob,  
 R. Z. Khaliullin,  T. Kus,  A. Landau,  J. Liu,  E. I. Proynov,  Y. M. Rhee,  
 R. M. Richard,  M. A. Rohrdanz,  R. P. Steele,  E. J. Sundstrom,  
 H. L. Woodcock III,  P. M. Zimmerman,  D. Zuev,  B. Albrecht,  E. Alguire,  
 B. Austin,  S. A. Baeppler,  G. J. O. Beran,  Y. A. Bernard,  E. Berquist,  
 K. Brandhorst,  K. B. Bravaya,  S. T. Brown,  D. Casanova,  C.-M. Chang,  
 Y. Chen,  S. H. Chien,  K. D. Closser,  M. P. Coons,  D. L. Crittenden,  
 S. Dasgupta,  M. Diedenhofen,  R. A. DiStasio Jr.,  H. Do,  A. D. Dutoi,  
 R. G. Edgar,  P.-T. Fang,  S. Fatehi,  Q. Feng,  L. Fusti-Molnar,  
 A. Ghysels,  A. Golubeva-Zadorozhnaya,  J. Gomes,  A. Gunina,  
 M. W. D. Hanson-Heine,  P. H. P. Harbach,  A. W. Hauser,  J. E. Herr,  
 E. G. Hohenstein,  Z. C. Holden,  K. Hui,  T.-C. Jagau,  H. Ji,  B. Kaduk,  
 K. Khistyaev,  Jaehoon Kim,  Jihan Kim,  R. A. King,  P. Klunzinger,  
 K. Koh,  D. Kosenkov,  T. Kowalczyk,  C. M. Krauter,  A. Kunitsa,  
 K. U. Lao,  A. Laurent,  K. V. Lawler,  J. Lee,  D. Lefrancois,  S. Lehtola,  
 S. V. Levchenko,  C. Y. Lin,  Y.-S. Lin,  F. Liu,  E. Livshits,  
 R. C. Lochan,  A. Luenser,  P. Manohar,  S. F. Manzer,  S.-P. Mao,  Y. Mao,  
 N. Mardirossian,  A. V. Marenich,  L. A. Martinez-Martinez,  S. A. Maurer,  
 N. J. Mayhall,  J.-M. Mewes,  A. F. Morrison,  K. Nanda,  T. S. Nguyen-Beck,  
 C. M. Oana,  R. Olivares-Amaya,  D. P. O'Neill,  J. A. Parkhill,  
 T. M. Perrine,  R. Peverati,  P. A. Pieniazek,  F. Plasser,  A. Prociuk,  
 D. R. Rehn,  E. Rosta,  N. J. Russ,  N. Sergueev,  S. M. Sharada,  
 S. Sharma,  D. W. Small,  A. Sodt,  T. Stauch,  T. Stein,  D. Stuck,  
 Y.-C. Su,  A. J. W. Thom,  T. Tsuchimochi,  L. Vogt,  O. Vydrov,  T. Wang,  
 M. A. Watson,  J. Wenzel,  A. White,  C. F. Williams,  V. Vanovschi,  
 K. Yao,  S. Yeganeh,  S. R. Yost,  Z.-Q. You,  I. Y. Zhang,  X. Zhang,  
 Y. Zhao,  B. R. Brooks,  G. K. L. Chan,  D. M. Chipman,  C. J. Cramer,  
 W. A. Goddard III,  M. S. Gordon,  W. J. Hehre,  A. Klamt,  
 H. F. Schaefer III,  M. W. Schmidt,  C. D. Sherrill,  D. G. Truhlar,  
 A. Warshel,  X. Xu,  A. Aspuru-Guzik,  R. Baer,  A. T. Bell,  N. A. Besley,  
 J.-D. Chai,  A. Dreuw,  B. D. Dunietz,  T. R. Furlani,  S. R. Gwaltney,  
 C.-P. Hsu,  Y. Jung,  J. Kong,  D. S. Lambrecht,  W. Liang,  C. Ochsenfeld,  
 V. A. Rassolov,  L. V. Slipchenko,  J. E. Subotnik,  T. Van Voorhis,  
 J. M. Herbert,  A. I. Krylov,  P. M. W. Gill,  M. Head-Gordon

 Contributors to earlier versions of Q-Chem not listed above: 
 R. D. Adamson,  J. Baker,  E. F. C. Byrd,  A. K. Chakraborty,  C.-L. Cheng,  
 H. Dachsel,  R. J. Doerksen,  G. Hawkins,  A. Heyden,  S. Hirata,  
 G. Kedziora,  F. J. Keil,  C. Kelley,  P. P. Korambath,  W. Kurlancheek,  
 A. M. Lee,  M. S. Lee,  D. Liotard,  I. Lotan,  P. E. Maslen,  N. Nair,  
 D. Neuhauser,  R. Olson,  B. Peters,  J. Ritchie,  N. E. Schultz,  
 N. Shenvi,  A. C. Simmonett,  K. S. Thanthiriwatte,  Q. Wu,  W. Zhang

 Please cite Q-Chem as follows:
 Y. Shao et al., Mol. Phys. 113, 184-215 (2015)
 DOI: 10.1080/00268976.2014.952696

 Q-Chem 4.4.2 for Intel X86 Linux

 Parts of Q-Chem use Armadillo 5.200.1 (Boston Tea Smuggler).
 http://arma.sourceforge.net/

 Q-Chem begins on Tue Oct  9 09:32:01 2018  

Host: 
0

     Scratch files written to /tmpu/cab_g/afmv_a/scratch_qchem/qchem42978//
 Dec716 11556_ 22328  22283 4050   
Processing $rem in /tmpu/appuserlic/qchem4.4/serial-multicore/config/preferences.
 MEM_TOTAL  2000 
FILE_GEOM_ORG=        593

Checking the input file for inconsistencies... 	...done.

--------------------------------------------------------------
User input:
--------------------------------------------------------------
$comment
SP
$end

$rem
MEM_STATIC 5000
MEM_TOTAL 20000
JOBTYPE SP
EXCHANGE B3LYP
BASIS 6-31g(d,p)
$end

$molecule
0 1
O         -18.860000     -0.097000     10.389000
C         -20.210000     -0.123000      9.888000
H         -20.366000      0.764000      9.261000
H         -20.938000     -0.069000     10.707000
H         -20.372000     -1.063000      9.347000
O         -17.828000      0.822000      8.565000
C         -17.822000      0.498000      9.732000
C         -16.530000      0.673000     10.544000
H         -16.654000      1.415000     11.342000
H         -15.785000      1.043000      9.828000
C         -16.067000     -0.608000     11.238000
H         -16.811000     -0.873000     11.999000
H         -16.049000     -1.333000     10.414000
C         -14.726000     -0.439000     11.914000
H         -13.968000     -0.076000     11.209000
H         -14.816000      0.225000     12.783000
C         -14.247000     -1.806000     12.484000
C         -15.049000     -2.247000     13.699000
C         -16.138000     -3.134000     13.570000
H         -16.337000     -3.611000     12.615000
C         -16.894000     -3.473000     14.623000
H         -17.707000     -4.149000     14.373000
C         -16.713000     -2.758000     15.828000
H         -17.412000     -3.050000     16.606000
C         -15.652000     -1.814000     15.944000
H         -15.478000     -1.253000     16.858000
C         -14.805000     -1.527000     14.867000
H         -14.014000     -0.784000     14.819000
C         -10.079000     -4.667000     14.697000
C         -11.364000     -6.371000     13.548000
C          -8.539000     -7.296000     10.167000
C          -8.895000     -0.998000     11.497000
C         -10.322000     -5.151000      7.914000
C         -11.289000     -5.202000     14.376000
C          -8.674000     -2.130000      8.974000
C          -8.163000     -6.909000     12.523000
C         -13.360000     -4.824000     10.419000
C          -9.963000     -0.895000     10.561000
C         -13.487000     -2.730000     11.654000
C         -13.082000     -3.787000      9.547000
C         -11.129000     -1.922000      8.862000
C          -8.769000     -3.332000      8.185000
C         -13.004000     -4.935000     12.770000
C          -7.992000     -5.526000      8.661000
C         -12.754000     -2.055000     12.727000
C         -11.570000     -1.234000     12.310000
C          -9.278000     -6.006000      8.370000
C          -6.754000     -3.661000     12.089000
C          -6.935000     -5.619000     10.892000
C          -7.173000     -5.901000     12.237000
C          -9.045000     -6.634000     13.558000
C         -10.532000     -1.338000     13.263000
C         -13.560000     -4.235000     11.683000
C         -10.279000     -7.150000     13.196000
C          -9.838000     -1.465000      9.334000
C         -12.469000     -6.203000     12.650000
C         -12.210000     -4.083000      8.491000
C          -8.184000     -2.129000     13.259000
C          -8.865000     -7.640000     11.523000
C         -13.147000     -2.515000     10.138000
C          -7.913000     -4.450000     13.995000
C         -11.226000     -3.151000      8.174000
C         -12.861000     -6.117000     10.303000
C          -7.025000     -3.535000      9.647000
C          -7.633000     -2.272000      9.831000
C         -11.897000     -6.350000      9.278000
C          -9.150000     -1.176000     12.844000
C         -11.276000     -1.106000     10.955000
C          -7.261000     -2.389000     12.243000
C         -12.085000     -2.902000     13.813000
C         -11.190000     -7.522000     11.026000
C         -12.011000     -1.722000      9.900000
C         -11.595000     -5.307000      8.376000
C          -8.510000     -3.150000     14.165000
C          -9.580000     -7.038000      9.266000
C          -8.890000     -5.442000     14.298000
C          -7.558000     -6.296000      9.815000
C         -12.352000     -6.835000     11.406000
C         -10.888000     -7.227000      9.702000
C         -12.250000     -4.310000     13.808000
C         -10.815000     -2.382000     14.215000
C          -6.625000     -4.235000     10.798000
C         -10.167000     -7.626000     11.919000
C         -10.066000     -3.832000      7.835000
C          -7.747000     -1.683000     11.125000
C          -7.746000     -4.137000      8.622000
C          -9.820000     -3.290000     14.609000
C          -7.054000     -4.678000     12.952000
O         -11.098000      8.472000     10.304000
C         -10.966000      9.543000      9.399000
H         -11.983000      9.900000      9.194000
H         -10.508000      9.367000      8.418000
H         -10.364000     10.387000      9.757000
O          -8.917000      8.180000     11.046000
C         -10.109000      7.885000     11.085000
C         -10.644000      6.788000     11.959000
H          -9.921000      6.675000     12.776000
H         -10.496000      5.837000     11.432000
C         -12.161000      6.895000     12.417000
H         -12.300000      6.386000     13.379000
H         -12.254000      7.911000     12.821000
C         -13.260000      6.507000     11.431000
H         -14.286000      6.681000     11.776000
H         -13.148000      7.215000     10.600000
C         -13.142000      5.091000     10.831000
C         -13.430000      4.021000     11.840000
C         -14.711000      3.768000     12.324000
H         -15.579000      4.181000     11.819000
C         -14.927000      2.980000     13.439000
H         -15.939000      2.918000     13.827000
C         -13.853000      2.248000     13.999000
H         -14.094000      1.624000     14.854000
C         -12.574000      2.352000     13.437000
H         -11.746000      1.761000     13.818000
C         -12.343000      3.301000     12.369000
H         -11.358000      3.499000     11.957000
C         -10.160000      1.695000      7.632000
C         -12.464000      0.934000      7.395000
C         -13.138000      2.222000      3.133000
C          -9.941000      6.713000      6.498000
C         -14.938000      5.163000      4.053000
C         -11.445000      1.524000      8.175000
C         -11.935000      7.223000      4.521000
C         -11.152000      1.240000      4.237000
C         -15.137000      3.905000      7.937000
C         -11.193000      7.248000      6.857000
C         -13.628000      4.927000      9.403000
C         -15.079000      5.290000      7.620000
C         -13.430000      7.249000      6.474000
C         -12.933000      6.585000      3.818000
C         -13.468000      2.385000      8.842000
C         -12.975000      4.481000      2.694000
C         -12.155000      4.923000      9.655000
C         -11.286000      5.901000      8.962000
C         -14.297000      4.183000      3.188000
C          -9.268000      4.264000      4.125000
C         -10.881000      3.225000      2.958000
C         -10.302000      2.265000      3.691000
C         -10.951000      0.810000      5.550000
C         -10.092000      5.233000      8.442000
C         -14.212000      3.633000      8.936000
C         -12.239000      0.526000      6.082000
C         -12.182000      7.431000      5.937000
C         -13.721000      1.460000      7.801000
C         -15.315000      5.715000      6.255000
C          -8.715000      4.782000      6.433000
C         -12.577000      1.192000      3.984000
C         -14.135000      5.924000      8.406000
C          -9.038000      2.433000      5.760000
C         -14.509000      6.695000      5.709000
C         -15.389000      2.927000      6.888000
C         -10.924000      5.736000      3.233000
C         -10.629000      6.754000      4.128000
C         -15.608000      3.362000      5.567000
C          -9.392000      5.705000      7.286000
C         -11.875000      6.759000      7.990000
C          -8.971000      5.186000      5.148000
C         -11.387000      3.624000      9.364000
C         -14.507000      1.353000      5.460000
C         -13.234000      6.832000      7.773000
C         -15.554000      4.746000      5.280000
C          -8.791000      3.387000      6.778000
C         -14.372000      2.806000      3.502000
C          -9.907000      1.397000      6.268000
C         -12.261000      3.245000      2.648000
C         -14.726000      1.691000      6.836000
C         -15.086000      2.354000      4.705000
C         -12.030000      2.387000      9.068000
C         -10.123000      3.858000      8.752000
C         -10.262000      4.463000      3.178000
C         -13.247000      0.748000      5.132000
C         -14.270000      6.352000      4.350000
C          -9.735000      6.383000      5.188000
C         -12.307000      5.664000      3.019000
C          -9.443000      2.893000      7.933000
C          -9.246000      2.879000      4.476000
$end

--------------------------------------------------------------
 ----------------------------------------------------------------
             Standard Nuclear Orientation (Angstroms)
    I     Atom           X                Y                Z
 ----------------------------------------------------------------
    1      O      -0.1022627082     5.7402119963     4.1569176808
    2      C      -0.5161493114     6.4261531477     5.3537299536
    3      H      -1.6057431872     6.3358268415     5.4478593546
    4      H      -0.2868353414     7.4974901987     5.2961710601
    5      H       0.0234543221     6.0058318068     6.2108664008
    6      O      -1.6050478636     4.0151479448     4.2054129876
    7      C      -0.7739820263     4.6777903439     3.6247791743
    8      C      -0.3522753640     4.2629894385     2.2072684337
    9      H      -0.6414706545     5.0167135077     1.4649678804
   10      H      -0.8995931638     3.3341411304     2.0016837879
   11      C       1.1573585933     4.0826411508     2.0477510043
   12      H       1.6346049703     5.0614656968     2.1782132742
   13      H       1.4037540502     3.3952399091     2.8673202885
   14      C       1.5276937246     3.5442179704     0.6851173891
   15      H       0.9935713864     2.6111167747     0.4674169379
   16      H       1.3447884569     4.3007548412    -0.0884164668
   17      C       3.0562857043     3.2554221251     0.6300399933
   18      C       3.8913188859     4.5264329973     0.5959673029
   19      C       4.4402485115     5.0690392436     1.7764696230
   20      H       4.3769818665     4.5137187494     2.7074752516
   21      C       5.1172766406     6.2252460551     1.7672652063
   22      H       5.4668893928     6.5304566163     2.7496411205
   23      C       5.0882255565     7.0023175673     0.5877199975
   24      H       5.6036561237     7.9525376769     0.6904919471
   25      C       4.4794205480     6.4845348883    -0.5919284920
   26      H       4.4466114498     7.0505244258    -1.5187361346
   27      C       3.8499211715     5.2342164749    -0.6038196690
   28      H       3.2987328898     4.7717231832    -1.4176534563
   29      C       7.2063342108     0.9320471425    -2.1688776696
   30      C       7.9577441353     0.8037581902     0.1319845753
   31      C       7.5951040137    -3.6337382213     0.7987144608
   32      C       2.6869520005    -1.1892324404    -2.5916948512
   33      C       4.4046079997    -3.2677851350     2.3933732089
   34      C       7.3407558842     1.5187451633    -0.9477788833
   35      C       2.5195368724    -3.1863202600    -0.6735169618
   36      C       8.4212419462    -2.3460121167    -1.0724185105
   37      C       4.8442929447     0.6489216364     2.6717312802
   38      C       1.9984741797    -0.9606583026    -1.3665086802
   39      C       3.5835662871     1.9681641099     1.0604095894
   40      C       3.5737444063     0.1121006671     2.5689370260
   41      C       1.9201605493    -1.3806121710     0.8958776095
   42      C       3.1805810674    -3.8688047117     0.4098045719
   43      C       6.0984161810     1.8424644071     1.0380579461
   44      C       5.4289914727    -4.6152308930     0.5871167405
   45      C       3.6095496971     2.2415281474    -0.3779366712
   46      C       2.8756906918     1.2696087286    -1.2534991212
   47      C       5.5183277522    -3.9411927055     1.8145402823
   48      C       5.6011657077    -2.9801930782    -3.1624246150
   49      C       6.7155203500    -4.0166811040    -1.4352186911
   50      C       7.5573119069    -3.0507438175    -1.9861679931
   51      C       8.5367938811    -0.9764927712    -1.2617291351
   52      C       3.5685554530     1.0739322582    -2.4692779421
   53      C       4.8958276969     1.7207271020     1.7589365534
   54      C       8.6318458715    -0.3937014627    -0.0081839983
   55      C       1.9366155405    -1.9491142127    -0.4363568525
   56      C       7.2250489333     1.0977413372     1.3288073066
   57      C       3.4651090310    -1.2676691580     2.7870415540
   58      C       4.6047661871    -0.8491286596    -3.6384250763
   59      C       8.4828987901    -2.6083823439     0.3256248713
   60      C       2.7349334225     0.8039984230     1.6805882045
   61      C       7.0104383089    -1.0809743132    -3.2369686838
   62      C       2.6518495003    -2.0036455314     1.9301187375
   63      C       5.9891938926    -0.0717318223     2.9944794975
   64      C       4.3039033818    -4.2913733138    -1.5343589383
   65      C       3.2008119381    -3.4528699583    -1.8150551973
   66      C       5.8540127601    -1.4872021601     3.1057439761
   67      C       3.4366589799    -0.1872199269    -3.1790860053
   68      C       2.1715414486     0.2228077982    -0.6642397085
   69      C       4.4911975065    -2.2340699357    -3.4941170156
   70      C       4.9564104953     2.2470302167    -1.1061548511
   71      C       7.8003282350    -1.1616666430     2.0884830954
   72      C       2.1023800395    -0.0251577520     0.7380569026
   73      C       4.5677253832    -2.0595787750     3.0032413183
   74      C       5.8702145567    -0.2516379016    -3.5326034436
   75      C       6.7922251327    -3.3702600591     1.9158584803
   76      C       7.8703701092    -0.3718176471    -2.3492659623
   77      C       6.7057871105    -4.3750833469    -0.0648756332
   78      C       7.2079584965     0.0913420877     2.3022123957
   79      C       6.9666265728    -2.1593541634     2.5791623696
   80      C       6.1545908645     2.0674433592    -0.3700662942
   81      C       4.8820337946     1.6634531572    -2.4095388781
   82      C       5.5133162697    -4.0128514406    -2.1935607532
   83      C       8.4627701089    -1.3839924801     0.9194937945
   84      C       3.2579624036    -3.2280254764     1.6896964035
   85      C       3.2792540297    -2.4263220669    -2.8021718392
   86      C       4.2387403440    -4.5278862825    -0.1658979801
   87      C       6.0054410845     0.9762316302    -2.8947271240
   88      C       6.8468060402    -2.4283754395    -3.0486904708
   89      O      -6.4416792174     1.7171981906    -4.6357376771
   90      C      -7.7790677303     1.2757527562    -4.6385473067
   91      H      -8.3375307291     1.9813675609    -4.0108612177
   92      H      -8.0185639634     0.2777746833    -4.2515300973
   93      H      -8.2555577208     1.2318674041    -5.6254289434
   94      O      -5.5140636226     0.4954523507    -6.3791410758
   95      C      -5.4166581677     1.3468407826    -5.4987662038
   96      C      -4.1312545267     2.0639491157    -5.2038032935
   97      H      -3.5413841681     2.0156546560    -6.1272249769
   98      H      -3.5293148829     1.4187735870    -4.5515370884
   99      C      -4.2352090624     3.5076788783    -4.5500909508
  100      H      -3.3610860022     4.1098713199    -4.8277942800
  101      H      -4.9432966030     4.0480599695    -5.1909663765
  102      C      -4.5245722578     3.6233854187    -3.0556271883
  103      H      -4.6667562637     4.6436794374    -2.6804461336
  104      H      -5.5143259425     3.1663066079    -2.9297875903
  105      C      -3.5567972245     2.8556211681    -2.1320853427
  106      C      -2.1946624147     3.4792928844    -2.0927489693
  107      C      -1.9380008212     4.6867074878    -1.4481554527
  108      H      -2.6639300699     5.1038254339    -0.7567385416
  109      C      -0.7607104242     5.3835031192    -1.6463678871
  110      H      -0.6752614743     6.3702588022    -1.2019090039
  111      C       0.2993149277     4.7794723419    -2.3635799014
  112      H       1.2080346728     5.3658294066    -2.4578975434
  113      C       0.1353571477     3.4926523881    -2.8924591436
  114      H       0.9519508535     2.9893040087    -3.4022052849
  115      C      -1.1577052691     2.8485612843    -2.8045828874
  116      H      -1.3767870002     1.8957530789    -3.2771637999
  117      C      -1.6605032616    -2.1099812135    -0.5810846353
  118      C      -1.4529713883    -0.7019661970     1.3983421088
  119      C      -4.6763800453    -2.6130879992     3.8953631515
  120      C      -6.5268328326    -1.9210190825    -2.2536188859
  121      C      -7.0713399369    -0.0638036577     3.1874101417
  122      C      -1.4480683510    -0.8449223948    -0.0067915097
  123      C      -8.1964736277    -1.5713878229     0.0343327303
  124      C      -3.0073753055    -3.6077943160     2.3616361478
  125      C      -4.1816892387     2.2667817880     1.4768805971
  126      C      -7.0102211515    -0.6464308989    -1.9009565896
  127      C      -4.1573841158     2.2827423189    -0.8618959041
  128      C      -5.5270748980     2.3182330435     1.0193129014
  129      C      -7.5243204569     0.7816224135    -0.2135844785
  130      C      -8.1203080039    -1.4057501211     1.3996238895
  131      C      -2.1852867681     1.2686636922     0.5108974491
  132      C      -6.8239121530    -2.5309901002     3.0564729434
  133      C      -3.8160484087     1.3415767915    -1.9713761361
  134      C      -4.8631118731     0.4640564268    -2.5419110702
  135      C      -6.5295063503    -1.2962454148     3.7414946840
  136      C      -5.4105002293    -4.4410193711    -0.1358230827
  137      C      -5.2950384895    -4.1943982620     2.0933080519
  138      C      -4.0291041274    -4.3684193539     1.6917400619
  139      C      -1.9864336367    -3.0211417443     1.6114449261
  140      C      -4.3482784534    -0.8970918380    -2.6983781628
  141      C      -3.3378715380     2.1487033133     0.3806875659
  142      C      -1.6812912164    -1.7848241028     2.2447148470
  143      C      -7.7490204785    -0.4496996685    -0.7724698252
  144      C      -1.9071930879     0.6040825080     1.7292203761
  145      C      -6.5733103560     1.7238385050     1.8265504742
  146      C      -4.6945253059    -3.2877862092    -2.1503776695
  147      C      -3.2967835278    -2.7141440986     3.4637115399
  148      C      -5.5688122673     2.2443929958    -0.3604311471
  149      C      -3.0149398310    -3.9709941760    -0.4808632171
  150      C      -7.5624399462     0.9864751232     1.2052052423
  151      C      -3.8610892036     1.5851321932     2.7230581316
  152      C      -7.3570931800    -3.4546159289     0.8350363989
  153      C      -7.7784401026    -2.8936769929    -0.3617042918
  154      C      -4.8928216778     1.0079305119     3.4876451578
  155      C      -5.1977640179    -2.0481747837    -2.6483548904
  156      C      -6.1540672781     0.4730955827    -1.9408940687
  157      C      -5.6878843228    -3.8212654144    -1.3702399887
  158      C      -2.7080628872     0.3085232540    -1.7123887377
  159      C      -3.0310013093    -0.3086385473     3.7325978635
  160      C      -6.5220123639     1.3659421028    -0.9576644388
  161      C      -6.2238391962     1.0810758036     3.0145879391
  162      C      -3.3299660194    -3.3102719367    -1.6939805334
  163      C      -5.1950238302    -1.3352001477     4.2083875329
  164      C      -2.0043230684    -3.2224978721     0.2297196720
  165      C      -5.6636880548    -3.3558137188     3.1711640079
  166      C      -2.7112825132     0.7945840423     2.8745414497
  167      C      -4.3429457305    -0.1397701656     4.1295264533
  168      C      -1.8666012453     0.3384953915    -0.5624852738
  169      C      -3.0108596896    -0.9709798586    -2.2584490653
  170      C      -6.1766508588    -4.2541821487     1.0054705102
  171      C      -2.4709496392    -1.5845377506     3.3867187666
  172      C      -7.8668417519    -0.1220143840     2.0420096119
  173      C      -6.8244425956    -2.9712102898    -1.4314492823
  174      C      -7.6010389143    -2.5728171276     1.8964460055
  175      C      -2.4546562323    -2.2003214618    -1.7647457772
  176      C      -4.0372219843    -4.5307276807     0.2488446715
 ----------------------------------------------------------------
 Molecular Point Group                 C1    NOp =  1
 Largest Abelian Subgroup              C1    NOp =  1
 Nuclear Repulsion Energy = 35550.5770282656 hartrees
 There are      462 alpha and      462 beta electrons
 Requested basis set is 6-31G(d,p)
 There are 676 shells and 2360 basis functions

 Total QAlloc Memory Limit  20000 MB
 Mega-Array Size      4888 MB
 MEM_STATIC part      5000 MB
 A cutoff of  1.0D-08 yielded  39476 shell pairs
 There are    544655 function pairs
 
 -------------------------------------------------------
 OpenMP Integral Computing Module                       
 Release: version 1.0, May 2013, Q-Chem Inc. Pittsburgh 
 -------------------------------------------------------
 Integral Job Info:
 Integral job number is                      11
 Integral operator is                         1
 short-range coefficients                     0
 long-range coefficients              100000000
 Omega coefficients                           0
 if combine SR and LR in K                    0
 Integral screening is                        0
 Integral computing path is                   2
 max size of driver memory is            800000
 size of driver memory is                593474
 size of scratch memory is              2260544
 max col of scratch BK array               1296
 max len of scratch array in speh3          155
 max len of scratch index in speh4           18
 max int batch size is                      520
 min int batch size is                       52
 fixed nKL is                                52
 max L of basis functions is                  2
 order of int derivative is                   0
 number of shells is                        676
 number of basis is                        2360
 number of cartesian basis is              2360
 number of contracted shell pairs         39476
 number of primitive shell pairs         117711
 maxK2 (contraction) of shell pair           36
 max number of K2 of shell pair               1
 max number of CS2 of shell pair           7367
 max number of PS2 of shell pair          34902
 mem total for path MDJ                 1538568
 -------------------------------------------------------
 Smallest overlap matrix eigenvalue = 2.50E-04

 Scale SEOQF with 1.000000e-02/1.000000e-02/1.000000e-02

 Standard Electronic Orientation quadrupole field applied
 Nucleus-field energy     =     0.0000000815 hartrees
 Guess from superposition of atomic densities
 Warning:  Energy on first SCF cycle will be non-variational
 A restricted hybrid HF-DFT SCF calculation will be
 performed using Pulay DIIS extrapolation
 Exchange:     0.2000 Hartree-Fock + 0.0800 Slater + 0.7200 B88
 Correlation:  0.1900 VWN1RPA + 0.8100 LYP
 Using SG-1 standard quadrature grid
 SCF converges when DIIS error is below 1.0E-05
 using 16 threads for integral computing 
 -------------------------------------------------------
 OpenMP BLAS3 based DFT computing Module                
 Release: version 1.0, May 2013, Q-Chem Inc. Pittsburgh 
 -------------------------------------------------------
 ---------------------------------------
  Cycle       Energy         DIIS Error
 ---------------------------------------
    1   -5857.6903687672      1.82E-02
    2   -5803.1106438703      1.29E-03
    3   -5802.1252512700      1.86E-03
    4   -5803.8244999346      7.63E-04
    5   -5804.1694218839      3.36E-04
    6   -5804.2443392126      1.44E-04
    7   -5804.2575808605      5.28E-05
    8   -5804.2588251179      3.43E-05
    9   -5804.2596910844      9.82E-06 Convergence criterion met
 ---------------------------------------
 SCF time:  CPU 7487.66 s  wall 857.27 s
 SCF   energy in the final basis set = -5804.2596910844
 Total energy in the final basis set = -5804.2596910844
 
 --------------------------------------------------------------
 
                    Orbital Energies (a.u.)
 --------------------------------------------------------------
 
 Alpha MOs
 -- Occupied --
-19.196 -19.192 -19.140 -19.133 -10.326 -10.317 -10.251 -10.248
-10.246 -10.244 -10.241 -10.235 -10.235 -10.233 -10.232 -10.231
-10.231 -10.230 -10.229 -10.229 -10.228 -10.226 -10.226 -10.226
-10.226 -10.225 -10.225 -10.224 -10.223 -10.223 -10.223 -10.223
-10.222 -10.221 -10.221 -10.221 -10.221 -10.221 -10.220 -10.220
-10.220 -10.220 -10.219 -10.219 -10.219 -10.219 -10.219 -10.218
-10.218 -10.218 -10.218 -10.218 -10.218 -10.218 -10.218 -10.217
-10.217 -10.217 -10.217 -10.217 -10.217 -10.217 -10.217 -10.217
-10.217 -10.217 -10.216 -10.216 -10.216 -10.216 -10.216 -10.216
-10.216 -10.216 -10.216 -10.216 -10.215 -10.215 -10.215 -10.215
-10.215 -10.215 -10.215 -10.214 -10.214 -10.214 -10.214 -10.214
-10.214 -10.214 -10.214 -10.214 -10.214 -10.213 -10.213 -10.213
-10.213 -10.213 -10.212 -10.212 -10.212 -10.212 -10.212 -10.212
-10.212 -10.211 -10.211 -10.211 -10.211 -10.211 -10.210 -10.210
-10.210 -10.210 -10.210 -10.210 -10.209 -10.209 -10.209 -10.209
-10.209 -10.208 -10.208 -10.208 -10.208 -10.208 -10.208 -10.207
-10.207 -10.207 -10.206 -10.206 -10.206 -10.206 -10.205 -10.205
-10.205 -10.204 -10.204 -10.204 -10.203 -10.202 -10.201 -10.198
-10.196 -10.194 -10.191 -10.191  -1.091  -1.089  -1.013  -1.013
 -0.983  -0.979  -0.966  -0.964  -0.962  -0.961  -0.960  -0.954
 -0.933  -0.932  -0.931  -0.925  -0.924  -0.923  -0.922  -0.920
 -0.919  -0.912  -0.899  -0.896  -0.888  -0.887  -0.882  -0.881
 -0.875  -0.874  -0.859  -0.857  -0.843  -0.839  -0.838  -0.835
 -0.834  -0.831  -0.821  -0.818  -0.807  -0.804  -0.798  -0.796
 -0.795  -0.793  -0.793  -0.792  -0.791  -0.786  -0.781  -0.781
 -0.773  -0.770  -0.768  -0.767  -0.766  -0.765  -0.764  -0.760
 -0.757  -0.756  -0.749  -0.741  -0.733  -0.731  -0.717  -0.715
 -0.713  -0.713  -0.713  -0.712  -0.710  -0.710  -0.708  -0.708
 -0.707  -0.706  -0.705  -0.704  -0.702  -0.701  -0.672  -0.671
 -0.659  -0.655  -0.654  -0.653  -0.649  -0.646  -0.634  -0.632
 -0.630  -0.627  -0.624  -0.623  -0.623  -0.621  -0.619  -0.618
 -0.617  -0.613  -0.612  -0.612  -0.611  -0.610  -0.609  -0.605
 -0.604  -0.604  -0.602  -0.599  -0.580  -0.568  -0.567  -0.565
 -0.562  -0.561  -0.557  -0.556  -0.556  -0.554  -0.553  -0.552
 -0.539  -0.537  -0.533  -0.531  -0.530  -0.529  -0.526  -0.524
 -0.522  -0.520  -0.519  -0.517  -0.516  -0.514  -0.512  -0.511
 -0.508  -0.505  -0.499  -0.498  -0.496  -0.493  -0.487  -0.485
 -0.483  -0.482  -0.481  -0.480  -0.479  -0.478  -0.476  -0.473
 -0.473  -0.472  -0.471  -0.468  -0.467  -0.467  -0.467  -0.466
 -0.464  -0.464  -0.462  -0.462  -0.460  -0.460  -0.459  -0.458
 -0.457  -0.454  -0.451  -0.451  -0.450  -0.449  -0.444  -0.444
 -0.442  -0.441  -0.441  -0.439  -0.438  -0.435  -0.435  -0.434
 -0.433  -0.431  -0.429  -0.428  -0.427  -0.425  -0.425  -0.424
 -0.424  -0.422  -0.421  -0.421  -0.419  -0.419  -0.418  -0.417
 -0.417  -0.416  -0.415  -0.414  -0.413  -0.413  -0.412  -0.412
 -0.412  -0.410  -0.409  -0.407  -0.402  -0.397  -0.396  -0.395
 -0.395  -0.394  -0.393  -0.392  -0.391  -0.386  -0.384  -0.383
 -0.381  -0.381  -0.377  -0.376  -0.371  -0.370  -0.369  -0.366
 -0.365  -0.364  -0.363  -0.362  -0.360  -0.360  -0.359  -0.358
 -0.356  -0.356  -0.355  -0.354  -0.353  -0.353  -0.353  -0.350
 -0.349  -0.348  -0.347  -0.347  -0.346  -0.345  -0.343  -0.343
 -0.341  -0.341  -0.340  -0.339  -0.337  -0.337  -0.335  -0.333
 -0.332  -0.329  -0.327  -0.326  -0.326  -0.326  -0.322  -0.319
 -0.312  -0.310  -0.300  -0.299  -0.287  -0.286  -0.272  -0.272
 -0.270  -0.269  -0.268  -0.267  -0.267  -0.266  -0.264  -0.264
 -0.263  -0.262  -0.261  -0.259  -0.258  -0.257  -0.256  -0.254
 -0.251  -0.246  -0.245  -0.244  -0.220  -0.217  -0.214  -0.213
 -0.209  -0.208  -0.207  -0.204  -0.199  -0.198
 -- Virtual --
 -0.124  -0.122  -0.120  -0.117  -0.112  -0.107  -0.084  -0.075
 -0.073  -0.072  -0.063  -0.062  -0.057  -0.054  -0.026  -0.025
 -0.024  -0.023  -0.021  -0.020  -0.018  -0.017  -0.015  -0.015
 -0.012  -0.010  -0.010  -0.009  -0.008  -0.003  -0.002   0.001
  0.009   0.011   0.031   0.035   0.038   0.041   0.043   0.047
  0.048   0.050   0.053   0.057   0.058   0.062   0.065   0.066
  0.069   0.070   0.075   0.079   0.080   0.083   0.086   0.088
  0.089   0.093   0.095   0.097   0.098   0.103   0.104   0.106
  0.107   0.108   0.108   0.109   0.113   0.113   0.115   0.116
  0.119   0.121   0.124   0.125   0.127   0.128   0.132   0.134
  0.140   0.141   0.143   0.146   0.147   0.149   0.152   0.153
  0.155   0.158   0.158   0.160   0.162   0.164   0.165   0.166
  0.170   0.172   0.173   0.176   0.178   0.178   0.179   0.181
  0.182   0.183   0.184   0.185   0.187   0.187   0.188   0.191
  0.194   0.194   0.197   0.199   0.201   0.203   0.204   0.206
  0.207   0.208   0.209   0.213   0.214   0.216   0.218   0.219
  0.219   0.220   0.221   0.223   0.224   0.225   0.228   0.229
  0.230   0.230   0.232   0.233   0.234   0.237   0.240   0.241
  0.242   0.242   0.246   0.247   0.249   0.254   0.258   0.259
  0.264   0.265   0.267   0.268   0.270   0.271   0.274   0.277
  0.279   0.280   0.286   0.287   0.291   0.294   0.296   0.302
  0.304   0.308   0.309   0.309   0.311   0.314   0.315   0.316
  0.317   0.318   0.323   0.323   0.325   0.325   0.328   0.330
  0.332   0.334   0.336   0.340   0.342   0.344   0.348   0.351
  0.351   0.353   0.355   0.359   0.363   0.369   0.376   0.388
  0.390   0.391   0.393   0.394   0.396   0.397   0.398   0.401
  0.402   0.404   0.406   0.409   0.412   0.413   0.414   0.419
  0.420   0.423   0.428   0.430   0.432   0.434   0.435   0.439
  0.442   0.442   0.444   0.449   0.452   0.456   0.457   0.460
  0.462   0.463   0.463   0.466   0.468   0.468   0.470   0.471
  0.472   0.473   0.475   0.476   0.477   0.479   0.479   0.480
  0.482   0.484   0.485   0.486   0.486   0.487   0.488   0.490
  0.493   0.493   0.495   0.495   0.498   0.499   0.500   0.501
  0.501   0.502   0.503   0.504   0.505   0.507   0.508   0.509
  0.510   0.510   0.511   0.512   0.513   0.513   0.514   0.515
  0.515   0.517   0.519   0.520   0.521   0.521   0.522   0.523
  0.524   0.524   0.526   0.526   0.527   0.528   0.528   0.529
  0.530   0.531   0.532   0.533   0.535   0.536   0.536   0.537
  0.538   0.539   0.540   0.540   0.541   0.541   0.543   0.543
  0.544   0.546   0.546   0.546   0.547   0.548   0.549   0.549
  0.550   0.551   0.552   0.552   0.553   0.554   0.554   0.555
  0.556   0.557   0.557   0.558   0.559   0.559   0.561   0.561
  0.563   0.563   0.564   0.565   0.566   0.566   0.567   0.568
  0.569   0.570   0.572   0.572   0.574   0.575   0.575   0.577
  0.577   0.578   0.580   0.580   0.582   0.582   0.583   0.584
  0.585   0.585   0.587   0.587   0.587   0.588   0.589   0.590
  0.591   0.592   0.593   0.594   0.595   0.597   0.598   0.599
  0.600   0.600   0.602   0.604   0.604   0.605   0.605   0.606
  0.608   0.609   0.610   0.612   0.613   0.614   0.615   0.616
  0.617   0.619   0.620   0.621   0.622   0.624   0.624   0.625
  0.626   0.628   0.629   0.630   0.631   0.632   0.633   0.634
  0.634   0.636   0.637   0.638   0.638   0.639   0.640   0.641
  0.642   0.643   0.644   0.645   0.646   0.646   0.647   0.649
  0.650   0.650   0.651   0.652   0.654   0.655   0.656   0.656
  0.657   0.658   0.659   0.661   0.661   0.662   0.663   0.663
  0.664   0.664   0.665   0.666   0.667   0.668   0.668   0.670
  0.670   0.671   0.672   0.674   0.675   0.676   0.677   0.677
  0.677   0.678   0.679   0.680   0.683   0.684   0.685   0.686
  0.687   0.688   0.690   0.691   0.693   0.693   0.693   0.694
  0.696   0.698   0.698   0.700   0.701   0.702   0.703   0.704
  0.705   0.707   0.709   0.710   0.712   0.712   0.714   0.714
  0.715   0.716   0.717   0.719   0.719   0.722   0.723   0.725
  0.725   0.726   0.727   0.728   0.732   0.732   0.732   0.735
  0.736   0.738   0.739   0.741   0.742   0.744   0.745   0.747
  0.748   0.751   0.752   0.754   0.756   0.757   0.758   0.759
  0.760   0.761   0.761   0.763   0.765   0.766   0.767   0.769
  0.771   0.772   0.772   0.773   0.775   0.777   0.777   0.777
  0.780   0.781   0.781   0.783   0.784   0.785   0.785   0.786
  0.788   0.790   0.791   0.792   0.793   0.794   0.797   0.798
  0.799   0.800   0.801   0.802   0.803   0.803   0.804   0.805
  0.806   0.807   0.808   0.809   0.810   0.810   0.811   0.812
  0.813   0.813   0.814   0.815   0.816   0.817   0.817   0.818
  0.818   0.821   0.822   0.823   0.824   0.824   0.825   0.826
  0.827   0.828   0.830   0.830   0.833   0.834   0.835   0.836
  0.838   0.839   0.841   0.842   0.849   0.850   0.851   0.854
  0.857   0.858   0.862   0.864   0.866   0.867   0.869   0.874
  0.875   0.878   0.878   0.882   0.883   0.885   0.887   0.890
  0.892   0.897   0.902   0.905   0.908   0.910   0.911   0.912
  0.915   0.917   0.919   0.919   0.924   0.926   0.927   0.929
  0.930   0.932   0.933   0.935   0.937   0.940   0.941   0.942
  0.943   0.945   0.946   0.948   0.949   0.950   0.954   0.955
  0.956   0.961   0.961   0.966   0.968   0.969   0.973   0.975
  0.979   0.981   0.985   0.986   0.989   0.991   0.993   0.995
  0.998   1.000   1.002   1.003   1.006   1.007   1.008   1.009
  1.011   1.012   1.016   1.017   1.017   1.020   1.022   1.023
  1.024   1.024   1.026   1.029   1.031   1.033   1.033   1.035
  1.036   1.037   1.039   1.039   1.041   1.041   1.044   1.045
  1.047   1.050   1.051   1.053   1.054   1.057   1.059   1.062
  1.062   1.063   1.065   1.066   1.068   1.069   1.071   1.073
  1.075   1.076   1.078   1.079   1.081   1.084   1.085   1.087
  1.089   1.090   1.092   1.093   1.095   1.096   1.097   1.099
  1.101   1.103   1.105   1.108   1.108   1.110   1.114   1.117
  1.119   1.120   1.123   1.124   1.127   1.128   1.132   1.133
  1.134   1.138   1.140   1.142   1.144   1.144   1.147   1.148
  1.149   1.150   1.154   1.155   1.157   1.160   1.160   1.163
  1.164   1.166   1.166   1.168   1.170   1.171   1.173   1.173
  1.175   1.179   1.180   1.181   1.183   1.186   1.186   1.187
  1.188   1.189   1.194   1.196   1.198   1.198   1.201   1.202
  1.205   1.209   1.211   1.218   1.218   1.219   1.221   1.222
  1.225   1.227   1.231   1.232   1.234   1.239   1.241   1.246
  1.247   1.249   1.252   1.254   1.255   1.258   1.260   1.261
  1.263   1.264   1.266   1.268   1.270   1.272   1.274   1.276
  1.278   1.281   1.283   1.283   1.285   1.287   1.289   1.291
  1.291   1.294   1.295   1.300   1.302   1.307   1.310   1.312
  1.316   1.317   1.319   1.321   1.324   1.326   1.327   1.332
  1.333   1.335   1.337   1.339   1.343   1.343   1.344   1.348
  1.350   1.352   1.354   1.355   1.356   1.359   1.361   1.361
  1.363   1.367   1.371   1.372   1.373   1.377   1.380   1.381
  1.385   1.386   1.389   1.390   1.393   1.395   1.397   1.399
  1.402   1.408   1.409   1.410   1.411   1.413   1.418   1.421
  1.425   1.429   1.430   1.433   1.437   1.441   1.442   1.445
  1.448   1.449   1.451   1.451   1.454   1.456   1.457   1.460
  1.461   1.465   1.467   1.470   1.471   1.474   1.476   1.478
  1.478   1.483   1.485   1.486   1.487   1.491   1.493   1.495
  1.497   1.501   1.504   1.505   1.510   1.511   1.514   1.517
  1.519   1.521   1.523   1.525   1.529   1.531   1.535   1.540
  1.542   1.544   1.545   1.547   1.549   1.551   1.555   1.556
  1.557   1.559   1.561   1.563   1.565   1.566   1.567   1.569
  1.573   1.576   1.578   1.580   1.581   1.583   1.586   1.587
  1.592   1.596   1.599   1.602   1.603   1.604   1.609   1.614
  1.620   1.622   1.625   1.632   1.633   1.636   1.642   1.647
  1.648   1.651   1.655   1.657   1.661   1.664   1.668   1.673
  1.676   1.682   1.684   1.688   1.690   1.692   1.694   1.699
  1.701   1.703   1.706   1.707   1.711   1.713   1.714   1.716
  1.719   1.720   1.723   1.725   1.726   1.728   1.730   1.732
  1.734   1.736   1.739   1.740   1.741   1.742   1.744   1.746
  1.746   1.748   1.750   1.751   1.754   1.754   1.756   1.756
  1.757   1.759   1.760   1.763   1.763   1.764   1.766   1.768
  1.768   1.771   1.771   1.773   1.773   1.774   1.775   1.776
  1.777   1.780   1.781   1.782   1.783   1.784   1.784   1.787
  1.789   1.790   1.791   1.791   1.793   1.794   1.795   1.797
  1.798   1.799   1.800   1.803   1.805   1.807   1.807   1.809
  1.809   1.812   1.814   1.816   1.818   1.819   1.820   1.822
  1.824   1.826   1.828   1.828   1.832   1.838   1.838   1.839
  1.841   1.842   1.843   1.844   1.847   1.849   1.852   1.855
  1.856   1.858   1.863   1.863   1.866   1.867   1.869   1.871
  1.873   1.873   1.877   1.878   1.878   1.881   1.885   1.886
  1.887   1.889   1.890   1.894   1.895   1.898   1.900   1.903
  1.904   1.907   1.911   1.913   1.915   1.919   1.921   1.924
  1.926   1.927   1.928   1.930   1.930   1.932   1.934   1.936
  1.937   1.940   1.943   1.944   1.945   1.947   1.950   1.951
  1.953   1.955   1.957   1.959   1.962   1.964   1.965   1.967
  1.969   1.972   1.973   1.976   1.976   1.978   1.979   1.981
  1.982   1.985   1.987   1.988   1.990   1.990   1.992   1.993
  1.995   1.995   1.996   1.998   1.998   2.000   2.002   2.003
  2.003   2.004   2.007   2.009   2.010   2.011   2.014   2.015
  2.017   2.018   2.019   2.020   2.022   2.024   2.024   2.025
  2.027   2.027   2.029   2.030   2.032   2.032   2.033   2.035
  2.036   2.037   2.038   2.041   2.042   2.043   2.044   2.046
  2.047   2.048   2.049   2.050   2.051   2.052   2.053   2.053
  2.055   2.055   2.057   2.059   2.062   2.063   2.064   2.064
  2.068   2.069   2.071   2.072   2.072   2.074   2.074   2.076
  2.077   2.080   2.081   2.083   2.085   2.086   2.087   2.087
  2.091   2.091   2.093   2.094   2.099   2.101   2.104   2.105
  2.106   2.108   2.111   2.115   2.116   2.118   2.119   2.121
  2.122   2.125   2.127   2.131   2.133   2.134   2.137   2.137
  2.145   2.147   2.150   2.156   2.157   2.159   2.164   2.166
  2.169   2.176   2.181   2.183   2.188   2.189   2.192   2.195
  2.197   2.203   2.204   2.208   2.209   2.215   2.217   2.222
  2.224   2.229   2.232   2.232   2.235   2.236   2.241   2.243
  2.246   2.248   2.251   2.253   2.256   2.257   2.259   2.262
  2.263   2.265   2.267   2.268   2.269   2.275   2.276   2.278
  2.280   2.281   2.283   2.283   2.284   2.287   2.290   2.292
  2.294   2.298   2.300   2.304   2.309   2.310   2.313   2.315
  2.316   2.319   2.320   2.323   2.327   2.330   2.331   2.332
  2.335   2.337   2.340   2.341   2.343   2.344   2.347   2.348
  2.350   2.353   2.354   2.356   2.359   2.360   2.361   2.364
  2.366   2.367   2.369   2.370   2.371   2.372   2.375   2.377
  2.379   2.381   2.383   2.385   2.385   2.387   2.388   2.389
  2.390   2.392   2.396   2.396   2.399   2.400   2.401   2.403
  2.405   2.407   2.409   2.410   2.412   2.415   2.417   2.420
  2.423   2.424   2.425   2.429   2.430   2.435   2.436   2.438
  2.442   2.443   2.446   2.447   2.452   2.453   2.454   2.456
  2.459   2.461   2.462   2.464   2.464   2.467   2.469   2.471
  2.473   2.476   2.477   2.481   2.484   2.485   2.488   2.488
  2.491   2.492   2.495   2.497   2.498   2.498   2.500   2.503
  2.503   2.505   2.506   2.509   2.511   2.513   2.515   2.516
  2.519   2.520   2.522   2.523   2.527   2.529   2.532   2.533
  2.537   2.538   2.541   2.545   2.549   2.551   2.556   2.561
  2.562   2.564   2.569   2.573   2.573   2.576   2.579   2.582
  2.584   2.588   2.591   2.593   2.594   2.596   2.598   2.600
  2.602   2.604   2.605   2.609   2.609   2.611   2.613   2.616
  2.617   2.617   2.619   2.620   2.623   2.624   2.626   2.629
  2.630   2.632   2.632   2.635   2.636   2.637   2.639   2.641
  2.644   2.647   2.649   2.650   2.653   2.655   2.656   2.658
  2.660   2.662   2.663   2.663   2.665   2.668   2.670   2.670
  2.673   2.673   2.675   2.676   2.678   2.678   2.682   2.684
  2.685   2.691   2.692   2.693   2.695   2.697   2.700   2.701
  2.705   2.707   2.712   2.715   2.715   2.718   2.722   2.722
  2.725   2.727   2.728   2.731   2.731   2.733   2.734   2.735
  2.736   2.739   2.741   2.744   2.747   2.750   2.753   2.754
  2.756   2.757   2.758   2.760   2.762   2.763   2.768   2.769
  2.773   2.778   2.779   2.781   2.782   2.784   2.787   2.791
  2.793   2.796   2.800   2.805   2.806   2.807   2.809   2.812
  2.816   2.819   2.825   2.831   2.833   2.834   2.838   2.839
  2.840   2.844   2.845   2.848   2.849   2.850   2.853   2.855
  2.856   2.856   2.862   2.862   2.865   2.868   2.870   2.872
  2.873   2.874   2.876   2.879   2.879   2.882   2.886   2.886
  2.888   2.889   2.892   2.893   2.896   2.898   2.901   2.902
  2.904   2.905   2.906   2.909   2.911   2.913   2.913   2.914
  2.917   2.918   2.920   2.921   2.923   2.926   2.930   2.933
  2.934   2.936   2.938   2.939   2.940   2.942   2.946   2.949
  2.952   2.954   2.957   2.959   2.962   2.965   2.967   2.968
  2.971   2.973   2.978   2.979   2.981   2.986   2.988   2.997
  2.998   3.004   3.005   3.007   3.013   3.014   3.015   3.017
  3.019   3.022   3.023   3.025   3.028   3.030   3.036   3.041
  3.045   3.047   3.049   3.052   3.056   3.059   3.060   3.061
  3.063   3.066   3.066   3.068   3.073   3.080   3.088   3.091
  3.109   3.115   3.118   3.126   3.130   3.139   3.145   3.148
  3.150   3.152   3.160   3.166   3.170   3.176   3.179   3.182
  3.184   3.184   3.193   3.207   3.214   3.219   3.220   3.231
  3.234   3.243   3.244   3.246   3.251   3.256   3.262   3.269
  3.279   3.285   3.289   3.292   3.298   3.308   3.317   3.321
  3.323   3.337   3.341   3.343   3.359   3.375   3.380   3.382
  3.404   3.408   3.419   3.424   3.424   3.431   3.439   3.445
  3.446   3.454   3.456   3.460   3.463   3.473   3.475   3.479
  3.487   3.492   3.498   3.504   3.512   3.517   3.524   3.540
  3.550   3.556   3.563   3.569   3.573   3.581   3.587   3.594
  3.601   3.608   3.640   3.696   3.853   3.868   3.990   4.053
  4.064   4.072   4.074   4.079   4.084   4.086   4.089   4.090
  4.092   4.098   4.102   4.107   4.114   4.117   4.118   4.122
  4.123   4.128   4.130   4.140   4.143   4.146   4.149   4.157
  4.158   4.161   4.166   4.167   4.171   4.176   4.181   4.184
  4.186   4.193   4.197   4.204   4.215   4.221   4.239   4.240
  4.243   4.246   4.250   4.255   4.257   4.264   4.264   4.270
  4.274   4.275   4.278   4.280   4.286   4.292   4.296   4.305
  4.310   4.316   4.333   4.348   4.380   4.385   4.389   4.392
  4.394   4.401   4.402   4.407   4.412   4.413   4.415   4.418
  4.422   4.424   4.425   4.431   4.437   4.457   4.459   4.476
  4.493   4.502   4.506   4.511   4.529   4.532   4.546   4.554
  4.555   4.564   4.605   4.615   4.619   4.625   4.630   4.651
  4.655   4.674   4.677   4.683   4.688   4.690   4.693   4.699
  4.701   4.705   4.711   4.714   4.761   4.764   4.777   4.842
  4.843   4.845   4.852   4.859   4.868   4.877   4.878   4.886
  4.892   4.911   4.933   4.946   4.954   4.960   4.966   4.969
  4.983   4.985   4.998   5.011   5.135   5.160   5.162   5.173
  5.179   5.194   5.194   5.206   5.294   5.308   5.315   5.324
  5.337   5.340
 --------------------------------------------------------------
 
          Ground-State Mulliken Net Atomic Charges

     Atom                 Charge (a.u.)
  ----------------------------------------
      1 O                    -0.473365
      2 C                    -0.082207
      3 H                     0.132860
      4 H                     0.124448
      5 H                     0.128688
      6 O                    -0.460707
      7 C                     0.583250
      8 C                    -0.255239
      9 H                     0.113394
     10 H                     0.138893
     11 C                    -0.189183
     12 H                     0.124684
     13 H                     0.106680
     14 C                    -0.163962
     15 H                     0.107516
     16 H                     0.110044
     17 C                    -0.004055
     18 C                     0.084899
     19 C                    -0.088631
     20 H                     0.089318
     21 C                    -0.084158
     22 H                     0.092119
     23 C                    -0.095006
     24 H                     0.092554
     25 C                    -0.110233
     26 H                     0.087192
     27 C                    -0.086779
     28 H                     0.098103
     29 C                    -0.013251
     30 C                    -0.007426
     31 C                    -0.019085
     32 C                     0.010976
     33 C                    -0.008818
     34 C                    -0.018351
     35 C                    -0.004234
     36 C                    -0.011687
     37 C                     0.044431
     38 C                    -0.007594
     39 C                    -0.078096
     40 C                     0.021321
     41 C                    -0.025213
     42 C                    -0.004491
     43 C                     0.034195
     44 C                    -0.021955
     45 C                    -0.099172
     46 C                     0.037098
     47 C                     0.009296
     48 C                     0.030188
     49 C                     0.011573
     50 C                    -0.001775
     51 C                     0.011755
     52 C                    -0.024264
     53 C                    -0.000603
     54 C                    -0.006421
     55 C                     0.008196
     56 C                    -0.005881
     57 C                    -0.015405
     58 C                     0.002047
     59 C                    -0.025119
     60 C                    -0.030441
     61 C                    -0.025603
     62 C                    -0.014846
     63 C                    -0.018801
     64 C                    -0.003900
     65 C                    -0.001229
     66 C                    -0.019318
     67 C                    -0.029356
     68 C                     0.019555
     69 C                    -0.007130
     70 C                     0.022279
     71 C                     0.012412
     72 C                     0.048032
     73 C                     0.017884
     74 C                    -0.002979
     75 C                     0.019736
     76 C                     0.005512
     77 C                    -0.015747
     78 C                    -0.022278
     79 C                    -0.004457
     80 C                    -0.005777
     81 C                    -0.014945
     82 C                    -0.014867
     83 C                     0.043494
     84 C                     0.018452
     85 C                    -0.002871
     86 C                     0.013422
     87 C                     0.036284
     88 C                     0.004225
     89 O                    -0.466696
     90 C                    -0.088914
     91 H                     0.122425
     92 H                     0.125486
     93 H                     0.123896
     94 O                    -0.466664
     95 C                     0.614138
     96 C                    -0.274359
     97 H                     0.141318
     98 H                     0.144215
     99 C                    -0.191709
    100 H                     0.109149
    101 H                     0.109073
    102 C                    -0.178724
    103 H                     0.107902
    104 H                     0.125823
    105 C                    -0.004775
    106 C                     0.113023
    107 C                    -0.103127
    108 H                     0.092154
    109 C                    -0.091944
    110 H                     0.096207
    111 C                    -0.098059
    112 H                     0.095468
    113 C                    -0.097186
    114 H                     0.100615
    115 C                    -0.114979
    116 H                     0.099323
    117 C                    -0.014908
    118 C                     0.000823
    119 C                    -0.019588
    120 C                    -0.016988
    121 C                    -0.022563
    122 C                     0.046366
    123 C                    -0.024985
    124 C                    -0.009735
    125 C                     0.000956
    126 C                    -0.016738
    127 C                    -0.107700
    128 C                    -0.002839
    129 C                    -0.009948
    130 C                     0.019627
    131 C                    -0.022660
    132 C                    -0.000246
    133 C                    -0.057667
    134 C                    -0.003912
    135 C                    -0.003566
    136 C                    -0.007584
    137 C                     0.037881
    138 C                     0.000986
    139 C                     0.006542
    140 C                     0.005475
    141 C                     0.050131
    142 C                    -0.008617
    143 C                     0.015275
    144 C                    -0.008823
    145 C                     0.008122
    146 C                    -0.007510
    147 C                    -0.011382
    148 C                     0.022821
    149 C                     0.003166
    150 C                    -0.019380
    151 C                     0.021271
    152 C                     0.013664
    153 C                    -0.043154
    154 C                     0.006224
    155 C                    -0.000892
    156 C                     0.029190
    157 C                     0.015322
    158 C                     0.006276
    159 C                     0.009852
    160 C                     0.004590
    161 C                     0.006489
    162 C                     0.010708
    163 C                     0.001068
    164 C                     0.011286
    165 C                    -0.017880
    166 C                     0.002259
    167 C                    -0.005284
    168 C                    -0.027450
    169 C                     0.021047
    170 C                    -0.002230
    171 C                     0.015467
    172 C                     0.001063
    173 C                     0.023787
    174 C                     0.018491
    175 C                    -0.031636
    176 C                    -0.023540
  ----------------------------------------
  Sum of atomic charges =     0.000000

 -----------------------------------------------------------------
                    Cartesian Multipole Moments
 -----------------------------------------------------------------
    Charge (ESU x 10^10)
                 0.0000
    Dipole Moment (Debye)
         X       0.0858      Y       7.2874      Z       0.5839
       Tot       7.3112
    Quadrupole Moments (Debye-Ang)
        XX    -818.5414     XY      -2.8122     YY    -768.9579
        XZ       6.8300     YZ       0.3026     ZZ    -820.9660
    Octopole Moments (Debye-Ang^2)
       XXX    -249.8684    XXY     185.5570    XYY     -12.6975
       YYY     518.2612    XXZ     -42.1705    XYZ      72.2739
       YYZ      68.2349    XZZ      91.3240    YZZ     208.9828
       ZZZ     154.9202
    Hexadecapole Moments (Debye-Ang^3)
      XXXX -126411.4864   XXXY    -394.3045   XXYY  -27508.4579
      XYYY     260.5200   YYYY  -38280.1446   XXXZ    1514.5188
      XXYZ    -138.6701   XYYZ     358.9690   YYYZ    1035.8137
      XXZZ  -26253.7489   XYZZ    -119.9872   YYZZ  -10633.7054
      XZZZ     -46.0804   YZZZ     511.0514   ZZZZ  -29410.4281
 -----------------------------------------------------------------
Archival summary:
1\1\mn366\SP\ProcedureUnspecified\6-31G**\428\afmv_a\TueOct909:46:352018TueOct909:46:352018\0\\#,ProcedureUnspecified,6-31G**,\\0,1\C\C,1,1.37275\C,1,1.40546,2,124.365\C,1,1.4124,2,108.325,3,149.414,0\C,4,1.39322,1,121.754,2,-150.21,0\C,5,1.4028,4,118.414,1,140.356,0\C,6,1.40141,5,105.151,4,-138.118,0\C,3,1.41891,1,120.589,2,140.224,0\C,8,1.39643,3,116.695,1,6.15863,0\C,9,1.39616,8,117.497,3,-139.909,0\C,4,1.42182,1,109.002,2,-0.87138,0\C,11,1.41231,4,119.638,1,-143.592,0\C,12,1.40356,11,117.056,4,133.116,0\C,13,1.40792,12,108.107,11,-141.338,0\C,14,1.41448,13,119.127,12,145.568,0\C,15,1.39524,14,122.976,13,1.1631,0\C,16,1.38136,15,108.448,14,-141.686,0\C,11,1.41539,4,107.083,1,-0.0624863,0\C,17,1.42185,16,107.742,15,-1.71211,0\C,19,1.39576,17,109.174,16,-0.446311,0\C,2,1.42521,1,119.241,3,-7.81078,0\C,21,1.42373,2,116.996,1,3.07098,0\C,22,1.40985,21,105.922,2,-143.211,0\C,14,1.42534,13,106.976,12,-1.01772,0\C,24,1.38104,14,109.604,13,2.60839,0\C,3,1.42825,1,118.66,2,5.3118,0\C,26,1.41533,3,110.612,1,137.973,0\C,27,1.41684,26,105.725,3,3.64805,0\C,28,1.37508,27,118.613,26,-143.1,0\C,29,1.42895,28,123.097,27,2.08822,0\C,30,1.38724,29,108.527,28,141.175,0\C,31,1.4015,30,107.272,29,-1.38032,0\C,32,1.33945,31,110.872,30,1.59491,0\C,30,1.40884,29,116.917,28,-4.31922,0\C,34,1.37112,30,121.806,29,2.08388,0\C,32,1.41453,31,116.923,30,-147.27,0\C,34,1.4206,30,117.291,29,140.391,0\C,37,1.36654,34,108.152,30,-143.577,0\C,38,1.39227,37,107.956,34,3.54996,0\C,38,1.40805,37,118.048,34,141.799,0\C,40,1.36309,38,121.606,37,-0.309565,0\C,41,1.37077,40,112.231,38,-146.935,0\C,42,1.3783,41,106.255,40,4.59436,0\C,43,1.37815,42,107.737,41,0.537358,0\C,44,1.42403,43,123.179,42,154.195,0\C,43,1.42722,42,121.38,41,146.98,0\C,46,1.38235,43,118.081,42,-11.0229,0\C,47,1.422,46,110.353,43,-134.574,0\C,48,1.38838,47,108.908,46,0.408699,0\C,36,1.42815,32,119.533,31,5.70258,0\C,50,1.3969,36,120.089,32,-1.18142,0\C,51,1.37059,50,119.097,36,140.679,0\C,52,1.37741,51,106.132,50,-149.383,0\C,51,1.40131,50,123.435,36,-4.02722,0\C,54,1.38722,51,110.25,50,150.669,0\C,36,1.43209,32,120.872,31,143.6,0\C,56,1.4142,36,109.131,32,-141.176,0\C,57,1.41434,56,107.329,36,-2.86553,0\C,45,1.4805,44,118.342,43,-7.74649,0\C,59,1.49441,45,119.858,44,4.68386,0\C,60,1.51733,59,61.6976,45,123.115,0\C,61,1.49864,60,119.664,59,113.791,0\C,62,1.39256,61,122.718,60,69.6129,0\H,63,1.08583,62,120.305,61,-14.3187,0\C,63,1.38233,62,121.847,61,166.49,0\H,65,1.0856,63,117.808,62,-173.127,0\C,62,1.40706,61,118.035,60,-114.114,0\H,67,1.0859,62,117.698,61,5.10563,0\C,65,1.41524,63,119.699,62,9.38154,0\H,69,1.08558,65,116.135,63,178.121,0\C,69,1.40089,65,119.717,63,-1.44484,0\H,71,1.08629,69,120.985,65,176.841,0\C,61,1.54239,60,116.157,59,-106.26,0\H,73,1.09635,61,109.859,60,-80.7162,0\H,73,1.09744,61,106.852,60,30.7826,0\C,73,1.52661,61,115.436,60,146.581,0\H,76,1.0972,73,110.927,61,74.2795,0\H,76,1.09732,73,114.337,61,-179.117,0\C,76,1.58824,73,118.962,61,-54.8333,0\H,79,1.09681,76,114.946,73,156.09,0\H,79,1.09728,76,109.009,73,44.3936,0\C,79,1.50117,76,117.327,73,-78.4195,0\O,82,1.22858,79,122.665,76,-153.95,0\O,82,1.3902,79,112.464,76,28.5217,0\C,84,1.40836,82,127.982,79,-178.345,0\H,85,1.09677,84,115.27,82,44.1247,0\H,85,1.09686,84,119.461,82,-76.0851,0\H,85,1.09716,84,106.298,82,164.521,0\H,70,2.40958,69,123.753,65,-112.995,0\C,89,1.08629,70,131.202,69,110.944,0\C,90,1.39361,89,116.348,70,-109.974,0\C,90,1.3999,89,127.937,70,67.0535,0\H,92,1.08646,90,116.389,89,2.42719,0\C,91,1.41044,90,122.462,89,172.78,0\H,94,1.08589,91,119.88,90,-174.927,0\C,94,1.33988,91,121.526,90,9.27374,0\H,96,1.08648,94,113.503,91,-178.959,0\C,96,1.4128,94,118.032,91,-10.0184,0\H,98,1.08589,96,113.112,94,-175.968,0\C,91,1.52115,90,115.299,89,4.93772,0\C,100,1.45612,91,123.127,90,-129.407,0\C,101,1.46432,100,63.3253,91,94.4154,0\C,102,1.49993,101,116.342,100,121.831,0\C,103,1.39242,102,119.178,101,-3.05375,0\C,104,1.38698,103,119.36,102,151.774,0\C,105,1.3587,104,106.249,103,-149.704,0\C,106,1.38806,105,120.821,104,142.179,0\C,107,1.35584,106,122.012,105,-1.78459,0\C,103,1.41296,102,110.615,101,143.218,0\C,108,1.41375,107,109.968,106,-143.588,0\C,110,1.39028,108,105.056,107,-0.732723,0\C,111,1.37314,110,111.54,108,1.05587,0\C,110,1.40528,108,117.44,107,139.16,0\C,111,1.41115,110,119.751,108,143.263,0\C,114,1.40317,111,119.39,110,-134.776,0\C,115,1.39966,114,108.495,111,139.187,0\C,116,1.39165,115,120.231,114,-146.489,0\C,117,1.38968,116,122.112,115,138.213,0\C,118,1.36191,117,118.534,116,-0.0811727,0\C,119,1.36096,118,121.911,117,9.54095,0\C,119,1.36742,118,121.617,117,-141.221,0\C,121,1.38129,119,119.91,118,9.79315,0\C,121,1.38566,119,107.497,118,143.656,0\C,123,1.38736,121,107.304,119,4.93563,0\C,116,1.40073,115,112.782,114,0.360606,0\C,118,1.40236,117,109.526,116,-140.897,0\C,126,1.40023,118,122.079,117,137.765,0\C,127,1.38147,126,121.588,118,-135.623,0\C,117,1.40249,116,119.772,115,2.26777,0\C,128,1.40738,127,122.849,126,-5.08095,0\C,130,1.40876,128,115.401,127,9.09037,0\C,131,1.38313,130,106.304,128,139.576,0\C,131,1.39079,130,120.962,128,-10.9861,0\C,132,1.40112,131,116.223,130,-147.837,0\C,134,1.37464,132,121.978,131,4.16908,0\C,135,1.3632,134,110.136,132,142.299,0\C,136,1.34593,135,108.039,134,-5.10516,0\C,137,1.38718,136,107.921,135,3.70927,0\C,132,1.4041,131,113.863,130,2.9688,0\C,139,1.4057,132,113.727,131,-129.218,0\C,140,1.37672,139,124.294,132,-21.1598,0\C,123,1.41156,121,123.313,119,-139.873,0\C,113,1.41873,110,121.191,108,3.67148,0\C,143,1.36713,113,107.062,110,-145.401,0\C,144,1.3703,143,119.621,113,143.951,0\C,143,1.37795,113,120.573,110,0.881709,0\C,146,1.39706,143,119.746,113,-136.782,0\C,147,1.40341,146,119.18,143,-4.3464,0\C,148,1.39026,147,119.889,146,141.582,0\C,149,1.40347,148,120.879,147,3.16201,0\C,149,1.40391,148,107.015,147,-141.751,0\C,151,1.36138,149,122.32,148,142.993,0\C,146,1.40874,143,120.057,113,-4.61533,0\C,153,1.38763,146,108.666,143,-140.173,0\C,154,1.38243,153,110.503,146,-2.87792,0\C,113,1.4214,110,118.496,108,-134.594,0\C,156,1.3947,113,107.329,110,146.538,0\C,156,1.41647,113,120.731,110,-3.90379,0\C,128,1.42709,127,105.103,126,143.752,0\C,159,1.41764,128,119.936,127,-151.726,0\C,100,1.55661,91,112.634,90,72.0341,0\H,161,1.09698,100,108.259,91,-166.699,0\H,161,1.09734,100,105.465,91,-47.3267,0\C,161,1.51123,100,109.795,91,71.6573,0\H,164,1.09676,161,108.578,100,-65.8134,0\H,164,1.09769,161,113.272,100,59.0918,0\C,164,1.52871,161,112.217,100,174.659,0\H,167,1.0967,164,105.715,161,63.0969,0\H,167,1.09753,164,111.905,161,-55.2748,0\C,167,1.53598,164,113.533,161,-174.357,0\O,170,1.21116,167,118.886,164,125.855,0\O,170,1.36496,167,115.777,164,-50.3231,0\C,172,1.4402,170,123.591,167,-168.041,0\H,173,1.0966,172,109,170,-94.9831,0\H,173,1.09711,172,111.188,170,145.815,0\H,173,1.09738,172,108.507,170,28.3983,0\\\@

 Total job time:  873.32s(wall), 7514.84s(cpu) 
 Tue Oct  9 09:46:35 2018

        *************************************************************
        *                                                           *
        *  Thank you very much for using Q-Chem.  Have a nice day.  *
        *                                                           *
        *************************************************************


