
Running Job 1 of 1 ./6/13.qcin
qchem ./6/13.qcin_43452.0 /tmpu/cab_g/afmv_a/scratch_qchem/qchem43452/ 1
/tmpu/appuserlic/qchem4.4/serial-multicore/exe/qcprog.exe_s ./6/13.qcin_43452.0 /tmpu/cab_g/afmv_a/scratch_qchem/qchem43452/
Check license passed

                  Welcome to Q-Chem
     A Quantum Leap Into The Future Of Chemistry


 Q-Chem 4.4, Q-Chem, Inc., Pleasanton, CA (2016)

 Y. Shao,  Z. Gan,  E. Epifanovsky,  A. T. B. Gilbert,  M. Wormit,  
 J. Kussmann,  A. W. Lange,  A. Behn,  J. Deng,  X. Feng,  D. Ghosh,  
 M. Goldey,  P. R. Horn,  L. D. Jacobson,  I. Kaliman,  F. Rob,  
 R. Z. Khaliullin,  T. Kus,  A. Landau,  J. Liu,  E. I. Proynov,  Y. M. Rhee,  
 R. M. Richard,  M. A. Rohrdanz,  R. P. Steele,  E. J. Sundstrom,  
 H. L. Woodcock III,  P. M. Zimmerman,  D. Zuev,  B. Albrecht,  E. Alguire,  
 B. Austin,  S. A. Baeppler,  G. J. O. Beran,  Y. A. Bernard,  E. Berquist,  
 K. Brandhorst,  K. B. Bravaya,  S. T. Brown,  D. Casanova,  C.-M. Chang,  
 Y. Chen,  S. H. Chien,  K. D. Closser,  M. P. Coons,  D. L. Crittenden,  
 S. Dasgupta,  M. Diedenhofen,  R. A. DiStasio Jr.,  H. Do,  A. D. Dutoi,  
 R. G. Edgar,  P.-T. Fang,  S. Fatehi,  Q. Feng,  L. Fusti-Molnar,  
 A. Ghysels,  A. Golubeva-Zadorozhnaya,  J. Gomes,  A. Gunina,  
 M. W. D. Hanson-Heine,  P. H. P. Harbach,  A. W. Hauser,  J. E. Herr,  
 E. G. Hohenstein,  Z. C. Holden,  K. Hui,  T.-C. Jagau,  H. Ji,  B. Kaduk,  
 K. Khistyaev,  Jaehoon Kim,  Jihan Kim,  R. A. King,  P. Klunzinger,  
 K. Koh,  D. Kosenkov,  T. Kowalczyk,  C. M. Krauter,  A. Kunitsa,  
 K. U. Lao,  A. Laurent,  K. V. Lawler,  J. Lee,  D. Lefrancois,  S. Lehtola,  
 S. V. Levchenko,  C. Y. Lin,  Y.-S. Lin,  F. Liu,  E. Livshits,  
 R. C. Lochan,  A. Luenser,  P. Manohar,  S. F. Manzer,  S.-P. Mao,  Y. Mao,  
 N. Mardirossian,  A. V. Marenich,  L. A. Martinez-Martinez,  S. A. Maurer,  
 N. J. Mayhall,  J.-M. Mewes,  A. F. Morrison,  K. Nanda,  T. S. Nguyen-Beck,  
 C. M. Oana,  R. Olivares-Amaya,  D. P. O'Neill,  J. A. Parkhill,  
 T. M. Perrine,  R. Peverati,  P. A. Pieniazek,  F. Plasser,  A. Prociuk,  
 D. R. Rehn,  E. Rosta,  N. J. Russ,  N. Sergueev,  S. M. Sharada,  
 S. Sharma,  D. W. Small,  A. Sodt,  T. Stauch,  T. Stein,  D. Stuck,  
 Y.-C. Su,  A. J. W. Thom,  T. Tsuchimochi,  L. Vogt,  O. Vydrov,  T. Wang,  
 M. A. Watson,  J. Wenzel,  A. White,  C. F. Williams,  V. Vanovschi,  
 K. Yao,  S. Yeganeh,  S. R. Yost,  Z.-Q. You,  I. Y. Zhang,  X. Zhang,  
 Y. Zhao,  B. R. Brooks,  G. K. L. Chan,  D. M. Chipman,  C. J. Cramer,  
 W. A. Goddard III,  M. S. Gordon,  W. J. Hehre,  A. Klamt,  
 H. F. Schaefer III,  M. W. Schmidt,  C. D. Sherrill,  D. G. Truhlar,  
 A. Warshel,  X. Xu,  A. Aspuru-Guzik,  R. Baer,  A. T. Bell,  N. A. Besley,  
 J.-D. Chai,  A. Dreuw,  B. D. Dunietz,  T. R. Furlani,  S. R. Gwaltney,  
 C.-P. Hsu,  Y. Jung,  J. Kong,  D. S. Lambrecht,  W. Liang,  C. Ochsenfeld,  
 V. A. Rassolov,  L. V. Slipchenko,  J. E. Subotnik,  T. Van Voorhis,  
 J. M. Herbert,  A. I. Krylov,  P. M. W. Gill,  M. Head-Gordon

 Contributors to earlier versions of Q-Chem not listed above: 
 R. D. Adamson,  J. Baker,  E. F. C. Byrd,  A. K. Chakraborty,  C.-L. Cheng,  
 H. Dachsel,  R. J. Doerksen,  G. Hawkins,  A. Heyden,  S. Hirata,  
 G. Kedziora,  F. J. Keil,  C. Kelley,  P. P. Korambath,  W. Kurlancheek,  
 A. M. Lee,  M. S. Lee,  D. Liotard,  I. Lotan,  P. E. Maslen,  N. Nair,  
 D. Neuhauser,  R. Olson,  B. Peters,  J. Ritchie,  N. E. Schultz,  
 N. Shenvi,  A. C. Simmonett,  K. S. Thanthiriwatte,  Q. Wu,  W. Zhang

 Please cite Q-Chem as follows:
 Y. Shao et al., Mol. Phys. 113, 184-215 (2015)
 DOI: 10.1080/00268976.2014.952696

 Q-Chem 4.4.2 for Intel X86 Linux

 Parts of Q-Chem use Armadillo 5.200.1 (Boston Tea Smuggler).
 http://arma.sourceforge.net/

 Q-Chem begins on Tue Oct  9 10:16:00 2018  

Host: 
0

     Scratch files written to /tmpu/cab_g/afmv_a/scratch_qchem/qchem43452//
 Dec716 11556_ 22328  22283 4050   
Processing $rem in /tmpu/appuserlic/qchem4.4/serial-multicore/config/preferences.
 MEM_TOTAL  2000 
FILE_GEOM_ORG=        593

Checking the input file for inconsistencies... 	...done.

--------------------------------------------------------------
User input:
--------------------------------------------------------------
$comment
SP
$end

$rem
MEM_STATIC 5000
MEM_TOTAL 20000
JOBTYPE SP
EXCHANGE B3LYP
BASIS 6-31g(d,p)
$end

$molecule
0 1
O          34.175000      2.305000     -4.519000
C          35.183000      1.490000     -3.792000
H          35.300000      1.641000     -2.711000
H          36.182000      1.698000     -4.195000
H          35.021000      0.424000     -3.995000
O          34.912000      4.303000     -3.641000
C          34.140000      3.697000     -4.349000
C          32.865000      4.323000     -4.996000
H          32.632000      5.256000     -4.469000
H          32.072000      3.635000     -4.678000
C          33.097000      4.663000     -6.544000
H          33.811000      5.461000     -6.786000
H          33.588000      3.755000     -6.917000
C          31.793000      4.990000     -7.336000
H          31.273000      5.822000     -6.843000
H          31.910000      5.336000     -8.370000
C          30.772000      3.795000     -7.555000
C          31.403000      2.581000     -8.140000
C          31.814000      1.496000     -7.305000
H          31.795000      1.591000     -6.223000
C          32.520000      0.370000     -7.833000
H          32.883000     -0.417000     -7.179000
C          32.715000      0.249000     -9.246000
H          33.303000     -0.586000     -9.616000
C          32.148000      1.298000    -10.086000
H          32.282000      1.088000    -11.143000
C          31.504000      2.397000     -9.532000
H          31.017000      3.147000    -10.148000
C          25.755000      2.298000     -9.376000
C          26.114000      0.776000     -7.533000
C          23.128000      2.767000     -4.705000
C          26.484000      7.042000     -7.876000
C          25.445000      4.510000     -2.865000
C          26.642000      1.497000     -8.653000
C          25.592000      7.297000     -5.120000
C          23.051000      2.274000     -6.998000
C          28.525000      2.432000     -4.753000
C          27.443000      7.081000     -6.843000
C          29.605000      3.585000     -6.498000
C          28.664000      3.746000     -4.281000
C          27.872000      6.379000     -4.692000
C          25.063000      6.540000     -4.056000
C          28.127000      1.609000     -6.968000
C          23.356000      4.851000     -4.027000
C          29.321000      4.054000     -7.827000
C          28.762000      5.379000     -8.064000
C          24.180000      4.003000     -3.232000
C          23.272000      5.707000     -7.973000
C          22.375000      4.528000     -6.203000
C          22.581000      3.623000     -7.257000
C          23.925000      1.679000     -7.939000
C          27.721000      5.311000     -9.078000
C          28.996000      2.308000     -6.096000
C          24.756000      0.902000     -7.171000
C          26.995000      7.166000     -5.460000
C          27.056000      0.845000     -6.521000
C          27.704000      4.357000     -3.391000
C          25.340000      5.830000     -9.321000
C          23.277000      1.844000     -5.743000
C          29.173000      4.464000     -5.339000
C          24.023000      3.733000     -9.212000
C          27.329000      5.658000     -3.610000
C          27.387000      1.730000     -4.296000
C          23.489000      6.621000     -5.720000
C          24.668000      7.297000     -6.157000
C          26.450000      2.290000     -3.420000
C          26.630000      6.145000     -8.945000
C          28.519000      6.226000     -6.897000
C          24.433000      6.394000     -8.392000
C          28.351000      3.223000     -8.754000
C          25.325000      0.934000     -4.783000
C          28.730000      5.751000     -5.581000
C          26.604000      3.657000     -2.967000
C          25.097000      4.453000     -9.668000
C          24.037000      2.681000     -3.603000
C          24.404000      2.398000     -9.063000
C          22.641000      4.042000     -4.905000
C          26.689000      0.855000     -5.150000
C          25.175000      1.788000     -3.685000
C          27.944000      1.963000     -8.317000
C          27.477000      3.980000     -9.496000
C          22.799000      5.825000     -6.633000
C          24.363000      0.967000     -5.815000
C          25.919000      5.767000     -3.240000
C          25.132000      7.173000     -7.512000
C          23.801000      6.105000     -4.451000
C          26.192000      3.571000     -9.792000
C          23.102000      4.400000     -8.340000
O          27.955000      7.789000      4.619000
C          28.727000      8.941000      5.074000
H          28.195000      9.821000      4.691000
H          29.749000      8.934000      4.677000
H          28.828000      8.876000      6.165000
O          26.445000      7.900000      6.339000
C          26.881000      7.373000      5.324000
C          26.191000      6.127000      4.757000
H          25.230000      6.004000      5.271000
H          26.925000      5.386000      5.097000
C          25.959000      6.220000      3.195000
H          26.942000      6.250000      2.709000
H          25.490000      5.293000      2.844000
C          25.178000      7.427000      2.827000
H          24.177000      7.151000      3.181000
H          25.539000      8.255000      3.449000
C          25.054000      7.794000      1.367000
C          24.425000      6.601000      0.601000
C          23.138000      6.683000      0.147000
H          22.547000      7.594000      0.122000
C          22.503000      5.520000     -0.339000
H          21.420000      5.535000     -0.423000
C          23.159000      4.306000     -0.464000
H          22.705000      3.342000     -0.672000
C          24.465000      4.247000     -0.064000
H          25.010000      3.309000     -0.108000
C          25.130000      5.422000      0.327000
H          26.187000      5.411000      0.576000
C          28.406000      9.394000     -2.767000
C          26.147000      9.982000     -3.486000
C          26.363000     14.452000     -3.134000
C          29.062000     11.555000      1.826000
C          24.594000     14.451000     -0.087000
C          26.992000      9.174000     -2.761000
C          27.535000     13.913000      1.954000
C          27.974000     12.821000     -3.870000
C          23.571000     10.590000     -0.588000
C          27.827000     11.542000      2.520000
C          24.964000      9.121000      0.763000
C          23.737000     11.139000      0.691000
C          25.698000     12.335000      2.426000
C          26.606000     14.667000      1.200000
C          25.028000      9.110000     -1.733000
C          26.675000     15.302000     -1.084000
C          26.278000      8.518000      0.831000
C          27.270000      9.344000      1.562000
C          25.341000     14.917000     -1.243000
C          30.045000     13.190000     -1.049000
C          28.624000     14.497000     -2.233000
C          28.903000     13.397000     -2.998000
C          27.930000     11.446000     -4.097000
C          28.499000      9.393000      0.818000
C          24.297000      9.377000     -0.571000
C          26.596000     11.134000     -4.160000
C          27.078000     12.714000      2.545000
C          24.907000      9.868000     -2.850000
C          23.921000     12.516000      0.833000
C          30.107000     10.965000     -0.085000
C          26.661000     13.364000     -3.903000
C          24.583000     10.330000      1.491000
C          29.775000     11.186000     -2.478000
C          24.828000     13.133000      1.720000
C          23.516000     11.400000     -1.666000
C          28.650000     14.740000      0.207000
C          28.829000     13.941000      1.360000
C          23.610000     12.810000     -1.548000
C          29.324000     10.515000      0.918000
C          26.908000     10.443000      2.289000
C          30.159000     12.377000      0.077000
C          26.976000      8.324000     -0.506000
C          24.555000     12.226000     -3.528000
C          25.600000     10.946000      2.319000
C          23.695000     13.401000     -0.232000
C          29.945000     10.355000     -1.348000
C          25.073000     14.408000     -2.543000
C          28.873000     10.574000     -3.388000
C          27.334000     15.001000     -2.291000
C          24.107000     11.037000     -2.821000
C          24.255000     13.284000     -2.704000
C          26.338000      8.596000     -1.702000
C          28.354000      8.797000     -0.419000
C          29.287000     14.384000     -0.985000
C          25.831000     12.251000     -4.096000
C          25.281000     14.294000      1.124000
C          29.550000     12.712000      1.284000
C          27.341000     15.247000      0.150000
C          29.073000      9.280000     -1.525000
C          29.735000     12.588000     -2.279000
$end

--------------------------------------------------------------
 ----------------------------------------------------------------
             Standard Nuclear Orientation (Angstroms)
    I     Atom           X                Y                Z
 ----------------------------------------------------------------
    1      O       5.3438904259     6.6060487800     2.3635867335
    2      C       5.5964823871     7.5731442950     3.4634692572
    3      H       4.7936796621     7.7679792406     4.1863787458
    4      H       5.8126821345     8.5617256491     3.0396313455
    5      H       6.5121523429     7.2984987029     4.0019182621
    6      O       3.3525575578     7.5809769987     1.7389545402
    7      C       4.1825994970     6.7140577542     1.5841469090
    8      C       3.9905653833     5.4683843435     0.6635326287
    9      H       2.9206282234     5.3570867510     0.4505670920
   10      H       4.2134668551     4.6336965438     1.3394972809
   11      C       4.7661576833     5.6394202860    -0.7274854483
   12      H       4.4023852811     6.4106060004    -1.4189377122
   13      H       5.7458834221     6.0186121540    -0.4096411406
   14      C       4.8899860864     4.3278188362    -1.5635339897
   15      H       3.8862532256     3.9196902205    -1.7413664310
   16      H       5.3144119057     4.4156712890    -2.5708599897
   17      C       5.8177536588     3.1863602848    -0.9679278219
   18      C       7.1808834325     3.6629098189    -0.6088181429
   19      C       7.5001482048     4.0174560096     0.7386750866
   20      H       6.7237239216     4.0718723933     1.4965102861
   21      C       8.7683855045     4.5803039998     1.0849008681
   22      H       8.9757636211     4.9048148368     2.1000565376
   23      C       9.7989120273     4.6786437081     0.0961747243
   24      H      10.7325468391     5.1613588907     0.3703664286
   25      C       9.4926611536     4.1653557751    -1.2343273990
   26      H      10.3521027218     4.2157336476    -1.8962392215
   27      C       8.2347221072     3.6630854193    -1.5421696399
   28      H       8.0167283841     3.2140880624    -2.5065373655
   29      C       7.5698905764    -2.0497213238    -1.4586462840
   30      C       7.5572764912    -1.7286571487     0.9369272758
   31      C       3.8913618921    -4.3380694357     1.7305888340
   32      C       3.1082510594    -0.7840469578    -3.4025645488
   33      C       1.6422426189    -1.7603290721     2.0286745811
   34      C       7.8011238404    -1.2017632711    -0.3730140634
   35      C       1.0271859005    -1.4824674619    -1.4953148001
   36      C       5.7431447258    -4.5977175585     0.3127347551
   37      C       4.7734040330     0.9900045632     2.0058471197
   38      C       2.5143035933     0.2339350350    -2.6284650269
   39      C       5.1595797869     2.0694801493    -0.0499823349
   40      C       3.4939103427     1.2814075936     1.5091770378
   41      C       1.6926287882     0.7210105306    -0.5329331192
   42      C       0.8466819141    -2.0171115796    -0.2043616723
   43      C       6.7871030443     0.3845603844     0.8567554619
   44      C       1.9087815501    -3.8725975144     0.8894972350
   45      C       5.6386252157     1.7530798549    -1.3680355701
   46      C       4.7339657225     1.3098525392    -2.4213236351
   47      C       2.1216033836    -3.0874464984     2.0592620615
   48      C       3.8189358777    -4.1087474369    -2.6610311283
   49      C       3.4563829878    -5.0073748885    -0.5661387432
   50      C       4.8446012075    -4.9515262380    -0.7713413327
   51      C       6.8989226655    -3.8418345326     0.0025731757
   52      C       5.3282834677     0.2087528804    -3.1635277575
   53      C       5.7913424778     1.3664683154     1.0769002073
   54      C       7.0766585873    -3.0445626594     1.1056966966
   55      C       1.5022669517    -0.1210170791    -1.6433717152
   56      C       6.9525199480    -0.7259546258     1.6752538798
   57      C       2.3496843263     0.4385658759     1.7687645232
   58      C       4.8315605013    -2.1221376549    -3.7272534062
   59      C       5.2763998685    -4.3396261274     1.5482666451
   60      C       3.6976307612     1.7928167327     0.2478572197
   61      C       6.1918422593    -3.6242342000    -2.2999768008
   62      C       1.4718015615     0.1769554195     0.7479468018
   63      C       4.8782575679    -0.1805826453     2.7903395183
   64      C       1.6920224417    -3.6722274105    -1.5456013893
   65      C       1.5982822657    -2.4621906238    -2.2972726966
   66      C       3.7840371881    -1.0062627137     3.0729685773
   67      C       4.4935380240    -0.7879467072    -3.6253891830
   68      C       3.3118613275     1.2184180232    -2.0932903763
   69      C       3.7032320320    -2.9144794997    -3.4065428414
   70      C       6.7581879518     0.6549623266    -1.5455381728
   71      C       5.5644959935    -2.3343321308     2.9046591437
   72      C       2.8376727934     1.4609363302    -0.7824387048
   73      C       2.4786870434    -0.6960303366     2.5275963449
   74      C       6.0656986841    -2.5154668757    -3.0965537393
   75      C       3.3410611136    -3.3775902941     2.6376334150
   76      C       7.1414352320    -3.3640588172    -1.3099419750
   77      C       3.0082639469    -4.7123217966     0.7391922486
   78      C       6.0136772125    -1.0082810935     2.7015560203
   79      C       4.1922687967    -2.3367843338     3.1774347055
   80      C       7.3768440204     0.1563711847    -0.3997242516
   81      C       6.5738336577    -0.1854003897    -2.6166558131
   82      C       2.8072371108    -4.4879486105    -1.7304801759
   83      C       6.1033070419    -3.3483722717     2.0843163819
   84      C       0.9930028851    -1.1917667109     0.9329672253
   85      C       2.6232390842    -2.0933950495    -3.2354359791
   86      C       1.2904103524    -3.3360468897    -0.2418946021
   87      C       6.9311442486    -1.5188339150    -2.5965020253
   88      C       5.0215170163    -4.4240530457    -2.0898753019
   89      O      -5.4070628180     1.4907056078     5.6064201518
   90      C      -6.4834241910     2.3946520362     5.2134315396
   91      H      -6.9555452423     1.9271653927     4.3401211990
   92      H      -6.1068601367     3.3859489412     4.9347346450
   93      H      -7.1320366150     2.5535914098     6.0844925013
   94      O      -6.7754171031     0.1029585315     6.8116527446
   95      C      -5.6713185034     0.4257010674     6.3934978238
   96      C      -4.4424020455    -0.4123744124     6.7643061698
   97      H      -4.7904218578    -1.3485031532     7.2175072189
   98      H      -4.0244799377     0.2665317535     7.5178740365
   99      C      -3.5234266272    -0.7267800014     5.5157268546
  100      H      -3.1212053909     0.2240066166     5.1447714880
  101      H      -2.6502308572    -1.3020201289     5.8460584196
  102      C      -4.2788717408    -1.4096291390     4.4362576631
  103      H      -4.4123178575    -2.4095892507     4.8672621979
  104      H      -5.2656309392    -0.9350533805     4.3740231562
  105      C      -3.6202562825    -1.5845425921     3.0881864624
  106      C      -2.2951644732    -2.3687666303     3.2746545686
  107      C      -2.2047392908    -3.6667629612     2.8548476946
  108      H      -2.9392790808    -4.1686661791     2.2316531369
  109      C      -1.0847642848    -4.4374651747     3.2338781472
  110      H      -1.1616588565    -5.5171713654     3.1417273650
  111      C      -0.0176744362    -3.9087628108     3.9420801420
  112      H       0.7921227345    -4.4641347538     4.4051854726
  113      C      -0.0882122103    -2.5929002395     4.3062876597
  114      H       0.7063528810    -2.1433764827     4.8939948214
  115      C      -1.1521722092    -1.7968842025     3.8479443498
  116      H      -1.1883546910    -0.7328358979     4.0621009128
  117      C      -1.7662816502     1.6533320775    -1.0306490146
  118      C      -1.9921563345    -0.5780136447    -1.9980490844
  119      C      -5.5589006654     0.0836278469    -4.6422929110
  120      C      -6.3024502944     2.7838767772     1.0528453370
  121      C      -7.7337700947    -1.4933710904    -2.3626902445
  122      C      -1.7616179627     0.2276615615    -0.9070616778
  123      C      -8.3285878093     1.4989159582    -0.4140968788
  124      C      -3.6752916289     1.4852615880    -4.1087970312
  125      C      -4.6178391926    -2.9077000372    -0.2424310048
  126      C      -6.8805378141     1.5966541919     1.5660191403
  127      C      -4.2359742555    -1.5833355964     1.7635223839
  128      C      -5.8431752910    -2.6144795586     0.3718744541
  129      C      -7.6521723282    -0.4488646921     0.9409122116
  130      C      -8.5089937901     0.6029027362    -1.4933035263
  131      C      -2.5992073205    -1.6689808172    -0.1200624686
  132      C      -7.4952673318     0.5963935509    -3.6373553677
  133      C      -3.6807955033    -0.3310926088     2.2309547889
  134      C      -4.6668354468     0.7767722608     2.2635379201
  135      C      -7.2504401318    -0.7753082401    -3.5298572805
  136      C      -5.5555254394     3.7458233050    -2.1754516039
  137      C      -5.9271336937     2.3881081884    -3.9496733959
  138      C      -4.5718811614     2.5150648054    -3.8074109937
  139      C      -2.4985265613     1.2969887357    -3.3850102471
  140      C      -4.0840108981     1.9584959686     1.6888879189
  141      C      -3.6359763304    -2.3009143906     0.5739576888
  142      C      -2.3709666261    -0.0620545437    -3.2523496740
  143      C      -7.8613983270     0.9655992731     0.8078025856
  144      C      -2.4571562194    -1.7832761264    -1.4630636104
  145      C      -6.9506934311    -2.2919482980    -0.4152253841
  146      C      -4.5013494232     3.6525641284     0.0071570768
  147      C      -4.2079670063     0.2303706988    -4.5105591480
  148      C      -5.6604935085    -1.8034531274     1.5203780433
  149      C      -3.1499302335     3.2016550459    -1.9564776074
  150      C      -7.8903058504    -1.2792069484    -0.1295849453
  151      C      -4.5329095940    -2.9491403972    -1.5886400004
  152      C      -7.6920320735     2.5819749764    -2.2582614481
  153      C      -7.8201948252     2.7521323715    -0.8602372101
  154      C      -5.6596451153    -2.7143189392    -2.4170034157
  155      C      -4.9013202671     2.8911703694     1.0473017146
  156      C      -6.0058615567     0.5649892568     2.0916919534
  157      C      -5.6628321057     3.8484542891    -0.7898855966
  158      C      -2.5889152103     0.2646185061     1.3561206941
  159      C      -3.8293317713    -1.9485236695    -3.5206300137
  160      C      -6.5488211275    -0.6850059024     1.7638505184
  161      C      -6.9495944728    -2.4953855863    -1.8034393669
  162      C      -3.2400825849     3.3584533813    -0.5551754146
  163      C      -6.0528667850    -1.1673172084    -4.1879241828
  164      C      -2.1985829554     2.1929931489    -2.2627251119
  165      C      -6.4116835323     1.1508697768    -4.3445563746
  166      C      -3.4440180811    -2.4650569079    -2.2171727748
  167      C      -5.1936510111    -2.0968482182    -3.5911483827
  168      C      -2.0873776502    -0.4144252271     0.2612217561
  169      C      -2.8482770230     1.6841559122     1.1374268384
  170      C      -6.5792659378     3.1102379984    -2.9186088618
  171      C      -3.3375692960    -0.7119357020    -3.9454180390
  172      C      -8.3261099918    -0.7537842213    -1.3305644240
  173      C      -6.7664401782     3.3469028578    -0.1039917389
  174      C      -8.1815963171     1.3262021111    -2.6546707848
  175      C      -2.4133203081     2.3789850266    -0.0034110809
  176      C      -4.3381356629     3.3073706939    -2.7205437428
 ----------------------------------------------------------------
 Molecular Point Group                 C1    NOp =  1
 Largest Abelian Subgroup              C1    NOp =  1
 Nuclear Repulsion Energy = 35278.9384769771 hartrees
 There are      462 alpha and      462 beta electrons
 Requested basis set is 6-31G(d,p)
 There are 676 shells and 2360 basis functions

 Total QAlloc Memory Limit  20000 MB
 Mega-Array Size      4888 MB
 MEM_STATIC part      5000 MB
 A cutoff of  1.0D-08 yielded  38728 shell pairs
 There are    542974 function pairs
 
 -------------------------------------------------------
 OpenMP Integral Computing Module                       
 Release: version 1.0, May 2013, Q-Chem Inc. Pittsburgh 
 -------------------------------------------------------
 Integral Job Info:
 Integral job number is                      11
 Integral operator is                         1
 short-range coefficients                     0
 long-range coefficients              100000000
 Omega coefficients                           0
 if combine SR and LR in K                    0
 Integral screening is                        0
 Integral computing path is                   2
 max size of driver memory is            800000
 size of driver memory is                593474
 size of scratch memory is              2260544
 max col of scratch BK array               1296
 max len of scratch array in speh3          155
 max len of scratch index in speh4           18
 max int batch size is                      520
 min int batch size is                       52
 fixed nKL is                                52
 max L of basis functions is                  2
 order of int derivative is                   0
 number of shells is                        676
 number of basis is                        2360
 number of cartesian basis is              2360
 number of contracted shell pairs         38728
 number of primitive shell pairs         116530
 maxK2 (contraction) of shell pair           36
 max number of K2 of shell pair               1
 max number of CS2 of shell pair           7414
 max number of PS2 of shell pair          35442
 mem total for path MDJ                 1548344
 -------------------------------------------------------
 Smallest overlap matrix eigenvalue = 2.46E-04

 Scale SEOQF with 1.000000e-02/1.000000e-02/1.000000e-02

 Standard Electronic Orientation quadrupole field applied
 Nucleus-field energy     =     0.0000000765 hartrees
 Guess from superposition of atomic densities
 Warning:  Energy on first SCF cycle will be non-variational
 A restricted hybrid HF-DFT SCF calculation will be
 performed using Pulay DIIS extrapolation
 Exchange:     0.2000 Hartree-Fock + 0.0800 Slater + 0.7200 B88
 Correlation:  0.1900 VWN1RPA + 0.8100 LYP
 Using SG-1 standard quadrature grid
 SCF converges when DIIS error is below 1.0E-05
 using 16 threads for integral computing 
 -------------------------------------------------------
 OpenMP BLAS3 based DFT computing Module                
 Release: version 1.0, May 2013, Q-Chem Inc. Pittsburgh 
 -------------------------------------------------------
 ---------------------------------------
  Cycle       Energy         DIIS Error
 ---------------------------------------
    1   -5858.5791565663      1.83E-02
    2   -5803.0586894265      1.29E-03
    3   -5802.2625895333      1.80E-03
    4   -5803.9038738707      6.55E-04
    5   -5804.1311028360      3.11E-04
    6   -5804.1943795034      1.32E-04
    7   -5804.2057963457      4.78E-05
    8   -5804.2067946742      3.07E-05
    9   -5804.2075016357      9.02E-06 Convergence criterion met
 ---------------------------------------
 SCF time:  CPU 7494.46 s  wall 869.55 s
 SCF   energy in the final basis set = -5804.2075016357
 Total energy in the final basis set = -5804.2075016357
 
 --------------------------------------------------------------
 
                    Orbital Energies (a.u.)
 --------------------------------------------------------------
 
 Alpha MOs
 -- Occupied --
-19.194 -19.194 -19.142 -19.127 -10.323 -10.313 -10.251 -10.246
-10.242 -10.238 -10.238 -10.237 -10.235 -10.235 -10.232 -10.232
-10.231 -10.227 -10.227 -10.225 -10.225 -10.225 -10.224 -10.223
-10.222 -10.222 -10.222 -10.222 -10.222 -10.222 -10.220 -10.220
-10.220 -10.220 -10.219 -10.219 -10.219 -10.219 -10.219 -10.219
-10.219 -10.218 -10.218 -10.217 -10.217 -10.217 -10.217 -10.217
-10.217 -10.217 -10.217 -10.217 -10.217 -10.217 -10.216 -10.216
-10.216 -10.216 -10.216 -10.216 -10.216 -10.216 -10.216 -10.216
-10.216 -10.215 -10.215 -10.215 -10.215 -10.215 -10.215 -10.215
-10.215 -10.215 -10.215 -10.215 -10.214 -10.214 -10.214 -10.214
-10.214 -10.214 -10.214 -10.214 -10.214 -10.214 -10.213 -10.213
-10.213 -10.213 -10.213 -10.213 -10.213 -10.213 -10.213 -10.213
-10.213 -10.213 -10.212 -10.212 -10.212 -10.212 -10.212 -10.212
-10.212 -10.212 -10.212 -10.212 -10.212 -10.212 -10.211 -10.211
-10.211 -10.211 -10.211 -10.211 -10.211 -10.211 -10.210 -10.210
-10.210 -10.210 -10.210 -10.209 -10.209 -10.209 -10.208 -10.207
-10.206 -10.206 -10.206 -10.206 -10.205 -10.205 -10.205 -10.205
-10.204 -10.203 -10.203 -10.202 -10.202 -10.198 -10.198 -10.198
-10.197 -10.195 -10.194 -10.192  -1.091  -1.081  -1.008  -1.004
 -0.987  -0.983  -0.972  -0.967  -0.966  -0.963  -0.962  -0.962
 -0.943  -0.934  -0.930  -0.928  -0.927  -0.925  -0.924  -0.924
 -0.922  -0.922  -0.901  -0.898  -0.892  -0.892  -0.886  -0.886
 -0.877  -0.876  -0.863  -0.847  -0.842  -0.841  -0.840  -0.839
 -0.837  -0.835  -0.824  -0.821  -0.810  -0.799  -0.799  -0.798
 -0.797  -0.796  -0.795  -0.794  -0.792  -0.792  -0.786  -0.780
 -0.773  -0.772  -0.772  -0.770  -0.769  -0.766  -0.765  -0.760
 -0.752  -0.745  -0.744  -0.738  -0.738  -0.734  -0.718  -0.718
 -0.715  -0.715  -0.714  -0.712  -0.711  -0.711  -0.710  -0.710
 -0.707  -0.706  -0.706  -0.704  -0.704  -0.702  -0.677  -0.676
 -0.661  -0.660  -0.659  -0.655  -0.650  -0.650  -0.636  -0.633
 -0.629  -0.629  -0.627  -0.627  -0.622  -0.620  -0.617  -0.617
 -0.617  -0.616  -0.613  -0.612  -0.610  -0.609  -0.609  -0.608
 -0.607  -0.606  -0.604  -0.603  -0.568  -0.566  -0.564  -0.563
 -0.562  -0.561  -0.560  -0.560  -0.559  -0.558  -0.554  -0.553
 -0.538  -0.537  -0.536  -0.534  -0.529  -0.528  -0.527  -0.525
 -0.524  -0.522  -0.521  -0.520  -0.517  -0.515  -0.513  -0.511
 -0.508  -0.506  -0.501  -0.494  -0.492  -0.491  -0.488  -0.488
 -0.485  -0.484  -0.482  -0.481  -0.478  -0.476  -0.476  -0.475
 -0.472  -0.471  -0.470  -0.469  -0.468  -0.467  -0.466  -0.466
 -0.465  -0.464  -0.464  -0.463  -0.462  -0.461  -0.459  -0.458
 -0.457  -0.456  -0.455  -0.454  -0.453  -0.446  -0.445  -0.442
 -0.441  -0.440  -0.440  -0.439  -0.438  -0.438  -0.436  -0.434
 -0.432  -0.431  -0.431  -0.430  -0.427  -0.426  -0.426  -0.424
 -0.424  -0.423  -0.422  -0.421  -0.421  -0.420  -0.420  -0.418
 -0.417  -0.417  -0.417  -0.416  -0.416  -0.415  -0.414  -0.414
 -0.413  -0.412  -0.409  -0.406  -0.403  -0.402  -0.401  -0.400
 -0.397  -0.395  -0.391  -0.389  -0.389  -0.388  -0.387  -0.385
 -0.383  -0.376  -0.375  -0.374  -0.372  -0.372  -0.368  -0.367
 -0.366  -0.364  -0.364  -0.363  -0.362  -0.361  -0.360  -0.359
 -0.358  -0.358  -0.355  -0.355  -0.354  -0.353  -0.352  -0.351
 -0.351  -0.350  -0.350  -0.347  -0.347  -0.346  -0.345  -0.345
 -0.344  -0.343  -0.341  -0.340  -0.339  -0.339  -0.336  -0.335
 -0.335  -0.333  -0.330  -0.329  -0.327  -0.327  -0.326  -0.325
 -0.306  -0.305  -0.300  -0.298  -0.293  -0.290  -0.276  -0.272
 -0.271  -0.270  -0.269  -0.269  -0.267  -0.265  -0.264  -0.262
 -0.260  -0.260  -0.259  -0.259  -0.257  -0.255  -0.255  -0.253
 -0.249  -0.246  -0.243  -0.241  -0.226  -0.225  -0.213  -0.212
 -0.210  -0.208  -0.206  -0.202  -0.199  -0.198
 -- Virtual --
 -0.127  -0.119  -0.118  -0.118  -0.113  -0.111  -0.080  -0.079
 -0.075  -0.070  -0.063  -0.060  -0.057  -0.056  -0.028  -0.025
 -0.023  -0.023  -0.021  -0.021  -0.019  -0.016  -0.015  -0.014
 -0.011  -0.011  -0.008  -0.006  -0.005  -0.003  -0.001   0.007
  0.010   0.017   0.032   0.035   0.042   0.043   0.044   0.045
  0.050   0.050   0.053   0.055   0.059   0.063   0.064   0.069
  0.072   0.073   0.076   0.080   0.082   0.083   0.083   0.088
  0.091   0.094   0.096   0.097   0.100   0.101   0.103   0.105
  0.107   0.108   0.110   0.112   0.114   0.115   0.117   0.119
  0.121   0.122   0.123   0.125   0.126   0.128   0.129   0.134
  0.138   0.141   0.143   0.147   0.147   0.151   0.153   0.155
  0.159   0.160   0.160   0.162   0.164   0.165   0.166   0.168
  0.170   0.172   0.174   0.175   0.176   0.179   0.180   0.180
  0.182   0.184   0.184   0.187   0.190   0.190   0.191   0.192
  0.196   0.197   0.198   0.200   0.201   0.202   0.204   0.205
  0.207   0.210   0.212   0.214   0.214   0.216   0.217   0.218
  0.219   0.221   0.222   0.223   0.224   0.225   0.227   0.228
  0.229   0.230   0.231   0.232   0.234   0.234   0.236   0.237
  0.238   0.240   0.241   0.241   0.245   0.249   0.251   0.256
  0.260   0.260   0.268   0.272   0.275   0.276   0.277   0.277
  0.281   0.281   0.283   0.287   0.294   0.294   0.295   0.302
  0.307   0.308   0.309   0.311   0.313   0.314   0.317   0.318
  0.319   0.320   0.322   0.324   0.325   0.328   0.330   0.333
  0.334   0.336   0.338   0.339   0.343   0.344   0.345   0.347
  0.348   0.349   0.349   0.357   0.365   0.378   0.383   0.385
  0.390   0.394   0.396   0.398   0.400   0.401   0.405   0.406
  0.408   0.409   0.411   0.413   0.414   0.416   0.422   0.424
  0.426   0.429   0.429   0.431   0.432   0.439   0.440   0.442
  0.444   0.446   0.448   0.451   0.452   0.453   0.458   0.459
  0.461   0.462   0.464   0.465   0.467   0.470   0.470   0.472
  0.475   0.475   0.475   0.477   0.478   0.480   0.481   0.482
  0.484   0.485   0.486   0.488   0.488   0.490   0.491   0.493
  0.494   0.495   0.496   0.497   0.498   0.500   0.501   0.502
  0.503   0.504   0.505   0.506   0.508   0.509   0.510   0.511
  0.511   0.513   0.513   0.515   0.516   0.516   0.517   0.518
  0.519   0.520   0.521   0.521   0.522   0.522   0.524   0.524
  0.525   0.526   0.526   0.526   0.528   0.529   0.529   0.530
  0.531   0.532   0.533   0.533   0.534   0.535   0.536   0.537
  0.539   0.539   0.539   0.540   0.541   0.542   0.543   0.545
  0.546   0.546   0.547   0.547   0.548   0.549   0.549   0.551
  0.551   0.552   0.552   0.553   0.553   0.556   0.556   0.557
  0.558   0.559   0.560   0.560   0.561   0.562   0.563   0.563
  0.565   0.566   0.567   0.568   0.568   0.570   0.570   0.571
  0.571   0.572   0.573   0.574   0.575   0.577   0.577   0.577
  0.578   0.579   0.580   0.580   0.582   0.583   0.583   0.584
  0.585   0.586   0.586   0.587   0.589   0.589   0.590   0.591
  0.591   0.592   0.594   0.595   0.596   0.597   0.598   0.599
  0.601   0.601   0.603   0.603   0.605   0.605   0.606   0.608
  0.610   0.611   0.613   0.615   0.616   0.616   0.617   0.618
  0.619   0.621   0.621   0.622   0.623   0.625   0.626   0.627
  0.627   0.629   0.629   0.629   0.630   0.632   0.633   0.635
  0.636   0.636   0.637   0.638   0.638   0.640   0.640   0.641
  0.643   0.645   0.646   0.647   0.647   0.649   0.650   0.650
  0.652   0.652   0.653   0.655   0.655   0.656   0.657   0.658
  0.659   0.660   0.660   0.661   0.662   0.663   0.663   0.664
  0.664   0.666   0.667   0.667   0.668   0.669   0.670   0.671
  0.672   0.673   0.674   0.675   0.678   0.679   0.680   0.680
  0.682   0.684   0.685   0.685   0.686   0.688   0.688   0.689
  0.690   0.691   0.691   0.692   0.693   0.696   0.696   0.698
  0.699   0.700   0.700   0.702   0.703   0.704   0.706   0.708
  0.709   0.710   0.711   0.713   0.713   0.715   0.716   0.717
  0.718   0.720   0.720   0.721   0.722   0.724   0.725   0.727
  0.728   0.729   0.730   0.731   0.733   0.735   0.736   0.737
  0.738   0.739   0.740   0.742   0.743   0.745   0.745   0.748
  0.749   0.751   0.751   0.752   0.754   0.756   0.758   0.759
  0.760   0.762   0.763   0.765   0.766   0.767   0.768   0.769
  0.770   0.772   0.773   0.773   0.774   0.776   0.777   0.779
  0.780   0.781   0.783   0.783   0.786   0.786   0.787   0.789
  0.790   0.791   0.793   0.794   0.795   0.797   0.798   0.799
  0.800   0.800   0.802   0.802   0.804   0.804   0.806   0.807
  0.808   0.809   0.809   0.810   0.810   0.811   0.813   0.814
  0.815   0.816   0.817   0.817   0.818   0.819   0.820   0.820
  0.821   0.822   0.823   0.824   0.825   0.827   0.828   0.829
  0.830   0.831   0.832   0.833   0.836   0.837   0.839   0.840
  0.842   0.843   0.844   0.847   0.850   0.851   0.852   0.856
  0.857   0.860   0.860   0.863   0.866   0.867   0.868   0.872
  0.874   0.876   0.881   0.884   0.887   0.888   0.891   0.894
  0.896   0.898   0.900   0.902   0.905   0.906   0.908   0.909
  0.913   0.914   0.917   0.918   0.924   0.924   0.925   0.927
  0.927   0.930   0.931   0.932   0.934   0.935   0.936   0.937
  0.939   0.941   0.943   0.945   0.945   0.947   0.948   0.951
  0.958   0.959   0.960   0.963   0.964   0.970   0.972   0.974
  0.977   0.981   0.982   0.984   0.985   0.986   0.990   0.991
  0.992   0.996   0.999   1.000   1.002   1.005   1.007   1.008
  1.011   1.011   1.014   1.016   1.017   1.018   1.018   1.021
  1.023   1.023   1.025   1.026   1.028   1.029   1.030   1.031
  1.032   1.036   1.037   1.039   1.040   1.043   1.044   1.046
  1.048   1.049   1.050   1.052   1.055   1.056   1.058   1.059
  1.060   1.063   1.066   1.066   1.067   1.071   1.072   1.074
  1.075   1.076   1.079   1.080   1.081   1.083   1.086   1.088
  1.089   1.090   1.091   1.093   1.094   1.095   1.099   1.100
  1.102   1.102   1.103   1.104   1.106   1.109   1.111   1.113
  1.113   1.116   1.117   1.120   1.122   1.123   1.126   1.128
  1.132   1.134   1.136   1.138   1.142   1.142   1.144   1.147
  1.148   1.148   1.151   1.153   1.156   1.157   1.159   1.161
  1.164   1.164   1.166   1.167   1.169   1.171   1.173   1.174
  1.178   1.179   1.180   1.182   1.184   1.186   1.189   1.192
  1.192   1.194   1.195   1.198   1.199   1.200   1.201   1.203
  1.209   1.210   1.212   1.214   1.217   1.220   1.221   1.226
  1.229   1.231   1.234   1.238   1.239   1.243   1.244   1.249
  1.250   1.251   1.253   1.254   1.257   1.259   1.262   1.263
  1.266   1.268   1.270   1.270   1.273   1.274   1.276   1.280
  1.283   1.284   1.287   1.289   1.292   1.294   1.298   1.299
  1.303   1.304   1.305   1.306   1.308   1.310   1.313   1.314
  1.318   1.320   1.323   1.324   1.326   1.330   1.331   1.334
  1.336   1.337   1.340   1.341   1.342   1.345   1.346   1.349
  1.352   1.356   1.357   1.362   1.362   1.366   1.366   1.370
  1.371   1.372   1.377   1.379   1.380   1.382   1.383   1.386
  1.388   1.389   1.391   1.396   1.400   1.404   1.404   1.411
  1.413   1.415   1.418   1.421   1.423   1.426   1.432   1.434
  1.435   1.438   1.440   1.441   1.446   1.448   1.449   1.451
  1.454   1.456   1.459   1.459   1.461   1.465   1.465   1.466
  1.469   1.471   1.472   1.475   1.476   1.479   1.481   1.486
  1.487   1.489   1.489   1.491   1.492   1.493   1.497   1.499
  1.503   1.505   1.510   1.510   1.513   1.515   1.517   1.523
  1.525   1.527   1.527   1.530   1.532   1.536   1.538   1.541
  1.544   1.547   1.551   1.553   1.555   1.559   1.560   1.560
  1.562   1.565   1.567   1.570   1.572   1.574   1.575   1.576
  1.578   1.581   1.583   1.584   1.586   1.587   1.589   1.591
  1.594   1.598   1.601   1.602   1.606   1.607   1.609   1.612
  1.616   1.620   1.622   1.631   1.634   1.638   1.639   1.643
  1.645   1.648   1.650   1.654   1.659   1.660   1.668   1.669
  1.674   1.681   1.683   1.688   1.690   1.691   1.694   1.696
  1.701   1.704   1.707   1.710   1.711   1.713   1.713   1.718
  1.720   1.721   1.723   1.723   1.727   1.729   1.733   1.734
  1.735   1.736   1.737   1.738   1.741   1.744   1.746   1.746
  1.747   1.751   1.752   1.754   1.755   1.756   1.758   1.759
  1.761   1.762   1.763   1.764   1.768   1.769   1.770   1.773
  1.773   1.773   1.775   1.776   1.778   1.779   1.781   1.782
  1.783   1.784   1.785   1.786   1.789   1.790   1.790   1.791
  1.793   1.794   1.795   1.797   1.799   1.800   1.801   1.801
  1.803   1.804   1.805   1.807   1.808   1.809   1.811   1.812
  1.814   1.815   1.818   1.820   1.821   1.822   1.825   1.825
  1.827   1.828   1.829   1.830   1.833   1.836   1.837   1.837
  1.839   1.841   1.842   1.847   1.851   1.851   1.852   1.856
  1.858   1.858   1.859   1.860   1.863   1.865   1.867   1.869
  1.871   1.872   1.874   1.876   1.878   1.879   1.882   1.883
  1.883   1.885   1.890   1.892   1.894   1.897   1.899   1.900
  1.904   1.906   1.916   1.917   1.918   1.919   1.920   1.920
  1.923   1.925   1.927   1.929   1.930   1.933   1.935   1.936
  1.938   1.940   1.941   1.944   1.945   1.946   1.948   1.951
  1.953   1.955   1.955   1.959   1.962   1.965   1.967   1.969
  1.973   1.976   1.977   1.979   1.980   1.982   1.983   1.983
  1.985   1.987   1.988   1.990   1.992   1.993   1.995   1.996
  1.998   2.000   2.001   2.002   2.004   2.004   2.007   2.008
  2.011   2.012   2.014   2.015   2.017   2.017   2.018   2.019
  2.020   2.021   2.022   2.023   2.025   2.025   2.028   2.028
  2.031   2.032   2.033   2.035   2.036   2.038   2.039   2.041
  2.042   2.042   2.043   2.045   2.046   2.046   2.049   2.050
  2.051   2.052   2.053   2.054   2.055   2.056   2.057   2.059
  2.061   2.061   2.062   2.065   2.065   2.068   2.069   2.070
  2.071   2.072   2.074   2.076   2.078   2.078   2.079   2.081
  2.081   2.083   2.085   2.086   2.089   2.090   2.093   2.095
  2.095   2.098   2.099   2.100   2.102   2.104   2.107   2.108
  2.113   2.115   2.119   2.119   2.122   2.123   2.124   2.127
  2.129   2.130   2.132   2.138   2.139   2.142   2.144   2.148
  2.150   2.153   2.155   2.158   2.162   2.166   2.170   2.175
  2.178   2.179   2.185   2.188   2.193   2.202   2.205   2.208
  2.211   2.214   2.216   2.219   2.220   2.223   2.227   2.229
  2.230   2.232   2.236   2.238   2.241   2.244   2.246   2.249
  2.251   2.253   2.254   2.257   2.258   2.260   2.264   2.264
  2.267   2.268   2.271   2.275   2.276   2.279   2.281   2.282
  2.284   2.286   2.290   2.291   2.295   2.297   2.299   2.300
  2.302   2.303   2.305   2.306   2.310   2.312   2.313   2.315
  2.319   2.321   2.323   2.327   2.329   2.335   2.336   2.338
  2.339   2.342   2.344   2.346   2.350   2.351   2.354   2.355
  2.357   2.359   2.360   2.362   2.365   2.366   2.370   2.370
  2.371   2.372   2.376   2.376   2.377   2.378   2.381   2.382
  2.384   2.386   2.387   2.388   2.390   2.392   2.393   2.396
  2.398   2.400   2.400   2.403   2.404   2.406   2.406   2.409
  2.409   2.410   2.416   2.417   2.420   2.421   2.422   2.426
  2.426   2.428   2.433   2.437   2.438   2.440   2.442   2.443
  2.446   2.449   2.452   2.452   2.454   2.457   2.459   2.462
  2.463   2.465   2.467   2.469   2.469   2.470   2.475   2.477
  2.478   2.481   2.482   2.484   2.485   2.487   2.489   2.493
  2.495   2.498   2.501   2.501   2.505   2.506   2.508   2.509
  2.511   2.513   2.515   2.518   2.519   2.522   2.523   2.526
  2.528   2.530   2.532   2.535   2.537   2.539   2.540   2.544
  2.546   2.549   2.552   2.554   2.559   2.560   2.562   2.564
  2.566   2.568   2.571   2.574   2.577   2.578   2.583   2.586
  2.589   2.593   2.596   2.597   2.598   2.600   2.602   2.604
  2.606   2.609   2.609   2.613   2.616   2.618   2.620   2.621
  2.622   2.625   2.627   2.628   2.631   2.632   2.632   2.634
  2.635   2.636   2.639   2.640   2.643   2.644   2.645   2.649
  2.651   2.652   2.653   2.655   2.657   2.658   2.661   2.662
  2.664   2.665   2.668   2.669   2.669   2.670   2.672   2.674
  2.678   2.679   2.680   2.681   2.683   2.686   2.687   2.689
  2.691   2.692   2.696   2.697   2.699   2.701   2.702   2.705
  2.708   2.709   2.713   2.715   2.718   2.719   2.723   2.723
  2.728   2.729   2.730   2.731   2.733   2.738   2.742   2.745
  2.746   2.748   2.750   2.752   2.755   2.755   2.757   2.760
  2.764   2.769   2.770   2.772   2.772   2.776   2.776   2.779
  2.780   2.781   2.784   2.789   2.789   2.791   2.795   2.796
  2.799   2.802   2.806   2.812   2.813   2.815   2.820   2.823
  2.824   2.825   2.830   2.832   2.834   2.840   2.845   2.848
  2.848   2.851   2.851   2.854   2.854   2.857   2.861   2.863
  2.864   2.865   2.867   2.872   2.873   2.874   2.875   2.877
  2.880   2.882   2.883   2.887   2.887   2.889   2.891   2.893
  2.894   2.895   2.897   2.898   2.899   2.900   2.903   2.904
  2.905   2.909   2.910   2.913   2.914   2.917   2.919   2.922
  2.924   2.925   2.927   2.928   2.930   2.934   2.935   2.938
  2.939   2.942   2.944   2.947   2.948   2.951   2.952   2.954
  2.958   2.960   2.963   2.965   2.969   2.973   2.974   2.980
  2.982   2.982   2.989   2.992   2.994   2.997   3.002   3.005
  3.008   3.011   3.013   3.014   3.015   3.018   3.020   3.022
  3.025   3.027   3.028   3.030   3.032   3.033   3.037   3.041
  3.043   3.045   3.047   3.051   3.055   3.059   3.061   3.066
  3.067   3.069   3.075   3.082   3.085   3.086   3.090   3.100
  3.106   3.116   3.127   3.128   3.137   3.138   3.146   3.151
  3.153   3.153   3.162   3.170   3.173   3.178   3.190   3.192
  3.197   3.202   3.207   3.211   3.217   3.220   3.234   3.240
  3.247   3.257   3.261   3.263   3.270   3.274   3.279   3.286
  3.290   3.302   3.313   3.315   3.316   3.318   3.322   3.325
  3.331   3.334   3.337   3.343   3.349   3.353   3.365   3.386
  3.406   3.407   3.412   3.420   3.430   3.433   3.444   3.446
  3.454   3.459   3.468   3.471   3.473   3.476   3.478   3.488
  3.496   3.498   3.508   3.512   3.524   3.530   3.536   3.541
  3.549   3.552   3.566   3.568   3.579   3.585   3.597   3.599
  3.613   3.625   3.667   3.698   3.810   3.885   3.971   4.010
  4.074   4.077   4.078   4.082   4.088   4.091   4.092   4.098
  4.098   4.101   4.104   4.108   4.111   4.117   4.118   4.124
  4.127   4.129   4.137   4.138   4.144   4.149   4.154   4.155
  4.158   4.162   4.170   4.171   4.175   4.181   4.183   4.191
  4.194   4.195   4.210   4.214   4.219   4.231   4.235   4.247
  4.250   4.251   4.254   4.256   4.258   4.264   4.269   4.273
  4.274   4.281   4.284   4.286   4.291   4.297   4.303   4.308
  4.314   4.320   4.337   4.349   4.371   4.389   4.394   4.397
  4.399   4.401   4.406   4.409   4.411   4.412   4.415   4.422
  4.427   4.433   4.435   4.439   4.447   4.460   4.464   4.474
  4.482   4.491   4.513   4.534   4.538   4.543   4.553   4.556
  4.566   4.582   4.607   4.628   4.632   4.636   4.640   4.643
  4.646   4.667   4.674   4.685   4.692   4.694   4.696   4.697
  4.704   4.710   4.718   4.725   4.738   4.766   4.789   4.819
  4.841   4.854   4.864   4.866   4.881   4.884   4.887   4.897
  4.911   4.920   4.959   4.960   4.968   4.979   4.983   4.985
  4.992   4.997   5.007   5.017   5.158   5.167   5.176   5.183
  5.200   5.209   5.216   5.246   5.314   5.320   5.336   5.346
  5.360   5.383
 --------------------------------------------------------------
 
          Ground-State Mulliken Net Atomic Charges

     Atom                 Charge (a.u.)
  ----------------------------------------
      1 O                    -0.483175
      2 C                    -0.090395
      3 H                     0.135642
      4 H                     0.128140
      5 H                     0.125225
      6 O                    -0.444968
      7 C                     0.565160
      8 C                    -0.235358
      9 H                     0.135321
     10 H                     0.134368
     11 C                    -0.202059
     12 H                     0.122038
     13 H                     0.131714
     14 C                    -0.182212
     15 H                     0.110717
     16 H                     0.113441
     17 C                    -0.007417
     18 C                     0.088673
     19 C                    -0.107339
     20 H                     0.101929
     21 C                    -0.093465
     22 H                     0.090537
     23 C                    -0.090459
     24 H                     0.095113
     25 C                    -0.096430
     26 H                     0.093533
     27 C                    -0.102554
     28 H                     0.088406
     29 C                     0.007450
     30 C                    -0.023475
     31 C                     0.008409
     32 C                    -0.021544
     33 C                     0.006723
     34 C                    -0.017613
     35 C                    -0.001544
     36 C                     0.005522
     37 C                    -0.025007
     38 C                    -0.035814
     39 C                    -0.078391
     40 C                     0.005448
     41 C                    -0.002849
     42 C                    -0.000059
     43 C                     0.032421
     44 C                    -0.010572
     45 C                    -0.056726
     46 C                     0.010714
     47 C                     0.018770
     48 C                     0.023528
     49 C                    -0.010180
     50 C                    -0.010277
     51 C                    -0.007821
     52 C                    -0.016225
     53 C                     0.024196
     54 C                     0.016383
     55 C                    -0.000553
     56 C                     0.026056
     57 C                     0.012359
     58 C                    -0.038604
     59 C                     0.002955
     60 C                     0.034320
     61 C                     0.015948
     62 C                    -0.006930
     63 C                     0.008300
     64 C                    -0.013346
     65 C                    -0.015185
     66 C                     0.005019
     67 C                     0.049242
     68 C                     0.008840
     69 C                    -0.001985
     70 C                     0.024545
     71 C                    -0.009704
     72 C                    -0.007645
     73 C                    -0.027994
     74 C                    -0.006154
     75 C                    -0.014287
     76 C                    -0.009875
     77 C                     0.005139
     78 C                    -0.033386
     79 C                    -0.007826
     80 C                    -0.019447
     81 C                     0.029395
     82 C                    -0.012470
     83 C                    -0.000711
     84 C                    -0.007864
     85 C                     0.024667
     86 C                     0.029848
     87 C                    -0.001851
     88 C                    -0.008823
     89 O                    -0.465650
     90 C                    -0.090766
     91 H                     0.134457
     92 H                     0.126891
     93 H                     0.137105
     94 O                    -0.477648
     95 C                     0.572879
     96 C                    -0.240592
     97 H                     0.133684
     98 H                     0.129008
     99 C                    -0.193984
    100 H                     0.110521
    101 H                     0.112737
    102 C                    -0.170310
    103 H                     0.107718
    104 H                     0.116557
    105 C                     0.021074
    106 C                     0.085148
    107 C                    -0.109585
    108 H                     0.097540
    109 C                    -0.104523
    110 H                     0.089684
    111 C                    -0.072714
    112 H                     0.095382
    113 C                    -0.095216
    114 H                     0.093527
    115 C                    -0.104164
    116 H                     0.090953
    117 C                    -0.025970
    118 C                     0.022431
    119 C                    -0.009732
    120 C                    -0.013441
    121 C                    -0.027723
    122 C                     0.018799
    123 C                    -0.006809
    124 C                    -0.017272
    125 C                    -0.002772
    126 C                    -0.040338
    127 C                    -0.080157
    128 C                    -0.005111
    129 C                    -0.024978
    130 C                     0.020445
    131 C                     0.021924
    132 C                     0.010986
    133 C                    -0.072557
    134 C                     0.051614
    135 C                     0.016379
    136 C                    -0.013905
    137 C                    -0.013771
    138 C                     0.028650
    139 C                    -0.010853
    140 C                     0.003709
    141 C                     0.010110
    142 C                     0.010761
    143 C                     0.009311
    144 C                    -0.016118
    145 C                     0.019922
    146 C                    -0.011151
    147 C                     0.012444
    148 C                     0.025565
    149 C                     0.006863
    150 C                     0.006034
    151 C                     0.048064
    152 C                     0.016795
    153 C                    -0.020497
    154 C                    -0.002127
    155 C                     0.026476
    156 C                    -0.004801
    157 C                    -0.014204
    158 C                    -0.009166
    159 C                    -0.032549
    160 C                    -0.001978
    161 C                    -0.039688
    162 C                    -0.016932
    163 C                    -0.024667
    164 C                    -0.029915
    165 C                     0.002305
    166 C                    -0.044728
    167 C                     0.036690
    168 C                     0.020245
    169 C                     0.001728
    170 C                    -0.007496
    171 C                     0.016564
    172 C                     0.018583
    173 C                     0.023124
    174 C                    -0.021556
    175 C                     0.012506
    176 C                     0.016628
  ----------------------------------------
  Sum of atomic charges =     0.000000

 -----------------------------------------------------------------
                    Cartesian Multipole Moments
 -----------------------------------------------------------------
    Charge (ESU x 10^10)
                 0.0000
    Dipole Moment (Debye)
         X       5.1351      Y       1.3383      Z       0.8330
       Tot       5.3717
    Quadrupole Moments (Debye-Ang)
        XX    -808.2471     XY      20.2516     YY    -800.5842
        XZ      17.4419     YZ       5.0107     ZZ    -803.7542
    Octopole Moments (Debye-Ang^2)
       XXX     549.2377    XXY     377.4596    XYY     112.4491
       YYY      66.6437    XXZ     -71.7956    XYZ       6.4844
       YYZ     155.3294    XZZ     222.5240    YZZ     149.2914
       ZZZ     142.5080
    Hexadecapole Moments (Debye-Ang^3)
      XXXX -131402.6427   XXXY    2538.5122   XXYY  -26823.3218
      XYYY    1659.3873   YYYY  -39243.0861   XXXZ     965.9833
      XXYZ     869.2995   XYYZ     198.3016   YYYZ     533.5675
      XXZZ  -28362.7789   XYZZ     440.6443   YYZZ  -11126.5815
      XZZZ     823.1558   YZZZ     655.8562   ZZZZ  -32818.9572
 -----------------------------------------------------------------
Archival summary:
1\1\mn366\SP\ProcedureUnspecified\6-31G**\428\afmv_a\TueOct910:30:462018TueOct910:30:462018\0\\#,ProcedureUnspecified,6-31G**,\\0,1\C\C,1,1.37233\C,2,1.37569,1,111.182\C,1,1.38255,2,122.039,3,147.042,0\C,3,1.39825,2,104.899,1,1.22294,0\C,5,1.35532,3,109.956,2,-4.60485,0\C,6,1.39853,5,122.095,3,-144.041,0\C,3,1.40818,2,122.472,1,-148.658,0\C,8,1.35536,3,118.14,2,137.976,0\C,8,1.37145,3,118.312,2,-0.703584,0\C,10,1.39431,8,105.22,3,136.321,0\C,9,1.39693,8,121.333,3,8.05697,0\C,12,1.37417,9,115.433,8,-136.846,0\C,11,1.39829,10,121.919,8,-140.261,0\C,14,1.36516,11,119.291,10,4.39516,0\C,14,1.3686,11,122.972,10,145.869,0\C,16,1.38617,14,117.294,11,-3.46559,0\C,17,1.39817,16,121.921,14,2.59788,0\C,18,1.36525,17,120.062,16,-1.91171,0\C,13,1.39944,12,124.039,9,-7.52543,0\C,15,1.40407,14,109.99,11,148.976,0\C,21,1.3935,15,118.41,14,-142.815,0\C,22,1.39282,21,121.61,15,133.578,0\C,23,1.36768,22,107.215,21,-140.694,0\C,24,1.40524,23,107.667,22,2.4813,0\C,25,1.34967,24,109.974,23,-7.80266,0\C,25,1.39625,24,122.062,23,150.259,0\C,27,1.38073,25,118.235,24,-147.206,0\C,28,1.40481,27,120.211,25,-2.92624,0\C,29,1.39547,28,119.001,27,-0.861025,0\C,13,1.40607,12,109.487,9,136.356,0\C,17,1.40774,16,118.523,14,-132.507,0\C,32,1.39752,17,106.882,16,141.093,0\C,32,1.40333,17,121.561,16,-7.27853,0\C,34,1.40491,32,119.472,17,7.14568,0\C,35,1.39763,34,118.814,32,-4.13811,0\C,34,1.40681,32,115.12,17,138.093,0\C,37,1.3786,34,124.928,32,6.82899,0\C,38,1.38143,37,121.25,34,-140.753,0\C,39,1.37555,38,120.106,37,-1.15158,0\C,40,1.39656,39,119.557,38,140.231,0\C,38,1.40112,37,119.248,34,-2.12591,0\C,42,1.38987,38,108.824,37,-144.721,0\C,41,1.4017,40,107.042,39,-140.617,0\C,44,1.36652,41,123.174,40,145.776,0\C,43,1.40304,42,107.047,38,5.78674,0\C,46,1.39648,43,121.572,42,147.539,0\C,47,1.40171,46,119.643,43,-12.2634,0\C,48,1.34952,47,119.908,46,3.64694,0\C,49,1.34725,48,120.346,47,-141.314,0\C,30,1.41293,29,106.048,28,139.198,0\C,35,1.41416,34,110.788,32,140.115,0\C,37,1.41424,34,105.934,32,-141.877,0\C,53,1.4127,37,117.583,34,145.697,0\C,54,1.39112,53,122.232,37,-136.774,0\C,29,1.41437,28,118.535,27,137.65,0\C,56,1.41284,29,107.302,28,-141.927,0\C,47,1.41781,46,115.255,43,-149.067,0\C,58,1.46179,47,110.27,46,143.731,0\C,59,1.44735,58,123.904,47,-141.902,0\C,59,1.46077,58,124.157,47,139.915,0\C,61,1.51052,59,128.713,58,19.0901,0\H,62,1.09672,61,113.065,59,19.6557,0\H,62,1.09704,61,107.345,59,-99.2176,0\C,62,1.48399,61,118.718,59,146.908,0\H,65,1.09658,62,112.526,61,66.4874,0\H,65,1.09699,62,109.846,61,-50.5254,0\C,61,1.55101,59,118.005,58,-134.576,0\C,68,1.36719,61,119.975,59,50.7037,0\H,69,1.0862,68,124.759,61,-11.2719,0\C,68,1.40076,61,122.677,59,-128.362,0\H,71,1.08599,68,116.971,61,6.72128,0\C,71,1.40561,68,121.325,61,-164.104,0\H,73,1.08573,71,119.735,68,169.728,0\C,73,1.36716,71,119.818,68,-14.2297,0\H,75,1.08567,73,114.658,71,175.386,0\C,75,1.38555,73,117.626,71,6.26003,0\H,77,1.08636,75,118.497,73,165.634,0\C,65,1.58187,62,111.707,61,-170.243,0\H,79,1.09674,65,109.929,62,-64.2269,0\H,79,1.09701,65,116.352,62,167.952,0\C,79,1.53301,65,112.547,62,56.4439,0\O,82,1.22395,79,119.759,65,-133.41,0\O,82,1.35039,79,114.536,65,46.6993,0\C,84,1.45949,82,120.072,79,178.154,0\H,85,1.09642,84,112.032,82,-157.37,0\H,85,1.09732,84,105.53,82,83.7703,0\H,85,1.09759,84,108.168,82,-41.0343,0\C,75,2.96582,73,86.5486,71,-104.176,0\C,89,1.3805,75,108.24,73,-99.4158,0\C,89,1.41137,75,91.6714,73,23.4981,0\C,91,1.39476,89,123.947,75,108.242,0\C,92,1.41284,91,116.262,89,1.18057,0\C,93,1.39208,92,122.832,91,-1.4136,0\C,94,1.39654,93,118.902,92,0.057331,0\C,95,1.39161,94,119.615,93,140.542,0\C,96,1.37942,95,105.335,94,-138.796,0\C,97,1.39699,96,122.726,95,143.85,0\C,98,1.34573,97,117.639,96,-6.38907,0\C,98,1.39775,97,122.391,96,-141.659,0\C,94,1.40498,93,110.05,92,148.257,0\C,101,1.39402,94,119.456,93,-141.981,0\C,93,1.4089,92,120.176,91,139.838,0\C,103,1.38894,93,108.304,92,-145.501,0\C,100,1.41123,98,120.44,97,-3.56212,0\C,105,1.39908,100,119.114,98,-0.188705,0\C,106,1.39566,105,105.701,100,137.644,0\C,107,1.39962,106,110.416,105,2.11168,0\C,108,1.40789,107,107.242,106,-0.471689,0\C,96,1.4113,95,118.484,94,0.678519,0\C,110,1.40441,96,116.148,95,-135.482,0\C,108,1.41305,107,122.875,106,-147.477,0\C,112,1.4031,108,115.864,107,0.407839,0\C,113,1.37622,112,105.463,108,142.645,0\C,114,1.38246,113,120.116,112,-140.948,0\C,115,1.38595,114,120.526,113,-6.35924,0\C,116,1.40653,115,106.816,114,144.267,0\C,116,1.40905,115,119.951,114,6.94568,0\C,118,1.37156,116,120.173,115,-3.58825,0\C,119,1.37105,118,108.319,116,142.365,0\C,100,1.4133,98,107.117,97,139.678,0\C,121,1.37263,100,110.026,98,1.70862,0\C,121,1.41106,100,121.189,98,-144.376,0\C,123,1.38429,121,117.575,100,5.94479,0\C,124,1.38944,123,108.466,121,138.391,0\C,125,1.40663,124,110.281,123,4.5581,0\C,126,1.39435,125,119.341,124,-142.98,0\C,127,1.37386,126,118.783,125,131.22,0\C,128,1.38062,127,123.002,126,-2.3405,0\C,129,1.40874,128,119.545,127,2.9558,0\C,130,1.39038,129,107.632,128,-145.764,0\C,131,1.39628,130,108.052,129,3.17532,0\C,132,1.37106,131,108.895,130,-2.62086,0\C,130,1.39682,129,118.298,128,-1.00562,0\C,115,1.41492,114,121.542,113,140.953,0\C,135,1.3754,115,106.788,114,-145.377,0\C,136,1.41007,135,119.085,115,139.175,0\C,137,1.4031,136,120.335,135,0.182792,0\C,138,1.37968,137,122.832,136,2.89059,0\C,138,1.38011,137,104.846,136,-148.614,0\C,137,1.40626,136,117.495,135,-140.225,0\C,141,1.36742,137,105.772,136,146.201,0\C,142,1.4126,141,120.418,137,-145.512,0\C,143,1.36815,142,119.154,141,135.128,0\C,125,1.41568,124,123.127,123,-154.933,0\C,139,1.45482,138,118.059,137,0.357628,0\C,146,1.45749,139,110.199,138,-144.558,0\C,147,1.43766,146,121.51,139,137.505,0\C,147,1.49882,146,123.911,139,-142.57,0\C,149,1.48801,147,118.696,146,141.855,0\C,150,1.40774,149,121.723,147,-62.9017,0\H,151,1.08588,150,116.007,149,5.28326,0\C,151,1.38905,150,122.077,149,-176.857,0\H,153,1.08596,151,126.756,150,179.096,0\C,150,1.42947,149,120.766,147,110.982,0\H,155,1.08633,150,120.691,149,8.16466,0\C,155,1.43007,150,121.595,149,174.801,0\H,157,1.08575,155,120.889,150,-176.012,0\C,157,1.43151,155,119.884,150,6.13565,0\H,159,1.08622,157,118.356,155,-176.576,0\C,149,1.58696,147,121.182,146,-7.31249,0\H,161,1.09661,149,100.143,147,75.312,0\H,161,1.09803,149,109.138,147,-33.023,0\C,161,1.56032,149,116.738,147,-157.218,0\H,164,1.09758,161,112.008,149,-48.3156,0\H,164,1.0978,161,106.219,149,-160.779,0\C,164,1.60179,161,114.455,149,67.8953,0\H,167,1.09659,164,108.338,161,73.7222,0\H,167,1.09696,164,121.198,161,-46.0908,0\C,167,1.5608,164,111.557,161,-167.04,0\O,170,1.21016,167,124.249,164,-102.007,0\O,170,1.40278,167,111.601,164,86.9928,0\C,172,1.48621,170,120.119,167,170.002,0\H,173,1.09712,172,109.508,170,69.2801,0\H,173,1.09718,172,110.007,170,-176.388,0\H,173,1.09775,172,118.591,170,-49.494,0\\\@

 Total job time:  886.06s(wall), 7521.00s(cpu) 
 Tue Oct  9 10:30:46 2018

        *************************************************************
        *                                                           *
        *  Thank you very much for using Q-Chem.  Have a nice day.  *
        *                                                           *
        *************************************************************


