
Running Job 1 of 1 ./6/14.qcin
qchem ./6/14.qcin_43603.0 /tmpu/cab_g/afmv_a/scratch_qchem/qchem43603/ 1
/tmpu/appuserlic/qchem4.4/serial-multicore/exe/qcprog.exe_s ./6/14.qcin_43603.0 /tmpu/cab_g/afmv_a/scratch_qchem/qchem43603/
Check license passed

                  Welcome to Q-Chem
     A Quantum Leap Into The Future Of Chemistry


 Q-Chem 4.4, Q-Chem, Inc., Pleasanton, CA (2016)

 Y. Shao,  Z. Gan,  E. Epifanovsky,  A. T. B. Gilbert,  M. Wormit,  
 J. Kussmann,  A. W. Lange,  A. Behn,  J. Deng,  X. Feng,  D. Ghosh,  
 M. Goldey,  P. R. Horn,  L. D. Jacobson,  I. Kaliman,  F. Rob,  
 R. Z. Khaliullin,  T. Kus,  A. Landau,  J. Liu,  E. I. Proynov,  Y. M. Rhee,  
 R. M. Richard,  M. A. Rohrdanz,  R. P. Steele,  E. J. Sundstrom,  
 H. L. Woodcock III,  P. M. Zimmerman,  D. Zuev,  B. Albrecht,  E. Alguire,  
 B. Austin,  S. A. Baeppler,  G. J. O. Beran,  Y. A. Bernard,  E. Berquist,  
 K. Brandhorst,  K. B. Bravaya,  S. T. Brown,  D. Casanova,  C.-M. Chang,  
 Y. Chen,  S. H. Chien,  K. D. Closser,  M. P. Coons,  D. L. Crittenden,  
 S. Dasgupta,  M. Diedenhofen,  R. A. DiStasio Jr.,  H. Do,  A. D. Dutoi,  
 R. G. Edgar,  P.-T. Fang,  S. Fatehi,  Q. Feng,  L. Fusti-Molnar,  
 A. Ghysels,  A. Golubeva-Zadorozhnaya,  J. Gomes,  A. Gunina,  
 M. W. D. Hanson-Heine,  P. H. P. Harbach,  A. W. Hauser,  J. E. Herr,  
 E. G. Hohenstein,  Z. C. Holden,  K. Hui,  T.-C. Jagau,  H. Ji,  B. Kaduk,  
 K. Khistyaev,  Jaehoon Kim,  Jihan Kim,  R. A. King,  P. Klunzinger,  
 K. Koh,  D. Kosenkov,  T. Kowalczyk,  C. M. Krauter,  A. Kunitsa,  
 K. U. Lao,  A. Laurent,  K. V. Lawler,  J. Lee,  D. Lefrancois,  S. Lehtola,  
 S. V. Levchenko,  C. Y. Lin,  Y.-S. Lin,  F. Liu,  E. Livshits,  
 R. C. Lochan,  A. Luenser,  P. Manohar,  S. F. Manzer,  S.-P. Mao,  Y. Mao,  
 N. Mardirossian,  A. V. Marenich,  L. A. Martinez-Martinez,  S. A. Maurer,  
 N. J. Mayhall,  J.-M. Mewes,  A. F. Morrison,  K. Nanda,  T. S. Nguyen-Beck,  
 C. M. Oana,  R. Olivares-Amaya,  D. P. O'Neill,  J. A. Parkhill,  
 T. M. Perrine,  R. Peverati,  P. A. Pieniazek,  F. Plasser,  A. Prociuk,  
 D. R. Rehn,  E. Rosta,  N. J. Russ,  N. Sergueev,  S. M. Sharada,  
 S. Sharma,  D. W. Small,  A. Sodt,  T. Stauch,  T. Stein,  D. Stuck,  
 Y.-C. Su,  A. J. W. Thom,  T. Tsuchimochi,  L. Vogt,  O. Vydrov,  T. Wang,  
 M. A. Watson,  J. Wenzel,  A. White,  C. F. Williams,  V. Vanovschi,  
 K. Yao,  S. Yeganeh,  S. R. Yost,  Z.-Q. You,  I. Y. Zhang,  X. Zhang,  
 Y. Zhao,  B. R. Brooks,  G. K. L. Chan,  D. M. Chipman,  C. J. Cramer,  
 W. A. Goddard III,  M. S. Gordon,  W. J. Hehre,  A. Klamt,  
 H. F. Schaefer III,  M. W. Schmidt,  C. D. Sherrill,  D. G. Truhlar,  
 A. Warshel,  X. Xu,  A. Aspuru-Guzik,  R. Baer,  A. T. Bell,  N. A. Besley,  
 J.-D. Chai,  A. Dreuw,  B. D. Dunietz,  T. R. Furlani,  S. R. Gwaltney,  
 C.-P. Hsu,  Y. Jung,  J. Kong,  D. S. Lambrecht,  W. Liang,  C. Ochsenfeld,  
 V. A. Rassolov,  L. V. Slipchenko,  J. E. Subotnik,  T. Van Voorhis,  
 J. M. Herbert,  A. I. Krylov,  P. M. W. Gill,  M. Head-Gordon

 Contributors to earlier versions of Q-Chem not listed above: 
 R. D. Adamson,  J. Baker,  E. F. C. Byrd,  A. K. Chakraborty,  C.-L. Cheng,  
 H. Dachsel,  R. J. Doerksen,  G. Hawkins,  A. Heyden,  S. Hirata,  
 G. Kedziora,  F. J. Keil,  C. Kelley,  P. P. Korambath,  W. Kurlancheek,  
 A. M. Lee,  M. S. Lee,  D. Liotard,  I. Lotan,  P. E. Maslen,  N. Nair,  
 D. Neuhauser,  R. Olson,  B. Peters,  J. Ritchie,  N. E. Schultz,  
 N. Shenvi,  A. C. Simmonett,  K. S. Thanthiriwatte,  Q. Wu,  W. Zhang

 Please cite Q-Chem as follows:
 Y. Shao et al., Mol. Phys. 113, 184-215 (2015)
 DOI: 10.1080/00268976.2014.952696

 Q-Chem 4.4.2 for Intel X86 Linux

 Parts of Q-Chem use Armadillo 5.200.1 (Boston Tea Smuggler).
 http://arma.sourceforge.net/

 Q-Chem begins on Tue Oct  9 10:30:47 2018  

Host: 
0

     Scratch files written to /tmpu/cab_g/afmv_a/scratch_qchem/qchem43603//
 Dec716 11556_ 22328  22283 4050   
Processing $rem in /tmpu/appuserlic/qchem4.4/serial-multicore/config/preferences.
 MEM_TOTAL  2000 
FILE_GEOM_ORG=        593

Checking the input file for inconsistencies... 	...done.

--------------------------------------------------------------
User input:
--------------------------------------------------------------
$comment
SP
$end

$rem
MEM_STATIC 5000
MEM_TOTAL 20000
JOBTYPE SP
EXCHANGE B3LYP
BASIS 6-31g(d,p)
$end

$molecule
0 1
O          -9.914000     15.272000     -0.952000
C          -9.008000     15.634000     -2.005000
H          -9.231000     16.642000     -2.376000
H          -9.168000     15.048000     -2.919000
H          -8.012000     15.438000     -1.589000
O         -11.848000     15.545000     -2.169000
C         -11.299000     15.192000     -1.148000
C         -12.087000     14.798000      0.066000
H         -11.826000     13.773000      0.360000
H         -13.160000     14.775000     -0.158000
C         -11.927000     15.784000      1.273000
H         -12.347000     15.412000      2.216000
H         -10.886000     16.101000      1.409000
C         -12.817000     17.004000      1.064000
H         -12.465000     17.624000      0.231000
H         -13.828000     16.728000      0.739000
C         -12.836000     17.955000      2.244000
C         -13.709000     17.417000      3.374000
C         -13.163000     16.465000      4.272000
H         -12.109000     16.204000      4.290000
C         -13.930000     15.884000      5.293000
H         -13.542000     15.215000      6.056000
C         -15.302000     16.191000      5.348000
H         -16.039000     15.781000      6.032000
C         -15.834000     17.221000      4.535000
H         -16.869000     17.532000      4.634000
C         -15.059000     17.819000      3.516000
H         -15.424000     18.568000      2.819000
C         -13.039000     23.187000      3.902000
C         -11.709000     22.248000      5.609000
C          -7.754000     24.212000      4.178000
C         -11.364000     22.285000     -0.793000
C          -6.687000     21.329000      2.260000
C         -12.789000     22.149000      4.797000
C          -8.607000     22.089000     -0.637000
C         -10.026000     25.101000      4.410000
C          -9.606000     19.222000      3.931000
C         -10.721000     21.025000     -0.731000
C         -11.525000     18.729000      2.624000
C          -9.142000     18.829000      2.684000
C          -9.025000     19.833000      0.115000
C          -7.498000     22.236000      0.200000
C         -11.753000     20.137000      4.779000
C          -7.008000     23.768000      2.027000
C         -12.655000     19.451000      2.017000
C         -12.430000     20.168000      0.780000
C          -6.602000     22.716000      2.817000
C         -10.591000     25.212000      0.900000
C          -8.765000     25.389000      2.300000
C          -9.899000     25.572000      3.080000
C         -11.197000     24.526000      4.883000
C         -13.000000     21.471000      0.807000
C         -11.035000     19.187000      3.949000
C         -10.912000     23.429000      5.685000
C          -9.338000     20.916000     -0.716000
C         -11.051000     20.971000      5.597000
C          -7.929000     19.389000      2.223000
C         -12.447000     23.801000      0.500000
C          -8.967000     24.355000      4.892000
C         -10.235000     18.660000      1.825000
C         -12.196000     24.904000      2.710000
C          -7.879000     19.937000      0.905000
C          -8.876000     20.048000      4.821000
C          -8.568000     24.200000      0.184000
C          -9.275000     23.333000     -0.704000
C          -7.697000     20.550000      4.323000
C         -12.483000     22.513000      0.007000
C         -11.209000     19.998000      0.065000
C         -11.305000     24.385000      0.053000
C         -13.264000     20.562000      2.871000
C          -8.880000     22.070000      5.688000
C         -10.179000     19.204000      0.517000
C          -7.192000     20.266000      3.065000
C         -12.975000     24.090000      1.814000
C          -7.177000     22.927000      4.091000
C         -12.258000     24.339000      3.942000
C          -7.712000     24.662000      2.826000
C          -9.656000     20.891000      5.597000
C          -7.684000     21.860000      4.880000
C         -12.897000     20.782000      4.250000
C         -13.608000     21.734000      2.068000
C          -9.171000     25.192000      0.927000
C          -9.515000     23.318000      5.623000
C          -7.121000     21.146000      0.978000
C         -10.626000     23.462000     -0.735000
C          -7.454000     23.544000      0.704000
C         -13.546000     23.040000      2.588000
C         -11.001000     25.466000      2.191000
O          -4.712000     28.426000      0.464000
C          -4.214000     29.122000      1.621000
H          -4.902000     29.882000      2.012000
H          -3.337000     29.664000      1.247000
H          -3.972000     28.373000      2.385000
O          -6.331000     27.425000      1.706000
C          -5.784000     27.596000      0.646000
C          -6.178000     26.863000     -0.590000
H          -7.000000     27.515000     -0.912000
H          -6.696000     25.968000     -0.224000
C          -5.078000     26.657000     -1.649000
H          -4.863000     27.593000     -2.178000
H          -4.206000     26.257000     -1.116000
C          -5.594000     25.687000     -2.744000
H          -6.021000     24.834000     -2.202000
H          -6.374000     26.177000     -3.341000
C          -4.510000     25.156000     -3.661000
C          -3.811000     26.256000     -4.485000
C          -2.769000     27.012000     -3.830000
H          -2.495000     26.788000     -2.804000
C          -2.097000     27.990000     -4.578000
H          -1.327000     28.608000     -4.126000
C          -2.375000     28.198000     -5.933000
H          -1.837000     28.959000     -6.490000
C          -3.346000     27.495000     -6.549000
H          -3.510000     27.597000     -7.618000
C          -4.099000     26.541000     -5.836000
H          -4.951000     26.055000     -6.302000
C          -3.397000     21.796000     -7.701000
C          -1.215000     22.145000     -6.736000
C          -0.759000     18.071000     -4.773000
C          -6.702000     20.111000     -4.248000
C          -1.746000     19.037000     -1.550000
C          -2.469000     22.615000     -7.023000
C          -5.327000     18.543000     -2.211000
C          -1.561000     18.699000     -7.033000
C          -1.605000     22.907000     -2.753000
C          -6.358000     20.653000     -3.022000
C          -3.686000     23.938000     -3.216000
C          -2.529000     22.424000     -1.740000
C          -4.848000     20.831000     -1.301000
C          -4.048000     18.082000     -1.838000
C          -1.918000     23.571000     -5.040000
C          -2.181000     17.289000     -3.218000
C          -4.731000     23.808000     -4.312000
C          -5.837000     22.834000     -4.116000
C          -1.290000     18.159000     -2.587000
C          -4.867000     17.901000     -6.168000
C          -2.834000     17.131000     -5.666000
C          -2.678000     17.864000     -6.851000
C          -1.724000     19.962000     -7.547000
C          -6.194000     22.222000     -5.349000
C          -2.282000     23.699000     -3.675000
C          -0.772000     20.871000     -7.032000
C          -5.696000     19.937000     -2.009000
C          -0.858000     22.714000     -5.498000
C          -2.447000     21.166000     -1.248000
C          -6.078000     19.942000     -6.357000
C          -0.604000     18.767000     -5.974000
C          -3.842000     22.954000     -2.079000
C          -4.124000     19.614000     -7.706000
C          -3.540000     20.353000     -0.976000
C          -0.559000     22.089000     -3.123000
C          -4.507000     17.250000     -3.867000
C          -5.602000     18.027000     -3.490000
C          -0.426000     20.803000     -2.569000
C          -6.605000     20.849000     -5.414000
C          -5.870000     22.020000     -2.970000
C          -5.929000     18.681000     -5.783000
C          -4.279000     23.453000     -5.727000
C           0.221000     20.654000     -4.787000
C          -4.969000     22.109000     -1.910000
C          -1.330000     20.366000     -1.595000
C          -5.115000     20.402000     -7.240000
C          -0.425000     18.634000     -3.551000
C          -2.992000     20.470000     -7.976000
C          -1.871000     17.210000     -4.601000
C          -0.172000     21.962000     -4.486000
C           0.065000     19.968000     -3.573000
C          -2.928000     23.462000     -6.024000
C          -5.189000     22.625000     -6.303000
C          -4.149000     17.172000     -5.226000
C          -0.072000     20.041000     -6.064000
C          -3.157000     19.059000     -1.296000
C          -6.317000     18.741000     -4.488000
C          -3.548000     17.222000     -2.862000
C          -4.747000     21.748000     -7.272000
C          -3.937000     18.336000     -7.155000
$end

--------------------------------------------------------------
 ----------------------------------------------------------------
             Standard Nuclear Orientation (Angstroms)
    I     Atom           X                Y                Z
 ----------------------------------------------------------------
    1      O       2.5876286557    -6.2040098720     0.3778808725
    2      C       1.1827796459    -6.0213480597     0.6096629298
    3      H       1.0097168854    -5.1667163270     1.2753113974
    4      H       0.7457478614    -6.8297416254     1.2095754754
    5      H       0.7398395776    -6.0011437666    -0.3937731082
    6      O       3.1849830532    -6.4485734947     2.5868015045
    7      C       3.4901184521    -6.4764397178     1.4143822698
    8      C       4.9176659450    -6.6373838200     0.9828951301
    9      H       5.0128560849    -7.5235037857     0.3418707596
   10      H       5.5652841144    -6.8288551761     1.8465868728
   11      C       5.5135883782    -5.3710235896     0.2787266697
   12      H       6.4861645818    -5.5391952041    -0.2006967718
   13      H       4.8044773811    -4.9217609344    -0.4269578635
   14      C       5.9231947771    -4.3426375559     1.3269755732
   15      H       5.0517805086    -3.9155452642     1.8372915018
   16      H       6.4805393942    -4.7962412135     2.1561514892
   17      C       6.6368770132    -3.1356445687     0.7516603599
   18      C       8.0844776813    -3.4651175809     0.3989950232
   19      C       8.3641376568    -4.1005950325    -0.8374445050
   20      H       7.6191303887    -4.2357874057    -1.6159354765
   21      C       9.6645504800    -4.4873438954    -1.1947158393
   22      H       9.9457371506    -4.9006502919    -2.1592809635
   23      C      10.6895151199    -4.3233893877    -0.2448608997
   24      H      11.7278591388    -4.6261148775    -0.3414216385
   25      C      10.4490230493    -3.5901975372     0.9423569718
   26      H      11.2533345436    -3.3757629825     1.6386671340
   27      C       9.1424787772    -3.1857367587     1.2972422259
   28      H       8.8809631164    -2.6765613763     2.2204892076
   29      C       7.4177452230     2.2924146337     1.0523514549
   30      C       7.6542287146     1.9536278486    -1.2700974837
   31      C       3.5946222393     3.9075882604    -2.3875570914
   32      C       3.1328469879     0.4340115821     3.0140444005
   33      C       1.7882152847     0.7679758374    -2.4804535255
   34      C       7.9224107787     1.5420444575    -0.0074722453
   35      C       1.2125748384     0.5760629652     1.0250302537
   36      C       5.3513286795     4.5805838071    -0.8168284461
   37      C       5.2532789558    -1.1542765046    -2.2556632027
   38      C       2.8119172198    -0.6955934228     2.2229125424
   39      C       5.8489087935    -2.1571260093    -0.1884484177
   40      C       4.1149263489    -1.7935652025    -1.7863900379
   41      C       2.2269641349    -1.4532827096     0.1988737994
   42      C       0.9352172068     1.0431473492    -0.2622008532
   43      C       7.3251957579    -0.2898501826    -1.1945949208
   44      C       1.6501378064     3.0242934806    -1.4824473619
   45      C       6.2163287766    -1.7325833500     1.1722128503
   46      C       5.1612082764    -1.3259993873     2.0757023142
   47      C       1.9706241438     2.2508579910    -2.5754826088
   48      C       3.4227356249     3.7549023821     2.0555268617
   49      C       2.9864949762     4.4667846926    -0.0958733039
   50      C       4.3291259920     4.7168198346     0.1544652328
   51      C       6.5855422317     4.0205742223    -0.5190010254
   52      C       5.4834397669    -0.1251348846     2.7667372719
   53      C       6.3267677276    -1.3348321097    -1.3290502683
   54      C       7.0077041904     3.1939827371    -1.5516499480
   55      C       1.8074975674    -0.6503460082     1.2669372115
   56      C       7.2744578806     0.7908447849    -2.0234544113
   57      C       2.8589539411    -1.2405659508    -2.1243473406
   58      C       4.6586579706     2.1003975300     3.2091154581
   59      C       4.9554374302     4.0943355208    -2.0485563880
   60      C       4.3677768733    -2.2856065570    -0.4999014380
   61      C       5.8444068300     3.7384243688     1.7687760128
   62      C       1.8948013061    -1.0353658805    -1.0907949097
   63      C       5.2304661201    -0.0604167299    -3.1557889539
   64      C       1.5393185658     2.8167737532     0.9591766179
   65      C       1.5501385800     1.6863726050     1.8321933253
   66      C       3.9802874169     0.4239404752    -3.4599275868
   67      C       4.4736134167     0.7339335382     3.2518199322
   68      C       3.7962453213    -1.5381433989     1.7252211457
   69      C       3.4624189907     2.6724656446     2.9145320653
   70      C       7.1354420757    -0.5150816794     1.2584591579
   71      C       5.6277362711     2.1014893004    -3.2481347349
   72      C       3.4062005844    -2.0811358642     0.5216164407
   73      C       2.7943834012    -0.1087971674    -2.9823636962
   74      C       5.8984291252     2.6494370696     2.7086915695
   75      C       3.2256291507     2.7098770532    -3.0364445738
   76      C       6.7617252443     3.4942032489     0.7993555821
   77      C       2.6226239766     4.0091340426    -1.3497344517
   78      C       6.2485397766     0.8615543674    -2.9694550449
   79      C       4.2229874386     1.8250628899    -3.5267907187
   80      C       7.7618845523     0.0784687365     0.1008764493
   81      C       6.7495245345     0.3772222141     2.3500590906
   82      C       2.3908502720     3.8927401040     1.0892233997
   83      C       5.9418294537     3.2196421279    -2.4632565744
   84      C       1.2726298554     0.2270710496    -1.3372288426
   85      C       2.5183960098     1.6597916447     2.7832842790
   86      C       1.1198511710     2.4324493614    -0.3128587065
   87      C       6.9316613833     1.7704830716     2.2756927586
   88      C       4.5629674748     4.2770220115     1.4840730831
   89      O      -1.5124301181     7.3634989372    -0.7202078142
   90      C      -1.1738865752     8.3740129888    -1.6873265355
   91      H      -0.4727768113     9.1300901412    -1.3123366174
   92      H      -2.1214584884     8.8957305140    -1.8681228108
   93      H      -0.7766660567     7.8684704005    -2.5760917188
   94      O       0.6041316290     6.5370989600    -0.7745718497
   95      C      -0.5222159692     6.4961087575    -0.3482962448
   96      C      -0.9870346784     5.4413429082     0.5959672623
   97      H      -0.6516340636     5.9019695882     1.5339446017
   98      H      -0.2787302492     4.6157901392     0.4542899485
   99      C      -2.4881650546     5.0961931558     0.5586009390
  100      H      -3.0843003223     5.8886042478     1.0264357431
  101      H      -2.7429111905     4.9359470654    -0.4968130066
  102      C      -2.7473057564     3.8353839534     1.4242725001
  103      H      -1.9930146179     3.1036655607     1.1090978309
  104      H      -2.6114512072     4.0761113010     2.4865826646
  105      C      -4.1126351605     3.2109395475     1.2148666682
  106      C      -5.2784805563     4.1391565870     1.6108396983
  107      C      -5.6824969464     5.1402326286     0.6511821992
  108      H      -5.1820355618     5.2086865391    -0.3094324294
  109      C      -6.7667055734     5.9670263871     0.9805387444
  110      H      -7.0919483652     6.7559588226     0.3090249779
  111      C      -7.4818086482     5.8009425827     2.1711758690
  112      H      -8.3199709483     6.4521098279     2.3998222716
  113      C      -7.1092046583     4.8681102730     3.0697837639
  114      H      -7.7087249004     4.6831537742     3.9565912812
  115      C      -5.9904812034     4.0471431367     2.8249066666
  116      H      -5.6257727731     3.3731341119     3.5942931724
  117      C      -7.3228024051    -0.9106603828     2.4627485841
  118      C      -8.3278919750    -0.1036344267     0.4249423954
  119      C      -6.9900096023    -3.4896744097    -2.2960105609
  120      C      -2.4235690407    -2.0244218742     1.7975367522
  121      C      -4.2005183217    -1.8627864883    -3.6624029228
  122      C      -7.6327753850     0.1447172923     1.5785971747
  123      C      -1.9437836532    -2.8819876403    -0.9470952702
  124      C      -7.9575915038    -3.5318956088    -0.0140836045
  125      C      -5.4560729551     1.5790319260    -1.9241685987
  126      C      -1.9110960724    -1.1613303477     0.8448455780
  127      C      -4.3164105962     2.2361679726     0.0449004514
  128      C      -4.0535772605     1.2680208185    -2.1466813348
  129      C      -1.8996678467    -0.4021376111    -1.3224386176
  130      C      -2.6009701646    -3.0976439077    -2.1755452137
  131      C      -6.8070492679     1.6165438547     0.0614521752
  132      C      -4.8307650689    -4.0065373266    -2.6455084439
  133      C      -4.2604354724     1.7278316782     1.4761942708
  134      C      -3.2226899812     0.7216800202     1.8241470499
  135      C      -5.1492429269    -2.9176616773    -3.4590584880
  136      C      -4.8609921591    -4.4352415241     1.3678366738
  137      C      -5.9627536843    -4.8364758357    -0.5303534033
  138      C      -6.9335973262    -4.4088653113     0.3864136676
  139      C      -8.2933744660    -2.4609534805     0.7772865744
  140      C      -3.7238620484    -0.2119239804     2.7725626387
  141      C      -5.6402151718     2.0406225881    -0.6246676542
  142      C      -8.7377925731    -1.3569109448     0.0147955084
  143      C      -1.6621323194    -1.5287115145    -0.4893647233
  144      C      -7.8195002149     0.7898127948    -0.5379407131
  145      C      -3.6729048083     0.1878445885    -2.8675556625
  146      C      -4.2746164916    -2.6454266694     2.8240816265
  147      C      -7.9674178483    -3.1017712086    -1.3767466015
  148      C      -3.3548154158     1.5549625987    -0.9020182081
  149      C      -6.5902778471    -3.0897015936     2.3929977853
  150      C      -2.6087529332    -0.6430247465    -2.5406934055
  151      C      -6.4030926548     0.8102471253    -2.5662461787
  152      C      -3.5366795884    -4.4517788864    -0.6555082624
  153      C      -2.5449994488    -3.7259171905     0.0037172673
  154      C      -6.0163777936    -0.2760707301    -3.3717063782
  155      C      -3.3385184482    -1.5935214891     2.7413595321
  156      C      -2.3615796124     0.2194125631     0.8325738885
  157      C      -3.8886972324    -3.7010076069     2.0003017956
  158      C      -5.5051952009     1.0820871217     2.0812902847
  159      C      -7.9588423661    -0.9024854482    -2.2786510340
  160      C      -2.3311658421     0.6640736970    -0.4882869969
  161      C      -4.6588230860    -0.5503723221    -3.5683401817
  162      C      -5.6173596600    -2.3201067257     2.9234079478
  163      C      -6.4746938172    -2.6084178607    -3.2339047641
  164      C      -7.6858726832    -2.2128048553     2.0498009529
  165      C      -5.9740241260    -4.3936335135    -1.8984172377
  166      C      -7.5857197302     0.3900641938    -1.8965398964
  167      C      -6.9729427623    -1.2776343681    -3.2038500716
  168      C      -6.7043248781     1.1599800750     1.3960810430
  169      C      -5.1398262290     0.0453115645     2.8794518965
  170      C      -4.6995991320    -4.8268617117     0.0431046558
  171      C      -8.5366189328    -1.8412145726    -1.3420033575
  172      C      -2.9883865580    -1.9278784537    -2.8992380497
  173      C      -2.7445425357    -3.3623448313     1.3620333925
  174      C      -3.5752548808    -4.1272969229    -2.0059575958
  175      C      -6.0329975692    -0.9931761256     3.0445042351
  176      C      -6.2462774135    -4.1633443536     1.5558544729
 ----------------------------------------------------------------
 Molecular Point Group                 C1    NOp =  1
 Largest Abelian Subgroup              C1    NOp =  1
 Nuclear Repulsion Energy = 35014.4986932750 hartrees
 There are      462 alpha and      462 beta electrons
 Requested basis set is 6-31G(d,p)
 There are 676 shells and 2360 basis functions

 Total QAlloc Memory Limit  20000 MB
 Mega-Array Size      4888 MB
 MEM_STATIC part      5000 MB
 A cutoff of  1.0D-08 yielded  38047 shell pairs
 There are    533076 function pairs
 
 -------------------------------------------------------
 OpenMP Integral Computing Module                       
 Release: version 1.0, May 2013, Q-Chem Inc. Pittsburgh 
 -------------------------------------------------------
 Integral Job Info:
 Integral job number is                      11
 Integral operator is                         1
 short-range coefficients                     0
 long-range coefficients              100000000
 Omega coefficients                           0
 if combine SR and LR in K                    0
 Integral screening is                        0
 Integral computing path is                   2
 max size of driver memory is            800000
 size of driver memory is                593474
 size of scratch memory is              2260544
 max col of scratch BK array               1296
 max len of scratch array in speh3          155
 max len of scratch index in speh4           18
 max int batch size is                      520
 min int batch size is                       52
 fixed nKL is                                52
 max L of basis functions is                  2
 order of int derivative is                   0
 number of shells is                        676
 number of basis is                        2360
 number of cartesian basis is              2360
 number of contracted shell pairs         38047
 number of primitive shell pairs         114675
 maxK2 (contraction) of shell pair           36
 max number of K2 of shell pair               1
 max number of CS2 of shell pair           7265
 max number of PS2 of shell pair          34530
 mem total for path MDJ                 1517352
 -------------------------------------------------------
 Smallest overlap matrix eigenvalue = 2.51E-04

 Scale SEOQF with 1.000000e-02/1.000000e-02/1.000000e-01

 Standard Electronic Orientation quadrupole field applied
 Nucleus-field energy     =    -0.0000001894 hartrees
 Guess from superposition of atomic densities
 Warning:  Energy on first SCF cycle will be non-variational
 A restricted hybrid HF-DFT SCF calculation will be
 performed using Pulay DIIS extrapolation
 Exchange:     0.2000 Hartree-Fock + 0.0800 Slater + 0.7200 B88
 Correlation:  0.1900 VWN1RPA + 0.8100 LYP
 Using SG-1 standard quadrature grid
 SCF converges when DIIS error is below 1.0E-05
 using 16 threads for integral computing 
 -------------------------------------------------------
 OpenMP BLAS3 based DFT computing Module                
 Release: version 1.0, May 2013, Q-Chem Inc. Pittsburgh 
 -------------------------------------------------------
 ---------------------------------------
  Cycle       Energy         DIIS Error
 ---------------------------------------
    1   -5858.2780187750      1.83E-02
    2   -5803.1337039495      1.29E-03
    3   -5802.3471238996      1.78E-03
    4   -5803.9740270170      6.47E-04
    5   -5804.2152000470      2.92E-04
    6   -5804.2739209145      1.13E-04
    7   -5804.2819174974      4.29E-05
    8   -5804.2827626652      2.55E-05
    9   -5804.2831833353      9.36E-06 Convergence criterion met
 ---------------------------------------
 SCF time:  CPU 7209.52 s  wall 830.46 s
 SCF   energy in the final basis set = -5804.2831833353
 Total energy in the final basis set = -5804.2831833353
 
 --------------------------------------------------------------
 
                    Orbital Energies (a.u.)
 --------------------------------------------------------------
 
 Alpha MOs
 -- Occupied --
-19.191 -19.184 -19.136 -19.133 -10.317 -10.312 -10.245 -10.243
-10.242 -10.242 -10.241 -10.239 -10.238 -10.237 -10.237 -10.236
-10.229 -10.226 -10.226 -10.226 -10.225 -10.224 -10.224 -10.223
-10.222 -10.222 -10.222 -10.222 -10.221 -10.221 -10.220 -10.220
-10.219 -10.219 -10.219 -10.219 -10.219 -10.219 -10.218 -10.218
-10.218 -10.218 -10.218 -10.217 -10.217 -10.217 -10.217 -10.217
-10.217 -10.217 -10.216 -10.216 -10.216 -10.216 -10.216 -10.216
-10.215 -10.215 -10.215 -10.215 -10.215 -10.215 -10.215 -10.215
-10.214 -10.214 -10.214 -10.214 -10.214 -10.214 -10.214 -10.214
-10.213 -10.213 -10.213 -10.213 -10.213 -10.212 -10.212 -10.212
-10.212 -10.212 -10.212 -10.212 -10.212 -10.212 -10.212 -10.212
-10.212 -10.212 -10.211 -10.211 -10.211 -10.211 -10.211 -10.211
-10.211 -10.211 -10.211 -10.210 -10.210 -10.210 -10.210 -10.209
-10.209 -10.209 -10.209 -10.209 -10.209 -10.209 -10.209 -10.208
-10.208 -10.208 -10.208 -10.208 -10.208 -10.208 -10.208 -10.207
-10.207 -10.207 -10.207 -10.207 -10.207 -10.206 -10.206 -10.205
-10.205 -10.205 -10.205 -10.204 -10.204 -10.203 -10.203 -10.203
-10.203 -10.202 -10.202 -10.201 -10.200 -10.199 -10.199 -10.199
-10.197 -10.197 -10.196 -10.194  -1.096  -1.081  -1.015  -1.009
 -0.982  -0.981  -0.964  -0.963  -0.962  -0.962  -0.959  -0.957
 -0.932  -0.932  -0.930  -0.925  -0.923  -0.923  -0.922  -0.920
 -0.920  -0.915  -0.898  -0.894  -0.890  -0.888  -0.884  -0.880
 -0.872  -0.870  -0.855  -0.850  -0.840  -0.839  -0.839  -0.838
 -0.836  -0.834  -0.821  -0.819  -0.807  -0.804  -0.798  -0.796
 -0.795  -0.794  -0.793  -0.793  -0.790  -0.789  -0.784  -0.782
 -0.771  -0.769  -0.768  -0.766  -0.765  -0.764  -0.762  -0.762
 -0.750  -0.750  -0.745  -0.740  -0.731  -0.730  -0.716  -0.713
 -0.713  -0.711  -0.711  -0.711  -0.710  -0.709  -0.708  -0.708
 -0.707  -0.705  -0.704  -0.703  -0.703  -0.701  -0.672  -0.671
 -0.658  -0.657  -0.657  -0.655  -0.648  -0.645  -0.630  -0.628
 -0.628  -0.626  -0.624  -0.624  -0.621  -0.620  -0.617  -0.616
 -0.615  -0.614  -0.613  -0.612  -0.610  -0.609  -0.609  -0.608
 -0.607  -0.605  -0.603  -0.601  -0.565  -0.564  -0.563  -0.562
 -0.561  -0.560  -0.557  -0.556  -0.555  -0.553  -0.552  -0.551
 -0.535  -0.535  -0.531  -0.529  -0.528  -0.528  -0.525  -0.523
 -0.522  -0.521  -0.520  -0.517  -0.516  -0.515  -0.514  -0.512
 -0.506  -0.504  -0.501  -0.499  -0.495  -0.491  -0.488  -0.486
 -0.484  -0.482  -0.480  -0.478  -0.478  -0.477  -0.476  -0.472
 -0.472  -0.470  -0.469  -0.467  -0.467  -0.466  -0.466  -0.465
 -0.464  -0.464  -0.463  -0.461  -0.461  -0.458  -0.458  -0.457
 -0.455  -0.453  -0.452  -0.450  -0.447  -0.447  -0.444  -0.443
 -0.442  -0.441  -0.438  -0.438  -0.437  -0.434  -0.434  -0.432
 -0.431  -0.431  -0.428  -0.427  -0.426  -0.425  -0.423  -0.423
 -0.422  -0.421  -0.420  -0.420  -0.419  -0.418  -0.418  -0.417
 -0.416  -0.415  -0.414  -0.414  -0.414  -0.413  -0.412  -0.412
 -0.411  -0.409  -0.408  -0.406  -0.403  -0.400  -0.398  -0.394
 -0.393  -0.392  -0.389  -0.389  -0.388  -0.387  -0.386  -0.385
 -0.381  -0.374  -0.373  -0.372  -0.371  -0.368  -0.367  -0.365
 -0.365  -0.364  -0.362  -0.360  -0.359  -0.358  -0.358  -0.358
 -0.357  -0.356  -0.356  -0.354  -0.354  -0.353  -0.352  -0.350
 -0.349  -0.348  -0.347  -0.346  -0.345  -0.344  -0.344  -0.343
 -0.342  -0.341  -0.340  -0.339  -0.337  -0.336  -0.334  -0.333
 -0.332  -0.330  -0.329  -0.328  -0.327  -0.325  -0.324  -0.323
 -0.311  -0.305  -0.301  -0.292  -0.287  -0.283  -0.272  -0.270
 -0.269  -0.268  -0.266  -0.266  -0.266  -0.265  -0.264  -0.262
 -0.261  -0.261  -0.260  -0.258  -0.257  -0.255  -0.254  -0.252
 -0.250  -0.248  -0.242  -0.239  -0.221  -0.220  -0.212  -0.211
 -0.209  -0.207  -0.206  -0.204  -0.197  -0.195
 -- Virtual --
 -0.124  -0.123  -0.119  -0.117  -0.109  -0.102  -0.078  -0.077
 -0.075  -0.072  -0.059  -0.055  -0.054  -0.050  -0.025  -0.023
 -0.020  -0.019  -0.018  -0.017  -0.015  -0.014  -0.014  -0.014
 -0.012  -0.010  -0.009  -0.007  -0.006  -0.003   0.004   0.006
  0.007   0.017   0.033   0.034   0.040   0.044   0.045   0.048
  0.049   0.051   0.055   0.061   0.063   0.064   0.066   0.067
  0.067   0.074   0.081   0.082   0.083   0.087   0.088   0.091
  0.093   0.097   0.098   0.100   0.104   0.105   0.106   0.109
  0.110   0.112   0.113   0.115   0.117   0.118   0.121   0.123
  0.125   0.127   0.128   0.128   0.131   0.131   0.134   0.136
  0.140   0.140   0.144   0.145   0.148   0.148   0.151   0.156
  0.157   0.159   0.159   0.164   0.166   0.166   0.169   0.171
  0.172   0.175   0.176   0.178   0.179   0.181   0.181   0.182
  0.183   0.184   0.186   0.187   0.188   0.190   0.191   0.192
  0.193   0.195   0.196   0.198   0.201   0.203   0.205   0.206
  0.210   0.211   0.212   0.213   0.215   0.217   0.219   0.220
  0.221   0.223   0.224   0.225   0.225   0.225   0.227   0.229
  0.230   0.231   0.233   0.235   0.236   0.239   0.241   0.242
  0.243   0.243   0.245   0.245   0.248   0.250   0.252   0.255
  0.262   0.263   0.268   0.271   0.274   0.275   0.277   0.279
  0.284   0.285   0.290   0.291   0.292   0.298   0.301   0.308
  0.309   0.310   0.312   0.312   0.314   0.315   0.318   0.319
  0.320   0.321   0.325   0.326   0.327   0.328   0.332   0.334
  0.336   0.338   0.339   0.340   0.346   0.347   0.349   0.350
  0.350   0.354   0.360   0.366   0.369   0.378   0.383   0.389
  0.393   0.396   0.398   0.401   0.404   0.404   0.407   0.408
  0.411   0.412   0.414   0.415   0.416   0.417   0.418   0.423
  0.425   0.432   0.433   0.436   0.436   0.440   0.442   0.443
  0.448   0.451   0.453   0.456   0.457   0.458   0.461   0.461
  0.464   0.465   0.470   0.471   0.473   0.475   0.475   0.476
  0.479   0.481   0.482   0.483   0.484   0.485   0.486   0.487
  0.488   0.489   0.489   0.490   0.493   0.493   0.495   0.496
  0.497   0.499   0.500   0.500   0.502   0.503   0.504   0.505
  0.506   0.506   0.507   0.508   0.511   0.512   0.512   0.513
  0.513   0.513   0.514   0.516   0.517   0.518   0.518   0.520
  0.520   0.521   0.522   0.523   0.524   0.525   0.526   0.527
  0.528   0.528   0.529   0.530   0.530   0.531   0.532   0.532
  0.533   0.533   0.535   0.535   0.536   0.537   0.538   0.539
  0.540   0.540   0.541   0.542   0.543   0.543   0.544   0.545
  0.546   0.546   0.547   0.548   0.548   0.549   0.549   0.551
  0.551   0.552   0.553   0.553   0.554   0.555   0.556   0.557
  0.558   0.558   0.560   0.560   0.561   0.561   0.563   0.563
  0.565   0.566   0.567   0.567   0.568   0.569   0.569   0.571
  0.571   0.572   0.572   0.574   0.575   0.576   0.576   0.577
  0.578   0.579   0.580   0.581   0.581   0.583   0.583   0.585
  0.585   0.586   0.587   0.587   0.588   0.589   0.590   0.591
  0.592   0.593   0.594   0.595   0.595   0.597   0.598   0.599
  0.599   0.600   0.601   0.602   0.604   0.604   0.606   0.606
  0.607   0.608   0.609   0.610   0.613   0.613   0.614   0.616
  0.617   0.618   0.618   0.620   0.621   0.622   0.622   0.623
  0.624   0.626   0.629   0.630   0.631   0.632   0.632   0.633
  0.634   0.635   0.636   0.636   0.637   0.638   0.640   0.641
  0.642   0.644   0.644   0.646   0.646   0.647   0.648   0.649
  0.650   0.651   0.652   0.653   0.654   0.655   0.656   0.658
  0.658   0.660   0.660   0.661   0.662   0.663   0.663   0.664
  0.665   0.666   0.667   0.667   0.668   0.670   0.670   0.671
  0.672   0.672   0.673   0.675   0.676   0.677   0.677   0.679
  0.679   0.681   0.682   0.684   0.684   0.685   0.686   0.687
  0.687   0.689   0.690   0.691   0.693   0.694   0.696   0.697
  0.698   0.699   0.700   0.700   0.701   0.703   0.705   0.706
  0.707   0.708   0.709   0.709   0.711   0.713   0.713   0.716
  0.716   0.716   0.721   0.722   0.723   0.724   0.725   0.725
  0.726   0.727   0.728   0.730   0.732   0.733   0.735   0.735
  0.736   0.737   0.739   0.741   0.742   0.743   0.746   0.748
  0.749   0.749   0.751   0.753   0.755   0.755   0.757   0.758
  0.759   0.760   0.761   0.762   0.763   0.764   0.767   0.769
  0.771   0.771   0.772   0.774   0.775   0.776   0.778   0.778
  0.779   0.781   0.783   0.784   0.785   0.785   0.787   0.788
  0.789   0.791   0.793   0.794   0.796   0.797   0.798   0.799
  0.800   0.801   0.801   0.802   0.803   0.805   0.806   0.807
  0.809   0.809   0.809   0.810   0.811   0.812   0.812   0.813
  0.814   0.815   0.816   0.817   0.818   0.819   0.819   0.821
  0.821   0.822   0.822   0.824   0.824   0.826   0.826   0.827
  0.829   0.829   0.830   0.830   0.832   0.832   0.834   0.835
  0.839   0.839   0.841   0.842   0.842   0.844   0.847   0.849
  0.849   0.852   0.855   0.855   0.859   0.861   0.863   0.864
  0.869   0.870   0.874   0.878   0.882   0.889   0.889   0.892
  0.893   0.895   0.896   0.900   0.900   0.903   0.905   0.908
  0.911   0.915   0.917   0.917   0.920   0.922   0.924   0.926
  0.927   0.929   0.932   0.932   0.933   0.935   0.937   0.938
  0.939   0.941   0.942   0.944   0.946   0.948   0.950   0.951
  0.954   0.957   0.962   0.966   0.967   0.968   0.970   0.972
  0.974   0.975   0.978   0.980   0.982   0.984   0.986   0.991
  0.993   0.995   0.997   1.000   1.001   1.002   1.003   1.004
  1.009   1.010   1.011   1.012   1.013   1.016   1.018   1.019
  1.020   1.021   1.024   1.026   1.027   1.028   1.029   1.031
  1.033   1.033   1.035   1.039   1.041   1.042   1.042   1.043
  1.046   1.047   1.050   1.051   1.052   1.054   1.055   1.059
  1.061   1.062   1.062   1.066   1.067   1.068   1.071   1.072
  1.075   1.077   1.077   1.080   1.080   1.082   1.083   1.088
  1.088   1.089   1.091   1.092   1.094   1.096   1.098   1.100
  1.102   1.105   1.106   1.108   1.110   1.112   1.114   1.116
  1.117   1.119   1.122   1.122   1.125   1.126   1.128   1.131
  1.132   1.137   1.140   1.141   1.143   1.146   1.146   1.147
  1.149   1.151   1.154   1.156   1.157   1.158   1.160   1.162
  1.162   1.166   1.168   1.169   1.170   1.172   1.173   1.175
  1.179   1.180   1.181   1.183   1.184   1.185   1.187   1.189
  1.190   1.194   1.195   1.197   1.199   1.199   1.203   1.205
  1.208   1.210   1.212   1.214   1.216   1.218   1.223   1.224
  1.225   1.229   1.235   1.238   1.241   1.247   1.249   1.250
  1.251   1.253   1.254   1.256   1.256   1.262   1.263   1.264
  1.267   1.269   1.270   1.271   1.273   1.275   1.278   1.280
  1.283   1.284   1.285   1.288   1.291   1.292   1.294   1.296
  1.300   1.302   1.305   1.307   1.309   1.310   1.314   1.315
  1.317   1.319   1.321   1.327   1.328   1.330   1.331   1.332
  1.336   1.339   1.340   1.343   1.344   1.346   1.349   1.351
  1.351   1.353   1.356   1.359   1.361   1.362   1.367   1.369
  1.371   1.372   1.376   1.377   1.381   1.383   1.385   1.387
  1.388   1.391   1.396   1.397   1.399   1.401   1.403   1.407
  1.408   1.413   1.415   1.415   1.418   1.419   1.421   1.423
  1.428   1.432   1.436   1.439   1.441   1.442   1.446   1.450
  1.451   1.456   1.456   1.458   1.460   1.462   1.464   1.466
  1.468   1.470   1.471   1.471   1.475   1.476   1.477   1.479
  1.480   1.484   1.486   1.489   1.490   1.493   1.495   1.496
  1.500   1.501   1.503   1.508   1.512   1.513   1.515   1.517
  1.520   1.521   1.527   1.527   1.530   1.532   1.533   1.537
  1.538   1.542   1.545   1.548   1.551   1.552   1.553   1.556
  1.561   1.565   1.567   1.568   1.569   1.571   1.574   1.574
  1.577   1.577   1.580   1.582   1.586   1.589   1.591   1.593
  1.596   1.600   1.601   1.606   1.609   1.611   1.614   1.617
  1.624   1.630   1.632   1.633   1.635   1.638   1.641   1.644
  1.649   1.650   1.655   1.658   1.659   1.663   1.665   1.667
  1.672   1.678   1.684   1.688   1.689   1.696   1.700   1.701
  1.705   1.706   1.708   1.709   1.711   1.715   1.718   1.719
  1.721   1.722   1.725   1.726   1.728   1.730   1.730   1.735
  1.736   1.739   1.740   1.741   1.744   1.745   1.746   1.748
  1.751   1.752   1.753   1.756   1.757   1.757   1.758   1.761
  1.762   1.764   1.766   1.766   1.768   1.769   1.770   1.771
  1.772   1.773   1.775   1.776   1.778   1.779   1.779   1.780
  1.782   1.785   1.785   1.786   1.788   1.789   1.791   1.793
  1.793   1.794   1.795   1.796   1.797   1.798   1.799   1.800
  1.801   1.802   1.803   1.804   1.805   1.806   1.809   1.811
  1.812   1.812   1.815   1.817   1.818   1.821   1.823   1.824
  1.826   1.830   1.831   1.834   1.836   1.841   1.842   1.844
  1.846   1.848   1.851   1.853   1.856   1.857   1.859   1.860
  1.861   1.863   1.864   1.865   1.867   1.870   1.871   1.873
  1.874   1.875   1.877   1.879   1.882   1.883   1.885   1.885
  1.889   1.891   1.895   1.898   1.900   1.901   1.902   1.904
  1.905   1.906   1.911   1.915   1.919   1.919   1.922   1.923
  1.924   1.928   1.929   1.930   1.932   1.933   1.935   1.936
  1.937   1.940   1.941   1.944   1.947   1.948   1.950   1.953
  1.953   1.955   1.956   1.957   1.958   1.960   1.963   1.968
  1.969   1.972   1.973   1.976   1.978   1.979   1.980   1.980
  1.983   1.985   1.986   1.988   1.989   1.989   1.992   1.993
  1.995   1.996   1.997   1.998   1.999   2.001   2.003   2.003
  2.005   2.007   2.008   2.009   2.011   2.013   2.014   2.015
  2.017   2.018   2.018   2.020   2.022   2.023   2.024   2.025
  2.026   2.027   2.029   2.030   2.032   2.034   2.035   2.036
  2.037   2.039   2.039   2.041   2.042   2.043   2.043   2.044
  2.046   2.046   2.048   2.049   2.051   2.052   2.053   2.054
  2.056   2.057   2.059   2.059   2.061   2.062   2.064   2.064
  2.065   2.067   2.070   2.071   2.072   2.074   2.076   2.076
  2.079   2.079   2.080   2.082   2.084   2.086   2.089   2.091
  2.092   2.095   2.098   2.100   2.101   2.101   2.103   2.105
  2.107   2.109   2.110   2.113   2.114   2.117   2.121   2.122
  2.124   2.128   2.131   2.132   2.135   2.136   2.140   2.141
  2.143   2.147   2.149   2.151   2.156   2.157   2.162   2.170
  2.176   2.182   2.183   2.187   2.193   2.196   2.197   2.201
  2.204   2.205   2.207   2.210   2.218   2.220   2.222   2.226
  2.228   2.233   2.234   2.234   2.238   2.240   2.243   2.244
  2.249   2.250   2.255   2.257   2.258   2.259   2.262   2.263
  2.264   2.266   2.269   2.272   2.273   2.277   2.278   2.282
  2.284   2.287   2.289   2.293   2.294   2.295   2.296   2.298
  2.302   2.305   2.307   2.308   2.309   2.310   2.311   2.313
  2.315   2.315   2.322   2.324   2.326   2.327   2.334   2.335
  2.339   2.341   2.345   2.347   2.350   2.353   2.355   2.357
  2.357   2.359   2.360   2.361   2.363   2.364   2.367   2.371
  2.373   2.374   2.375   2.376   2.378   2.380   2.381   2.382
  2.386   2.387   2.389   2.390   2.391   2.393   2.394   2.396
  2.399   2.399   2.401   2.402   2.404   2.406   2.407   2.409
  2.410   2.413   2.414   2.417   2.419   2.420   2.424   2.427
  2.429   2.430   2.433   2.434   2.438   2.440   2.442   2.444
  2.447   2.449   2.450   2.454   2.456   2.458   2.461   2.465
  2.465   2.467   2.470   2.473   2.474   2.475   2.476   2.479
  2.482   2.484   2.486   2.487   2.488   2.490   2.491   2.492
  2.493   2.496   2.497   2.498   2.500   2.501   2.505   2.507
  2.508   2.511   2.512   2.513   2.516   2.519   2.520   2.523
  2.524   2.526   2.527   2.529   2.530   2.532   2.534   2.538
  2.540   2.546   2.550   2.551   2.554   2.557   2.560   2.563
  2.569   2.571   2.572   2.576   2.577   2.583   2.585   2.588
  2.589   2.591   2.592   2.594   2.596   2.598   2.600   2.601
  2.606   2.608   2.609   2.612   2.613   2.614   2.615   2.619
  2.620   2.624   2.625   2.626   2.627   2.628   2.631   2.633
  2.633   2.635   2.636   2.637   2.639   2.642   2.643   2.644
  2.645   2.646   2.651   2.652   2.653   2.654   2.656   2.657
  2.659   2.661   2.662   2.664   2.666   2.668   2.669   2.671
  2.674   2.677   2.678   2.679   2.682   2.685   2.688   2.689
  2.692   2.693   2.696   2.697   2.698   2.699   2.705   2.708
  2.711   2.713   2.716   2.717   2.719   2.720   2.725   2.726
  2.728   2.729   2.730   2.733   2.736   2.737   2.742   2.744
  2.748   2.749   2.751   2.752   2.754   2.755   2.757   2.759
  2.762   2.766   2.768   2.769   2.770   2.772   2.773   2.775
  2.777   2.778   2.780   2.781   2.784   2.785   2.787   2.790
  2.791   2.798   2.799   2.803   2.805   2.813   2.814   2.819
  2.820   2.821   2.827   2.829   2.831   2.832   2.835   2.836
  2.842   2.846   2.848   2.855   2.857   2.858   2.859   2.861
  2.864   2.865   2.868   2.870   2.873   2.874   2.877   2.879
  2.881   2.883   2.885   2.887   2.888   2.891   2.892   2.893
  2.895   2.898   2.899   2.900   2.902   2.903   2.903   2.906
  2.907   2.910   2.911   2.911   2.912   2.915   2.916   2.920
  2.922   2.924   2.926   2.927   2.929   2.930   2.932   2.933
  2.938   2.939   2.942   2.946   2.949   2.950   2.952   2.957
  2.959   2.960   2.965   2.967   2.970   2.975   2.976   2.978
  2.979   2.982   2.985   2.988   2.990   2.994   2.996   2.999
  3.003   3.007   3.008   3.010   3.013   3.017   3.021   3.025
  3.026   3.028   3.031   3.033   3.034   3.037   3.040   3.044
  3.047   3.049   3.051   3.055   3.056   3.058   3.060   3.064
  3.066   3.070   3.073   3.080   3.085   3.090   3.095   3.096
  3.105   3.110   3.117   3.119   3.127   3.136   3.141   3.148
  3.156   3.163   3.164   3.171   3.180   3.184   3.186   3.189
  3.190   3.195   3.199   3.201   3.209   3.224   3.235   3.236
  3.240   3.247   3.250   3.253   3.258   3.261   3.270   3.277
  3.291   3.297   3.300   3.304   3.322   3.323   3.326   3.330
  3.335   3.343   3.349   3.350   3.358   3.366   3.381   3.383
  3.394   3.405   3.407   3.415   3.417   3.421   3.428   3.430
  3.435   3.441   3.449   3.458   3.467   3.477   3.488   3.490
  3.498   3.506   3.509   3.510   3.521   3.524   3.546   3.549
  3.552   3.559   3.565   3.574   3.576   3.586   3.591   3.594
  3.604   3.608   3.685   3.690   3.839   3.878   4.003   4.032
  4.060   4.071   4.072   4.080   4.090   4.091   4.097   4.099
  4.102   4.103   4.107   4.111   4.113   4.119   4.121   4.125
  4.128   4.132   4.138   4.141   4.143   4.147   4.151   4.153
  4.159   4.161   4.167   4.171   4.173   4.177   4.178   4.184
  4.188   4.195   4.203   4.211   4.216   4.222   4.237   4.239
  4.245   4.247   4.249   4.252   4.256   4.261   4.263   4.267
  4.272   4.275   4.277   4.281   4.286   4.292   4.296   4.304
  4.307   4.309   4.326   4.348   4.378   4.384   4.392   4.394
  4.398   4.403   4.407   4.408   4.409   4.411   4.416   4.418
  4.424   4.428   4.429   4.438   4.442   4.449   4.456   4.465
  4.479   4.480   4.494   4.498   4.532   4.534   4.545   4.555
  4.559   4.567   4.614   4.620   4.625   4.632   4.634   4.638
  4.640   4.666   4.682   4.687   4.693   4.697   4.699   4.702
  4.703   4.706   4.707   4.711   4.757   4.760   4.816   4.827
  4.833   4.850   4.855   4.859   4.869   4.871   4.888   4.890
  4.893   4.908   4.941   4.955   4.963   4.966   4.968   4.975
  4.985   4.989   4.994   5.007   5.159   5.162   5.176   5.178
  5.195   5.198   5.203   5.214   5.311   5.321   5.328   5.338
  5.352   5.356
 --------------------------------------------------------------
 
          Ground-State Mulliken Net Atomic Charges

     Atom                 Charge (a.u.)
  ----------------------------------------
      1 O                    -0.485744
      2 C                    -0.079640
      3 H                     0.129486
      4 H                     0.123341
      5 H                     0.129450
      6 O                    -0.455697
      7 C                     0.596816
      8 C                    -0.249126
      9 H                     0.123837
     10 H                     0.132675
     11 C                    -0.189277
     12 H                     0.108369
     13 H                     0.123220
     14 C                    -0.184168
     15 H                     0.113856
     16 H                     0.114784
     17 C                    -0.001176
     18 C                     0.093434
     19 C                    -0.118513
     20 H                     0.099860
     21 C                    -0.093783
     22 H                     0.097950
     23 C                    -0.081894
     24 H                     0.090912
     25 C                    -0.097068
     26 H                     0.092064
     27 C                    -0.097540
     28 H                     0.095059
     29 C                     0.033059
     30 C                     0.019242
     31 C                    -0.029566
     32 C                    -0.020965
     33 C                    -0.026357
     34 C                    -0.027540
     35 C                     0.019235
     36 C                     0.005454
     37 C                    -0.014719
     38 C                     0.008743
     39 C                    -0.070133
     40 C                     0.026073
     41 C                    -0.005712
     42 C                    -0.009679
     43 C                    -0.009089
     44 C                     0.021761
     45 C                    -0.088493
     46 C                     0.037654
     47 C                    -0.018032
     48 C                     0.003795
     49 C                     0.039191
     50 C                     0.001277
     51 C                    -0.026285
     52 C                     0.000569
     53 C                     0.043510
     54 C                    -0.015406
     55 C                    -0.019491
     56 C                     0.013287
     57 C                    -0.044459
     58 C                     0.008328
     59 C                     0.022101
     60 C                     0.010342
     61 C                    -0.023212
     62 C                     0.000222
     63 C                     0.006721
     64 C                    -0.015819
     65 C                    -0.001199
     66 C                     0.021893
     67 C                     0.000361
     68 C                     0.007735
     69 C                     0.025628
     70 C                     0.021796
     71 C                    -0.039654
     72 C                     0.004828
     73 C                     0.008124
     74 C                    -0.026368
     75 C                     0.011640
     76 C                     0.030696
     77 C                     0.025954
     78 C                     0.013478
     79 C                    -0.022991
     80 C                    -0.031324
     81 C                    -0.004608
     82 C                    -0.036592
     83 C                     0.022285
     84 C                     0.026348
     85 C                    -0.006081
     86 C                    -0.003509
     87 C                    -0.023111
     88 C                    -0.000791
     89 O                    -0.471735
     90 C                    -0.081561
     91 H                     0.127210
     92 H                     0.119748
     93 H                     0.131792
     94 O                    -0.475123
     95 C                     0.593433
     96 C                    -0.271921
     97 H                     0.136237
     98 H                     0.143566
     99 C                    -0.179640
    100 H                     0.127071
    101 H                     0.110073
    102 C                    -0.179485
    103 H                     0.106541
    104 H                     0.111436
    105 C                     0.019255
    106 C                     0.056883
    107 C                    -0.091876
    108 H                     0.099034
    109 C                    -0.100005
    110 H                     0.088574
    111 C                    -0.068443
    112 H                     0.089296
    113 C                    -0.086067
    114 H                     0.092751
    115 C                    -0.109202
    116 H                     0.092480
    117 C                    -0.028013
    118 C                     0.044346
    119 C                     0.012094
    120 C                    -0.023960
    121 C                    -0.042546
    122 C                     0.003044
    123 C                    -0.023838
    124 C                    -0.000445
    125 C                    -0.002457
    126 C                     0.015033
    127 C                    -0.070090
    128 C                    -0.018225
    129 C                    -0.040228
    130 C                    -0.020110
    131 C                    -0.004938
    132 C                     0.009338
    133 C                    -0.113149
    134 C                     0.032506
    135 C                     0.010896
    136 C                    -0.003861
    137 C                    -0.009706
    138 C                    -0.003671
    139 C                     0.021355
    140 C                    -0.026916
    141 C                     0.062381
    142 C                    -0.024895
    143 C                     0.015628
    144 C                    -0.034913
    145 C                     0.029591
    146 C                    -0.009765
    147 C                     0.028925
    148 C                     0.002788
    149 C                    -0.020799
    150 C                     0.004979
    151 C                    -0.003589
    152 C                     0.035750
    153 C                     0.005996
    154 C                     0.012147
    155 C                     0.002438
    156 C                     0.007071
    157 C                     0.015357
    158 C                     0.052828
    159 C                     0.003920
    160 C                     0.011710
    161 C                     0.010946
    162 C                     0.046253
    163 C                     0.000037
    164 C                    -0.025892
    165 C                    -0.020422
    166 C                    -0.012615
    167 C                    -0.009116
    168 C                     0.014585
    169 C                    -0.003313
    170 C                    -0.000191
    171 C                    -0.031510
    172 C                     0.024318
    173 C                    -0.009598
    174 C                    -0.031460
    175 C                    -0.004996
    176 C                    -0.002985
  ----------------------------------------
  Sum of atomic charges =     0.000000

 -----------------------------------------------------------------
                    Cartesian Multipole Moments
 -----------------------------------------------------------------
    Charge (ESU x 10^10)
                 0.0000
    Dipole Moment (Debye)
         X      -0.3548      Y       1.8449      Z      -0.3642
       Tot       1.9137
    Quadrupole Moments (Debye-Ang)
        XX    -783.4963     XY     -44.3727     YY    -782.3085
        XZ      -6.3850     YZ      13.4636     ZZ    -811.2995
    Octopole Moments (Debye-Ang^2)
       XXX     390.2068    XXY     -93.0480    XYY     -73.2721
       YYY     241.0720    XXZ      76.4523    XYZ      28.2387
       YYZ    -102.0306    XZZ     -15.2732    YZZ      82.6592
       ZZZ      21.7127
    Hexadecapole Moments (Debye-Ang^3)
      XXXX -135141.1124   XXXY   -4224.7726   XXYY  -30513.7982
      XYYY   -2414.5774   YYYY  -49533.1891   XXXZ    -243.9797
      XXYZ     376.3649   XYYZ    -293.9028   YYYZ     -76.5818
      XXZZ  -25998.6872   XYZZ    -509.4858   YYZZ  -11823.0250
      XZZZ    -215.9405   YZZZ      73.1513   ZZZZ  -18467.0728
 -----------------------------------------------------------------
Archival summary:
1\1\mn366\SP\ProcedureUnspecified\6-31G**\428\afmv_a\TueOct910:44:532018TueOct910:44:532018\0\\#,ProcedureUnspecified,6-31G**,\\0,1\C\C,1,1.39123\C,2,1.36579,1,120.401\C,1,1.39716,2,117.883,3,140.941,0\C,4,1.38439,1,122.851,2,-0.249839,0\C,5,1.38737,4,117.414,1,-136.362,0\C,6,1.38798,5,106.628,4,139.638,0\C,7,1.37682,6,110.607,5,3.38413,0\C,8,1.37439,7,105.556,6,-6.47569,0\C,9,1.39579,8,123.913,7,-139.444,0\C,1,1.40243,2,121.416,3,0.43579,0\C,11,1.39346,1,106.253,2,142.303,0\C,12,1.3783,11,119.171,1,-148.513,0\C,4,1.41359,1,108.113,2,-146.266,0\C,14,1.3575,4,123.711,1,141.773,0\C,15,1.39044,14,116.663,4,4.41127,0\C,15,1.39065,14,122.415,4,-134.3,0\C,17,1.35832,15,108.156,14,140.764,0\C,18,1.3796,17,107.803,15,-0.524315,0\C,17,1.38244,15,119.475,14,-0.263912,0\C,20,1.37815,17,122.042,15,136.732,0\C,19,1.41176,18,119.745,17,-142.978,0\C,11,1.41401,1,119.597,2,-0.501676,0\C,23,1.37682,11,120.586,1,-0.797113,0\C,23,1.39041,11,118.673,1,136.494,0\C,25,1.38348,23,120.316,11,4.78594,0\C,26,1.38847,25,118.51,23,-139.89,0\C,24,1.41358,23,106.447,11,136.061,0\C,28,1.41128,24,110.964,23,9.92604,0\C,29,1.41478,28,118.273,24,-142.13,0\C,30,1.38204,29,122.077,28,-7.40346,0\C,30,1.38214,29,122.376,28,135.396,0\C,32,1.38766,30,107.701,29,-149.165,0\C,33,1.38847,32,110.552,30,-1.00992,0\C,31,1.40177,30,120.86,29,-0.146626,0\C,35,1.41439,31,119.381,30,138.166,0\C,36,1.38608,35,103.547,31,-140.696,0\C,37,1.37479,36,117.601,35,3.29451,0\C,38,1.38501,37,124.53,36,142.061,0\C,36,1.39729,35,120.001,31,7.27539,0\C,40,1.3629,36,118.633,35,-141.118,0\C,41,1.41584,40,111.202,36,143.696,0\C,37,1.41678,36,114.602,35,143.612,0\C,43,1.38736,37,123.88,36,-146.8,0\C,44,1.40039,43,108.935,37,149.547,0\C,44,1.41333,43,117.904,37,6.33305,0\C,21,1.41888,20,121.346,17,1.03813,0\C,47,1.3568,21,122.382,20,-134.872,0\C,48,1.39236,47,110.126,21,139.766,0\C,49,1.39319,48,119.823,47,-151.263,0\C,50,1.35482,49,118.27,48,5.6594,0\C,49,1.41607,48,108.263,47,2.48081,0\C,52,1.40708,49,117.068,48,-141.379,0\C,28,1.42058,24,122.25,23,-141.667,0\C,22,1.42248,19,121.238,18,143.173,0\C,52,1.42394,49,106.515,48,-3.76693,0\C,43,1.42954,37,121.428,36,5.87609,0\C,42,1.44386,41,119.525,40,-139.75,0\C,55,1.44737,22,112.04,19,-153.99,0\C,59,1.47195,55,118.43,22,134.413,0\C,59,1.52391,55,129.204,22,-148.376,0\C,61,1.51564,59,119.901,55,1.2153,0\H,62,1.09645,61,103.928,59,-10.8352,0\H,62,1.09723,61,112.141,59,98.9105,0\C,62,1.52453,61,113.748,59,-132.485,0\H,65,1.09666,62,109.867,61,62.0954,0\H,65,1.09728,62,99.5357,61,-54.2123,0\C,61,1.52593,59,121.626,55,148.91,0\C,68,1.41572,61,121.313,59,-54.4383,0\H,69,1.08629,68,116.862,61,3.37257,0\C,69,1.41301,68,118.371,61,-176.21,0\H,71,1.08524,69,117.878,68,179.746,0\C,71,1.41594,69,121.055,68,3.51336,0\H,73,1.08588,71,112.416,69,175.593,0\C,73,1.407,71,120.176,69,-9.71264,0\H,75,1.0864,73,117.076,71,-169.394,0\C,75,1.40296,73,118.112,71,10.165,0\H,77,1.08598,75,114.772,73,-179.064,0\C,65,1.56673,62,109.779,61,-174.332,0\H,79,1.09637,65,105.697,62,41.9157,0\H,79,1.09781,65,110.916,62,155.82,0\C,79,1.49999,65,113.863,62,-79.8694,0\O,82,1.2118,79,121.361,65,112.711,0\O,82,1.40109,79,114.903,65,-59.9789,0\C,84,1.43551,82,122.389,79,-179.96,0\H,85,1.09701,84,110.579,82,-60.9327,0\H,85,1.09704,84,104.465,82,170.531,0\H,85,1.09745,84,112.597,82,50.3987,0\H,12,2.60704,11,78.6742,1,133.987,0\C,89,1.09695,12,160.84,11,-169.674,0\H,90,1.09748,89,103.234,12,-17.1729,0\C,90,1.49004,89,104.446,12,-119.813,0\O,92,1.20501,90,122.673,89,21.5229,0\O,92,1.36792,90,113.287,89,-155.731,0\C,94,1.43912,92,117.237,90,176.745,0\H,95,1.09671,94,103.979,92,-176.693,0\H,95,1.09693,94,107.822,92,-55.9327,0\H,95,1.09719,94,113.861,92,68.0716,0\C,90,1.54075,89,117.218,12,109.516,0\H,99,1.09643,90,110.945,89,-161.282,0\H,99,1.09748,90,106.39,89,75.5232,0\C,99,1.55119,90,109.348,89,-45.9586,0\H,102,1.09713,99,105.481,90,48.5524,0\H,102,1.09768,99,109.947,90,-69.8029,0\C,102,1.51588,99,114.092,90,166.607,0\C,105,1.51319,102,117.896,99,-152.919,0\C,106,1.48672,105,129.461,102,5.16054,0\C,107,1.40606,106,120.277,105,76.8288,0\C,108,1.39403,107,124.584,106,-4.72056,0\C,109,1.4187,108,117.444,107,8.74093,0\C,109,1.42085,108,108.877,107,151.471,0\C,111,1.42113,109,107.547,108,-0.0907248,0\C,112,1.40608,111,108.634,109,1.34992,0\C,113,1.3839,112,123.769,111,-146.71,0\C,114,1.38333,113,121.356,112,141.645,0\C,115,1.41054,114,104.28,113,-138.821,0\C,116,1.38516,115,118.189,114,139.213,0\C,117,1.34914,116,122.472,115,-147.524,0\C,116,1.39348,115,110.27,114,-2.88712,0\C,119,1.35321,116,108.87,115,1.18383,0\C,119,1.37276,116,118.775,115,145.194,0\C,121,1.3908,119,120.481,116,-138.34,0\C,122,1.38727,121,106.859,119,147.033,0\C,117,1.39577,116,121.209,115,4.94812,0\C,124,1.37966,117,120.826,116,-9.25922,0\C,125,1.35848,124,118.076,117,-132.666,0\C,126,1.38329,125,124.552,124,1.3851,0\C,127,1.38784,126,118.268,125,-3.21322,0\C,128,1.36959,127,111.187,126,145.384,0\C,129,1.38092,128,124.43,127,-143.611,0\C,123,1.40209,122,110.982,121,-2.24104,0\C,131,1.37851,123,105.294,122,1.40195,0\C,131,1.40643,123,120.539,122,-137.657,0\C,133,1.37329,131,120.012,123,135.263,0\C,122,1.40753,121,119.578,119,0.771271,0\C,135,1.38942,122,121.447,121,143.873,0\C,135,1.39459,122,119.445,121,-1.87942,0\C,137,1.40632,135,107.262,122,147.689,0\C,129,1.40849,128,106.118,127,-0.135696,0\C,138,1.40978,137,107.341,135,-0.872116,0\C,128,1.41125,127,118.85,126,-0.73226,0\C,141,1.41348,128,116.71,127,138.995,0\C,136,1.41418,135,118.957,122,-8.17786,0\C,143,1.39605,136,122.187,135,-132.156,0\C,144,1.37955,143,107.392,136,142.31,0\C,145,1.38629,144,108.97,143,0.195128,0\C,146,1.39673,145,121.928,144,-146.605,0\C,147,1.38355,146,123.88,145,-2.21354,0\C,127,1.4143,126,123.27,125,137.687,0\C,146,1.41684,145,109.201,144,-0.122617,0\C,149,1.41849,127,119.552,126,0.992563,0\C,151,1.39129,149,117.482,127,-134.103,0\C,152,1.37846,151,121.949,149,-4.17829,0\C,153,1.40656,152,120.57,151,139.843,0\C,154,1.39511,153,107.28,152,-143.905,0\C,154,1.39888,153,119.917,152,2.53907,0\C,156,1.39331,154,120.891,153,-143.839,0\C,155,1.40311,154,111.664,153,1.87499,0\C,158,1.39854,155,103.875,154,-1.07492,0\C,156,1.41707,154,120.234,153,-5.51958,0\C,160,1.35327,156,118.917,154,8.55308,0\C,160,1.3891,156,109.74,154,-143.962,0\C,162,1.38691,160,106.475,156,6.55711,0\C,107,1.42207,106,110.756,105,-141.861,0\C,151,1.49633,149,123.393,127,9.76011,0\C,105,1.54194,102,113.425,99,62.8729,0\C,166,1.41045,105,124.295,102,100.538,0\H,167,1.08594,166,118.738,105,-8.44751,0\C,167,1.40908,166,120.821,105,175.177,0\H,169,1.08631,167,118.74,166,-172.209,0\C,169,1.34778,167,120.456,166,3.08744,0\H,171,1.08573,169,119.217,167,177.306,0\C,171,1.39878,169,120.555,167,-0.153922,0\H,173,1.08588,171,117.357,169,177.995,0\C,173,1.4027,171,121.67,169,-2.83317,0\H,175,1.08532,173,121.807,171,-174.461,0\\\@

 Total job time:  846.74s(wall), 7237.27s(cpu) 
 Tue Oct  9 10:44:53 2018

        *************************************************************
        *                                                           *
        *  Thank you very much for using Q-Chem.  Have a nice day.  *
        *                                                           *
        *************************************************************


