
Running Job 1 of 1 ./6/16.qcin
qchem ./6/16.qcin_43891.0 /tmpu/cab_g/afmv_a/scratch_qchem/qchem43891/ 1
/tmpu/appuserlic/qchem4.4/serial-multicore/exe/qcprog.exe_s ./6/16.qcin_43891.0 /tmpu/cab_g/afmv_a/scratch_qchem/qchem43891/
Check license passed

                  Welcome to Q-Chem
     A Quantum Leap Into The Future Of Chemistry


 Q-Chem 4.4, Q-Chem, Inc., Pleasanton, CA (2016)

 Y. Shao,  Z. Gan,  E. Epifanovsky,  A. T. B. Gilbert,  M. Wormit,  
 J. Kussmann,  A. W. Lange,  A. Behn,  J. Deng,  X. Feng,  D. Ghosh,  
 M. Goldey,  P. R. Horn,  L. D. Jacobson,  I. Kaliman,  F. Rob,  
 R. Z. Khaliullin,  T. Kus,  A. Landau,  J. Liu,  E. I. Proynov,  Y. M. Rhee,  
 R. M. Richard,  M. A. Rohrdanz,  R. P. Steele,  E. J. Sundstrom,  
 H. L. Woodcock III,  P. M. Zimmerman,  D. Zuev,  B. Albrecht,  E. Alguire,  
 B. Austin,  S. A. Baeppler,  G. J. O. Beran,  Y. A. Bernard,  E. Berquist,  
 K. Brandhorst,  K. B. Bravaya,  S. T. Brown,  D. Casanova,  C.-M. Chang,  
 Y. Chen,  S. H. Chien,  K. D. Closser,  M. P. Coons,  D. L. Crittenden,  
 S. Dasgupta,  M. Diedenhofen,  R. A. DiStasio Jr.,  H. Do,  A. D. Dutoi,  
 R. G. Edgar,  P.-T. Fang,  S. Fatehi,  Q. Feng,  L. Fusti-Molnar,  
 A. Ghysels,  A. Golubeva-Zadorozhnaya,  J. Gomes,  A. Gunina,  
 M. W. D. Hanson-Heine,  P. H. P. Harbach,  A. W. Hauser,  J. E. Herr,  
 E. G. Hohenstein,  Z. C. Holden,  K. Hui,  T.-C. Jagau,  H. Ji,  B. Kaduk,  
 K. Khistyaev,  Jaehoon Kim,  Jihan Kim,  R. A. King,  P. Klunzinger,  
 K. Koh,  D. Kosenkov,  T. Kowalczyk,  C. M. Krauter,  A. Kunitsa,  
 K. U. Lao,  A. Laurent,  K. V. Lawler,  J. Lee,  D. Lefrancois,  S. Lehtola,  
 S. V. Levchenko,  C. Y. Lin,  Y.-S. Lin,  F. Liu,  E. Livshits,  
 R. C. Lochan,  A. Luenser,  P. Manohar,  S. F. Manzer,  S.-P. Mao,  Y. Mao,  
 N. Mardirossian,  A. V. Marenich,  L. A. Martinez-Martinez,  S. A. Maurer,  
 N. J. Mayhall,  J.-M. Mewes,  A. F. Morrison,  K. Nanda,  T. S. Nguyen-Beck,  
 C. M. Oana,  R. Olivares-Amaya,  D. P. O'Neill,  J. A. Parkhill,  
 T. M. Perrine,  R. Peverati,  P. A. Pieniazek,  F. Plasser,  A. Prociuk,  
 D. R. Rehn,  E. Rosta,  N. J. Russ,  N. Sergueev,  S. M. Sharada,  
 S. Sharma,  D. W. Small,  A. Sodt,  T. Stauch,  T. Stein,  D. Stuck,  
 Y.-C. Su,  A. J. W. Thom,  T. Tsuchimochi,  L. Vogt,  O. Vydrov,  T. Wang,  
 M. A. Watson,  J. Wenzel,  A. White,  C. F. Williams,  V. Vanovschi,  
 K. Yao,  S. Yeganeh,  S. R. Yost,  Z.-Q. You,  I. Y. Zhang,  X. Zhang,  
 Y. Zhao,  B. R. Brooks,  G. K. L. Chan,  D. M. Chipman,  C. J. Cramer,  
 W. A. Goddard III,  M. S. Gordon,  W. J. Hehre,  A. Klamt,  
 H. F. Schaefer III,  M. W. Schmidt,  C. D. Sherrill,  D. G. Truhlar,  
 A. Warshel,  X. Xu,  A. Aspuru-Guzik,  R. Baer,  A. T. Bell,  N. A. Besley,  
 J.-D. Chai,  A. Dreuw,  B. D. Dunietz,  T. R. Furlani,  S. R. Gwaltney,  
 C.-P. Hsu,  Y. Jung,  J. Kong,  D. S. Lambrecht,  W. Liang,  C. Ochsenfeld,  
 V. A. Rassolov,  L. V. Slipchenko,  J. E. Subotnik,  T. Van Voorhis,  
 J. M. Herbert,  A. I. Krylov,  P. M. W. Gill,  M. Head-Gordon

 Contributors to earlier versions of Q-Chem not listed above: 
 R. D. Adamson,  J. Baker,  E. F. C. Byrd,  A. K. Chakraborty,  C.-L. Cheng,  
 H. Dachsel,  R. J. Doerksen,  G. Hawkins,  A. Heyden,  S. Hirata,  
 G. Kedziora,  F. J. Keil,  C. Kelley,  P. P. Korambath,  W. Kurlancheek,  
 A. M. Lee,  M. S. Lee,  D. Liotard,  I. Lotan,  P. E. Maslen,  N. Nair,  
 D. Neuhauser,  R. Olson,  B. Peters,  J. Ritchie,  N. E. Schultz,  
 N. Shenvi,  A. C. Simmonett,  K. S. Thanthiriwatte,  Q. Wu,  W. Zhang

 Please cite Q-Chem as follows:
 Y. Shao et al., Mol. Phys. 113, 184-215 (2015)
 DOI: 10.1080/00268976.2014.952696

 Q-Chem 4.4.2 for Intel X86 Linux

 Parts of Q-Chem use Armadillo 5.200.1 (Boston Tea Smuggler).
 http://arma.sourceforge.net/

 Q-Chem begins on Tue Oct  9 10:59:10 2018  

Host: 
0

     Scratch files written to /tmpu/cab_g/afmv_a/scratch_qchem/qchem43891//
 Dec716 11556_ 22328  22283 4050   
Processing $rem in /tmpu/appuserlic/qchem4.4/serial-multicore/config/preferences.
 MEM_TOTAL  2000 
FILE_GEOM_ORG=        593

Checking the input file for inconsistencies... 	...done.

--------------------------------------------------------------
User input:
--------------------------------------------------------------
$comment
SP
$end

$rem
MEM_STATIC 5000
MEM_TOTAL 20000
JOBTYPE SP
EXCHANGE B3LYP
BASIS 6-31g(d,p)
$end

$molecule
0 1
O         -24.359000      5.673000     -1.620000
C         -25.180000      6.530000     -2.328000
H         -25.163000      6.282000     -3.396000
H         -24.767000      7.546000     -2.295000
H         -26.184000      6.435000     -1.895000
O         -25.318000      3.714000     -2.375000
C         -24.460000      4.306000     -1.728000
C         -23.422000      3.785000     -0.785000
H         -23.580000      4.349000      0.142000
H         -22.451000      3.962000     -1.264000
C         -23.722000      2.323000     -0.347000
H         -24.704000      2.271000      0.139000
H         -23.762000      1.794000     -1.307000
C         -22.649000      1.766000      0.597000
H         -21.638000      1.926000      0.203000
H         -22.749000      2.456000      1.445000
C         -22.926000      0.311000      1.042000
C         -24.224000      0.155000      1.678000
C         -25.254000     -0.319000      0.912000
H         -25.028000     -0.559000     -0.123000
C         -26.467000     -0.674000      1.441000
H         -27.177000     -1.164000      0.781000
C         -26.651000     -0.408000      2.839000
H         -27.582000     -0.790000      3.248000
C         -25.642000      0.227000      3.612000
H         -25.909000      0.381000      4.654000
C         -24.420000      0.407000      3.030000
H         -23.608000      0.711000      3.684000
C         -20.997000     -4.094000      3.556000
C         -22.437000     -4.953000      1.879000
C         -19.224000     -6.810000     -0.822000
C         -17.524000     -0.975000      1.529000
C         -19.247000     -3.989000     -2.953000
C         -22.191000     -3.991000      2.829000
C         -16.977000     -1.891000     -1.016000
C         -19.418000     -6.772000      1.648000
C         -22.549000     -2.537000     -1.301000
C         -18.113000     -0.310000      0.437000
C         -22.236000     -0.748000      0.209000
C         -21.632000     -1.616000     -1.924000
C         -18.950000     -0.637000     -1.661000
C         -17.267000     -2.921000     -1.960000
C         -23.128000     -2.962000      1.011000
C         -17.615000     -5.368000     -1.718000
C         -21.716000     -0.510000      1.549000
C         -20.233000     -0.162000      1.634000
C         -18.813000     -5.248000     -2.460000
C         -16.846000     -4.393000      2.090000
C         -17.434000     -5.965000      0.571000
C         -18.109000     -6.290000      1.755000
C         -20.431000     -6.148000      2.431000
C         -19.679000     -0.878000      2.665000
C         -22.920000     -2.060000     -0.087000
C         -21.596000     -6.047000      1.671000
C         -17.812000     -0.793000     -0.837000
C         -23.073000     -4.371000      0.798000
C         -20.626000     -2.190000     -2.679000
C         -17.908000     -2.536000      3.133000
C         -19.978000     -7.002000      0.352000
C         -21.338000     -0.580000     -0.967000
C         -18.754000     -4.773000      3.536000
C         -19.304000     -1.719000     -2.549000
C         -22.520000     -3.936000     -1.554000
C         -16.355000     -3.919000     -0.156000
C         -16.355000     -2.501000      0.039000
C         -21.509000     -4.450000     -2.354000
C         -18.339000     -1.270000      2.657000
C         -19.446000      0.120000      0.510000
C         -16.866000     -3.017000      2.341000
C         -21.855000     -1.618000      2.547000
C         -21.890000     -5.883000     -0.689000
C         -19.962000     -0.059000     -0.771000
C         -20.594000     -3.615000     -2.937000
C         -18.882000     -3.377000      3.757000
C         -19.777000     -6.101000     -1.924000
C         -20.130000     -5.212000      3.424000
C         -17.920000     -6.288000     -0.668000
C         -22.793000     -4.849000     -0.522000
C         -21.112000     -5.621000     -1.837000
C         -22.649000     -2.742000      2.322000
C         -20.635000     -1.763000      3.207000
C         -16.573000     -4.867000      0.808000
C         -21.252000     -6.455000      0.451000
C         -18.495000     -2.829000     -2.695000
C         -16.596000     -2.074000      1.359000
C         -16.899000     -4.176000     -1.434000
C         -20.215000     -2.968000      3.788000
C         -17.723000     -5.312000      2.716000
O         -13.794000     -1.967000      6.397000
C         -14.869000     -1.507000      7.184000
H         -14.439000     -0.964000      8.034000
H         -15.519000     -2.337000      7.488000
H         -15.495000     -0.837000      6.583000
O         -15.126000     -2.628000      4.627000
C         -14.021000     -2.369000      5.085000
C         -12.717000     -2.557000      4.316000
H         -11.935000     -2.027000      4.873000
H         -12.997000     -1.939000      3.454000
C         -12.219000     -3.992000      4.118000
H         -11.189000     -3.976000      3.739000
H         -12.299000     -4.442000      5.115000
C         -13.097000     -4.803000      3.134000
H         -14.153000     -4.824000      3.432000
H         -13.235000     -4.141000      2.270000
C         -12.465000     -6.210000      2.856000
C         -12.270000     -7.107000      4.062000
C         -13.432000     -7.731000      4.624000
H         -14.458000     -7.508000      4.347000
C         -13.318000     -8.585000      5.750000
H         -14.192000     -9.099000      6.139000
C         -12.098000     -8.760000      6.378000
H         -12.052000     -9.424000      7.236000
C         -10.936000     -8.185000      5.789000
H          -9.986000     -8.388000      6.274000
C         -11.062000     -7.381000      4.666000
H         -10.165000     -6.977000      4.206000
C          -8.608000     -8.927000      0.058000
C         -10.566000    -10.338000     -0.120000
C         -11.448000     -9.462000     -4.495000
C          -9.739000     -4.176000     -1.501000
C         -13.915000     -7.092000     -3.861000
C          -9.769000     -9.470000      0.633000
C         -11.679000     -4.280000     -3.447000
C          -9.367000     -9.831000     -3.299000
C         -13.919000     -8.151000      0.088000
C         -11.109000     -3.895000     -1.164000
C         -12.747000     -6.683000      1.473000
C         -14.234000     -6.836000     -0.376000
C         -13.228000     -4.500000     -1.634000
C         -12.477000     -5.188000     -4.214000
C         -11.918000     -8.973000      1.162000
C         -11.893000     -7.398000     -5.124000
C         -11.353000     -6.207000      1.807000
C         -10.885000     -5.102000      0.969000
C         -13.056000     -7.913000     -4.633000
C          -8.288000     -6.522000     -3.687000
C          -9.588000     -7.979000     -4.861000
C          -8.805000     -8.705000     -3.941000
C          -9.005000    -10.109000     -1.994000
C          -9.540000     -5.418000      0.571000
C         -12.942000     -8.067000      1.125000
C         -10.182000    -10.703000     -1.448000
C         -12.092000     -3.917000     -2.138000
C         -11.891000     -9.989000      0.218000
C         -14.504000     -6.589000     -1.723000
C          -8.069000     -5.760000     -1.377000
C         -10.673000    -10.223000     -3.612000
C         -13.531000     -5.936000      0.354000
C          -7.673000     -8.067000     -1.906000
C         -13.993000     -5.430000     -2.347000
C         -13.881000     -9.174000     -0.893000
C         -10.277000     -5.621000     -4.680000
C         -10.375000     -4.587000     -3.699000
C         -14.179000     -8.947000     -2.247000
C          -8.981000     -4.975000     -0.643000
C         -11.686000     -4.423000      0.080000
C          -8.308000     -5.444000     -2.771000
C         -10.321000     -7.272000      1.649000
C         -12.511000    -10.466000     -2.118000
C         -13.003000     -4.765000     -0.270000
C         -14.452000     -7.609000     -2.659000
C          -7.784000     -7.022000     -0.967000
C         -12.785000     -9.225000     -4.189000
C          -8.160000     -9.221000     -1.238000
C         -10.904000     -8.348000     -5.056000
C         -12.883000    -10.157000     -0.783000
C         -13.301000     -9.739000     -3.010000
C         -10.629000     -8.620000      1.399000
C          -9.215000     -6.728000      1.034000
C          -9.292000     -6.597000     -4.682000
C         -11.163000    -10.713000     -2.433000
C         -13.623000     -5.757000     -3.613000
C          -9.348000     -4.503000     -2.780000
C         -11.581000     -6.012000     -4.985000
C          -8.346000     -7.538000      0.260000
C          -7.955000     -7.800000     -3.284000
$end

--------------------------------------------------------------
 ----------------------------------------------------------------
             Standard Nuclear Orientation (Angstroms)
    I     Atom           X                Y                Z
 ----------------------------------------------------------------
    1      O      12.0130095964     3.1147907702    -4.4261000805
    2      C      13.0721797435     3.9522283373    -4.7203974145
    3      H      12.8096457947     4.9939619690    -4.5006612856
    4      H      13.2481149739     3.9560469741    -5.8034238282
    5      H      13.9252514303     3.6037844581    -4.1242551830
    6      O      11.7340880572     3.8086585385    -2.2424935923
    7      C      11.3827446093     3.1327273905    -3.2042169750
    8      C      10.3386790143     2.0668274420    -3.3133880942
    9      H      10.8678595934     1.2003336410    -3.7275684987
   10      H       9.5506900612     2.4697786139    -3.9617049634
   11      C       9.8901462612     1.5530374172    -1.9154874612
   12      H      10.7526390694     1.1530882339    -1.3683395775
   13      H       9.5435261486     2.4723004445    -1.4277877748
   14      C       8.7979131703     0.4804682796    -2.0121120967
   15      H       7.9767599452     0.7942207529    -2.6680265473
   16      H       9.3337836341    -0.3035974994    -2.5628277223
   17      C       8.3342289618    -0.0418021020    -0.6322535520
   18      C       9.4286079384    -0.5703758209     0.1656063851
   19      C       9.9734635019     0.2474389138     1.1177846640
   20      H       9.5411637715     1.2385241196     1.2215539168
   21      C      10.8810773564    -0.1966344673     2.0431337459
   22      H      11.1577109765     0.4864883647     2.8410165923
   23      C      11.3319912350    -1.5501975784     1.8896424490
   24      H      11.9725363235    -1.9018694893     2.6933805014
   25      C      10.8886751255    -2.3615401315     0.8107406515
   26      H      11.3123204216    -3.3621452885     0.8016311646
   27      C       9.8773250669    -1.8781855754     0.0310308131
   28      H       9.4175587180    -2.5777171083    -0.6608843110
   29      C       4.7100681143    -3.0263158698     2.0886649916
   30      C       5.3023980775    -1.2949265057     3.5970568785
   31      C       1.3113490403     0.9715791838     3.5558435072
   32      C       3.1363765412    -1.0946501566    -2.3487646029
   33      C       2.5433303864     3.2935625133     1.1914521732
   34      C       5.6958033460    -2.1912999189     2.6325844845
   35      C       1.9129935908     1.3197100599    -1.8107228744
   36      C       1.7741889637    -1.4625281671     3.5855185698
   37      C       6.2832190918     2.0479786400     1.6413024653
   38      C       3.8562448352     0.0900231535    -2.5936090179
   39      C       7.1086643845     0.6487845383    -0.0731904436
   40      C       5.9080006341     2.6522434334     0.3877737786
   41      C       4.1626470806     2.2247258515    -1.8464383176
   42      C       1.5226394000     2.2091156825    -0.7653917095
   43      C       6.8170005121    -0.2284750654     2.2690332377
   44      C       0.5855900219     1.8234764563     1.5019189993
   45      C       6.9403739837    -0.7112749281    -0.5677211188
   46      C       5.8689227264    -0.9015352645    -1.6370251951
   47      C       1.5817875570     2.6749699483     2.0336306731
   48      C       0.8634008870    -1.9575344327     0.2097782249
   49      C       0.3823733524    -0.5095385154     1.8819652164
   50      C       0.9220816657    -1.6496622564     2.4918330641
   51      C       3.0446002149    -2.1062162806     3.5666806959
   52      C       5.1456592644    -2.0261834962    -1.3294714283
   53      C       6.9809543632     0.9088857972     1.4076382047
   54      C       4.0009421153    -1.2411168620     4.0977542928
   55      C       3.2081417664     1.2944702558    -2.3175010859
   56      C       6.0207063306    -0.1230021763     3.4473651290
   57      C       4.6724408649     3.2723254244     0.3671005757
   58      C       2.8396763569    -2.7665718440    -0.8409052355
   59      C       1.9855498529    -0.1420789580     4.0933142576
   60      C       6.2995106492     1.7500007185    -0.6649650265
   61      C       2.4521042458    -3.2531350830     1.5033085076
   62      C       3.8062145734     3.0604031209    -0.7243049168
   63      C       5.5096599560     2.1962042709     2.8252308523
   64      C       0.4370718585     0.2646339232    -0.4151092510
   65      C       1.1892333958     0.1728390129    -1.6294303437
   66      C       4.2956751968     2.8648661491     2.7514114972
   67      C       3.8041906057    -2.1646302769    -1.6908885374
   68      C       5.2186593156     0.1660064394    -2.2693077325
   69      C       1.6172429606    -2.1062204756    -0.9591493129
   70      C       6.6004360290    -1.7701816838     0.4353480064
   71      C       4.0692134813     1.1412778495     4.1474177525
   72      C       5.4205822717     1.4713377557    -1.8281781885
   73      C       3.8823804071     3.4233848057     1.5717575959
   74      C       3.3046402618    -3.3610505157     0.3738937916
   75      C       2.0221551588     2.1661747259     3.2548615264
   76      C       3.3827258374    -3.0520315383     2.5951609782
   77      C       0.4893859261     0.7410670775     2.4298520296
   78      C       5.3878383870     1.1293581466     3.7308360933
   79      C       3.4135941426     2.2320198403     3.5372725303
   80      C       6.6710135749    -1.5573999190     1.8116400287
   81      C       5.5634268964    -2.5439459382    -0.0851574570
   82      C       0.2428244795    -0.7420221513     0.4928750569
   83      C       3.3610054116    -0.0887207405     4.2866039536
   84      C       2.5307012493     3.0542883553    -0.1942809837
   85      C       1.7626979232    -1.0866282061    -1.8896048238
   86      C       0.6229618078     1.5638475564     0.1071530031
   87      C       4.6515068867    -3.2448497453     0.7167912628
   88      C       1.2059959900    -2.5681647475     1.4407636894
   89      O       0.0045743017    -6.3313985746    -3.5160986336
   90      C       1.2436733100    -6.9853808391    -3.3626879257
   91      H       1.2536875411    -7.8287577206    -4.0633049045
   92      H       1.4029014725    -7.2897307867    -2.3206545761
   93      H       2.0529029838    -6.2848941948    -3.6002648523
   94      O       0.5966023686    -4.5029071326    -2.2315104448
   95      C      -0.1574158406    -5.0367953408    -3.0341871677
   96      C      -1.4490235774    -4.4013447071    -3.5392346371
   97      H      -1.7778541667    -4.9856129424    -4.4070906578
   98      H      -0.9900155976    -3.4758158739    -3.9081195155
   99      C      -2.6334699465    -4.3517248103    -2.5691533701
  100      H      -3.5432293159    -4.0649030479    -3.1121710183
  101      H      -2.6848289887    -5.3675402125    -2.1587994772
  102      C      -2.4158881853    -3.3549622159    -1.4046863214
  103      H      -1.4957392821    -3.5593759229    -0.8426169020
  104      H      -2.0551178042    -2.4368104683    -1.8849217850
  105      C      -3.7088049009    -3.2356705911    -0.5269090861
  106      C      -4.2004736928    -4.5155229351     0.1190860971
  107      C      -3.4709973585    -5.0162192181     1.2471958036
  108      H      -2.5155102204    -4.6344741193     1.5942534478
  109      C      -3.8807087411    -6.2063542651     1.8998083633
  110      H      -3.3588275004    -6.5526739465     2.7869924754
  111      C      -4.9367729849    -6.9504830694     1.4054303344
  112      H      -5.2210693661    -7.8547013601     1.9352801720
  113      C      -5.6945246530    -6.4264847406     0.3195997026
  114      H      -6.5516840127    -7.0067361028    -0.0083030098
  115      C      -5.3000245790    -5.2418660065    -0.2841130985
  116      H      -5.9060969947    -4.8349443919    -1.0881753016
  117      C      -8.7008952132    -0.9914328955    -0.1666682234
  118      C      -7.7836577011    -0.7432901339     2.0589709019
  119      C      -7.0762047057     3.7440722093     1.8375788064
  120      C      -5.4690481583     0.9987591778    -3.6128172518
  121      C      -3.6879206415     3.5022053781     1.0852646857
  122      C      -7.9290933829    -1.4993099537     0.8915273296
  123      C      -4.0933692296     3.0957868727    -2.4852914952
  124      C      -8.8998074255     2.3457298020     1.0525631173
  125      C      -3.7847160189    -0.4969174397     1.9300991918
  126      C      -4.1221597272     0.8050102307    -3.1461450975
  127      C      -3.8686204528    -1.8707806248     0.0453464243
  128      C      -2.8921922254     0.0863911486     0.9777870745
  129      C      -2.6859809377     1.4154017508    -1.5207532442
  130      C      -3.9692593217     3.8629284109    -1.2829406350
  131      C      -5.7873543167    -1.7995604525     1.5755261675
  132      C      -5.7061191815     4.5566221352     0.3156095970
  133      C      -4.7704620255    -2.2913700260    -1.0909432982
  134      C      -4.6936131017    -1.4206637876    -2.2649355849
  135      C      -4.9276678630     4.1343886996     1.3522423529
  136      C      -8.1565312777     2.8739000604    -2.3286855790
  137      C      -7.9344065488     4.0502168975    -0.3901128298
  138      C      -8.8699317892     3.0149263578    -0.1912887291
  139      C      -9.2034847836     0.9972870666     1.0814638353
  140      C      -6.0441555458    -1.1666217388    -2.6877626701
  141      C      -4.4548120052    -1.6073326111     1.3343614002
  142      C      -8.4476170449     0.5159667990     2.1919933314
  143      C      -3.4079376539     1.8578211011    -2.6012367556
  144      C      -6.4398811044    -0.9371140348     2.4441549535
  145      C      -2.6873922831     1.4662162676     0.9282126382
  146      C      -7.6898725177     0.6143660081    -3.1295853654
  147      C      -8.0271250595     2.7437309513     2.0710372570
  148      C      -2.9438626707    -0.6361849964    -0.1677795450
  149      C      -9.2739761608     0.9391469773    -1.3564415557
  150      C      -2.5951557631     2.1244012943    -0.3176055247
  151      C      -4.4543655758     0.4008149708     2.7995702897
  152      C      -6.1142801487     4.1006898629    -2.0490999809
  153      C      -5.3879792017     3.2090414114    -2.8967856380
  154      C      -4.2368594435     1.7886269910     2.7817411231
  155      C      -6.4279077577     0.0220234699    -3.3376725159
  156      C      -3.7634995384    -0.4179626752    -2.4147429234
  157      C      -7.4811829638     2.0431113079    -3.2534745838
  158      C      -6.2136577470    -2.3020007494    -0.7150628688
  159      C      -6.4219497001     1.4041155132     3.2104105689
  160      C      -2.8598932383     0.0213629606    -1.4326830270
  161      C      -3.3623216905     2.3182216091     1.7871405705
  162      C      -8.5356978670     0.0911633073    -2.2061096417
  163      C      -5.7835106858     3.5750475157     2.3251716939
  164      C      -9.3790732206     0.2354899656    -0.1280562669
  165      C      -7.0280820189     4.3335202678     0.6120633257
  166      C      -5.7962352480     0.1328196478     3.1188778051
  167      C      -5.4768049188     2.4122773805     3.0139315833
  168      C      -6.6742394966    -2.1233592598     0.6003912999
  169      C      -6.9427152159    -1.7494595768    -1.7449028853
  170      C      -7.4541225022     3.9456170141    -1.7272616992
  171      C      -7.7301551908     1.5803924343     2.7257840721
  172      C      -3.2206619629     3.3260278569    -0.2107383268
  173      C      -6.1138651723     2.2114486725    -3.5166600486
  174      C      -5.2418806684     4.4906384333    -1.0326447388
  175      C      -8.1855214068    -1.1153806688    -1.4924871361
  176      C      -9.0521743175     2.3522671180    -1.4163782740
 ----------------------------------------------------------------
 Molecular Point Group                 C1    NOp =  1
 Largest Abelian Subgroup              C1    NOp =  1
 Nuclear Repulsion Energy = 34637.5966128498 hartrees
 There are      462 alpha and      462 beta electrons
 Requested basis set is 6-31G(d,p)
 There are 676 shells and 2360 basis functions

 Total QAlloc Memory Limit  20000 MB
 Mega-Array Size      4888 MB
 MEM_STATIC part      5000 MB
 A cutoff of  1.0D-08 yielded  37768 shell pairs
 There are    532743 function pairs
 
 -------------------------------------------------------
 OpenMP Integral Computing Module                       
 Release: version 1.0, May 2013, Q-Chem Inc. Pittsburgh 
 -------------------------------------------------------
 Integral Job Info:
 Integral job number is                      11
 Integral operator is                         1
 short-range coefficients                     0
 long-range coefficients              100000000
 Omega coefficients                           0
 if combine SR and LR in K                    0
 Integral screening is                        0
 Integral computing path is                   2
 max size of driver memory is            800000
 size of driver memory is                593474
 size of scratch memory is              2260544
 max col of scratch BK array               1296
 max len of scratch array in speh3          155
 max len of scratch index in speh4           18
 max int batch size is                      520
 min int batch size is                       52
 fixed nKL is                                52
 max L of basis functions is                  2
 order of int derivative is                   0
 number of shells is                        676
 number of basis is                        2360
 number of cartesian basis is              2360
 number of contracted shell pairs         37768
 number of primitive shell pairs         114235
 maxK2 (contraction) of shell pair           36
 max number of K2 of shell pair               1
 max number of CS2 of shell pair           7274
 max number of PS2 of shell pair          34692
 mem total for path MDJ                 1519224
 -------------------------------------------------------
 Smallest overlap matrix eigenvalue = 2.38E-04

 Scale SEOQF with 1.000000e-02/1.000000e-02/1.000000e-02

 Standard Electronic Orientation quadrupole field applied
 Nucleus-field energy     =     0.0000001200 hartrees
 Guess from superposition of atomic densities
 Warning:  Energy on first SCF cycle will be non-variational
 A restricted hybrid HF-DFT SCF calculation will be
 performed using Pulay DIIS extrapolation
 Exchange:     0.2000 Hartree-Fock + 0.0800 Slater + 0.7200 B88
 Correlation:  0.1900 VWN1RPA + 0.8100 LYP
 Using SG-1 standard quadrature grid
 SCF converges when DIIS error is below 1.0E-05
 using 16 threads for integral computing 
 -------------------------------------------------------
 OpenMP BLAS3 based DFT computing Module                
 Release: version 1.0, May 2013, Q-Chem Inc. Pittsburgh 
 -------------------------------------------------------
 ---------------------------------------
  Cycle       Energy         DIIS Error
 ---------------------------------------
    1   -5858.7673164412      1.84E-02
    2   -5803.1392845937      1.29E-03
    3   -5802.4610860994      1.75E-03
    4   -5804.0384120686      6.02E-04
    5   -5804.2276224544      2.82E-04
    6   -5804.2786715997      1.23E-04
    7   -5804.2886860098      4.32E-05
    8   -5804.2895142869      2.55E-05
    9   -5804.2899581209      8.32E-06 Convergence criterion met
 ---------------------------------------
 SCF time:  CPU 7194.26 s  wall 833.98 s
 SCF   energy in the final basis set = -5804.2899581209
 Total energy in the final basis set = -5804.2899581209
 
 --------------------------------------------------------------
 
                    Orbital Energies (a.u.)
 --------------------------------------------------------------
 
 Alpha MOs
 -- Occupied --
-19.194 -19.185 -19.148 -19.143 -10.325 -10.319 -10.245 -10.241
-10.240 -10.235 -10.235 -10.234 -10.234 -10.232 -10.231 -10.227
-10.226 -10.222 -10.222 -10.221 -10.220 -10.220 -10.219 -10.219
-10.218 -10.218 -10.218 -10.218 -10.217 -10.217 -10.216 -10.216
-10.216 -10.216 -10.216 -10.216 -10.215 -10.215 -10.215 -10.215
-10.215 -10.214 -10.214 -10.214 -10.214 -10.214 -10.214 -10.214
-10.214 -10.214 -10.214 -10.214 -10.214 -10.213 -10.213 -10.213
-10.213 -10.213 -10.213 -10.213 -10.213 -10.213 -10.213 -10.212
-10.212 -10.212 -10.212 -10.212 -10.212 -10.212 -10.212 -10.212
-10.212 -10.211 -10.211 -10.211 -10.211 -10.211 -10.211 -10.211
-10.211 -10.211 -10.211 -10.211 -10.211 -10.211 -10.210 -10.210
-10.210 -10.210 -10.210 -10.210 -10.210 -10.210 -10.210 -10.210
-10.209 -10.209 -10.209 -10.209 -10.209 -10.209 -10.208 -10.208
-10.208 -10.208 -10.208 -10.208 -10.208 -10.207 -10.207 -10.207
-10.207 -10.207 -10.207 -10.206 -10.206 -10.206 -10.206 -10.206
-10.205 -10.205 -10.205 -10.205 -10.204 -10.204 -10.204 -10.204
-10.203 -10.203 -10.202 -10.202 -10.202 -10.201 -10.201 -10.200
-10.199 -10.199 -10.199 -10.199 -10.198 -10.198 -10.198 -10.197
-10.197 -10.195 -10.189 -10.187  -1.097  -1.095  -1.019  -1.015
 -0.982  -0.978  -0.967  -0.961  -0.961  -0.960  -0.958  -0.956
 -0.936  -0.931  -0.924  -0.923  -0.921  -0.921  -0.920  -0.919
 -0.918  -0.914  -0.897  -0.894  -0.886  -0.884  -0.884  -0.880
 -0.875  -0.871  -0.856  -0.854  -0.840  -0.839  -0.836  -0.835
 -0.834  -0.832  -0.821  -0.818  -0.808  -0.807  -0.796  -0.796
 -0.795  -0.792  -0.790  -0.789  -0.789  -0.786  -0.784  -0.780
 -0.769  -0.768  -0.768  -0.766  -0.764  -0.764  -0.762  -0.761
 -0.758  -0.751  -0.748  -0.743  -0.733  -0.733  -0.715  -0.713
 -0.712  -0.711  -0.709  -0.708  -0.707  -0.707  -0.706  -0.706
 -0.703  -0.703  -0.702  -0.701  -0.700  -0.698  -0.670  -0.667
 -0.658  -0.656  -0.656  -0.653  -0.646  -0.644  -0.631  -0.629
 -0.627  -0.624  -0.623  -0.622  -0.621  -0.618  -0.616  -0.614
 -0.613  -0.611  -0.610  -0.610  -0.609  -0.607  -0.607  -0.607
 -0.606  -0.602  -0.602  -0.598  -0.566  -0.566  -0.565  -0.559
 -0.558  -0.557  -0.556  -0.556  -0.555  -0.554  -0.553  -0.549
 -0.537  -0.534  -0.533  -0.527  -0.526  -0.526  -0.525  -0.522
 -0.519  -0.518  -0.516  -0.516  -0.513  -0.512  -0.511  -0.508
 -0.505  -0.504  -0.501  -0.500  -0.493  -0.489  -0.488  -0.487
 -0.485  -0.483  -0.481  -0.479  -0.479  -0.477  -0.477  -0.476
 -0.474  -0.472  -0.471  -0.468  -0.466  -0.466  -0.465  -0.463
 -0.463  -0.462  -0.462  -0.461  -0.459  -0.459  -0.458  -0.457
 -0.456  -0.456  -0.451  -0.450  -0.448  -0.446  -0.444  -0.442
 -0.440  -0.439  -0.439  -0.436  -0.436  -0.433  -0.433  -0.432
 -0.430  -0.429  -0.427  -0.425  -0.425  -0.424  -0.423  -0.422
 -0.422  -0.421  -0.419  -0.418  -0.417  -0.417  -0.416  -0.415
 -0.415  -0.414  -0.413  -0.413  -0.413  -0.412  -0.412  -0.411
 -0.408  -0.407  -0.406  -0.405  -0.403  -0.398  -0.395  -0.394
 -0.392  -0.391  -0.390  -0.387  -0.385  -0.384  -0.382  -0.379
 -0.377  -0.374  -0.374  -0.372  -0.369  -0.366  -0.365  -0.362
 -0.362  -0.360  -0.360  -0.359  -0.359  -0.358  -0.357  -0.356
 -0.355  -0.353  -0.353  -0.352  -0.351  -0.351  -0.349  -0.348
 -0.347  -0.347  -0.345  -0.345  -0.343  -0.342  -0.342  -0.341
 -0.341  -0.340  -0.338  -0.337  -0.336  -0.335  -0.335  -0.334
 -0.331  -0.330  -0.328  -0.326  -0.324  -0.323  -0.322  -0.322
 -0.308  -0.301  -0.298  -0.297  -0.286  -0.285  -0.277  -0.274
 -0.270  -0.269  -0.268  -0.267  -0.266  -0.263  -0.263  -0.261
 -0.260  -0.259  -0.257  -0.256  -0.256  -0.255  -0.254  -0.251
 -0.249  -0.244  -0.242  -0.237  -0.221  -0.220  -0.210  -0.208
 -0.205  -0.205  -0.203  -0.203  -0.197  -0.193
 -- Virtual --
 -0.122  -0.120  -0.118  -0.116  -0.104  -0.099  -0.078  -0.075
 -0.071  -0.068  -0.055  -0.053  -0.048  -0.044  -0.022  -0.021
 -0.019  -0.018  -0.015  -0.015  -0.014  -0.013  -0.011  -0.010
 -0.009  -0.007  -0.006  -0.006  -0.004  -0.003  -0.001   0.003
  0.004   0.010   0.037   0.040   0.041   0.046   0.048   0.048
  0.053   0.054   0.060   0.062   0.064   0.064   0.067   0.069
  0.071   0.073   0.083   0.083   0.085   0.089   0.091   0.092
  0.096   0.099   0.100   0.103   0.105   0.106   0.109   0.110
  0.112   0.115   0.116   0.119   0.120   0.123   0.124   0.124
  0.125   0.128   0.129   0.131   0.132   0.133   0.138   0.141
  0.144   0.145   0.146   0.150   0.151   0.152   0.153   0.157
  0.160   0.161   0.163   0.164   0.165   0.168   0.169   0.170
  0.171   0.173   0.175   0.179   0.180   0.181   0.183   0.184
  0.185   0.187   0.188   0.189   0.190   0.191   0.193   0.194
  0.195   0.199   0.200   0.203   0.203   0.207   0.208   0.209
  0.212   0.214   0.214   0.217   0.219   0.220   0.221   0.222
  0.225   0.225   0.226   0.227   0.227   0.228   0.229   0.229
  0.230   0.231   0.233   0.235   0.239   0.240   0.240   0.242
  0.244   0.245   0.247   0.248   0.251   0.251   0.256   0.260
  0.264   0.268   0.277   0.278   0.278   0.279   0.280   0.282
  0.283   0.287   0.289   0.293   0.295   0.300   0.302   0.310
  0.310   0.313   0.314   0.315   0.318   0.318   0.321   0.322
  0.323   0.326   0.326   0.328   0.329   0.329   0.334   0.334
  0.336   0.340   0.342   0.344   0.346   0.348   0.349   0.351
  0.356   0.357   0.358   0.369   0.371   0.380   0.386   0.393
  0.397   0.400   0.404   0.406   0.407   0.409   0.409   0.410
  0.413   0.416   0.418   0.418   0.423   0.424   0.427   0.433
  0.434   0.435   0.436   0.439   0.440   0.443   0.446   0.449
  0.450   0.451   0.454   0.456   0.457   0.464   0.465   0.468
  0.469   0.472   0.476   0.477   0.478   0.479   0.481   0.482
  0.482   0.483   0.484   0.485   0.487   0.489   0.490   0.490
  0.492   0.493   0.494   0.495   0.496   0.497   0.498   0.499
  0.500   0.501   0.502   0.504   0.506   0.507   0.508   0.509
  0.511   0.512   0.513   0.514   0.514   0.515   0.516   0.517
  0.517   0.518   0.519   0.520   0.520   0.521   0.522   0.522
  0.523   0.524   0.525   0.526   0.527   0.527   0.528   0.530
  0.530   0.530   0.531   0.532   0.533   0.534   0.534   0.536
  0.536   0.537   0.538   0.538   0.539   0.540   0.541   0.542
  0.543   0.543   0.544   0.545   0.545   0.546   0.547   0.548
  0.549   0.550   0.551   0.552   0.553   0.553   0.553   0.554
  0.555   0.556   0.556   0.557   0.557   0.558   0.559   0.560
  0.561   0.561   0.562   0.563   0.564   0.566   0.566   0.566
  0.567   0.568   0.569   0.569   0.570   0.572   0.572   0.573
  0.575   0.575   0.576   0.577   0.577   0.579   0.580   0.581
  0.581   0.581   0.582   0.583   0.584   0.586   0.586   0.587
  0.588   0.588   0.589   0.589   0.590   0.591   0.592   0.593
  0.594   0.595   0.596   0.597   0.598   0.598   0.599   0.599
  0.602   0.603   0.604   0.605   0.606   0.606   0.608   0.609
  0.610   0.611   0.612   0.616   0.616   0.617   0.618   0.619
  0.620   0.621   0.623   0.623   0.624   0.625   0.625   0.627
  0.629   0.630   0.631   0.633   0.634   0.634   0.635   0.636
  0.636   0.637   0.638   0.639   0.640   0.640   0.641   0.642
  0.642   0.645   0.646   0.648   0.650   0.650   0.651   0.653
  0.654   0.655   0.656   0.657   0.657   0.658   0.659   0.660
  0.661   0.662   0.662   0.664   0.664   0.666   0.666   0.666
  0.667   0.669   0.669   0.670   0.671   0.671   0.672   0.673
  0.674   0.675   0.675   0.676   0.677   0.678   0.678   0.682
  0.683   0.685   0.686   0.687   0.688   0.689   0.690   0.691
  0.692   0.692   0.694   0.695   0.696   0.697   0.698   0.699
  0.700   0.702   0.702   0.705   0.705   0.706   0.707   0.709
  0.709   0.709   0.710   0.713   0.716   0.718   0.719   0.719
  0.720   0.721   0.722   0.723   0.723   0.725   0.726   0.727
  0.728   0.728   0.732   0.732   0.733   0.734   0.734   0.737
  0.737   0.739   0.741   0.742   0.743   0.747   0.748   0.750
  0.751   0.753   0.753   0.756   0.756   0.758   0.759   0.760
  0.762   0.763   0.764   0.765   0.766   0.767   0.770   0.771
  0.772   0.772   0.774   0.775   0.776   0.777   0.778   0.780
  0.780   0.782   0.783   0.783   0.785   0.787   0.788   0.789
  0.791   0.791   0.792   0.795   0.796   0.796   0.799   0.801
  0.802   0.803   0.804   0.805   0.806   0.807   0.808   0.809
  0.810   0.810   0.811   0.812   0.813   0.814   0.815   0.815
  0.816   0.817   0.817   0.818   0.819   0.820   0.820   0.821
  0.822   0.823   0.824   0.824   0.825   0.826   0.827   0.829
  0.830   0.830   0.831   0.832   0.833   0.833   0.834   0.836
  0.837   0.840   0.841   0.844   0.845   0.848   0.850   0.855
  0.858   0.859   0.860   0.864   0.867   0.871   0.873   0.874
  0.875   0.877   0.883   0.889   0.890   0.893   0.895   0.899
  0.901   0.902   0.903   0.905   0.907   0.909   0.911   0.913
  0.915   0.917   0.920   0.923   0.925   0.926   0.927   0.929
  0.931   0.934   0.935   0.936   0.938   0.939   0.940   0.942
  0.944   0.945   0.947   0.947   0.948   0.953   0.955   0.959
  0.960   0.961   0.963   0.968   0.969   0.972   0.974   0.980
  0.981   0.983   0.985   0.986   0.987   0.991   0.993   0.995
  0.998   0.999   1.002   1.003   1.006   1.007   1.009   1.009
  1.013   1.014   1.015   1.016   1.018   1.019   1.021   1.022
  1.025   1.025   1.027   1.029   1.029   1.032   1.035   1.035
  1.037   1.039   1.040   1.042   1.043   1.045   1.045   1.047
  1.048   1.050   1.052   1.053   1.056   1.057   1.059   1.060
  1.064   1.064   1.067   1.069   1.070   1.072   1.073   1.075
  1.077   1.078   1.080   1.082   1.082   1.084   1.085   1.087
  1.089   1.089   1.092   1.093   1.096   1.098   1.100   1.101
  1.103   1.107   1.107   1.109   1.110   1.112   1.116   1.118
  1.122   1.122   1.124   1.127   1.130   1.131   1.134   1.136
  1.137   1.138   1.139   1.143   1.145   1.147   1.148   1.150
  1.150   1.152   1.154   1.156   1.158   1.160   1.161   1.163
  1.164   1.166   1.167   1.167   1.169   1.172   1.173   1.174
  1.177   1.178   1.180   1.181   1.181   1.184   1.186   1.186
  1.189   1.192   1.194   1.195   1.198   1.199   1.201   1.204
  1.206   1.208   1.211   1.212   1.214   1.216   1.220   1.224
  1.230   1.231   1.234   1.236   1.240   1.243   1.245   1.247
  1.250   1.254   1.257   1.259   1.260   1.261   1.264   1.266
  1.267   1.269   1.270   1.272   1.275   1.276   1.277   1.278
  1.279   1.283   1.284   1.286   1.289   1.291   1.293   1.295
  1.296   1.298   1.301   1.306   1.306   1.309   1.316   1.317
  1.321   1.323   1.326   1.327   1.330   1.333   1.334   1.337
  1.340   1.341   1.343   1.349   1.351   1.351   1.355   1.356
  1.357   1.358   1.362   1.364   1.366   1.369   1.370   1.374
  1.376   1.378   1.380   1.380   1.384   1.388   1.388   1.390
  1.393   1.394   1.394   1.396   1.397   1.402   1.404   1.408
  1.411   1.416   1.418   1.419   1.423   1.425   1.429   1.432
  1.435   1.442   1.444   1.446   1.449   1.449   1.450   1.452
  1.456   1.459   1.460   1.461   1.463   1.464   1.466   1.468
  1.471   1.473   1.473   1.476   1.477   1.478   1.481   1.482
  1.483   1.483   1.486   1.487   1.492   1.494   1.495   1.498
  1.500   1.503   1.505   1.506   1.510   1.515   1.515   1.521
  1.522   1.527   1.529   1.531   1.534   1.536   1.539   1.541
  1.543   1.544   1.547   1.549   1.551   1.555   1.557   1.559
  1.561   1.564   1.566   1.569   1.572   1.574   1.575   1.579
  1.580   1.582   1.584   1.585   1.587   1.591   1.593   1.596
  1.598   1.604   1.605   1.609   1.609   1.614   1.620   1.621
  1.623   1.627   1.630   1.637   1.640   1.642   1.647   1.652
  1.654   1.656   1.657   1.661   1.662   1.667   1.669   1.675
  1.683   1.689   1.691   1.692   1.695   1.697   1.700   1.701
  1.703   1.704   1.708   1.711   1.712   1.716   1.720   1.721
  1.722   1.726   1.729   1.729   1.732   1.732   1.734   1.736
  1.738   1.738   1.741   1.743   1.744   1.745   1.748   1.748
  1.749   1.751   1.753   1.755   1.757   1.759   1.761   1.763
  1.764   1.766   1.767   1.768   1.771   1.771   1.773   1.774
  1.775   1.776   1.777   1.780   1.781   1.781   1.782   1.783
  1.785   1.786   1.787   1.789   1.789   1.790   1.791   1.793
  1.795   1.795   1.796   1.796   1.798   1.798   1.800   1.800
  1.803   1.804   1.805   1.806   1.808   1.809   1.810   1.812
  1.813   1.814   1.816   1.817   1.819   1.824   1.824   1.826
  1.827   1.831   1.832   1.838   1.841   1.843   1.846   1.847
  1.849   1.851   1.853   1.854   1.855   1.857   1.858   1.859
  1.862   1.863   1.864   1.867   1.870   1.872   1.874   1.875
  1.876   1.878   1.879   1.881   1.884   1.887   1.888   1.889
  1.890   1.895   1.898   1.900   1.900   1.902   1.905   1.908
  1.908   1.914   1.915   1.915   1.919   1.920   1.923   1.926
  1.927   1.929   1.933   1.935   1.936   1.940   1.940   1.942
  1.944   1.946   1.947   1.949   1.950   1.953   1.955   1.957
  1.959   1.959   1.961   1.964   1.965   1.971   1.972   1.975
  1.979   1.980   1.981   1.983   1.986   1.987   1.988   1.989
  1.990   1.993   1.994   1.995   1.996   1.998   2.000   2.000
  2.001   2.003   2.003   2.004   2.006   2.007   2.008   2.010
  2.012   2.012   2.012   2.013   2.013   2.016   2.017   2.018
  2.019   2.019   2.022   2.023   2.024   2.025   2.026   2.028
  2.029   2.030   2.031   2.033   2.035   2.035   2.036   2.038
  2.040   2.041   2.042   2.043   2.044   2.044   2.045   2.045
  2.047   2.049   2.050   2.052   2.053   2.055   2.056   2.058
  2.058   2.061   2.061   2.062   2.064   2.064   2.065   2.067
  2.069   2.069   2.070   2.071   2.072   2.074   2.075   2.078
  2.080   2.081   2.082   2.083   2.084   2.087   2.087   2.089
  2.090   2.094   2.095   2.100   2.100   2.101   2.103   2.106
  2.109   2.113   2.115   2.116   2.118   2.121   2.121   2.123
  2.125   2.128   2.135   2.138   2.140   2.143   2.144   2.148
  2.150   2.155   2.158   2.159   2.163   2.168   2.171   2.173
  2.174   2.189   2.191   2.197   2.201   2.202   2.204   2.207
  2.209   2.215   2.217   2.219   2.222   2.223   2.227   2.228
  2.231   2.236   2.238   2.240   2.244   2.247   2.247   2.248
  2.252   2.254   2.255   2.260   2.261   2.263   2.264   2.267
  2.269   2.271   2.273   2.276   2.280   2.281   2.283   2.285
  2.287   2.288   2.289   2.291   2.294   2.297   2.301   2.303
  2.303   2.307   2.308   2.309   2.311   2.313   2.316   2.318
  2.322   2.326   2.330   2.331   2.338   2.340   2.343   2.346
  2.348   2.352   2.354   2.354   2.355   2.357   2.358   2.362
  2.363   2.364   2.365   2.368   2.371   2.372   2.374   2.374
  2.375   2.376   2.378   2.379   2.380   2.383   2.383   2.385
  2.388   2.388   2.391   2.392   2.396   2.397   2.398   2.400
  2.402   2.403   2.405   2.406   2.408   2.411   2.411   2.413
  2.414   2.415   2.419   2.420   2.421   2.424   2.427   2.429
  2.432   2.433   2.434   2.435   2.439   2.442   2.445   2.445
  2.449   2.451   2.457   2.458   2.458   2.460   2.462   2.465
  2.468   2.471   2.474   2.475   2.476   2.476   2.479   2.480
  2.482   2.485   2.488   2.489   2.490   2.492   2.495   2.497
  2.499   2.499   2.500   2.501   2.501   2.503   2.506   2.508
  2.512   2.513   2.517   2.518   2.521   2.522   2.524   2.527
  2.528   2.530   2.531   2.534   2.538   2.539   2.541   2.544
  2.545   2.549   2.549   2.552   2.555   2.559   2.561   2.563
  2.568   2.571   2.575   2.576   2.581   2.587   2.590   2.593
  2.595   2.596   2.599   2.602   2.603   2.606   2.607   2.610
  2.612   2.614   2.616   2.619   2.621   2.623   2.623   2.626
  2.629   2.630   2.631   2.633   2.634   2.635   2.637   2.640
  2.640   2.641   2.642   2.645   2.645   2.647   2.649   2.651
  2.652   2.654   2.655   2.656   2.657   2.659   2.662   2.662
  2.663   2.667   2.667   2.670   2.673   2.674   2.675   2.676
  2.676   2.682   2.684   2.684   2.686   2.689   2.690   2.692
  2.696   2.697   2.701   2.703   2.705   2.707   2.709   2.711
  2.712   2.713   2.719   2.721   2.723   2.726   2.727   2.730
  2.731   2.736   2.738   2.741   2.742   2.748   2.749   2.750
  2.751   2.756   2.757   2.758   2.761   2.761   2.766   2.767
  2.769   2.771   2.772   2.773   2.776   2.777   2.779   2.780
  2.782   2.787   2.791   2.791   2.793   2.797   2.799   2.800
  2.805   2.807   2.814   2.815   2.817   2.819   2.823   2.825
  2.828   2.829   2.835   2.838   2.841   2.843   2.847   2.849
  2.850   2.853   2.857   2.859   2.860   2.861   2.864   2.866
  2.867   2.868   2.870   2.873   2.876   2.879   2.881   2.882
  2.884   2.885   2.887   2.887   2.890   2.891   2.893   2.894
  2.898   2.900   2.903   2.904   2.905   2.906   2.908   2.911
  2.914   2.914   2.916   2.918   2.920   2.922   2.924   2.924
  2.927   2.929   2.933   2.933   2.934   2.938   2.941   2.941
  2.942   2.946   2.947   2.950   2.955   2.956   2.958   2.962
  2.966   2.968   2.969   2.972   2.976   2.980   2.981   2.982
  2.983   2.991   2.993   2.999   3.001   3.002   3.006   3.007
  3.011   3.013   3.016   3.018   3.021   3.024   3.026   3.029
  3.033   3.036   3.040   3.041   3.042   3.045   3.047   3.051
  3.052   3.054   3.057   3.058   3.063   3.065   3.069   3.072
  3.076   3.078   3.080   3.087   3.089   3.091   3.099   3.113
  3.121   3.130   3.133   3.134   3.145   3.147   3.163   3.167
  3.169   3.172   3.173   3.182   3.185   3.189   3.190   3.196
  3.201   3.207   3.212   3.212   3.224   3.229   3.234   3.242
  3.249   3.253   3.260   3.261   3.268   3.274   3.291   3.293
  3.298   3.304   3.311   3.318   3.324   3.328   3.329   3.333
  3.336   3.343   3.351   3.353   3.359   3.359   3.385   3.393
  3.394   3.399   3.408   3.422   3.424   3.428   3.430   3.431
  3.447   3.455   3.470   3.478   3.480   3.484   3.487   3.495
  3.497   3.509   3.519   3.523   3.524   3.542   3.542   3.545
  3.549   3.561   3.564   3.576   3.587   3.597   3.610   3.613
  3.624   3.634   3.687   3.698   3.856   3.885   4.004   4.018
  4.072   4.079   4.083   4.090   4.092   4.094   4.098   4.100
  4.102   4.103   4.107   4.108   4.111   4.115   4.121   4.123
  4.131   4.133   4.135   4.143   4.144   4.147   4.149   4.152
  4.154   4.161   4.161   4.164   4.167   4.171   4.177   4.181
  4.184   4.199   4.200   4.209   4.220   4.227   4.236   4.238
  4.242   4.246   4.246   4.252   4.253   4.258   4.260   4.265
  4.271   4.272   4.274   4.279   4.282   4.289   4.297   4.304
  4.311   4.316   4.323   4.329   4.376   4.381   4.390   4.393
  4.394   4.402   4.405   4.410   4.414   4.414   4.417   4.422
  4.424   4.425   4.429   4.432   4.436   4.454   4.462   4.475
  4.479   4.499   4.507   4.512   4.531   4.535   4.548   4.559
  4.560   4.569   4.614   4.624   4.633   4.639   4.641   4.644
  4.645   4.662   4.671   4.690   4.698   4.699   4.699   4.702
  4.704   4.706   4.713   4.717   4.747   4.769   4.784   4.822
  4.845   4.860   4.867   4.877   4.882   4.885   4.888   4.896
  4.897   4.907   4.963   4.973   4.975   4.981   4.986   4.989
  4.990   4.996   5.002   5.006   5.174   5.181   5.186   5.191
  5.196   5.209   5.216   5.225   5.328   5.330   5.348   5.351
  5.364   5.384
 --------------------------------------------------------------
 
          Ground-State Mulliken Net Atomic Charges

     Atom                 Charge (a.u.)
  ----------------------------------------
      1 O                    -0.456109
      2 C                    -0.076021
      3 H                     0.118423
      4 H                     0.118340
      5 H                     0.120035
      6 O                    -0.475335
      7 C                     0.594037
      8 C                    -0.260875
      9 H                     0.138538
     10 H                     0.139588
     11 C                    -0.190032
     12 H                     0.122157
     13 H                     0.115244
     14 C                    -0.174500
     15 H                     0.101805
     16 H                     0.097418
     17 C                     0.013485
     18 C                     0.096520
     19 C                    -0.093032
     20 H                     0.095236
     21 C                    -0.086687
     22 H                     0.098245
     23 C                    -0.104139
     24 H                     0.089327
     25 C                    -0.083532
     26 H                     0.095954
     27 C                    -0.110384
     28 H                     0.090688
     29 C                    -0.005710
     30 C                     0.015508
     31 C                    -0.026005
     32 C                    -0.027794
     33 C                     0.009258
     34 C                     0.006377
     35 C                     0.027957
     36 C                    -0.025003
     37 C                     0.005007
     38 C                    -0.001162
     39 C                    -0.078445
     40 C                    -0.016209
     41 C                    -0.043139
     42 C                    -0.037073
     43 C                     0.011479
     44 C                    -0.012348
     45 C                    -0.103863
     46 C                     0.045863
     47 C                    -0.006067
     48 C                    -0.027963
     49 C                     0.041354
     50 C                    -0.001777
     51 C                    -0.007199
     52 C                     0.013401
     53 C                     0.027084
     54 C                     0.016951
     55 C                     0.021790
     56 C                    -0.024079
     57 C                    -0.017689
     58 C                     0.007617
     59 C                     0.000838
     60 C                     0.037735
     61 C                    -0.012628
     62 C                     0.030107
     63 C                    -0.000439
     64 C                     0.002771
     65 C                    -0.006510
     66 C                     0.021662
     67 C                    -0.012905
     68 C                     0.008178
     69 C                     0.103134
     70 C                     0.047503
     71 C                    -0.011037
     72 C                    -0.039209
     73 C                    -0.010175
     74 C                    -0.005143
     75 C                     0.003369
     76 C                    -0.017086
     77 C                    -0.004364
     78 C                    -0.026597
     79 C                     0.008863
     80 C                    -0.025551
     81 C                     0.002412
     82 C                    -0.001402
     83 C                     0.027083
     84 C                    -0.008210
     85 C                    -0.043297
     86 C                     0.018669
     87 C                     0.005160
     88 C                    -0.021792
     89 O                    -0.461292
     90 C                    -0.080579
     91 H                     0.123837
     92 H                     0.125278
     93 H                     0.122297
     94 O                    -0.460610
     95 C                     0.576982
     96 C                    -0.251110
     97 H                     0.121654
     98 H                     0.131994
     99 C                    -0.180782
    100 H                     0.113356
    101 H                     0.123696
    102 C                    -0.203588
    103 H                     0.128903
    104 H                     0.115288
    105 C                     0.026630
    106 C                     0.092567
    107 C                    -0.116991
    108 H                     0.098078
    109 C                    -0.086292
    110 H                     0.091594
    111 C                    -0.079956
    112 H                     0.090692
    113 C                    -0.096909
    114 H                     0.094834
    115 C                    -0.102947
    116 H                     0.090887
    117 C                     0.004739
    118 C                    -0.001620
    119 C                    -0.011513
    120 C                    -0.004257
    121 C                    -0.014755
    122 C                    -0.011510
    123 C                    -0.001368
    124 C                     0.014331
    125 C                    -0.014227
    126 C                    -0.013482
    127 C                    -0.110143
    128 C                     0.009382
    129 C                     0.005169
    130 C                    -0.025523
    131 C                     0.030333
    132 C                     0.026083
    133 C                    -0.101081
    134 C                     0.056347
    135 C                    -0.011142
    136 C                     0.009342
    137 C                    -0.017191
    138 C                    -0.006836
    139 C                    -0.007437
    140 C                    -0.015637
    141 C                     0.053894
    142 C                    -0.018779
    143 C                    -0.009013
    144 C                    -0.008510
    145 C                     0.016572
    146 C                    -0.005274
    147 C                     0.003421
    148 C                     0.053436
    149 C                    -0.006964
    150 C                     0.015905
    151 C                    -0.008625
    152 C                     0.000709
    153 C                     0.032132
    154 C                    -0.004225
    155 C                     0.001020
    156 C                    -0.004864
    157 C                    -0.014757
    158 C                     0.032700
    159 C                     0.002953
    160 C                    -0.024115
    161 C                    -0.010268
    162 C                     0.006655
    163 C                    -0.003050
    164 C                    -0.011750
    165 C                     0.026143
    166 C                    -0.025130
    167 C                     0.013372
    168 C                     0.010630
    169 C                    -0.015176
    170 C                    -0.006157
    171 C                     0.009695
    172 C                     0.007726
    173 C                    -0.007053
    174 C                    -0.023298
    175 C                    -0.011464
    176 C                     0.002341
  ----------------------------------------
  Sum of atomic charges =     0.000000

 -----------------------------------------------------------------
                    Cartesian Multipole Moments
 -----------------------------------------------------------------
    Charge (ESU x 10^10)
                 0.0000
    Dipole Moment (Debye)
         X       3.0466      Y      -5.3139      Z      -3.1971
       Tot       6.9095
    Quadrupole Moments (Debye-Ang)
        XX    -787.2198     XY      -2.9377     YY    -782.5069
        XZ     -22.0318     YZ       0.9887     ZZ    -792.3638
    Octopole Moments (Debye-Ang^2)
       XXX     832.6186    XXY    -236.7978    XYY      43.4734
       YYY    -355.7972    XXZ    -268.9720    XYZ     -65.3356
       YYZ     -95.4300    XZZ     260.1557    YZZ     -37.4930
       ZZZ    -187.4076
    Hexadecapole Moments (Debye-Ang^3)
      XXXX -166667.5383   XXXY      53.9740   XXYY  -33809.2664
      XYYY     925.3099   YYYY  -33885.3506   XXXZ   -3655.4166
      XXYZ   -1109.7837   XYYZ    -908.4710   YYYZ     119.8793
      XXZZ  -30559.2493   XYZZ     899.2517   YYZZ   -9326.6127
      XZZZ   -1399.5768   YZZZ     -61.9097   ZZZZ  -23599.8500
 -----------------------------------------------------------------
Archival summary:
1\1\mn366\SP\ProcedureUnspecified\6-31G**\428\afmv_a\TueOct911:13:212018TueOct911:13:212018\0\\#,ProcedureUnspecified,6-31G**,\\0,1\O\C,1,1.22387\O,2,1.39085,1,124.161\C,3,1.40947,2,119.773,1,16.2813,0\H,4,1.09635,3,109.199,2,43.2609,0\H,4,1.09647,3,107.18,2,162.694,0\H,4,1.09719,3,111.079,2,-73.3127,0\C,2,1.52549,1,123.852,3,-174.867,0\H,8,1.09666,2,107.094,1,-166.673,0\H,8,1.09698,2,96.2291,1,-55.6576,0\C,8,1.53181,2,117.291,1,73.5894,0\H,11,1.09677,8,104.073,2,47.5769,0\H,11,1.09763,8,109.636,2,168.539,0\C,11,1.54818,8,112.862,2,-70.1571,0\H,14,1.09717,11,104.819,8,-47.3339,0\H,14,1.09744,11,112.528,8,55.7631,0\C,14,1.56728,11,110.752,8,-174.277,0\C,17,1.4886,14,111.941,11,147.554,0\C,18,1.44034,17,123.741,14,146.519,0\C,19,1.36776,18,121.91,17,69.2508,0\C,20,1.35731,19,122.918,18,6.56675,0\C,20,1.38713,19,118.773,18,145.222,0\C,21,1.40516,20,119.256,19,-1.47915,0\C,23,1.37746,21,118.387,20,136.302,0\C,22,1.41127,20,111.248,19,-147.083,0\C,25,1.39844,22,104.633,20,1.39404,0\C,26,1.40478,25,119.376,22,140.915,0\C,27,1.40241,26,124.142,25,1.53888,0\C,24,1.41786,23,120.678,21,5.29813,0\C,22,1.41926,20,123.579,19,0.913246,0\C,30,1.40513,22,117.959,20,-5.68792,0\C,31,1.40487,30,109.825,22,-141.455,0\C,32,1.40724,31,107.414,30,3.51949,0\C,33,1.38582,32,119.002,31,141.799,0\C,34,1.3919,33,118.786,32,-139.27,0\C,35,1.36075,34,109.588,33,141.012,0\C,36,1.37304,35,107.391,34,0.594584,0\C,37,1.36341,36,109.587,35,1.04586,0\C,36,1.38059,35,122.796,34,-146.117,0\C,33,1.39581,32,107.443,31,-1.78657,0\C,35,1.3998,34,119.059,33,-0.725103,0\C,41,1.36757,35,122.7,34,2.09642,0\C,42,1.39021,41,110.819,35,144.669,0\C,41,1.39902,35,120.374,34,137.297,0\C,44,1.38252,41,113.533,35,-144.986,0\C,39,1.40946,36,118.951,35,6.4527,0\C,46,1.4047,39,108.035,36,143.08,0\C,47,1.38079,46,108.292,39,-5.66851,0\C,48,1.41476,47,121.311,46,-140.074,0\C,49,1.40256,48,121.168,47,136.778,0\C,50,1.37683,49,111.344,48,-138.628,0\C,50,1.3807,49,120.998,48,1.0774,0\C,52,1.36315,50,125.086,49,-143.414,0\C,51,1.39611,50,106.307,49,3.02539,0\C,54,1.40802,51,119.629,50,147.059,0\C,54,1.40951,51,110.487,50,-2.73187,0\C,56,1.35719,54,119.764,51,144.025,0\C,57,1.40928,56,120.315,54,-138.394,0\C,48,1.41551,47,109.097,46,4.20986,0\C,59,1.38665,48,117.744,47,-143.242,0\C,60,1.39511,59,117.799,48,141.698,0\C,38,1.41701,37,119.633,36,-141.941,0\C,62,1.38888,38,121.786,37,-1.59668,0\C,63,1.35889,62,109.902,38,142.341,0\C,64,1.39946,63,119.06,62,-145.742,0\C,65,1.37273,64,123.199,63,1.64184,0\C,66,1.384,65,109.642,64,136.676,0\C,65,1.4076,64,117.127,63,139.604,0\C,68,1.40497,65,110.207,64,-140.405,0\C,69,1.37585,68,125.914,65,143.313,0\C,64,1.41201,63,108.224,62,-1.93583,0\C,71,1.38535,64,106.989,63,1.10369,0\C,71,1.39582,64,120.113,63,-141.936,0\C,73,1.3554,71,120.171,64,-2.94214,0\C,63,1.4136,62,118.779,38,-3.73471,0\C,31,1.41786,30,118.01,22,6.47969,0\C,70,1.46366,69,123.805,68,7.49877,0\C,17,1.51561,14,116.235,11,-59.5323,0\C,78,1.3781,17,125.395,14,105.726,0\H,79,1.08601,78,117.672,17,4.28858,0\C,79,1.38687,78,123.353,17,-178.442,0\H,81,1.08579,79,123.337,78,178.997,0\C,81,1.424,79,119.661,78,0.643341,0\H,83,1.0859,81,122.626,79,-177.812,0\C,83,1.38326,81,118.74,79,-4.98347,0\H,85,1.086,83,119.164,81,-174.15,0\C,85,1.41781,83,120.509,81,6.73488,0\H,87,1.08588,85,113.72,83,167.786,0\C,1,2.89909,2,149.925,3,-162.115,0\C,89,1.38797,1,110.485,2,40.3996,0\C,89,1.39441,1,87.3835,2,148.896,0\C,89,1.39885,1,105.361,2,-93.9364,0\C,92,1.39382,89,120.156,1,128.608,0\C,93,1.3695,92,116.309,89,0.969439,0\C,90,1.40812,89,119.373,1,-128.259,0\C,95,1.36821,90,120.652,89,-132.86,0\C,96,1.391,95,121.708,90,-3.24287,0\C,97,1.39534,96,121.348,95,3.66856,0\C,98,1.40254,97,111.019,96,142.521,0\C,99,1.39257,98,105.36,97,2.20597,0\C,99,1.40081,98,120.931,97,-138.508,0\C,101,1.37205,99,118.76,98,0.452773,0\C,102,1.39618,101,121.988,99,-3.47376,0\C,98,1.4077,97,117.032,96,-0.603844,0\C,102,1.411,101,110.022,99,142.153,0\C,105,1.39464,102,110.224,101,1.22333,0\C,106,1.39443,105,119.384,102,-143.797,0\C,105,1.40214,102,119.686,101,-150.615,0\C,108,1.3904,105,117.282,102,140.748,0\C,108,1.39468,105,121.945,102,5.14264,0\C,109,1.4017,108,120.406,105,3.36104,0\C,111,1.37421,109,117.361,108,-135.929,0\C,112,1.38267,111,109.157,109,143.85,0\C,112,1.39549,111,122.953,109,-3.73861,0\C,114,1.33162,112,122.171,111,136.121,0\C,115,1.38999,114,114.999,112,-147.425,0\C,114,1.39464,112,118.618,111,2.10627,0\C,117,1.39741,114,121.242,112,-2.79662,0\C,116,1.40842,115,119.762,114,145.764,0\C,94,1.41254,93,116.719,92,140.669,0\C,120,1.40965,94,106.031,93,-146.179,0\C,107,1.413,106,117.92,105,129.496,0\C,119,1.41302,116,116.972,115,-127.181,0\C,123,1.36954,119,120.878,116,1.16344,0\C,124,1.40111,123,122.604,119,-8.68726,0\C,125,1.39902,124,117.778,123,10.1809,0\C,97,1.41363,96,119.692,95,144.851,0\C,92,1.41618,89,123.378,1,-87.4706,0\C,110,1.41917,108,112.218,105,140.688,0\C,120,1.41922,94,121.881,93,1.18041,0\C,130,1.41427,120,117.457,94,-135.992,0\C,131,1.39435,130,109.393,120,139.092,0\C,131,1.42003,130,121.082,120,-2.83685,0\C,133,1.39805,131,121.848,130,140.385,0\C,134,1.36907,133,119.055,131,-4.16625,0\C,135,1.3402,134,119.947,133,1.53837,0\C,135,1.38792,134,120.426,133,-138.159,0\C,137,1.40468,135,108.925,134,145.837,0\C,138,1.38292,137,105.685,135,-2.52011,0\C,133,1.4063,131,120.278,130,0.802238,0\C,140,1.38127,133,111.658,131,146.424,0\C,141,1.40941,140,105.728,133,-1.73631,0\C,142,1.38258,141,119.564,140,-144.755,0\C,137,1.42199,135,118.8,134,2.94863,0\C,144,1.35608,137,120.725,135,142.724,0\C,143,1.44069,142,120.851,141,2.53523,0\C,146,1.48916,143,108.687,142,144.114,0\C,147,1.45693,146,119.516,143,-141.308,0\C,147,1.51376,146,129.088,143,141.269,0\C,149,1.45383,147,124.933,146,-147.206,0\C,150,1.36833,149,117.667,147,49.3323,0\H,151,1.08623,150,116.957,149,-0.688512,0\C,151,1.37012,150,122.686,149,-171.07,0\H,153,1.08619,151,117.451,150,171.948,0\C,150,1.38918,149,122.158,147,-127.446,0\H,155,1.08604,150,122.097,149,1.44709,0\C,155,1.36543,150,121.144,149,178.623,0\H,157,1.08663,155,127.586,150,-179.318,0\C,157,1.42086,155,117.553,150,-8.94068,0\H,159,1.08626,157,124.122,155,-166.745,0\C,149,1.54654,147,114.721,146,0.0284428,0\H,161,1.09679,149,113.936,147,34.35,0\H,161,1.09782,149,110.655,147,153.215,0\C,161,1.53386,149,113.168,147,-94.7882,0\H,164,1.09683,161,112.895,149,64.733,0\H,164,1.09692,161,109.656,149,-57.5326,0\C,164,1.55541,161,112.316,149,179.841,0\H,167,1.09653,164,102.569,161,69.5592,0\H,167,1.09709,164,116.443,161,-56.1879,0\C,167,1.49604,164,111.778,161,-178.783,0\O,170,1.22688,167,130.51,164,15.3189,0\O,170,1.37497,167,104.227,164,-158.13,0\C,172,1.38194,170,122.186,167,178.815,0\H,173,1.09655,172,110.458,170,52.1642,0\H,173,1.09723,172,109.585,170,165.527,0\H,173,1.09751,172,106.718,170,-70.1299,0\\\@

 Total job time:  850.66s(wall), 7220.76s(cpu) 
 Tue Oct  9 11:13:21 2018

        *************************************************************
        *                                                           *
        *  Thank you very much for using Q-Chem.  Have a nice day.  *
        *                                                           *
        *************************************************************


