
Running Job 1 of 1 ./6/22.qcin
qchem ./6/22.qcin_44967.0 /tmpu/cab_g/afmv_a/scratch_qchem/qchem44967/ 1
/tmpu/appuserlic/qchem4.4/serial-multicore/exe/qcprog.exe_s ./6/22.qcin_44967.0 /tmpu/cab_g/afmv_a/scratch_qchem/qchem44967/
Check license passed

                  Welcome to Q-Chem
     A Quantum Leap Into The Future Of Chemistry


 Q-Chem 4.4, Q-Chem, Inc., Pleasanton, CA (2016)

 Y. Shao,  Z. Gan,  E. Epifanovsky,  A. T. B. Gilbert,  M. Wormit,  
 J. Kussmann,  A. W. Lange,  A. Behn,  J. Deng,  X. Feng,  D. Ghosh,  
 M. Goldey,  P. R. Horn,  L. D. Jacobson,  I. Kaliman,  F. Rob,  
 R. Z. Khaliullin,  T. Kus,  A. Landau,  J. Liu,  E. I. Proynov,  Y. M. Rhee,  
 R. M. Richard,  M. A. Rohrdanz,  R. P. Steele,  E. J. Sundstrom,  
 H. L. Woodcock III,  P. M. Zimmerman,  D. Zuev,  B. Albrecht,  E. Alguire,  
 B. Austin,  S. A. Baeppler,  G. J. O. Beran,  Y. A. Bernard,  E. Berquist,  
 K. Brandhorst,  K. B. Bravaya,  S. T. Brown,  D. Casanova,  C.-M. Chang,  
 Y. Chen,  S. H. Chien,  K. D. Closser,  M. P. Coons,  D. L. Crittenden,  
 S. Dasgupta,  M. Diedenhofen,  R. A. DiStasio Jr.,  H. Do,  A. D. Dutoi,  
 R. G. Edgar,  P.-T. Fang,  S. Fatehi,  Q. Feng,  L. Fusti-Molnar,  
 A. Ghysels,  A. Golubeva-Zadorozhnaya,  J. Gomes,  A. Gunina,  
 M. W. D. Hanson-Heine,  P. H. P. Harbach,  A. W. Hauser,  J. E. Herr,  
 E. G. Hohenstein,  Z. C. Holden,  K. Hui,  T.-C. Jagau,  H. Ji,  B. Kaduk,  
 K. Khistyaev,  Jaehoon Kim,  Jihan Kim,  R. A. King,  P. Klunzinger,  
 K. Koh,  D. Kosenkov,  T. Kowalczyk,  C. M. Krauter,  A. Kunitsa,  
 K. U. Lao,  A. Laurent,  K. V. Lawler,  J. Lee,  D. Lefrancois,  S. Lehtola,  
 S. V. Levchenko,  C. Y. Lin,  Y.-S. Lin,  F. Liu,  E. Livshits,  
 R. C. Lochan,  A. Luenser,  P. Manohar,  S. F. Manzer,  S.-P. Mao,  Y. Mao,  
 N. Mardirossian,  A. V. Marenich,  L. A. Martinez-Martinez,  S. A. Maurer,  
 N. J. Mayhall,  J.-M. Mewes,  A. F. Morrison,  K. Nanda,  T. S. Nguyen-Beck,  
 C. M. Oana,  R. Olivares-Amaya,  D. P. O'Neill,  J. A. Parkhill,  
 T. M. Perrine,  R. Peverati,  P. A. Pieniazek,  F. Plasser,  A. Prociuk,  
 D. R. Rehn,  E. Rosta,  N. J. Russ,  N. Sergueev,  S. M. Sharada,  
 S. Sharma,  D. W. Small,  A. Sodt,  T. Stauch,  T. Stein,  D. Stuck,  
 Y.-C. Su,  A. J. W. Thom,  T. Tsuchimochi,  L. Vogt,  O. Vydrov,  T. Wang,  
 M. A. Watson,  J. Wenzel,  A. White,  C. F. Williams,  V. Vanovschi,  
 K. Yao,  S. Yeganeh,  S. R. Yost,  Z.-Q. You,  I. Y. Zhang,  X. Zhang,  
 Y. Zhao,  B. R. Brooks,  G. K. L. Chan,  D. M. Chipman,  C. J. Cramer,  
 W. A. Goddard III,  M. S. Gordon,  W. J. Hehre,  A. Klamt,  
 H. F. Schaefer III,  M. W. Schmidt,  C. D. Sherrill,  D. G. Truhlar,  
 A. Warshel,  X. Xu,  A. Aspuru-Guzik,  R. Baer,  A. T. Bell,  N. A. Besley,  
 J.-D. Chai,  A. Dreuw,  B. D. Dunietz,  T. R. Furlani,  S. R. Gwaltney,  
 C.-P. Hsu,  Y. Jung,  J. Kong,  D. S. Lambrecht,  W. Liang,  C. Ochsenfeld,  
 V. A. Rassolov,  L. V. Slipchenko,  J. E. Subotnik,  T. Van Voorhis,  
 J. M. Herbert,  A. I. Krylov,  P. M. W. Gill,  M. Head-Gordon

 Contributors to earlier versions of Q-Chem not listed above: 
 R. D. Adamson,  J. Baker,  E. F. C. Byrd,  A. K. Chakraborty,  C.-L. Cheng,  
 H. Dachsel,  R. J. Doerksen,  G. Hawkins,  A. Heyden,  S. Hirata,  
 G. Kedziora,  F. J. Keil,  C. Kelley,  P. P. Korambath,  W. Kurlancheek,  
 A. M. Lee,  M. S. Lee,  D. Liotard,  I. Lotan,  P. E. Maslen,  N. Nair,  
 D. Neuhauser,  R. Olson,  B. Peters,  J. Ritchie,  N. E. Schultz,  
 N. Shenvi,  A. C. Simmonett,  K. S. Thanthiriwatte,  Q. Wu,  W. Zhang

 Please cite Q-Chem as follows:
 Y. Shao et al., Mol. Phys. 113, 184-215 (2015)
 DOI: 10.1080/00268976.2014.952696

 Q-Chem 4.4.2 for Intel X86 Linux

 Parts of Q-Chem use Armadillo 5.200.1 (Boston Tea Smuggler).
 http://arma.sourceforge.net/

 Q-Chem begins on Tue Oct  9 12:37:57 2018  

Host: 
0

     Scratch files written to /tmpu/cab_g/afmv_a/scratch_qchem/qchem44967//
 Dec716 11556_ 22328  22283 4050   
Processing $rem in /tmpu/appuserlic/qchem4.4/serial-multicore/config/preferences.
 MEM_TOTAL  2000 
FILE_GEOM_ORG=        593

Checking the input file for inconsistencies... 	...done.

--------------------------------------------------------------
User input:
--------------------------------------------------------------
$comment
SP
$end

$rem
MEM_STATIC 5000
MEM_TOTAL 20000
JOBTYPE SP
EXCHANGE B3LYP
BASIS 6-31g(d,p)
$end

$molecule
0 1
O          -7.460000     33.374000    -14.429000
C          -6.867000     33.576000    -15.742000
H          -7.486000     33.112000    -16.520000
H          -5.808000     33.289000    -15.729000
H          -6.945000     34.635000    -16.015000
O          -7.779000     31.050000    -14.600000
C          -7.992000     32.101000    -14.004000
C          -8.694000     32.139000    -12.739000
H          -9.774000     32.170000    -12.930000
H          -8.444000     33.152000    -12.402000
C          -8.351000     31.112000    -11.692000
H          -8.368000     30.142000    -12.205000
H          -7.315000     31.224000    -11.348000
C          -9.311000     31.080000    -10.488000
H          -8.834000     30.990000     -9.504000
H          -9.856000     32.028000    -10.401000
C         -10.330000     29.887000    -10.642000
C         -11.229000     30.093000    -11.783000
C         -10.910000     29.329000    -12.929000
H         -10.144000     28.559000    -12.936000
C         -11.619000     29.566000    -14.115000
H         -11.380000     28.909000    -14.947000
C         -12.692000     30.526000    -14.112000
H         -13.264000     30.623000    -15.031000
C         -12.943000     31.253000    -12.968000
H         -13.729000     32.002000    -12.943000
C         -12.241000     31.037000    -11.760000
H         -12.381000     31.743000    -10.947000
C         -14.040000     27.115000     -7.627000
C         -13.432000     25.559000     -9.370000
C         -11.160000     22.706000     -6.887000
C          -9.912000     28.811000     -5.256000
C          -8.004000     24.006000     -7.703000
C         -13.673000     26.850000     -8.962000
C          -8.046000     26.666000     -5.253000
C         -13.275000     23.819000     -6.330000
C          -9.697000     26.149000    -10.638000
C          -8.857000     28.807000     -6.193000
C         -10.057000     28.463000    -10.164000
C          -8.560000     26.637000    -10.030000
C          -7.602000     27.503000     -7.518000
C          -7.767000     25.397000     -5.678000
C         -12.057000     26.995000    -10.558000
C          -9.357000     23.473000     -5.719000
C         -10.899000     29.359000     -9.352000
C         -10.359000     29.683000     -7.985000
C          -8.946000     23.191000     -7.037000
C         -11.836000     26.134000     -4.042000
C         -11.522000     23.975000     -4.746000
C         -12.785000     24.290000     -5.086000
C         -13.992000     24.702000     -7.158000
C         -11.380000     29.575000     -7.024000
C         -10.634000     27.223000    -10.716000
C         -13.602000     24.521000     -8.507000
C          -7.933000     27.763000     -6.176000
C         -12.413000     25.635000    -10.316000
C          -7.779000     25.710000     -9.193000
C         -12.114000     28.308000     -5.016000
C         -12.500000     23.035000     -7.211000
C          -8.743000     27.939000     -9.580000
C         -13.646000     26.502000     -5.481000
C          -7.312000     26.162000     -7.949000
C         -10.086000     24.860000    -10.489000
C          -9.582000     25.350000     -4.234000
C          -9.101000     26.681000     -4.324000
C          -9.406000     23.969000     -9.696000
C         -11.201000     29.184000     -5.652000
C          -9.087000     29.232000     -7.479000
C         -11.380000     27.479000     -4.174000
C         -12.302000     28.899000     -9.059000
C         -11.584000     23.470000     -9.509000
C          -8.273000     28.460000     -8.329000
C          -8.211000     24.367000     -9.035000
C         -13.251000     27.804000     -5.707000
C         -10.052000     22.688000     -7.768000
C         -14.181000     26.007000     -6.721000
C         -10.743000     23.140000     -5.580000
C         -11.495000     24.570000    -10.407000
C         -10.314000     23.095000     -9.105000
C         -12.801000     27.735000     -9.684000
C         -12.542000     29.056000     -7.691000
C         -10.881000     25.076000     -4.065000
C         -12.651000     23.501000     -8.527000
C          -7.440000     25.102000     -7.050000
C         -10.031000     27.743000     -4.320000
C          -8.701000     24.560000     -5.009000
C         -13.466000     28.222000     -7.003000
C         -12.954000     25.638000     -4.619000
O         -22.979000     28.399000      0.195000
C         -22.019000     27.440000      0.622000
H         -22.119000     26.504000      0.058000
H         -22.295000     27.153000      1.644000
H         -20.981000     27.779000      0.521000
O         -24.852000     27.105000      0.219000
C         -24.305000     28.156000      0.042000
C         -25.112000     29.360000     -0.452000
H         -24.989000     30.119000      0.331000
H         -26.186000     29.158000     -0.554000
C         -24.707000     29.840000     -1.850000
H         -25.041000     30.854000     -2.102000
H         -23.612000     29.911000     -1.875000
C         -25.172000     28.912000     -2.936000
H         -24.990000     27.889000     -2.584000
H         -26.268000     28.879000     -2.963000
C         -24.337000     29.102000     -4.262000
C         -24.823000     30.201000     -5.095000
C         -24.161000     31.433000     -5.108000
H         -23.168000     31.578000     -4.691000
C         -24.707000     32.565000     -5.706000
H         -24.113000     33.470000     -5.800000
C         -26.012000     32.449000     -6.364000
H         -26.451000     33.291000     -6.891000
C         -26.693000     31.191000     -6.383000
H         -27.610000     31.091000     -6.957000
C         -26.095000     30.095000     -5.771000
H         -26.647000     29.165000     -5.678000
C         -21.861000     26.943000     -8.711000
C         -20.301000     28.632000     -7.978000
C         -17.114000     25.783000     -6.424000
C         -22.919000     23.838000     -4.939000
C         -18.153000     26.039000     -3.084000
C         -21.632000     28.233000     -8.175000
C         -20.748000     23.568000     -3.261000
C         -18.535000     25.669000     -8.376000
C         -20.571000     29.164000     -4.049000
C         -22.890000     24.538000     -3.705000
C         -22.892000     28.697000     -4.164000
C         -20.865000     28.277000     -2.993000
C         -21.539000     25.672000     -2.332000
C         -19.380000     23.968000     -2.997000
C         -21.593000     29.408000     -6.267000
C         -17.686000     24.332000     -4.736000
C         -23.836000     27.925000     -5.039000
C         -24.007000     26.444000     -4.756000
C         -17.428000     25.589000     -4.166000
C         -20.495000     23.043000     -7.297000
C         -18.341000     23.752000     -6.985000
C         -18.865000     24.327000     -8.137000
C         -19.482000     26.574000     -8.833000
C         -23.929000     25.692000     -5.973000
C         -21.722000     29.329000     -4.838000
C         -19.212000     27.836000     -8.350000
C         -21.797000     24.398000     -2.889000
C         -20.279000     29.379000     -6.793000
C         -19.910000     27.367000     -2.578000
C         -22.775000     23.869000     -7.196000
C         -17.706000     26.387000     -7.506000
C         -22.203000     27.971000     -3.073000
C         -21.151000     24.772000     -8.798000
C         -20.206000     26.053000     -2.186000
C         -19.257000     29.161000     -4.601000
C         -19.588000     22.845000     -5.070000
C         -20.848000     22.869000     -4.506000
C         -18.263000     28.238000     -4.071000
C         -23.432000     24.381000     -6.068000
C         -23.404000     25.835000     -3.649000
C         -21.804000     23.001000     -6.732000
C         -23.465000     27.903000     -6.513000
C         -17.986000     28.480000     -6.336000
C         -22.488000     26.580000     -2.914000
C         -18.597000     27.317000     -3.042000
C         -22.439000     24.725000     -8.267000
C         -17.040000     26.494000     -5.203000
C         -20.795000     26.126000     -8.987000
C         -17.517000     24.447000     -6.107000
C         -19.111000     29.235000     -5.965000
C         -17.470000     27.850000     -5.147000
C         -22.458000     28.729000     -7.058000
C         -23.608000     26.572000     -7.040000
C         -19.391000     22.959000     -6.442000
C         -18.037000     27.717000     -7.518000
C         -19.156000     25.252000     -2.580000
C         -21.928000     23.007000     -5.356000
C         -18.696000     23.478000     -4.157000
C         -22.857000     26.073000     -8.165000
C         -20.139000     23.910000     -8.402000
$end

--------------------------------------------------------------
 ----------------------------------------------------------------
             Standard Nuclear Orientation (Angstroms)
    I     Atom           X                Y                Z
 ----------------------------------------------------------------
    1      O     -10.9529219893    -7.0166772246     1.0108793676
    2      C     -11.9936184752    -7.8094794917     0.3746110363
    3      H     -11.6869480623    -8.1086946825    -0.6354209074
    4      H     -12.9625557186    -7.3011586521     0.4570097158
    5      H     -12.0602663742    -8.7844831539     0.8716220182
    6      O     -10.6338689267    -5.4811929773    -0.7419672513
    7      C     -10.2556553708    -5.9550581831     0.3246124564
    8      C      -9.1400932085    -5.3994934675     1.0603718660
    9      H      -8.2075968741    -5.8322421348     0.6769384594
   10      H      -9.2859085293    -5.8780877616     2.0360374818
   11      C      -9.0367036916    -3.9027501766     1.1932519964
   12      H      -9.1736489631    -3.5006332776     0.1813695961
   13      H      -9.8773765407    -3.4945431995     1.7684147774
   14      C      -7.7011800915    -3.4024628533     1.7749128148
   15      H      -7.7798818809    -2.6040882002     2.5234373246
   16      H      -7.1975215462    -4.2013132939     2.3330024521
   17      C      -6.7668344236    -2.8866539548     0.6146260601
   18      C      -6.3578297622    -3.9817111573    -0.2719871082
   19      C      -7.0470626866    -4.0289142721    -1.5054792411
   20      H      -7.7332842875    -3.2534302625    -1.8332435853
   21      C      -6.8323098064    -5.1230248657    -2.3553317045
   22      H      -7.3358188497    -5.0792578064    -3.3173904802
   23      C      -5.8692047459    -6.1253580055    -1.9802384902
   24      H      -5.6785975098    -6.9149138494    -2.7023357488
   25      C      -5.2425475523    -6.0334519981    -0.7558529106
   26      H      -4.5303566986    -6.7877413929    -0.4345217780
   27      C      -5.4434874541    -4.9433781531     0.1216926257
   28      H      -5.0407672211    -5.0083344112     1.1279739474
   29      C      -2.1097766797     0.0119615767    -0.0548141316
   30      C      -3.2577390695     0.2661933725    -2.1634624061
   31      C      -4.3528271863     4.5213833488    -1.7621865884
   32      C      -5.1380728043     1.3221516317     3.7728830353
   33      C      -7.6334500002     3.9118978720    -0.6748810166
   34      C      -2.9313505207    -0.5086223107    -1.0751806539
   35      C      -6.7924772237     3.4235708915     2.8085319003
   36      C      -2.2234610513     3.4618794693    -1.1576252661
   37      C      -7.2163901229     0.0645864189    -1.7223439717
   38      C      -6.4625264534     1.0377639869     3.3779701352
   39      C      -6.7927404843    -1.4621467514     0.0660851743
   40      C      -8.0678038303     0.3823871190    -0.6856789274
   41      C      -8.0675880068     1.5360011828     1.8925061988
   42      C      -7.1612340568     4.1819414981     1.7325581920
   43      C      -5.0246641697    -1.1548861689    -1.6916853114
   44      C      -5.6278483541     5.1551805900     0.0199312749
   45      C      -5.7449155866    -1.8592166611     1.0229145586
   46      C      -5.7567393947    -1.1169598580     2.3321815428
   47      C      -6.4834497317     4.6695605159    -0.9888741703
   48      C      -2.8057689544     3.5322917347     2.3524815155
   49      C      -3.2768144380     4.7906423740     0.4950201241
   50      C      -2.2393788529     4.0060932100     0.1512120148
   51      C      -1.8935429217     2.1047356613    -1.3269672642
   52      C      -4.4509593799    -0.7254554427     2.6775637163
   53      C      -6.4136161022    -1.0351376293    -1.2937533869
   54      C      -2.7447194501     1.5194123663    -2.2952426164
   55      C      -7.2767191221     2.0743446540     2.9234464076
   56      C      -4.5549769023    -0.0928993115    -2.5202248612
   57      C      -8.4522837203     1.7950815637    -0.5234179648
   58      C      -2.9848941675     1.2456782864     3.0535871396
   59      C      -3.2384655398     3.7153464922    -2.1047062324
   60      C      -7.7803031017    -0.3591723294     0.4538937625
   61      C      -1.6654413450     1.8875012492     1.1373427571
   62      C      -8.4461270694     2.3471751965     0.7669632643
   63      C      -6.7527894777     1.0079630664    -2.5768367703
   64      C      -4.9423803303     4.6084200921     2.2582711835
   65      C      -5.4713651992     3.6948903154     3.2051926984
   66      C      -7.0608773317     2.3395994894    -2.4466203698
   67      C      -4.0991658888     0.4531913926     3.4221031559
   68      C      -6.7365893512    -0.1273423205     2.7036276254
   69      C      -3.3274550021     2.5758795122     3.2730814983
   70      C      -4.3164587253    -1.7185616920     0.5694995447
   71      C      -4.9496131889     2.2342274797    -3.1943599360
   72      C      -7.7768986663     0.1467546879     1.7960443736
   73      C      -7.9434299470     2.7724263717    -1.4184609603
   74      C      -2.1633703398     0.8889716365     1.9480895293
   75      C      -5.7054625321     4.2960376073    -2.1139619686
   76      C      -1.6053494757     1.3513649475    -0.1959977220
   77      C      -4.2764049934     5.1118470126    -0.4522223484
   78      C      -5.4024792882     0.8915641730    -3.0659366473
   79      C      -5.9678501309     3.1044176912    -2.8440693055
   80      C      -4.0394258815    -1.3715416469    -0.7711539869
   81      C      -3.5968363981    -1.0631091030     1.5725940616
   82      C      -3.6629473029     4.5632004476     1.8683425847
   83      C      -3.5984742687     2.5228401789    -2.7528847633
   84      C      -7.9581157136     3.6501578522     0.6562107671
   85      C      -4.6445459787     2.6561609346     3.6849543581
   86      C      -6.0167594663     4.9599541436     1.4079657779
   87      C      -2.4547893742    -0.2729865545     1.2658189753
   88      C      -1.9603371416     3.2445572867     1.3369408038
   89      O       9.0233526846     1.4210868035     4.0446806731
   90      C       8.3231307655     2.6551836708     3.9431711363
   91      H       8.2433510922     2.9783252164     2.8975102231
   92      H       8.9654691372     3.4190062624     4.3981496684
   93      H       7.3088576266     2.6229574219     4.3588362283
   94      O      10.8204914633     1.8893102112     2.7277903775
   95      C      10.2085031011     1.1484616395     3.4431592602
   96      C      10.7329230748    -0.2671761485     3.6997802734
   97      H      10.8782440406    -0.3185580401     4.7863071797
   98      H      11.7010817255    -0.4707247704     3.2244690221
   99      C       9.8255340700    -1.3695110448     3.1427057987
  100      H      10.0061808865    -2.3676424179     3.5602659618
  101      H       8.7960349469    -1.1406612781     3.4467622735
  102      C       9.8930195280    -1.4707257806     1.6453727395
  103      H       9.8906945717    -0.4459245150     1.2537939345
  104      H      10.9029579588    -1.7599011767     1.3300380662
  105      C       8.6230713597    -2.1969522129     1.0525592623
  106      C       8.7285245743    -3.6550004278     1.0819024489
  107      C       8.0632258970    -4.3987799894     2.0619058335
  108      H       7.2881114440    -3.9820759709     2.6994937456
  109      C       8.3095239096    -5.7538019975     2.2628950034
  110      H       7.6896930815    -6.3226425359     2.9505920199
  111      C       9.2850561371    -6.4241313399     1.3977704771
  112      H       9.4686293890    -7.4912351690     1.4814620488
  113      C       9.9572183253    -5.6857695731     0.3732189196
  114      H      10.6023939425    -6.2113785609    -0.3252426863
  115      C       9.6664091602    -4.3348270710     0.2191138080
  116      H      10.2477555334    -3.7366367652    -0.4754779804
  117      C       4.7674648207    -2.6442102597    -2.8869478714
  118      C       3.5246951895    -3.0275087335    -0.8541626088
  119      C       1.2379155220     0.9042860571    -0.8718961010
  120      C       7.2499104735     1.6841314579    -2.5847979817
  121      C       3.4206229514     2.4763427981     1.3786777992
  122      C       4.7040657733    -3.2125153516    -1.5920166441
  123      C       5.8582245765     3.5002540976    -1.0463786885
  124      C       1.8460304881    -0.5908659403    -2.6711341877
  125      C       5.1988242108    -1.0915521146     2.1859572885
  126      C       7.6503706450     1.9270934715    -1.2453211768
  127      C       7.3309253428    -1.4442855457     1.2122638617
  128      C       5.8924147940     0.1339689901     2.2592452472
  129      C       6.8572418671     2.2911244142     0.8125209489
  130      C       4.6690312099     3.7355516996    -0.2516622765
  131      C       5.3252775418    -2.9072795846     0.5395407830
  132      C       2.4426696855     2.8602187490    -0.8024431658
  133      C       7.9153506438    -1.6621523526    -0.1529196872
  134      C       8.2325953115    -0.4350165278    -0.9872963937
  135      C       2.3660144217     2.3451010522     0.5015088000
  136      C       4.1603481849     1.4890070172    -4.1610264921
  137      C       2.2469093149     1.7372226105    -2.9294089743
  138      C       2.2897901843     0.4629615004    -3.4832364332
  139      C       2.5251374185    -1.7996774782    -2.6234745289
  140      C       7.7408398955    -0.5999295115    -2.3228327349
  141      C       5.9728020330    -2.0090634154     1.4554243710
  142      C       2.4051991489    -2.3684973329    -1.3741179808
  143      C       6.9392951322     2.8268278855    -0.4936865585
  144      C       3.9119421987    -2.8513498747     0.4806504157
  145      C       5.1906338006     1.3229618313     2.1808267502
  146      C       6.2861665870     0.3189360201    -4.1089978169
  147      C       1.3686355266    -0.3671206039    -1.3743315523
  148      C       7.1178377565    -0.0504302341     1.6637492446
  149      C       4.1553731585    -0.8919893706    -4.2211051907
  150      C       5.6579464137     2.4588361940     1.5031215386
  151      C       3.7749867040    -1.0708503246     2.1262313297
  152      C       4.1423929982     3.2448851822    -2.5063508498
  153      C       5.5196770682     3.2305665387    -2.4106661234
  154      C       3.0796638881     0.2087515174     2.1294418773
  155      C       7.2921887034     0.4507026339    -3.1411475905
  156      C       8.1010153596     0.8583866038    -0.4679371198
  157      C       5.5859650460     1.5110494052    -4.1210177632
  158      C       7.0300930458    -2.4472527369    -1.1072452981
  159      C       1.9816199765    -1.2820412082     0.7739513322
  160      C       7.4921975049     1.0030459397     0.7741258804
  161      C       3.8017655701     1.4321643417     2.1510803209
  162      C       5.5491711351    -0.8813451244    -4.2029971685
  163      C       1.5913743188     1.1433213317     0.4770913031
  164      C       3.7053678434    -1.9170842890    -3.3594506052
  165      C       1.7779438202     1.9815959100    -1.6436259229
  166      C       3.1357137448    -1.9209645270     1.2567924724
  167      C       1.9617809655     0.0535559850     1.3149352057
  168      C       5.8637078000    -3.1214158212    -0.6848715370
  169      C       7.0183729754    -1.8196607824    -2.4017451933
  170      C       3.4513129949     2.3739852590    -3.3418930408
  171      C       1.6230153289    -1.4523399785    -0.5767133321
  172      C       4.5668028859     3.0975246309     0.9546510449
  173      C       6.2062588407     2.3150359997    -3.1841991232
  174      C       3.6253564008     3.5751779705    -1.2204652285
  175      C       5.9256097968    -1.9337627057    -3.3352741894
  176      C       3.3918755871     0.2651693325    -4.2664835355
 ----------------------------------------------------------------
 Molecular Point Group                 C1    NOp =  1
 Largest Abelian Subgroup              C1    NOp =  1
 Nuclear Repulsion Energy = 33859.1988857067 hartrees
 There are      462 alpha and      462 beta electrons
 Requested basis set is 6-31G(d,p)
 There are 676 shells and 2360 basis functions

 Total QAlloc Memory Limit  20000 MB
 Mega-Array Size      4888 MB
 MEM_STATIC part      5000 MB
 A cutoff of  1.0D-08 yielded  37294 shell pairs
 There are    525716 function pairs
 
 -------------------------------------------------------
 OpenMP Integral Computing Module                       
 Release: version 1.0, May 2013, Q-Chem Inc. Pittsburgh 
 -------------------------------------------------------
 Integral Job Info:
 Integral job number is                      11
 Integral operator is                         1
 short-range coefficients                     0
 long-range coefficients              100000000
 Omega coefficients                           0
 if combine SR and LR in K                    0
 Integral screening is                        0
 Integral computing path is                   2
 max size of driver memory is            800000
 size of driver memory is                593474
 size of scratch memory is              2260544
 max col of scratch BK array               1296
 max len of scratch array in speh3          155
 max len of scratch index in speh4           18
 max int batch size is                      520
 min int batch size is                       52
 fixed nKL is                                52
 max L of basis functions is                  2
 order of int derivative is                   0
 number of shells is                        676
 number of basis is                        2360
 number of cartesian basis is              2360
 number of contracted shell pairs         37294
 number of primitive shell pairs         113468
 maxK2 (contraction) of shell pair           36
 max number of K2 of shell pair               1
 max number of CS2 of shell pair           7177
 max number of PS2 of shell pair          34518
 mem total for path MDJ                 1499048
 -------------------------------------------------------
 Smallest overlap matrix eigenvalue = 2.42E-04

 Scale SEOQF with 1.000000e-02/1.000000e-02/1.000000e-01

 Standard Electronic Orientation quadrupole field applied
 Nucleus-field energy     =    -0.0000002562 hartrees
 Guess from superposition of atomic densities
 Warning:  Energy on first SCF cycle will be non-variational
 A restricted hybrid HF-DFT SCF calculation will be
 performed using Pulay DIIS extrapolation
 Exchange:     0.2000 Hartree-Fock + 0.0800 Slater + 0.7200 B88
 Correlation:  0.1900 VWN1RPA + 0.8100 LYP
 Using SG-1 standard quadrature grid
 SCF converges when DIIS error is below 1.0E-05
 using 16 threads for integral computing 
 -------------------------------------------------------
 OpenMP BLAS3 based DFT computing Module                
 Release: version 1.0, May 2013, Q-Chem Inc. Pittsburgh 
 -------------------------------------------------------
 ---------------------------------------
  Cycle       Energy         DIIS Error
 ---------------------------------------
    1   -5858.3316529717      1.83E-02
    2   -5803.1000261219      1.29E-03
    3   -5802.2879156610      1.80E-03
    4   -5803.9275292203      6.66E-04
    5   -5804.1708075513      3.13E-04
    6   -5804.2338022972      1.42E-04
    7   -5804.2470125765      5.46E-05
    8   -5804.2483037705      3.72E-05
    9   -5804.2493607376      9.33E-06 Convergence criterion met
 ---------------------------------------
 SCF time:  CPU 7210.66 s  wall 835.20 s
 SCF   energy in the final basis set = -5804.2493607376
 Total energy in the final basis set = -5804.2493607376
 
 --------------------------------------------------------------
 
                    Orbital Energies (a.u.)
 --------------------------------------------------------------
 
 Alpha MOs
 -- Occupied --
-19.191 -19.182 -19.138 -19.132 -10.318 -10.316 -10.244 -10.243
-10.243 -10.241 -10.240 -10.238 -10.237 -10.234 -10.234 -10.234
-10.233 -10.230 -10.230 -10.226 -10.225 -10.224 -10.222 -10.222
-10.222 -10.222 -10.221 -10.221 -10.221 -10.221 -10.221 -10.221
-10.219 -10.219 -10.219 -10.219 -10.219 -10.219 -10.219 -10.218
-10.218 -10.218 -10.218 -10.218 -10.218 -10.218 -10.218 -10.217
-10.217 -10.217 -10.217 -10.217 -10.217 -10.217 -10.217 -10.216
-10.216 -10.216 -10.216 -10.216 -10.216 -10.215 -10.215 -10.215
-10.215 -10.215 -10.215 -10.215 -10.215 -10.215 -10.215 -10.215
-10.215 -10.214 -10.214 -10.214 -10.214 -10.214 -10.214 -10.214
-10.214 -10.214 -10.213 -10.213 -10.213 -10.213 -10.213 -10.213
-10.213 -10.213 -10.213 -10.213 -10.212 -10.212 -10.212 -10.212
-10.212 -10.212 -10.211 -10.211 -10.211 -10.211 -10.211 -10.210
-10.210 -10.210 -10.210 -10.210 -10.210 -10.210 -10.209 -10.209
-10.209 -10.209 -10.209 -10.209 -10.209 -10.208 -10.208 -10.208
-10.208 -10.208 -10.208 -10.207 -10.207 -10.207 -10.207 -10.206
-10.206 -10.205 -10.205 -10.204 -10.204 -10.204 -10.203 -10.203
-10.203 -10.202 -10.202 -10.202 -10.202 -10.201 -10.200 -10.198
-10.198 -10.197 -10.197 -10.193  -1.097  -1.067  -1.019  -1.000
 -0.984  -0.980  -0.968  -0.965  -0.964  -0.963  -0.961  -0.959
 -0.937  -0.933  -0.929  -0.926  -0.926  -0.923  -0.921  -0.921
 -0.918  -0.917  -0.899  -0.896  -0.891  -0.890  -0.886  -0.883
 -0.875  -0.872  -0.854  -0.848  -0.843  -0.840  -0.839  -0.837
 -0.836  -0.833  -0.823  -0.822  -0.811  -0.810  -0.800  -0.798
 -0.794  -0.793  -0.793  -0.792  -0.791  -0.788  -0.785  -0.783
 -0.771  -0.769  -0.769  -0.767  -0.766  -0.765  -0.763  -0.762
 -0.754  -0.753  -0.744  -0.742  -0.733  -0.732  -0.716  -0.715
 -0.713  -0.713  -0.712  -0.711  -0.710  -0.710  -0.709  -0.707
 -0.707  -0.705  -0.705  -0.703  -0.703  -0.701  -0.674  -0.672
 -0.660  -0.658  -0.656  -0.655  -0.648  -0.648  -0.631  -0.629
 -0.629  -0.627  -0.626  -0.625  -0.624  -0.623  -0.620  -0.617
 -0.615  -0.614  -0.613  -0.612  -0.610  -0.610  -0.607  -0.607
 -0.606  -0.603  -0.601  -0.601  -0.570  -0.568  -0.565  -0.563
 -0.561  -0.559  -0.557  -0.557  -0.556  -0.554  -0.553  -0.551
 -0.537  -0.536  -0.535  -0.532  -0.529  -0.528  -0.524  -0.524
 -0.522  -0.520  -0.518  -0.518  -0.516  -0.515  -0.514  -0.512
 -0.507  -0.506  -0.501  -0.498  -0.494  -0.493  -0.489  -0.486
 -0.485  -0.482  -0.479  -0.479  -0.478  -0.477  -0.476  -0.474
 -0.473  -0.471  -0.470  -0.469  -0.469  -0.467  -0.466  -0.465
 -0.465  -0.464  -0.464  -0.462  -0.462  -0.460  -0.459  -0.457
 -0.456  -0.455  -0.454  -0.451  -0.451  -0.445  -0.444  -0.443
 -0.441  -0.440  -0.440  -0.437  -0.437  -0.436  -0.435  -0.434
 -0.430  -0.430  -0.429  -0.428  -0.428  -0.427  -0.426  -0.425
 -0.424  -0.423  -0.422  -0.421  -0.420  -0.419  -0.419  -0.417
 -0.416  -0.416  -0.415  -0.415  -0.415  -0.414  -0.412  -0.412
 -0.410  -0.410  -0.409  -0.407  -0.406  -0.402  -0.399  -0.398
 -0.393  -0.392  -0.389  -0.389  -0.389  -0.387  -0.386  -0.384
 -0.381  -0.376  -0.375  -0.372  -0.368  -0.368  -0.366  -0.365
 -0.364  -0.363  -0.363  -0.361  -0.361  -0.358  -0.358  -0.357
 -0.357  -0.356  -0.354  -0.352  -0.351  -0.350  -0.350  -0.350
 -0.349  -0.348  -0.347  -0.345  -0.344  -0.342  -0.342  -0.340
 -0.340  -0.340  -0.339  -0.339  -0.338  -0.337  -0.335  -0.335
 -0.333  -0.332  -0.331  -0.329  -0.326  -0.325  -0.324  -0.324
 -0.315  -0.307  -0.297  -0.294  -0.290  -0.289  -0.272  -0.270
 -0.270  -0.267  -0.267  -0.266  -0.265  -0.264  -0.264  -0.263
 -0.261  -0.261  -0.259  -0.259  -0.257  -0.257  -0.256  -0.254
 -0.250  -0.245  -0.243  -0.241  -0.222  -0.221  -0.211  -0.210
 -0.209  -0.206  -0.205  -0.205  -0.198  -0.197
 -- Virtual --
 -0.125  -0.123  -0.120  -0.118  -0.108  -0.106  -0.077  -0.076
 -0.076  -0.072  -0.059  -0.057  -0.054  -0.052  -0.027  -0.025
 -0.021  -0.020  -0.019  -0.018  -0.018  -0.014  -0.014  -0.013
 -0.011  -0.010  -0.010  -0.007  -0.006  -0.004  -0.003   0.002
  0.009   0.015   0.036   0.037   0.041   0.042   0.044   0.047
  0.048   0.050   0.054   0.058   0.060   0.062   0.064   0.068
  0.069   0.073   0.081   0.083   0.084   0.085   0.088   0.091
  0.094   0.095   0.098   0.101   0.102   0.103   0.105   0.108
  0.108   0.110   0.112   0.113   0.114   0.115   0.120   0.121
  0.123   0.123   0.128   0.128   0.129   0.131   0.133   0.136
  0.138   0.142   0.144   0.146   0.148   0.148   0.151   0.156
  0.158   0.160   0.162   0.163   0.163   0.165   0.166   0.169
  0.171   0.171   0.173   0.174   0.176   0.177   0.179   0.181
  0.184   0.186   0.187   0.188   0.189   0.190   0.191   0.194
  0.195   0.195   0.196   0.198   0.201   0.203   0.205   0.207
  0.209   0.209   0.214   0.215   0.216   0.218   0.218   0.219
  0.219   0.221   0.222   0.224   0.225   0.227   0.228   0.229
  0.230   0.231   0.233   0.235   0.235   0.236   0.239   0.240
  0.241   0.243   0.245   0.247   0.249   0.257   0.257   0.262
  0.263   0.266   0.269   0.273   0.276   0.276   0.277   0.279
  0.280   0.284   0.285   0.287   0.289   0.296   0.303   0.305
  0.305   0.306   0.309   0.311   0.312   0.314   0.315   0.319
  0.320   0.322   0.323   0.324   0.327   0.329   0.329   0.331
  0.334   0.338   0.338   0.343   0.343   0.346   0.348   0.349
  0.351   0.352   0.357   0.367   0.372   0.375   0.384   0.386
  0.396   0.397   0.400   0.401   0.402   0.403   0.406   0.407
  0.408   0.411   0.412   0.414   0.416   0.417   0.418   0.423
  0.428   0.430   0.431   0.432   0.434   0.437   0.441   0.445
  0.449   0.451   0.452   0.453   0.457   0.458   0.460   0.461
  0.464   0.465   0.468   0.469   0.471   0.473   0.475   0.475
  0.475   0.477   0.479   0.480   0.481   0.482   0.484   0.485
  0.486   0.488   0.488   0.489   0.490   0.491   0.492   0.494
  0.496   0.498   0.498   0.499   0.501   0.503   0.503   0.504
  0.505   0.507   0.508   0.509   0.510   0.511   0.512   0.512
  0.513   0.513   0.515   0.516   0.516   0.517   0.518   0.519
  0.520   0.522   0.522   0.523   0.524   0.524   0.524   0.526
  0.526   0.527   0.529   0.531   0.531   0.532   0.532   0.533
  0.534   0.535   0.535   0.537   0.538   0.538   0.539   0.540
  0.541   0.542   0.542   0.543   0.544   0.544   0.545   0.545
  0.546   0.548   0.549   0.549   0.550   0.551   0.553   0.553
  0.553   0.554   0.555   0.556   0.556   0.557   0.557   0.558
  0.559   0.559   0.560   0.561   0.562   0.563   0.563   0.564
  0.565   0.566   0.566   0.567   0.568   0.568   0.569   0.571
  0.572   0.573   0.574   0.575   0.575   0.577   0.577   0.579
  0.580   0.580   0.581   0.582   0.582   0.584   0.585   0.585
  0.586   0.587   0.588   0.588   0.589   0.590   0.591   0.592
  0.592   0.593   0.594   0.595   0.597   0.598   0.599   0.600
  0.601   0.602   0.602   0.603   0.604   0.605   0.606   0.607
  0.608   0.609   0.610   0.612   0.613   0.614   0.616   0.617
  0.618   0.618   0.619   0.621   0.623   0.624   0.625   0.626
  0.627   0.628   0.630   0.630   0.631   0.633   0.633   0.634
  0.635   0.635   0.636   0.637   0.638   0.639   0.640   0.642
  0.643   0.644   0.645   0.646   0.647   0.649   0.650   0.652
  0.652   0.654   0.654   0.655   0.655   0.656   0.657   0.658
  0.660   0.660   0.661   0.662   0.663   0.663   0.664   0.665
  0.666   0.666   0.667   0.668   0.669   0.670   0.671   0.672
  0.672   0.674   0.674   0.675   0.676   0.677   0.679   0.680
  0.681   0.682   0.684   0.686   0.687   0.687   0.688   0.689
  0.690   0.691   0.693   0.693   0.696   0.696   0.698   0.699
  0.700   0.701   0.701   0.703   0.705   0.705   0.706   0.707
  0.708   0.709   0.709   0.712   0.713   0.714   0.715   0.715
  0.716   0.718   0.719   0.720   0.721   0.723   0.723   0.724
  0.725   0.726   0.729   0.730   0.731   0.732   0.734   0.734
  0.735   0.736   0.737   0.738   0.739   0.741   0.744   0.745
  0.747   0.748   0.749   0.751   0.752   0.755   0.755   0.757
  0.759   0.760   0.761   0.763   0.765   0.766   0.768   0.769
  0.770   0.770   0.772   0.773   0.774   0.774   0.778   0.779
  0.780   0.781   0.782   0.783   0.785   0.786   0.788   0.789
  0.789   0.791   0.791   0.792   0.795   0.796   0.796   0.798
  0.798   0.799   0.800   0.802   0.802   0.803   0.804   0.805
  0.805   0.806   0.808   0.809   0.809   0.810   0.811   0.812
  0.812   0.813   0.815   0.815   0.818   0.818   0.819   0.819
  0.820   0.821   0.822   0.822   0.823   0.824   0.825   0.826
  0.827   0.828   0.829   0.831   0.831   0.833   0.834   0.835
  0.835   0.836   0.838   0.841   0.842   0.845   0.849   0.850
  0.854   0.855   0.857   0.857   0.862   0.864   0.867   0.869
  0.872   0.875   0.877   0.879   0.880   0.882   0.883   0.889
  0.890   0.892   0.893   0.896   0.896   0.904   0.905   0.907
  0.909   0.913   0.916   0.916   0.918   0.923   0.925   0.926
  0.928   0.930   0.931   0.932   0.933   0.935   0.936   0.937
  0.939   0.940   0.941   0.941   0.945   0.948   0.948   0.951
  0.954   0.956   0.960   0.963   0.964   0.967   0.969   0.973
  0.974   0.975   0.978   0.980   0.985   0.986   0.988   0.989
  0.992   0.993   0.997   0.999   1.001   1.004   1.004   1.007
  1.011   1.011   1.012   1.014   1.014   1.017   1.019   1.020
  1.021   1.024   1.026   1.028   1.028   1.029   1.030   1.034
  1.035   1.037   1.037   1.039   1.042   1.044   1.045   1.046
  1.048   1.050   1.050   1.053   1.055   1.059   1.060   1.061
  1.061   1.064   1.065   1.068   1.071   1.072   1.074   1.075
  1.077   1.078   1.080   1.081   1.082   1.084   1.084   1.087
  1.088   1.089   1.090   1.092   1.094   1.096   1.098   1.100
  1.100   1.101   1.103   1.108   1.109   1.111   1.112   1.113
  1.116   1.118   1.120   1.122   1.123   1.124   1.125   1.127
  1.130   1.132   1.135   1.138   1.139   1.142   1.142   1.143
  1.147   1.148   1.151   1.153   1.153   1.155   1.157   1.159
  1.159   1.162   1.163   1.165   1.167   1.168   1.170   1.172
  1.173   1.174   1.176   1.177   1.178   1.182   1.183   1.185
  1.186   1.187   1.189   1.190   1.191   1.193   1.195   1.198
  1.200   1.203   1.205   1.209   1.212   1.217   1.220   1.220
  1.222   1.225   1.227   1.231   1.232   1.234   1.240   1.244
  1.247   1.248   1.249   1.250   1.255   1.256   1.257   1.259
  1.260   1.262   1.266   1.268   1.268   1.270   1.272   1.275
  1.277   1.280   1.281   1.283   1.285   1.286   1.289   1.290
  1.295   1.297   1.298   1.303   1.303   1.304   1.309   1.311
  1.313   1.317   1.322   1.325   1.325   1.327   1.327   1.328
  1.332   1.335   1.336   1.337   1.338   1.343   1.344   1.347
  1.348   1.350   1.352   1.355   1.359   1.360   1.361   1.363
  1.368   1.368   1.373   1.376   1.381   1.382   1.384   1.386
  1.388   1.389   1.391   1.393   1.395   1.395   1.397   1.400
  1.403   1.407   1.408   1.411   1.415   1.419   1.422   1.424
  1.429   1.434   1.437   1.437   1.439   1.442   1.447   1.450
  1.452   1.453   1.455   1.458   1.458   1.461   1.463   1.464
  1.466   1.468   1.469   1.470   1.472   1.474   1.476   1.479
  1.480   1.483   1.486   1.488   1.490   1.491   1.494   1.496
  1.498   1.501   1.508   1.510   1.511   1.513   1.515   1.520
  1.520   1.521   1.524   1.529   1.533   1.535   1.535   1.536
  1.540   1.541   1.542   1.546   1.549   1.551   1.552   1.554
  1.557   1.559   1.561   1.563   1.564   1.567   1.569   1.571
  1.575   1.576   1.578   1.581   1.582   1.583   1.590   1.591
  1.592   1.596   1.601   1.605   1.609   1.613   1.619   1.622
  1.623   1.628   1.630   1.631   1.633   1.635   1.638   1.643
  1.644   1.647   1.650   1.651   1.656   1.661   1.663   1.666
  1.674   1.682   1.684   1.690   1.692   1.695   1.697   1.698
  1.698   1.700   1.703   1.707   1.711   1.712   1.716   1.719
  1.720   1.721   1.722   1.726   1.730   1.731   1.733   1.734
  1.735   1.737   1.740   1.741   1.743   1.744   1.745   1.746
  1.749   1.750   1.752   1.753   1.754   1.755   1.756   1.758
  1.758   1.760   1.763   1.763   1.764   1.765   1.766   1.768
  1.769   1.770   1.772   1.772   1.774   1.775   1.777   1.778
  1.779   1.779   1.782   1.783   1.785   1.785   1.788   1.789
  1.790   1.791   1.791   1.794   1.795   1.796   1.797   1.798
  1.799   1.801   1.803   1.804   1.806   1.809   1.810   1.811
  1.813   1.815   1.816   1.818   1.820   1.822   1.822   1.826
  1.826   1.830   1.831   1.835   1.837   1.838   1.839   1.843
  1.844   1.846   1.848   1.851   1.853   1.855   1.855   1.857
  1.859   1.860   1.863   1.863   1.866   1.868   1.870   1.873
  1.874   1.875   1.877   1.877   1.879   1.880   1.882   1.883
  1.886   1.889   1.892   1.894   1.895   1.898   1.902   1.903
  1.908   1.909   1.911   1.913   1.914   1.916   1.917   1.919
  1.920   1.927   1.928   1.931   1.932   1.936   1.936   1.937
  1.938   1.938   1.940   1.943   1.944   1.946   1.947   1.951
  1.953   1.955   1.956   1.957   1.959   1.964   1.966   1.969
  1.971   1.972   1.973   1.976   1.978   1.979   1.982   1.984
  1.985   1.986   1.988   1.989   1.989   1.991   1.991   1.993
  1.994   1.995   1.997   1.998   2.000   2.000   2.002   2.003
  2.006   2.007   2.008   2.008   2.010   2.010   2.012   2.013
  2.014   2.016   2.017   2.019   2.020   2.023   2.024   2.024
  2.026   2.027   2.027   2.030   2.031   2.033   2.034   2.035
  2.038   2.039   2.040   2.042   2.043   2.043   2.044   2.045
  2.046   2.047   2.049   2.050   2.050   2.052   2.053   2.054
  2.055   2.057   2.057   2.060   2.060   2.062   2.064   2.065
  2.066   2.066   2.067   2.069   2.072   2.073   2.075   2.076
  2.077   2.079   2.080   2.081   2.084   2.085   2.087   2.090
  2.092   2.093   2.095   2.096   2.098   2.100   2.102   2.107
  2.108   2.110   2.113   2.114   2.115   2.120   2.120   2.121
  2.126   2.130   2.131   2.134   2.137   2.139   2.143   2.146
  2.151   2.151   2.155   2.157   2.159   2.164   2.173   2.175
  2.178   2.184   2.190   2.193   2.196   2.196   2.200   2.204
  2.207   2.208   2.211   2.214   2.221   2.222   2.223   2.225
  2.226   2.233   2.234   2.235   2.239   2.242   2.242   2.244
  2.246   2.248   2.254   2.255   2.258   2.259   2.263   2.266
  2.268   2.269   2.271   2.274   2.275   2.277   2.279   2.280
  2.282   2.286   2.288   2.289   2.289   2.291   2.296   2.297
  2.299   2.303   2.305   2.306   2.307   2.311   2.313   2.314
  2.315   2.320   2.324   2.325   2.329   2.332   2.332   2.336
  2.338   2.341   2.342   2.342   2.346   2.350   2.353   2.354
  2.355   2.357   2.359   2.361   2.362   2.363   2.367   2.368
  2.369   2.370   2.373   2.374   2.376   2.379   2.379   2.383
  2.384   2.385   2.386   2.388   2.390   2.390   2.392   2.393
  2.393   2.397   2.399   2.401   2.402   2.404   2.405   2.406
  2.408   2.408   2.411   2.414   2.417   2.418   2.418   2.420
  2.424   2.427   2.429   2.433   2.436   2.438   2.440   2.445
  2.446   2.448   2.450   2.452   2.453   2.457   2.458   2.461
  2.463   2.466   2.468   2.469   2.470   2.470   2.472   2.477
  2.478   2.482   2.483   2.484   2.485   2.487   2.488   2.490
  2.491   2.492   2.494   2.496   2.497   2.504   2.505   2.507
  2.511   2.512   2.514   2.516   2.516   2.517   2.521   2.523
  2.525   2.526   2.527   2.531   2.533   2.534   2.535   2.537
  2.541   2.545   2.547   2.550   2.555   2.559   2.561   2.563
  2.566   2.568   2.570   2.573   2.578   2.579   2.583   2.587
  2.588   2.589   2.593   2.594   2.595   2.599   2.599   2.601
  2.602   2.603   2.605   2.608   2.612   2.614   2.615   2.617
  2.619   2.620   2.621   2.625   2.626   2.629   2.630   2.631
  2.632   2.634   2.638   2.639   2.641   2.642   2.644   2.647
  2.647   2.649   2.651   2.652   2.654   2.656   2.656   2.657
  2.659   2.661   2.664   2.666   2.668   2.668   2.669   2.671
  2.672   2.675   2.676   2.678   2.679   2.682   2.682   2.685
  2.686   2.689   2.691   2.694   2.694   2.699   2.699   2.701
  2.706   2.709   2.712   2.716   2.720   2.721   2.722   2.725
  2.727   2.728   2.731   2.732   2.734   2.737   2.738   2.738
  2.746   2.749   2.750   2.753   2.754   2.757   2.757   2.761
  2.762   2.763   2.766   2.769   2.771   2.773   2.773   2.778
  2.778   2.780   2.780   2.785   2.789   2.790   2.792   2.794
  2.801   2.803   2.805   2.809   2.812   2.815   2.818   2.820
  2.821   2.824   2.830   2.832   2.834   2.837   2.838   2.840
  2.846   2.848   2.850   2.852   2.853   2.857   2.858   2.861
  2.863   2.867   2.869   2.870   2.871   2.873   2.876   2.878
  2.880   2.881   2.883   2.884   2.885   2.887   2.889   2.890
  2.894   2.895   2.899   2.901   2.902   2.904   2.904   2.906
  2.908   2.910   2.911   2.913   2.913   2.915   2.919   2.920
  2.922   2.923   2.925   2.926   2.927   2.929   2.930   2.931
  2.934   2.936   2.937   2.939   2.940   2.947   2.950   2.955
  2.958   2.960   2.965   2.966   2.970   2.972   2.974   2.977
  2.981   2.984   2.990   2.992   2.995   2.996   3.001   3.003
  3.006   3.010   3.013   3.016   3.019   3.023   3.023   3.027
  3.030   3.032   3.033   3.036   3.037   3.040   3.043   3.047
  3.048   3.048   3.049   3.050   3.052   3.057   3.061   3.062
  3.064   3.069   3.075   3.080   3.083   3.088   3.089   3.097
  3.103   3.114   3.117   3.131   3.139   3.145   3.148   3.150
  3.154   3.155   3.168   3.171   3.174   3.177   3.178   3.189
  3.195   3.197   3.203   3.205   3.221   3.231   3.236   3.240
  3.242   3.248   3.254   3.257   3.262   3.267   3.281   3.283
  3.293   3.294   3.298   3.307   3.319   3.320   3.323   3.324
  3.332   3.338   3.340   3.341   3.350   3.355   3.370   3.380
  3.380   3.400   3.412   3.413   3.419   3.428   3.435   3.441
  3.445   3.456   3.457   3.469   3.471   3.477   3.480   3.483
  3.487   3.488   3.496   3.503   3.516   3.524   3.532   3.541
  3.553   3.555   3.565   3.578   3.582   3.594   3.596   3.613
  3.616   3.627   3.671   3.696   3.822   3.860   3.966   4.048
  4.062   4.073   4.078   4.081   4.089   4.091   4.092   4.096
  4.099   4.103   4.104   4.105   4.109   4.112   4.117   4.122
  4.123   4.130   4.139   4.141   4.143   4.147   4.152   4.154
  4.155   4.156   4.159   4.162   4.166   4.169   4.176   4.177
  4.178   4.187   4.190   4.193   4.210   4.216   4.227   4.235
  4.239   4.241   4.243   4.249   4.249   4.254   4.257   4.259
  4.263   4.272   4.277   4.281   4.287   4.290   4.296   4.302
  4.305   4.314   4.327   4.333   4.378   4.379   4.390   4.394
  4.396   4.398   4.401   4.407   4.410   4.410   4.414   4.418
  4.420   4.420   4.428   4.435   4.445   4.454   4.458   4.473
  4.486   4.498   4.513   4.523   4.536   4.537   4.544   4.551
  4.556   4.568   4.606   4.623   4.626   4.631   4.634   4.638
  4.646   4.674   4.684   4.688   4.695   4.696   4.699   4.702
  4.703   4.711   4.718   4.718   4.746   4.747   4.791   4.808
  4.841   4.848   4.859   4.861   4.871   4.875   4.881   4.888
  4.891   4.915   4.954   4.966   4.969   4.969   4.978   4.979
  4.988   4.990   4.995   5.006   5.162   5.173   5.175   5.178
  5.189   5.191   5.207   5.220   5.300   5.323   5.330   5.342
  5.351   5.371
 --------------------------------------------------------------
 
          Ground-State Mulliken Net Atomic Charges

     Atom                 Charge (a.u.)
  ----------------------------------------
      1 O                    -0.510179
      2 C                    -0.072732
      3 H                     0.125704
      4 H                     0.126959
      5 H                     0.121402
      6 O                    -0.461314
      7 C                     0.600600
      8 C                    -0.260811
      9 H                     0.155411
     10 H                     0.126216
     11 C                    -0.184053
     12 H                     0.132998
     13 H                     0.110614
     14 C                    -0.185495
     15 H                     0.109729
     16 H                     0.110447
     17 C                    -0.002432
     18 C                     0.084547
     19 C                    -0.086590
     20 H                     0.104902
     21 C                    -0.101125
     22 H                     0.097426
     23 C                    -0.079381
     24 H                     0.094045
     25 C                    -0.098451
     26 H                     0.088959
     27 C                    -0.105092
     28 H                     0.095577
     29 C                    -0.019572
     30 C                     0.036574
     31 C                    -0.009038
     32 C                    -0.016166
     33 C                     0.007906
     34 C                    -0.018730
     35 C                     0.008279
     36 C                     0.013113
     37 C                     0.040203
     38 C                     0.012360
     39 C                    -0.074017
     40 C                     0.002376
     41 C                    -0.014636
     42 C                     0.002279
     43 C                    -0.015481
     44 C                    -0.006444
     45 C                    -0.091937
     46 C                     0.034048
     47 C                     0.010609
     48 C                     0.010496
     49 C                    -0.001495
     50 C                     0.013352
     51 C                    -0.005829
     52 C                    -0.010550
     53 C                     0.003521
     54 C                     0.007374
     55 C                    -0.001223
     56 C                    -0.001655
     57 C                    -0.037393
     58 C                    -0.012770
     59 C                    -0.020491
     60 C                     0.045165
     61 C                     0.004277
     62 C                     0.007912
     63 C                    -0.000657
     64 C                     0.013592
     65 C                    -0.001644
     66 C                     0.024041
     67 C                    -0.014750
     68 C                     0.007466
     69 C                     0.009992
     70 C                     0.034601
     71 C                     0.006060
     72 C                    -0.037463
     73 C                    -0.002963
     74 C                     0.012301
     75 C                    -0.002991
     76 C                    -0.010209
     77 C                    -0.006716
     78 C                    -0.036990
     79 C                    -0.002350
     80 C                     0.014111
     81 C                     0.006515
     82 C                     0.004009
     83 C                    -0.002782
     84 C                    -0.001925
     85 C                    -0.004075
     86 C                    -0.027898
     87 C                     0.008115
     88 C                    -0.023446
     89 O                    -0.466647
     90 C                    -0.087662
     91 H                     0.130162
     92 H                     0.120833
     93 H                     0.130315
     94 O                    -0.457995
     95 C                     0.591934
     96 C                    -0.237823
     97 H                     0.120774
     98 H                     0.124652
     99 C                    -0.192802
    100 H                     0.109334
    101 H                     0.118621
    102 C                    -0.190221
    103 H                     0.118832
    104 H                     0.111842
    105 C                     0.015653
    106 C                     0.092020
    107 C                    -0.108439
    108 H                     0.093632
    109 C                    -0.096216
    110 H                     0.095601
    111 C                    -0.097465
    112 H                     0.090761
    113 C                    -0.085137
    114 H                     0.097073
    115 C                    -0.101509
    116 H                     0.089650
    117 C                    -0.022549
    118 C                     0.024802
    119 C                    -0.024179
    120 C                     0.015028
    121 C                     0.007321
    122 C                    -0.028843
    123 C                    -0.003693
    124 C                    -0.007712
    125 C                    -0.016514
    126 C                     0.005451
    127 C                    -0.086949
    128 C                     0.025308
    129 C                    -0.042745
    130 C                    -0.031398
    131 C                     0.005584
    132 C                     0.017622
    133 C                    -0.086489
    134 C                     0.015485
    135 C                     0.005297
    136 C                    -0.014460
    137 C                    -0.005341
    138 C                     0.014060
    139 C                     0.004392
    140 C                    -0.012990
    141 C                     0.027364
    142 C                    -0.012030
    143 C                    -0.004651
    144 C                    -0.011745
    145 C                     0.011385
    146 C                    -0.013012
    147 C                     0.049161
    148 C                     0.024349
    149 C                     0.018121
    150 C                    -0.028243
    151 C                    -0.023058
    152 C                     0.014799
    153 C                     0.001389
    154 C                    -0.017728
    155 C                     0.012542
    156 C                    -0.002134
    157 C                    -0.001270
    158 C                     0.056304
    159 C                    -0.019206
    160 C                     0.020476
    161 C                    -0.004926
    162 C                     0.003577
    163 C                    -0.004612
    164 C                     0.021659
    165 C                    -0.001939
    166 C                     0.026822
    167 C                    -0.005572
    168 C                    -0.005060
    169 C                     0.001009
    170 C                     0.009411
    171 C                    -0.018874
    172 C                     0.052966
    173 C                    -0.001288
    174 C                    -0.033733
    175 C                    -0.015215
    176 C                    -0.017544
  ----------------------------------------
  Sum of atomic charges =     0.000000

 -----------------------------------------------------------------
                    Cartesian Multipole Moments
 -----------------------------------------------------------------
    Charge (ESU x 10^10)
                 0.0000
    Dipole Moment (Debye)
         X      -0.2012      Y      -5.6511      Z       2.0555
       Tot       6.0167
    Quadrupole Moments (Debye-Ang)
        XX    -804.8150     XY       1.1848     YY    -774.2183
        XZ       1.8190     YZ      -4.9469     ZZ    -802.1833
    Octopole Moments (Debye-Ang^2)
       XXX    -125.5471    XXY    -652.3019    XYY    -141.9649
       YYY    -515.2187    XXZ     146.2388    XYZ      21.8037
       YYZ      56.6153    XZZ      58.2738    YZZ     -63.3953
       ZZZ      95.6306
    Hexadecapole Moments (Debye-Ang^3)
      XXXX -186780.1563   XXXY     664.3995   XXYY  -34918.4324
      XYYY    3225.7084   YYYY  -40527.7282   XXXZ    -445.8882
      XXYZ    -583.0740   XYYZ     374.2787   YYYZ      65.1729
      XXZZ  -34479.0458   XYZZ     558.2025   YYZZ  -10848.7267
      XZZZ    1125.4899   YZZZ     145.2276   ZZZZ  -22439.0598
 -----------------------------------------------------------------
Archival summary:
1\1\mn366\SP\ProcedureUnspecified\6-31G**\428\afmv_a\TueOct912:52:082018TueOct912:52:082018\0\\#,ProcedureUnspecified,6-31G**,\\0,1\C\C,1,1.37332\C,2,1.37062,1,122.532\C,2,1.39988,1,121.288,3,150.739,0\C,4,1.38733,2,105.925,1,-148.171,0\C,5,1.37798,4,110.378,2,-4.08934,0\C,5,1.39585,4,117.974,2,141.163,0\C,7,1.37114,5,121.189,4,-143.865,0\C,6,1.39926,5,117.496,4,141.861,0\C,9,1.40097,6,121.063,5,-136.335,0\C,4,1.40249,2,121.615,1,-4.0469,0\C,11,1.36645,4,118.577,2,-140.665,0\C,12,1.38708,11,123.089,4,5.16448,0\C,11,1.39007,4,116.637,2,-0.770814,0\C,14,1.39028,11,122.684,4,0.713286,0\C,15,1.38616,14,120.723,11,-137.348,0\C,13,1.39396,12,122.985,11,135.431,0\C,9,1.40341,6,122.62,5,5.00171,0\C,16,1.40411,15,107.749,14,143.373,0\C,19,1.37799,16,120.959,15,-143.539,0\C,20,1.35358,19,120.349,16,136.596,0\C,20,1.37091,19,119.087,16,1.2724,0\C,22,1.36847,20,123.118,19,-7.79387,0\C,22,1.37816,20,109.2,19,142.56,0\C,21,1.39347,20,110.688,19,-136.998,0\C,25,1.38288,21,125.057,20,146.097,0\C,26,1.37487,25,122.893,21,-147.187,0\C,24,1.39405,22,122.665,20,-143.671,0\C,3,1.4078,2,120.652,1,10.5982,0\C,29,1.40474,3,118.949,2,128.232,0\C,30,1.37379,29,108.565,3,-141.2,0\C,26,1.41009,25,119.65,21,-6.07898,0\C,32,1.40519,26,108.879,25,-142.384,0\C,17,1.41162,13,121.964,12,-5.78838,0\C,34,1.38259,17,117.915,13,4.09865,0\C,35,1.38159,34,105.574,17,-139.646,0\C,36,1.35887,35,111.947,34,0.350412,0\C,37,1.35376,36,105.41,35,0.439514,0\C,36,1.38128,35,122.838,34,146.226,0\C,39,1.38068,36,117.639,35,-5.89702,0\C,40,1.39075,39,122.062,36,-0.226858,0\C,41,1.39889,40,119.742,39,2.85097,0\C,38,1.40526,37,116.862,36,147.972,0\C,28,1.41417,24,117.511,22,-1.08178,0\C,44,1.37117,28,106.729,24,141.386,0\C,44,1.38841,28,120.414,24,-0.473818,0\C,45,1.39626,44,111.372,28,3.27332,0\C,47,1.39079,45,106.041,44,-8.33974,0\C,47,1.39998,45,122.068,44,-147.404,0\C,1,1.41486,2,118.78,3,-10.5914,0\C,17,1.415,13,105.563,12,-142.48,0\C,10,1.41567,9,108.097,6,145.688,0\C,52,1.3546,10,111.437,9,0.529024,0\C,53,1.41186,52,121.554,10,-139.395,0\C,43,1.41983,38,116.581,37,-137.423,0\C,21,1.42079,20,120.827,19,3.56546,0\C,56,1.39182,21,120.873,20,0.0696726,0\C,40,1.42475,39,107.569,36,-145.91,0\C,27,1.48057,26,112.744,25,147.791,0\C,59,1.50091,27,118.038,26,-135.315,0\C,60,1.49668,59,60.2242,27,-120.8,0\C,61,1.46215,60,113.991,59,-116.715,0\C,62,1.39866,61,120.667,60,114.194,0\H,63,1.08672,62,123.124,61,-13.3976,0\C,63,1.39181,62,122.326,61,169.111,0\H,65,1.0866,63,120.008,62,172.656,0\C,62,1.44437,61,120.278,60,-74.4964,0\H,67,1.08547,62,118.075,61,2.82977,0\C,67,1.39045,62,121.796,61,-169.001,0\H,69,1.08645,67,121.533,62,-175.096,0\C,69,1.43062,67,118.852,62,-1.34681,0\H,71,1.08601,69,118.875,67,-176.494,0\C,61,1.57848,60,121.233,59,102.639,0\H,73,1.09683,61,120.766,60,92.5591,0\H,73,1.09707,61,107.099,60,-18.5674,0\C,73,1.50227,61,111.665,60,-135.423,0\H,76,1.09693,73,108.102,61,-73.0255,0\H,76,1.09758,73,109.408,61,39.3994,0\C,76,1.53259,73,112.591,61,159.166,0\H,79,1.09741,76,113.867,73,166.886,0\H,79,1.09758,76,103.383,73,50.3891,0\C,79,1.53131,76,113.657,73,-73.2652,0\O,82,1.19797,79,119.79,76,114.595,0\O,82,1.35674,79,114.244,76,-63.2232,0\C,84,1.42254,82,124.937,79,179.055,0\H,85,1.09662,84,113.749,82,-170.217,0\H,85,1.09683,84,106.635,82,63.4034,0\H,85,1.09736,84,111.054,82,-48.6419,0\C,1,2.9565,2,108.372,3,89.6909,0\C,89,1.38914,1,95.4743,2,101.844,0\C,90,1.4069,89,118.281,1,113.797,0\C,91,1.41118,90,105.138,89,141.937,0\C,92,1.40421,91,109.978,90,-4.92399,0\C,93,1.3947,92,107.613,91,4.41952,0\C,94,1.36056,93,117.624,92,-145.255,0\C,95,1.37522,94,120.406,93,138.876,0\C,95,1.3925,94,124.332,93,-3.48778,0\C,97,1.40898,95,118.646,94,-0.566973,0\C,96,1.40966,95,120.203,94,-2.89739,0\C,99,1.39438,96,117.767,95,-138.364,0\C,100,1.37861,99,104.133,96,142.301,0\C,101,1.37924,100,113.303,99,-0.391842,0\C,102,1.403,101,122.735,100,-144.29,0\C,103,1.35236,102,116.361,101,2.12726,0\C,92,1.41733,91,120.362,90,-139.152,0\C,105,1.41568,92,126.917,91,139.146,0\C,91,1.41756,90,118.953,89,-0.444392,0\C,107,1.34536,91,117.936,90,135.073,0\C,108,1.41408,107,120.422,91,3.29136,0\C,106,1.41796,105,106.567,92,-141.735,0\C,110,1.4091,106,109.007,105,-1.80825,0\C,110,1.4125,106,118.802,105,142.988,0\C,112,1.39489,110,120.151,106,-141.554,0\C,112,1.39549,110,120.026,106,-3.72186,0\C,113,1.39577,112,109.406,110,141.26,0\C,115,1.40354,113,107.205,112,1.22813,0\C,106,1.42192,105,115.932,92,-2.62609,0\C,117,1.38446,106,121.395,105,0.646603,0\C,117,1.39198,106,117.306,105,-135.113,0\C,119,1.373,117,109.245,106,142.874,0\C,120,1.35464,119,122.602,117,-145.298,0\C,121,1.37861,120,121.678,119,-2.10845,0\C,122,1.38967,121,111.46,120,142.217,0\C,100,1.42221,99,121.099,96,-0.0407695,0\C,124,1.39774,100,121.275,99,-8.05322,0\C,125,1.41228,124,117.713,100,11.9587,0\C,126,1.36565,125,122.503,124,135.321,0\C,101,1.42277,100,118.281,99,-146.468,0\C,128,1.39103,101,120.302,100,141.251,0\C,129,1.38232,128,109.706,101,-140.38,0\C,130,1.41165,129,119.97,128,140.117,0\C,131,1.40581,130,120.285,129,-137.124,0\C,132,1.36705,131,111.624,130,143.807,0\C,128,1.41614,101,121.079,100,1.93022,0\C,134,1.39909,128,107.575,101,139.777,0\C,135,1.41103,134,120.109,128,-139.494,0\C,136,1.3738,135,119.707,134,-3.1137,0\C,136,1.39427,135,119.309,134,138.857,0\C,138,1.40646,136,106.424,135,-143.424,0\C,137,1.40751,136,107.386,135,145.966,0\C,131,1.41811,130,118.847,129,-2.66401,0\C,141,1.3383,131,121.965,130,4.09138,0\C,141,1.41453,131,106.151,130,-146.039,0\C,121,1.42742,120,122.239,119,141.482,0\C,124,1.43683,100,120.842,99,139.931,0\C,145,1.40628,124,107.318,100,-147.946,0\C,144,1.47487,121,110.814,120,-149.559,0\C,147,1.47347,144,119.6,121,140.486,0\C,148,1.50554,147,61.6476,144,117.776,0\C,149,1.46715,148,118.948,147,-107.91,0\C,150,1.38413,149,122.063,148,-65.4326,0\H,151,1.08582,150,123.378,149,-5.80705,0\C,151,1.41376,150,116.94,149,-172.909,0\H,153,1.08601,151,116.428,150,179.445,0\C,153,1.3785,151,122.555,150,-2.96862,0\H,155,1.08681,153,123.976,151,-175.46,0\C,150,1.41378,149,114.599,148,119.255,0\H,157,1.08614,150,123.193,149,-7.39512,0\C,157,1.40194,150,118.703,149,173.024,0\H,159,1.08674,157,115.737,150,176.188,0\C,149,1.57649,148,115.213,147,115.832,0\H,161,1.09695,149,109.913,148,83.4025,0\H,161,1.09722,149,107.851,148,-27.5588,0\C,161,1.54021,149,110.013,148,-154.434,0\H,164,1.09735,161,110.213,149,132.867,0\H,164,1.09743,161,109.718,149,18.2514,0\C,164,1.50618,161,114.558,149,-100.698,0\H,167,1.09647,164,111.369,161,-74.2161,0\H,167,1.0972,164,111.373,161,42.1125,0\C,167,1.44723,164,118.636,161,169.89,0\O,170,1.22686,167,122.095,164,-43.3598,0\O,170,1.44367,167,114.388,164,130.967,0\C,172,1.45479,170,122.571,167,172.338,0\H,173,1.0964,172,109.259,170,-155.033,0\H,173,1.09715,172,110.567,170,-44.6629,0\H,173,1.09728,172,110.267,170,85.2875,0\\\@

 Total job time:  851.46s(wall), 7238.07s(cpu) 
 Tue Oct  9 12:52:08 2018

        *************************************************************
        *                                                           *
        *  Thank you very much for using Q-Chem.  Have a nice day.  *
        *                                                           *
        *************************************************************


