
Running Job 1 of 1 ./6/25.qcin
qchem ./6/25.qcin_45429.0 /tmpu/cab_g/afmv_a/scratch_qchem/qchem45429/ 1
/tmpu/appuserlic/qchem4.4/serial-multicore/exe/qcprog.exe_s ./6/25.qcin_45429.0 /tmpu/cab_g/afmv_a/scratch_qchem/qchem45429/
Check license passed

                  Welcome to Q-Chem
     A Quantum Leap Into The Future Of Chemistry


 Q-Chem 4.4, Q-Chem, Inc., Pleasanton, CA (2016)

 Y. Shao,  Z. Gan,  E. Epifanovsky,  A. T. B. Gilbert,  M. Wormit,  
 J. Kussmann,  A. W. Lange,  A. Behn,  J. Deng,  X. Feng,  D. Ghosh,  
 M. Goldey,  P. R. Horn,  L. D. Jacobson,  I. Kaliman,  F. Rob,  
 R. Z. Khaliullin,  T. Kus,  A. Landau,  J. Liu,  E. I. Proynov,  Y. M. Rhee,  
 R. M. Richard,  M. A. Rohrdanz,  R. P. Steele,  E. J. Sundstrom,  
 H. L. Woodcock III,  P. M. Zimmerman,  D. Zuev,  B. Albrecht,  E. Alguire,  
 B. Austin,  S. A. Baeppler,  G. J. O. Beran,  Y. A. Bernard,  E. Berquist,  
 K. Brandhorst,  K. B. Bravaya,  S. T. Brown,  D. Casanova,  C.-M. Chang,  
 Y. Chen,  S. H. Chien,  K. D. Closser,  M. P. Coons,  D. L. Crittenden,  
 S. Dasgupta,  M. Diedenhofen,  R. A. DiStasio Jr.,  H. Do,  A. D. Dutoi,  
 R. G. Edgar,  P.-T. Fang,  S. Fatehi,  Q. Feng,  L. Fusti-Molnar,  
 A. Ghysels,  A. Golubeva-Zadorozhnaya,  J. Gomes,  A. Gunina,  
 M. W. D. Hanson-Heine,  P. H. P. Harbach,  A. W. Hauser,  J. E. Herr,  
 E. G. Hohenstein,  Z. C. Holden,  K. Hui,  T.-C. Jagau,  H. Ji,  B. Kaduk,  
 K. Khistyaev,  Jaehoon Kim,  Jihan Kim,  R. A. King,  P. Klunzinger,  
 K. Koh,  D. Kosenkov,  T. Kowalczyk,  C. M. Krauter,  A. Kunitsa,  
 K. U. Lao,  A. Laurent,  K. V. Lawler,  J. Lee,  D. Lefrancois,  S. Lehtola,  
 S. V. Levchenko,  C. Y. Lin,  Y.-S. Lin,  F. Liu,  E. Livshits,  
 R. C. Lochan,  A. Luenser,  P. Manohar,  S. F. Manzer,  S.-P. Mao,  Y. Mao,  
 N. Mardirossian,  A. V. Marenich,  L. A. Martinez-Martinez,  S. A. Maurer,  
 N. J. Mayhall,  J.-M. Mewes,  A. F. Morrison,  K. Nanda,  T. S. Nguyen-Beck,  
 C. M. Oana,  R. Olivares-Amaya,  D. P. O'Neill,  J. A. Parkhill,  
 T. M. Perrine,  R. Peverati,  P. A. Pieniazek,  F. Plasser,  A. Prociuk,  
 D. R. Rehn,  E. Rosta,  N. J. Russ,  N. Sergueev,  S. M. Sharada,  
 S. Sharma,  D. W. Small,  A. Sodt,  T. Stauch,  T. Stein,  D. Stuck,  
 Y.-C. Su,  A. J. W. Thom,  T. Tsuchimochi,  L. Vogt,  O. Vydrov,  T. Wang,  
 M. A. Watson,  J. Wenzel,  A. White,  C. F. Williams,  V. Vanovschi,  
 K. Yao,  S. Yeganeh,  S. R. Yost,  Z.-Q. You,  I. Y. Zhang,  X. Zhang,  
 Y. Zhao,  B. R. Brooks,  G. K. L. Chan,  D. M. Chipman,  C. J. Cramer,  
 W. A. Goddard III,  M. S. Gordon,  W. J. Hehre,  A. Klamt,  
 H. F. Schaefer III,  M. W. Schmidt,  C. D. Sherrill,  D. G. Truhlar,  
 A. Warshel,  X. Xu,  A. Aspuru-Guzik,  R. Baer,  A. T. Bell,  N. A. Besley,  
 J.-D. Chai,  A. Dreuw,  B. D. Dunietz,  T. R. Furlani,  S. R. Gwaltney,  
 C.-P. Hsu,  Y. Jung,  J. Kong,  D. S. Lambrecht,  W. Liang,  C. Ochsenfeld,  
 V. A. Rassolov,  L. V. Slipchenko,  J. E. Subotnik,  T. Van Voorhis,  
 J. M. Herbert,  A. I. Krylov,  P. M. W. Gill,  M. Head-Gordon

 Contributors to earlier versions of Q-Chem not listed above: 
 R. D. Adamson,  J. Baker,  E. F. C. Byrd,  A. K. Chakraborty,  C.-L. Cheng,  
 H. Dachsel,  R. J. Doerksen,  G. Hawkins,  A. Heyden,  S. Hirata,  
 G. Kedziora,  F. J. Keil,  C. Kelley,  P. P. Korambath,  W. Kurlancheek,  
 A. M. Lee,  M. S. Lee,  D. Liotard,  I. Lotan,  P. E. Maslen,  N. Nair,  
 D. Neuhauser,  R. Olson,  B. Peters,  J. Ritchie,  N. E. Schultz,  
 N. Shenvi,  A. C. Simmonett,  K. S. Thanthiriwatte,  Q. Wu,  W. Zhang

 Please cite Q-Chem as follows:
 Y. Shao et al., Mol. Phys. 113, 184-215 (2015)
 DOI: 10.1080/00268976.2014.952696

 Q-Chem 4.4.2 for Intel X86 Linux

 Parts of Q-Chem use Armadillo 5.200.1 (Boston Tea Smuggler).
 http://arma.sourceforge.net/

 Q-Chem begins on Tue Oct  9 13:19:53 2018  

Host: 
0

     Scratch files written to /tmpu/cab_g/afmv_a/scratch_qchem/qchem45429//
 Dec716 11556_ 22328  22283 4050   
Processing $rem in /tmpu/appuserlic/qchem4.4/serial-multicore/config/preferences.
 MEM_TOTAL  2000 
FILE_GEOM_ORG=        593

Checking the input file for inconsistencies... 	...done.

--------------------------------------------------------------
User input:
--------------------------------------------------------------
$comment
SP
$end

$rem
MEM_STATIC 5000
MEM_TOTAL 20000
JOBTYPE SP
EXCHANGE B3LYP
BASIS 6-31g(d,p)
$end

$molecule
0 1
O          15.727000    -15.018000      1.207000
C          16.812000    -14.672000      2.076000
H          16.942000    -15.506000      2.777000
H          16.555000    -13.688000      2.488000
H          17.785000    -14.699000      1.570000
O          16.991000    -16.490000      0.014000
C          15.895000    -15.978000      0.245000
C          14.679000    -16.361000     -0.556000
H          14.071000    -16.976000      0.117000
H          15.010000    -16.863000     -1.474000
C          13.846000    -15.101000     -0.883000
H          13.105000    -15.475000     -1.600000
H          13.345000    -14.780000      0.038000
C          14.543000    -13.927000     -1.489000
H          15.397000    -13.557000     -0.909000
H          14.986000    -14.201000     -2.455000
C          13.575000    -12.738000     -1.650000
C          12.815000    -12.719000     -2.928000
C          11.528000    -13.306000     -2.947000
H          11.140000    -13.610000     -1.980000
C          10.847000    -13.342000     -4.105000
H           9.914000    -13.895000     -4.153000
C          11.364000    -12.916000     -5.343000
H          10.783000    -13.029000     -6.253000
C          12.675000    -12.433000     -5.371000
H          12.992000    -11.967000     -6.300000
C          13.403000    -12.350000     -4.130000
H          14.392000    -11.903000     -4.166000
C          13.197000     -7.274000     -1.549000
C          11.053000     -8.037000     -0.760000
C          11.431000     -6.698000      3.540000
C          16.806000     -9.412000      1.313000
C          12.277000     -9.985000      4.612000
C          12.154000     -8.232000     -1.565000
C          15.760000     -9.719000      3.894000
C          12.136000     -5.610000      1.503000
C          11.158000    -11.541000      1.018000
C          16.306000    -10.644000      1.707000
C          13.029000    -12.131000     -0.394000
C          12.174000    -12.093000      1.829000
C          14.740000    -11.676000      2.920000
C          14.646000     -9.568000      4.704000
C          11.307000    -10.221000     -0.963000
C          13.066000     -7.679000      4.828000
C          14.055000    -11.407000     -1.267000
C          15.364000    -11.022000     -0.528000
C          12.030000     -8.620000      4.758000
C          15.496000     -6.241000      2.018000
C          13.679000     -5.903000      3.325000
C          13.426000     -5.435000      2.008000
C          11.960000     -6.003000      0.112000
C          15.730000     -9.710000     -0.873000
C          11.669000    -11.446000     -0.299000
C          10.917000     -6.889000      0.092000
C          15.852000    -10.833000      3.013000
C          10.436000     -9.268000     -0.404000
C          12.364000    -11.722000      3.184000
C          16.212000     -7.528000      0.146000
C          11.146000     -6.229000      2.243000
C          13.308000    -12.370000      1.080000
C          14.342000     -5.971000     -0.146000
C          13.605000    -11.531000      3.759000
C          10.325000    -10.533000      1.586000
C          15.336000     -7.580000      3.976000
C          16.250000     -8.440000      3.485000
C          10.516000    -10.144000      2.920000
C          16.438000     -8.887000      0.093000
C          15.545000    -11.433000      0.825000
C          16.413000     -7.178000      1.504000
C          13.679000    -10.066000     -1.909000
C           9.863000     -8.321000      1.771000
C          14.595000    -12.082000      1.593000
C          11.510000    -10.740000      3.727000
C          15.234000     -6.980000     -0.666000
C          11.040000     -8.025000      3.903000
C          13.083000     -6.137000     -0.684000
C          12.664000     -6.625000      4.084000
C           9.970000     -9.405000      0.886000
C          10.222000     -8.798000      3.020000
C          12.310000     -9.536000     -1.792000
C          14.707000     -9.105000     -1.673000
C          15.009000     -6.389000      3.312000
C          10.397000     -7.037000      1.374000
C          13.575000    -10.488000      4.648000
C          16.808000     -8.303000      2.237000
C          14.384000     -8.199000      4.806000
C          14.455000     -7.772000     -1.561000
C          14.519000     -5.644000      1.203000
O          30.240000    -11.146000      8.457000
C          31.270000    -10.468000      9.217000
H          31.956000     -9.950000      8.535000
H          31.848000    -11.234000      9.747000
H          30.749000     -9.831000      9.942000
O          29.366000    -12.192000     10.341000
C          29.350000    -11.952000      9.156000
C          28.325000    -12.504000      8.195000
H          27.474000    -12.820000      8.812000
H          28.789000    -13.427000      7.828000
C          27.846000    -11.574000      7.012000
H          27.247000    -10.749000      7.416000
H          28.719000    -11.112000      6.535000
C          27.069000    -12.538000      6.082000
H          27.626000    -13.117000      5.335000
H          26.570000    -13.237000      6.764000
C          25.902000    -11.803000      5.282000
C          26.471000    -10.826000      4.282000
C          26.538000    -11.154000      2.893000
H          26.214000    -12.103000      2.477000
C          27.084000    -10.280000      1.957000
H          27.243000    -10.587000      0.927000
C          27.407000     -8.974000      2.376000
H          27.636000     -8.149000      1.709000
C          27.130000     -8.590000      3.682000
H          27.278000     -7.546000      3.941000
C          26.834000     -9.516000      4.706000
H          26.630000     -9.162000      5.712000
C          21.664000     -8.542000      6.203000
C          21.080000     -9.630000      4.054000
C          17.767000    -12.250000      5.719000
C          22.723000    -11.928000      9.713000
C          19.789000    -15.093000      5.932000
C          22.077000     -9.088000      4.947000
C          21.106000    -14.239000      9.204000
C          18.339000     -9.910000      6.197000
C          22.731000    -13.248000      3.810000
C          23.267000    -13.069000      9.094000
C          24.551000    -12.430000      5.152000
C          23.025000    -14.199000      4.822000
C          22.828000    -14.642000      7.560000
C          20.198000    -14.805000      8.366000
C          22.941000    -10.852000      3.951000
C          18.226000    -13.809000      7.284000
C          24.793000    -11.323000      6.166000
C          24.504000    -11.605000      7.650000
C          18.690000    -14.273000      6.050000
C          19.477000    -10.536000      9.481000
C          17.885000    -11.477000      8.039000
C          18.284000    -10.204000      7.540000
C          19.356000     -9.066000      5.671000
C          23.834000    -10.496000      8.188000
C          23.523000    -12.107000      4.082000
C          19.745000     -9.620000      4.406000
C          22.461000    -14.131000      8.786000
C          21.610000    -10.708000      3.391000
C          22.025000    -15.016000      5.331000
C          21.803000     -9.915000      9.382000
C          18.077000    -10.954000      5.247000
C          24.078000    -13.720000      5.651000
C          20.232000     -8.820000      7.961000
C          21.960000    -15.253000      6.737000
C          21.365000    -13.108000      3.319000
C          19.226000    -12.987000      9.367000
C          20.529000    -13.126000      9.830000
C          20.370000    -13.977000      3.814000
C          23.012000    -10.633000      9.342000
C          24.181000    -12.924000      8.052000
C          20.791000    -10.739000      9.861000
C          24.085000    -10.026000      5.967000
C          19.462000    -11.894000      3.491000
C          23.903000    -13.865000      7.067000
C          20.694000    -14.904000      4.846000
C          21.558000     -8.865000      8.476000
C          18.364000    -13.365000      5.081000
C          20.330000     -8.647000      6.597000
C          17.656000    -12.526000      7.088000
C          20.812000    -11.840000      3.033000
C          19.192000    -13.195000      3.919000
C          23.236000     -9.855000      4.864000
C          23.597000     -9.558000      7.220000
C          18.694000    -11.687000      9.164000
C          18.935000    -10.771000      4.159000
C          20.595000    -15.293000      7.138000
C          21.339000    -11.966000     10.065000
C          18.988000    -14.033000      8.433000
C          22.487000     -8.764000      7.341000
C          19.201000     -9.628000      8.458000
$end

--------------------------------------------------------------
 ----------------------------------------------------------------
             Standard Nuclear Orientation (Angstroms)
    I     Atom           X                Y                Z
 ----------------------------------------------------------------
    1      O       2.7021780671    -4.1173801184    -2.1038173356
    2      C       1.3843158398    -3.5802844021    -1.9398986316
    3      H       0.8173997423    -3.8358961668    -2.8438487211
    4      H       1.5279938727    -2.5180925568    -1.7050495169
    5      H       0.7959994025    -4.1232389714    -1.1898465632
    6      O       2.0177130980    -6.2492859728    -1.6864276686
    7      C       2.9106645172    -5.4680016948    -2.0165089312
    8      C       4.3025449420    -5.9634026309    -2.3066688794
    9      H       4.4116311009    -5.8990767908    -3.3951450602
   10      H       4.4084274608    -6.9717611143    -1.8867985885
   11      C       5.3428933991    -4.9970761202    -1.6964999172
   12      H       6.2863545563    -5.5435304840    -1.8161438603
   13      H       5.3581312463    -4.0878535656    -2.3091704275
   14      C       5.1964101822    -4.6107633153    -0.2610118176
   15      H       4.2232928494    -4.1745694327    -0.0052901851
   16      H       5.2593650437    -5.4973323508     0.3828150464
   17      C       6.2612406321    -3.5697538307     0.1378633079
   18      C       7.5498932272    -4.1425765253     0.6095556332
   19      C       8.5887587013    -4.3139666971    -0.3352633631
   20      H       8.4033668819    -3.8849656449    -1.3148739850
   21      C       9.7429727953    -4.8757710649     0.0624635250
   22      H      10.4965811872    -5.1186544645    -0.6802908395
   23      C       9.9676741561    -5.4012266319     1.3488595548
   24      H      10.9031231978    -5.8976088038     1.5875430898
   25      C       8.9180520722    -5.3434371801     2.2695917961
   26      H       9.1665231500    -5.6087883450     3.2935726958
   27      C       7.6884057466    -4.7067042877     1.8702233727
   28      H       6.9146399669    -4.6082458970     2.6257486625
   29      C       7.2420277198     0.7892114672     3.3073836534
   30      C       8.5936510169     1.1575316958     1.3480774824
   31      C       6.3106325545     4.6618631885    -0.3646082708
   32      C       2.4475223883     0.0228957572     1.8199537025
   33      C       4.6278479117     2.5728370273    -2.7041540694
   34      C       8.0219001039     0.2780921599     2.2413512345
   35      C       2.0268191076     1.5592105347    -0.4849696485
   36      C       6.8554879459     4.1288296320     1.9264931740
   37      C       7.1692603786    -0.5104354882    -1.9137198416
   38      C       2.5224045099    -0.5790187095     0.5728965095
   39      C       6.1860365931    -2.2305135608    -0.5291305842
   40      C       5.8233422317    -0.6845537279    -2.3047034482
   41      C       3.1326850971    -0.2972655578    -1.5571086000
   42      C       2.6015694816     2.4106531144    -1.4148107861
   43      C       8.1938534040    -0.7049067290     0.2313563969
   44      C       4.1412085876     4.3000191595    -1.0407728591
   45      C       5.8311838172    -2.4247685377     0.9457678908
   46      C       4.3904229957    -1.9858430392     1.3191037475
   47      C       4.9440333390     3.7682951308    -2.0588195063
   48      C       3.6329805976     3.1849741653     2.7496391200
   49      C       4.5893037777     4.6360179940     1.2991565167
   50      C       5.5198929634     4.2709617401     2.3082450654
   51      C       7.6453449432     3.0383871633     2.4809001961
   52      C       4.4166756282    -1.2626420265     2.5235189976
   53      C       7.3954926114    -1.3367347385    -0.7864738499
   54      C       8.4365059456     2.5804035100     1.4622931857
   55      C       2.2405220641     0.1553041971    -0.5798329278
   56      C       8.7879816949     0.5603764177     0.0719790687
   57      C       5.0364627735     0.3643295517    -2.8436195676
   58      C       3.7796360962     0.9163647320     3.4604924129
   59      C       7.2589199076     4.3167478724     0.6177569946
   60      C       5.1848931775    -1.6014079132    -1.4828474948
   61      C       5.7316306933     2.3682028176     3.7576392894
   62      C       3.7103205917     0.5715741264    -2.5186832660
   63      C       7.7334005669     0.7939717807    -2.0270535301
   64      C       2.6267797463     3.3536143645     0.6022208258
   65      C       1.9740352419     2.1907141794     0.7962949651
   66      C       6.9583981229     1.8440148564    -2.5409978374
   67      C       3.4361629571    -0.2143738940     2.7504062474
   68      C       3.5111921941    -1.5390587035     0.2897214303
   69      C       2.9791082219     1.9483405408     2.9116335489
   70      C       6.6456559980    -1.6872311793     2.0155784869
   71      C       8.3243764233     2.7145671301    -0.9769706568
   72      C       3.8625142748    -1.3667074810    -1.0370765391
   73      C       5.6276700824     1.6385916337    -2.9669851396
   74      C       5.0928973344     1.0781672015     3.8670596044
   75      C       6.2949896642     3.9434857767    -1.6012441081
   76      C       7.0581227227     2.2063345322     3.4166135511
   77      C       4.9914759437     4.7615029849    -0.0973036746
   78      C       8.5310570945     1.3280034367    -1.0437106325
   79      C       7.3352944062     3.0081427534    -1.8999772206
   80      C       7.8319029484    -0.8978317938     1.6435344264
   81      C       5.7700032275    -1.0395243221     2.9373751308
   82      C       3.3906869904     3.9512720364     1.6149187224
   83      C       8.2285019951     3.3470636254     0.3200171140
   84      C       3.4302279692     1.9114036619    -2.4446904368
   85      C       2.1311285854     1.4271604599     1.9276412423
   86      C       2.9529644969     3.5864315981    -0.7460241980
   87      C       6.1032001414     0.1121722365     3.5819772199
   88      C       4.9532032263     3.3825458822     3.1891167958
   89      O     -12.8553081784    -0.1178640098     2.3851185760
   90      C     -14.0289946044     0.6228804640     2.7997772286
   91      H     -14.2131455534     0.4606818910     3.8692743305
   92      H     -14.8871163002     0.2161587566     2.2521052394
   93      H     -13.8585834769     1.6637089648     2.4989931208
   94      O     -13.1737528644     0.3949533840     0.1394428864
   95      C     -12.5416057454    -0.1212474428     1.0316355373
   96      C     -11.2562955891    -0.8855402299     0.8250336552
   97      H     -10.8721097696    -0.5687541690    -0.1531247409
   98      H     -11.5921734156    -1.9209782565     0.6947716932
   99      C     -10.1383194693    -0.7633003133     1.9336439557
  100      H      -9.7175060457     0.2492679739     1.9174104592
  101      H     -10.5919251664    -0.8892366391     2.9243426553
  102      C      -9.1346160789    -1.8831885207     1.5643813028
  103      H      -9.3175436793    -2.9005653001     1.9317788828
  104      H      -9.1344605830    -1.9030504958     0.4678725350
  105      C      -7.6408144493    -1.5271065847     1.9931893555
  106      C      -7.5075294261    -1.4979644323     3.4964111747
  107      C      -6.9189587293    -2.5923293025     4.2016374263
  108      H      -6.5571491863    -3.4978625205     3.7244200275
  109      C      -6.8109569706    -2.5993070890     5.5895765210
  110      H      -6.4766353240    -3.4848419563     6.1229497819
  111      C      -7.1272530808    -1.4165000846     6.2870364561
  112      H      -6.8866740296    -1.2291977398     7.3286671737
  113      C      -7.4870894206    -0.2805992599     5.5728459179
  114      H      -7.6076435372     0.6447946344     6.1278538867
  115      C      -7.8601402288    -0.3181903787     4.2115641682
  116      H      -8.1378433532     0.5995350024     3.7020260443
  117      C      -4.0361329007     2.4983365503     1.4981292578
  118      C      -2.6099713088     0.5138614421     1.9115571945
  119      C      -0.9286077358     0.2371321315    -2.2966528079
  120      C      -7.1231232325     1.7347900091    -2.3481760305
  121      C      -3.1381990082    -2.2878054467    -3.2758865056
  122      C      -3.8388201137     1.2363585022     2.1421013614
  123      C      -5.7807820262     0.0176545163    -4.2093737055
  124      C      -1.3543555214     2.1956986677    -0.8774896931
  125      C      -4.3745756769    -2.7961542547     0.5679692698
  126      C      -7.4309712105     0.3631820710    -2.4181709350
  127      C      -6.4971327005    -1.7808197413     1.0642912494
  128      C      -5.2516201087    -2.9942565972    -0.5304521094
  129      C      -6.4968716485    -1.6623767942    -2.6297726645
  130      C      -4.6587338429    -0.7108594594    -4.4488298844
  131      C      -4.3151428255    -0.9125945155     2.0691246399
  132      C      -2.3000559308    -0.1383179781    -4.0483816863
  133      C      -7.0645161895    -0.3791093310     1.2239562171
  134      C      -7.5883577937     0.3518867741    -0.0236557691
  135      C      -2.1468502514    -1.3355755102    -3.3437893065
  136      C      -4.0404434352     3.4078383259    -2.8235691282
  137      C      -2.0800290992     2.1863609166    -3.2286340240
  138      C      -2.0108231702     2.7803853248    -1.9359327662
  139      C      -1.8579715583     2.3024243476     0.4485123871
  140      C      -7.1362825336     1.6792768713     0.0198009804
  141      C      -5.0421241398    -1.9346067143     1.4708778395
  142      C      -1.6366196390     1.0343791847     1.0821738052
  143      C      -6.7233438427    -0.4556854920    -3.2554662369
  144      C      -2.8758428787    -0.8321619236     1.9022616377
  145      C      -4.7506878659    -3.0941402673    -1.8210566734
  146      C      -5.9087496949     3.2991053817    -1.3058976003
  147      C      -0.7933765681     0.8851794336    -1.0475542427
  148      C      -6.5049823145    -2.3711329076    -0.2729816282
  149      C      -3.7136305913     3.6551881229    -0.4451048247
  150      C      -5.4224281718    -2.4257563593    -2.8884169279
  151      C      -2.9399358535    -2.6698068414     0.3388799676
  152      C      -4.0851563337     1.5072506156    -4.3949268571
  153      C      -5.4516813514     1.3793375164    -4.1764168691
  154      C      -2.4430790980    -2.8192488930    -0.9729932876
  155      C      -7.0200499915     2.4469182287    -1.1732563286
  156      C      -7.6806989427    -0.3525787313    -1.2487661576
  157      C      -5.3835456745     3.1787065647    -2.5873912061
  158      C      -6.1901871159     0.6634750739     1.8335794037
  159      C      -1.2339296325    -1.1989292480     0.1133785723
  160      C      -7.0753171460    -1.6008635731    -1.3398036997
  161      C      -3.3527002085    -2.9937678897    -2.0553340635
  162      C      -5.1135349896     3.6254572235    -0.1903309067
  163      C      -1.2691953238    -1.1377767166    -2.3140813550
  164      C      -3.0993223727     2.9549405367     0.5709206329
  165      C      -1.5475421451     0.8638912862    -3.3860338978
  166      C      -2.1593493184    -1.7365627744     1.0566328309
  167      C      -1.3823501839    -1.8860961221    -1.0926305599
  168      C      -4.8921975633     0.3321762586     2.2484471132
  169      C      -6.3316818510     1.8805735626     1.1084397559
  170      C      -3.3596111342     2.5097669404    -3.7001044466
  171      C      -0.9672968052     0.1840833647     0.1489460931
  172      C      -4.4540625152    -1.9078249753    -3.7937572156
  173      C      -6.1138927354     2.2294346135    -3.2299835600
  174      C      -3.5529787881     0.1992519686    -4.5653457516
  175      C      -5.3357334572     2.8170410483     1.0173768927
  176      C      -3.1789631198     3.5621515083    -1.7367351446
 ----------------------------------------------------------------
 Molecular Point Group                 C1    NOp =  1
 Largest Abelian Subgroup              C1    NOp =  1
 Nuclear Repulsion Energy = 34427.0628538977 hartrees
 There are      462 alpha and      462 beta electrons
 Requested basis set is 6-31G(d,p)
 There are 676 shells and 2360 basis functions

 Total QAlloc Memory Limit  20000 MB
 Mega-Array Size      4888 MB
 MEM_STATIC part      5000 MB
 A cutoff of  1.0D-08 yielded  37830 shell pairs
 There are    531075 function pairs
 
 -------------------------------------------------------
 OpenMP Integral Computing Module                       
 Release: version 1.0, May 2013, Q-Chem Inc. Pittsburgh 
 -------------------------------------------------------
 Integral Job Info:
 Integral job number is                      11
 Integral operator is                         1
 short-range coefficients                     0
 long-range coefficients              100000000
 Omega coefficients                           0
 if combine SR and LR in K                    0
 Integral screening is                        0
 Integral computing path is                   2
 max size of driver memory is            800000
 size of driver memory is                593474
 size of scratch memory is              2260544
 max col of scratch BK array               1296
 max len of scratch array in speh3          155
 max len of scratch index in speh4           18
 max int batch size is                      520
 min int batch size is                       52
 fixed nKL is                                52
 max L of basis functions is                  2
 order of int derivative is                   0
 number of shells is                        676
 number of basis is                        2360
 number of cartesian basis is              2360
 number of contracted shell pairs         37830
 number of primitive shell pairs         114595
 maxK2 (contraction) of shell pair           36
 max number of K2 of shell pair               1
 max number of CS2 of shell pair           7221
 max number of PS2 of shell pair          34704
 mem total for path MDJ                 1508200
 -------------------------------------------------------
 Smallest overlap matrix eigenvalue = 2.36E-04

 Scale SEOQF with 1.000000e-02/1.000000e-02/1.000000e-02

 Standard Electronic Orientation quadrupole field applied
 Nucleus-field energy     =     0.0000001147 hartrees
 Guess from superposition of atomic densities
 Warning:  Energy on first SCF cycle will be non-variational
 A restricted hybrid HF-DFT SCF calculation will be
 performed using Pulay DIIS extrapolation
 Exchange:     0.2000 Hartree-Fock + 0.0800 Slater + 0.7200 B88
 Correlation:  0.1900 VWN1RPA + 0.8100 LYP
 Using SG-1 standard quadrature grid
 SCF converges when DIIS error is below 1.0E-05
 using 16 threads for integral computing 
 -------------------------------------------------------
 OpenMP BLAS3 based DFT computing Module                
 Release: version 1.0, May 2013, Q-Chem Inc. Pittsburgh 
 -------------------------------------------------------
 ---------------------------------------
  Cycle       Energy         DIIS Error
 ---------------------------------------
    1   -5858.3846542414      1.83E-02
    2   -5803.1254398748      1.29E-03
    3   -5802.3174958168      1.80E-03
    4   -5803.9392216344      6.79E-04
    5   -5804.1983876749      3.17E-04
    6   -5804.2658259239      1.35E-04
    7   -5804.2772747617      5.22E-05
    8   -5804.2783840514      3.49E-05
    9   -5804.2793063367      1.01E-05
   10   -5804.2793067450      3.02E-06 Convergence criterion met
 ---------------------------------------
 SCF time:  CPU 7792.85 s  wall 899.26 s
 SCF   energy in the final basis set = -5804.2793067450
 Total energy in the final basis set = -5804.2793067450
 
 --------------------------------------------------------------
 
                    Orbital Energies (a.u.)
 --------------------------------------------------------------
 
 Alpha MOs
 -- Occupied --
-19.190 -19.188 -19.141 -19.127 -10.317 -10.311 -10.246 -10.245
-10.242 -10.240 -10.237 -10.236 -10.236 -10.235 -10.234 -10.231
-10.231 -10.230 -10.229 -10.229 -10.226 -10.226 -10.225 -10.225
-10.225 -10.224 -10.224 -10.223 -10.222 -10.221 -10.221 -10.221
-10.221 -10.221 -10.221 -10.220 -10.220 -10.220 -10.220 -10.220
-10.219 -10.219 -10.219 -10.219 -10.219 -10.218 -10.218 -10.218
-10.218 -10.218 -10.218 -10.218 -10.218 -10.218 -10.218 -10.217
-10.217 -10.217 -10.217 -10.217 -10.217 -10.216 -10.216 -10.216
-10.216 -10.216 -10.216 -10.215 -10.215 -10.215 -10.215 -10.215
-10.215 -10.215 -10.215 -10.215 -10.214 -10.214 -10.214 -10.214
-10.214 -10.214 -10.214 -10.214 -10.214 -10.214 -10.213 -10.213
-10.213 -10.212 -10.212 -10.212 -10.212 -10.212 -10.212 -10.212
-10.212 -10.212 -10.212 -10.212 -10.211 -10.211 -10.211 -10.211
-10.211 -10.211 -10.211 -10.211 -10.210 -10.210 -10.210 -10.210
-10.210 -10.210 -10.210 -10.210 -10.210 -10.210 -10.209 -10.209
-10.209 -10.209 -10.209 -10.209 -10.208 -10.208 -10.208 -10.208
-10.207 -10.206 -10.206 -10.205 -10.204 -10.204 -10.204 -10.203
-10.203 -10.203 -10.203 -10.202 -10.201 -10.198 -10.198 -10.197
-10.197 -10.194 -10.193 -10.192  -1.088  -1.087  -1.016  -0.998
 -0.984  -0.983  -0.966  -0.964  -0.963  -0.962  -0.962  -0.961
 -0.937  -0.934  -0.929  -0.927  -0.926  -0.925  -0.924  -0.923
 -0.921  -0.920  -0.901  -0.896  -0.893  -0.889  -0.884  -0.882
 -0.874  -0.874  -0.856  -0.853  -0.844  -0.842  -0.839  -0.839
 -0.837  -0.836  -0.822  -0.820  -0.810  -0.805  -0.799  -0.798
 -0.796  -0.795  -0.795  -0.793  -0.793  -0.790  -0.784  -0.783
 -0.772  -0.772  -0.770  -0.769  -0.768  -0.765  -0.762  -0.762
 -0.752  -0.752  -0.742  -0.740  -0.733  -0.730  -0.718  -0.717
 -0.715  -0.714  -0.713  -0.712  -0.711  -0.710  -0.710  -0.708
 -0.708  -0.706  -0.706  -0.704  -0.701  -0.697  -0.675  -0.674
 -0.661  -0.660  -0.657  -0.655  -0.648  -0.644  -0.635  -0.632
 -0.629  -0.628  -0.624  -0.624  -0.621  -0.621  -0.618  -0.617
 -0.617  -0.615  -0.614  -0.614  -0.613  -0.611  -0.610  -0.609
 -0.607  -0.607  -0.603  -0.601  -0.566  -0.564  -0.563  -0.562
 -0.561  -0.560  -0.559  -0.558  -0.557  -0.555  -0.553  -0.551
 -0.538  -0.536  -0.535  -0.533  -0.530  -0.528  -0.528  -0.525
 -0.525  -0.523  -0.519  -0.519  -0.516  -0.515  -0.514  -0.514
 -0.506  -0.506  -0.502  -0.499  -0.492  -0.491  -0.488  -0.487
 -0.486  -0.484  -0.482  -0.480  -0.480  -0.478  -0.478  -0.476
 -0.472  -0.471  -0.470  -0.469  -0.468  -0.467  -0.466  -0.466
 -0.465  -0.464  -0.463  -0.463  -0.460  -0.460  -0.459  -0.458
 -0.457  -0.454  -0.452  -0.450  -0.449  -0.448  -0.444  -0.444
 -0.443  -0.442  -0.441  -0.439  -0.439  -0.436  -0.436  -0.434
 -0.433  -0.431  -0.430  -0.429  -0.427  -0.426  -0.426  -0.426
 -0.424  -0.424  -0.423  -0.422  -0.421  -0.420  -0.420  -0.419
 -0.418  -0.417  -0.416  -0.415  -0.414  -0.413  -0.413  -0.412
 -0.411  -0.410  -0.410  -0.407  -0.403  -0.399  -0.396  -0.394
 -0.394  -0.393  -0.392  -0.392  -0.391  -0.387  -0.386  -0.384
 -0.382  -0.379  -0.373  -0.373  -0.370  -0.370  -0.368  -0.368
 -0.365  -0.363  -0.363  -0.362  -0.360  -0.360  -0.359  -0.359
 -0.358  -0.357  -0.357  -0.354  -0.354  -0.354  -0.353  -0.353
 -0.351  -0.350  -0.348  -0.347  -0.346  -0.345  -0.344  -0.344
 -0.341  -0.341  -0.340  -0.340  -0.339  -0.337  -0.335  -0.334
 -0.334  -0.332  -0.330  -0.329  -0.329  -0.327  -0.325  -0.323
 -0.318  -0.314  -0.301  -0.290  -0.288  -0.282  -0.273  -0.272
 -0.271  -0.271  -0.268  -0.267  -0.265  -0.265  -0.263  -0.263
 -0.262  -0.261  -0.259  -0.259  -0.258  -0.258  -0.256  -0.254
 -0.251  -0.248  -0.247  -0.246  -0.222  -0.218  -0.214  -0.213
 -0.210  -0.209  -0.207  -0.206  -0.203  -0.196
 -- Virtual --
 -0.125  -0.122  -0.119  -0.116  -0.111  -0.111  -0.080  -0.077
 -0.073  -0.072  -0.062  -0.060  -0.056  -0.052  -0.028  -0.023
 -0.022  -0.020  -0.019  -0.018  -0.016  -0.016  -0.015  -0.014
 -0.013  -0.011  -0.010  -0.008  -0.008  -0.002   0.000   0.008
  0.009   0.011   0.033   0.036   0.039   0.042   0.044   0.048
  0.051   0.052   0.052   0.055   0.061   0.064   0.067   0.067
  0.069   0.074   0.079   0.082   0.082   0.086   0.087   0.089
  0.092   0.094   0.097   0.100   0.101   0.103   0.104   0.107
  0.109   0.110   0.110   0.113   0.115   0.116   0.120   0.123
  0.125   0.126   0.126   0.128   0.131   0.132   0.133   0.137
  0.138   0.141   0.144   0.145   0.147   0.151   0.152   0.155
  0.157   0.158   0.160   0.161   0.161   0.166   0.167   0.168
  0.168   0.174   0.176   0.177   0.178   0.178   0.181   0.182
  0.183   0.183   0.186   0.186   0.187   0.188   0.191   0.191
  0.195   0.197   0.198   0.200   0.200   0.201   0.203   0.205
  0.207   0.208   0.211   0.213   0.214   0.216   0.216   0.217
  0.219   0.220   0.222   0.223   0.224   0.225   0.226   0.227
  0.229   0.229   0.232   0.235   0.236   0.237   0.240   0.241
  0.242   0.243   0.245   0.246   0.247   0.252   0.253   0.259
  0.261   0.264   0.268   0.273   0.274   0.275   0.276   0.280
  0.281   0.282   0.286   0.287   0.291   0.294   0.302   0.304
  0.305   0.308   0.309   0.312   0.314   0.316   0.316   0.318
  0.319   0.320   0.323   0.324   0.324   0.326   0.331   0.331
  0.332   0.338   0.339   0.344   0.345   0.346   0.349   0.350
  0.353   0.356   0.363   0.364   0.369   0.375   0.382   0.383
  0.389   0.391   0.395   0.398   0.402   0.404   0.404   0.406
  0.408   0.411   0.413   0.414   0.416   0.416   0.419   0.420
  0.425   0.427   0.430   0.433   0.434   0.441   0.444   0.444
  0.448   0.451   0.451   0.451   0.454   0.458   0.459   0.460
  0.461   0.462   0.466   0.467   0.470   0.471   0.472   0.474
  0.476   0.476   0.478   0.479   0.481   0.482   0.483   0.484
  0.485   0.486   0.486   0.487   0.488   0.489   0.491   0.493
  0.495   0.496   0.497   0.498   0.500   0.502   0.503   0.504
  0.504   0.505   0.506   0.507   0.507   0.509   0.510   0.511
  0.512   0.513   0.514   0.515   0.516   0.517   0.517   0.518
  0.519   0.520   0.520   0.521   0.522   0.523   0.524   0.525
  0.525   0.527   0.527   0.529   0.530   0.530   0.530   0.531
  0.533   0.533   0.534   0.535   0.536   0.536   0.538   0.538
  0.539   0.540   0.540   0.541   0.543   0.544   0.545   0.546
  0.547   0.548   0.548   0.549   0.550   0.550   0.551   0.552
  0.552   0.553   0.554   0.554   0.555   0.556   0.557   0.557
  0.559   0.559   0.561   0.561   0.562   0.563   0.563   0.564
  0.565   0.566   0.567   0.567   0.568   0.570   0.571   0.571
  0.572   0.573   0.573   0.574   0.576   0.577   0.578   0.578
  0.579   0.581   0.581   0.582   0.582   0.583   0.584   0.585
  0.586   0.586   0.587   0.588   0.588   0.590   0.590   0.591
  0.591   0.592   0.592   0.594   0.595   0.597   0.597   0.598
  0.599   0.600   0.601   0.602   0.603   0.604   0.606   0.606
  0.608   0.608   0.610   0.613   0.613   0.616   0.616   0.616
  0.617   0.618   0.620   0.621   0.622   0.623   0.624   0.627
  0.627   0.628   0.630   0.630   0.630   0.631   0.632   0.633
  0.634   0.635   0.636   0.637   0.638   0.639   0.640   0.641
  0.641   0.643   0.645   0.646   0.647   0.648   0.649   0.649
  0.651   0.651   0.652   0.652   0.653   0.654   0.656   0.657
  0.658   0.659   0.659   0.660   0.661   0.661   0.663   0.663
  0.664   0.665   0.666   0.667   0.667   0.667   0.669   0.670
  0.670   0.671   0.672   0.673   0.675   0.676   0.676   0.678
  0.678   0.679   0.681   0.682   0.684   0.685   0.685   0.686
  0.688   0.690   0.690   0.692   0.694   0.695   0.695   0.697
  0.698   0.699   0.700   0.701   0.704   0.704   0.705   0.706
  0.707   0.708   0.709   0.710   0.710   0.713   0.715   0.716
  0.717   0.718   0.719   0.721   0.721   0.723   0.723   0.725
  0.727   0.728   0.729   0.730   0.730   0.732   0.733   0.734
  0.736   0.737   0.738   0.740   0.742   0.743   0.744   0.747
  0.747   0.749   0.751   0.752   0.753   0.754   0.755   0.755
  0.757   0.758   0.761   0.762   0.762   0.764   0.764   0.766
  0.767   0.768   0.769   0.770   0.771   0.773   0.774   0.775
  0.778   0.778   0.780   0.782   0.783   0.785   0.786   0.789
  0.790   0.790   0.792   0.793   0.794   0.795   0.795   0.796
  0.797   0.798   0.799   0.800   0.802   0.803   0.804   0.805
  0.806   0.806   0.806   0.807   0.808   0.810   0.810   0.811
  0.812   0.813   0.814   0.815   0.816   0.816   0.817   0.818
  0.819   0.820   0.821   0.822   0.824   0.824   0.825   0.826
  0.827   0.828   0.830   0.831   0.833   0.836   0.837   0.838
  0.839   0.842   0.844   0.845   0.847   0.848   0.852   0.853
  0.854   0.858   0.862   0.862   0.864   0.867   0.869   0.875
  0.875   0.878   0.878   0.882   0.884   0.887   0.889   0.890
  0.890   0.896   0.901   0.904   0.906   0.907   0.909   0.910
  0.911   0.915   0.917   0.919   0.921   0.923   0.925   0.927
  0.928   0.929   0.931   0.932   0.933   0.936   0.938   0.939
  0.941   0.943   0.945   0.947   0.948   0.951   0.952   0.953
  0.955   0.956   0.958   0.959   0.962   0.964   0.966   0.968
  0.973   0.976   0.979   0.983   0.986   0.987   0.990   0.994
  0.995   0.999   0.999   1.000   1.001   1.005   1.006   1.009
  1.010   1.011   1.013   1.015   1.016   1.017   1.018   1.019
  1.022   1.023   1.025   1.027   1.028   1.029   1.032   1.033
  1.036   1.036   1.040   1.040   1.042   1.044   1.046   1.047
  1.048   1.049   1.051   1.052   1.055   1.058   1.059   1.060
  1.061   1.062   1.064   1.067   1.068   1.069   1.070   1.072
  1.074   1.076   1.078   1.079   1.080   1.082   1.083   1.085
  1.088   1.089   1.091   1.092   1.094   1.096   1.096   1.098
  1.101   1.101   1.103   1.104   1.106   1.109   1.110   1.114
  1.116   1.118   1.120   1.123   1.127   1.128   1.129   1.130
  1.132   1.133   1.135   1.140   1.141   1.144   1.145   1.149
  1.151   1.151   1.154   1.155   1.157   1.158   1.159   1.162
  1.162   1.164   1.165   1.168   1.170   1.172   1.172   1.173
  1.175   1.177   1.179   1.180   1.181   1.183   1.184   1.188
  1.189   1.190   1.195   1.197   1.199   1.201   1.203   1.205
  1.208   1.210   1.213   1.216   1.219   1.220   1.222   1.228
  1.230   1.230   1.235   1.237   1.243   1.245   1.247   1.248
  1.249   1.250   1.252   1.253   1.256   1.258   1.260   1.261
  1.262   1.265   1.269   1.271   1.271   1.273   1.275   1.278
  1.280   1.282   1.284   1.286   1.287   1.289   1.290   1.292
  1.292   1.296   1.299   1.300   1.304   1.307   1.309   1.312
  1.314   1.316   1.317   1.319   1.321   1.324   1.325   1.333
  1.334   1.336   1.337   1.339   1.343   1.344   1.345   1.349
  1.350   1.351   1.352   1.356   1.359   1.360   1.366   1.366
  1.369   1.369   1.372   1.372   1.375   1.380   1.382   1.386
  1.387   1.389   1.392   1.395   1.399   1.399   1.402   1.404
  1.406   1.410   1.412   1.415   1.417   1.420   1.426   1.431
  1.433   1.434   1.435   1.438   1.445   1.448   1.449   1.453
  1.454   1.456   1.458   1.460   1.464   1.465   1.466   1.468
  1.468   1.470   1.473   1.475   1.477   1.478   1.480   1.481
  1.484   1.486   1.488   1.489   1.492   1.498   1.501   1.504
  1.505   1.507   1.509   1.512   1.513   1.515   1.518   1.519
  1.523   1.525   1.528   1.530   1.531   1.537   1.538   1.539
  1.543   1.544   1.548   1.551   1.552   1.554   1.557   1.560
  1.562   1.563   1.564   1.566   1.568   1.571   1.575   1.576
  1.577   1.580   1.582   1.584   1.586   1.587   1.590   1.591
  1.593   1.597   1.599   1.605   1.608   1.614   1.615   1.619
  1.624   1.626   1.630   1.631   1.632   1.635   1.638   1.645
  1.647   1.650   1.655   1.655   1.660   1.662   1.665   1.674
  1.675   1.679   1.682   1.685   1.688   1.690   1.694   1.695
  1.696   1.699   1.702   1.706   1.709   1.711   1.713   1.715
  1.718   1.721   1.723   1.724   1.727   1.728   1.729   1.731
  1.734   1.735   1.737   1.740   1.742   1.744   1.744   1.745
  1.746   1.749   1.750   1.751   1.752   1.754   1.756   1.759
  1.759   1.761   1.763   1.765   1.766   1.767   1.769   1.770
  1.772   1.772   1.774   1.775   1.776   1.777   1.778   1.779
  1.780   1.781   1.782   1.783   1.785   1.786   1.787   1.790
  1.790   1.791   1.791   1.792   1.793   1.794   1.796   1.797
  1.797   1.800   1.800   1.802   1.804   1.804   1.806   1.809
  1.809   1.810   1.811   1.816   1.818   1.820   1.822   1.824
  1.825   1.826   1.829   1.831   1.833   1.835   1.837   1.839
  1.841   1.843   1.847   1.850   1.851   1.853   1.853   1.858
  1.862   1.863   1.864   1.864   1.868   1.870   1.872   1.872
  1.875   1.876   1.876   1.877   1.879   1.881   1.883   1.890
  1.891   1.894   1.896   1.899   1.902   1.902   1.904   1.906
  1.907   1.911   1.912   1.913   1.914   1.917   1.919   1.920
  1.923   1.925   1.927   1.929   1.931   1.934   1.936   1.938
  1.939   1.941   1.944   1.944   1.946   1.948   1.952   1.952
  1.954   1.955   1.958   1.960   1.963   1.964   1.967   1.971
  1.972   1.972   1.974   1.974   1.978   1.980   1.984   1.985
  1.987   1.988   1.990   1.991   1.993   1.995   1.995   1.998
  1.998   1.999   2.001   2.003   2.005   2.006   2.008   2.009
  2.011   2.011   2.013   2.015   2.016   2.017   2.018   2.018
  2.019   2.020   2.021   2.022   2.023   2.024   2.025   2.027
  2.028   2.029   2.031   2.032   2.032   2.034   2.035   2.037
  2.037   2.038   2.039   2.041   2.044   2.044   2.045   2.046
  2.048   2.049   2.050   2.051   2.052   2.053   2.053   2.055
  2.056   2.056   2.060   2.060   2.061   2.062   2.062   2.063
  2.066   2.068   2.069   2.069   2.071   2.072   2.073   2.077
  2.077   2.077   2.079   2.083   2.085   2.086   2.087   2.091
  2.091   2.093   2.094   2.096   2.098   2.099   2.101   2.103
  2.105   2.108   2.111   2.111   2.115   2.116   2.118   2.119
  2.125   2.127   2.131   2.133   2.135   2.140   2.142   2.144
  2.147   2.152   2.154   2.158   2.159   2.166   2.168   2.172
  2.173   2.176   2.185   2.187   2.191   2.193   2.197   2.198
  2.201   2.202   2.208   2.210   2.212   2.216   2.217   2.224
  2.227   2.229   2.232   2.234   2.234   2.240   2.243   2.248
  2.249   2.249   2.251   2.254   2.256   2.257   2.260   2.261
  2.264   2.266   2.269   2.270   2.271   2.278   2.279   2.283
  2.285   2.287   2.290   2.291   2.292   2.294   2.295   2.295
  2.298   2.302   2.304   2.305   2.309   2.311   2.313   2.314
  2.318   2.320   2.320   2.324   2.327   2.328   2.332   2.337
  2.338   2.340   2.342   2.344   2.349   2.351   2.354   2.357
  2.358   2.361   2.363   2.363   2.364   2.367   2.369   2.370
  2.371   2.372   2.375   2.376   2.377   2.379   2.381   2.382
  2.384   2.388   2.391   2.392   2.393   2.393   2.396   2.397
  2.398   2.401   2.403   2.403   2.406   2.407   2.409   2.411
  2.412   2.415   2.415   2.417   2.418   2.420   2.422   2.426
  2.430   2.431   2.434   2.436   2.440   2.443   2.445   2.446
  2.447   2.451   2.451   2.455   2.456   2.458   2.459   2.461
  2.462   2.463   2.467   2.468   2.470   2.472   2.475   2.477
  2.478   2.480   2.484   2.486   2.488   2.488   2.490   2.491
  2.494   2.495   2.495   2.496   2.500   2.502   2.504   2.504
  2.507   2.509   2.511   2.513   2.517   2.518   2.520   2.523
  2.525   2.529   2.532   2.533   2.536   2.537   2.539   2.540
  2.543   2.544   2.547   2.549   2.552   2.558   2.558   2.562
  2.564   2.569   2.574   2.576   2.580   2.581   2.582   2.585
  2.586   2.588   2.590   2.593   2.597   2.598   2.601   2.603
  2.606   2.608   2.610   2.611   2.612   2.614   2.617   2.620
  2.620   2.621   2.625   2.626   2.629   2.632   2.633   2.635
  2.636   2.637   2.638   2.640   2.641   2.643   2.646   2.647
  2.648   2.649   2.652   2.653   2.654   2.655   2.657   2.658
  2.658   2.659   2.663   2.663   2.667   2.669   2.671   2.673
  2.674   2.677   2.678   2.680   2.681   2.683   2.684   2.687
  2.691   2.692   2.696   2.697   2.701   2.702   2.703   2.706
  2.707   2.711   2.713   2.717   2.717   2.720   2.722   2.723
  2.727   2.728   2.730   2.734   2.735   2.737   2.743   2.744
  2.746   2.747   2.749   2.751   2.753   2.756   2.756   2.761
  2.763   2.765   2.765   2.767   2.771   2.774   2.774   2.777
  2.777   2.782   2.782   2.784   2.786   2.789   2.793   2.797
  2.799   2.802   2.802   2.806   2.809   2.811   2.812   2.819
  2.820   2.823   2.827   2.827   2.837   2.838   2.839   2.841
  2.842   2.847   2.848   2.850   2.852   2.856   2.859   2.861
  2.862   2.863   2.866   2.868   2.870   2.873   2.874   2.877
  2.878   2.880   2.881   2.883   2.887   2.889   2.890   2.892
  2.893   2.894   2.896   2.901   2.901   2.903   2.905   2.905
  2.907   2.908   2.911   2.912   2.914   2.917   2.917   2.919
  2.921   2.922   2.925   2.926   2.930   2.930   2.932   2.936
  2.937   2.938   2.940   2.942   2.943   2.944   2.947   2.954
  2.957   2.959   2.961   2.964   2.965   2.972   2.975   2.976
  2.980   2.984   2.985   2.986   2.992   2.995   2.999   3.004
  3.006   3.007   3.010   3.014   3.014   3.016   3.021   3.025
  3.030   3.033   3.034   3.038   3.039   3.041   3.041   3.045
  3.046   3.050   3.051   3.053   3.055   3.057   3.058   3.062
  3.064   3.069   3.071   3.076   3.079   3.087   3.098   3.104
  3.118   3.119   3.124   3.131   3.133   3.136   3.139   3.141
  3.153   3.154   3.161   3.169   3.171   3.177   3.181   3.190
  3.192   3.197   3.209   3.221   3.228   3.235   3.240   3.245
  3.250   3.253   3.257   3.259   3.264   3.271   3.273   3.278
  3.280   3.285   3.298   3.315   3.319   3.320   3.322   3.325
  3.328   3.332   3.339   3.341   3.343   3.347   3.376   3.378
  3.395   3.411   3.418   3.421   3.423   3.427   3.438   3.439
  3.449   3.453   3.455   3.465   3.468   3.473   3.491   3.497
  3.499   3.500   3.503   3.511   3.517   3.527   3.529   3.541
  3.543   3.548   3.557   3.564   3.572   3.577   3.589   3.597
  3.600   3.632   3.680   3.693   3.839   3.865   4.000   4.019
  4.062   4.072   4.075   4.086   4.088   4.091   4.095   4.097
  4.100   4.104   4.106   4.108   4.113   4.115   4.121   4.126
  4.129   4.132   4.134   4.135   4.141   4.142   4.143   4.150
  4.154   4.155   4.159   4.162   4.170   4.172   4.178   4.180
  4.189   4.193   4.201   4.210   4.211   4.224   4.233   4.238
  4.240   4.248   4.249   4.250   4.253   4.259   4.261   4.265
  4.269   4.272   4.277   4.278   4.284   4.293   4.299   4.302
  4.308   4.313   4.325   4.340   4.379   4.383   4.383   4.395
  4.396   4.399   4.401   4.404   4.407   4.410   4.411   4.419
  4.423   4.426   4.427   4.433   4.453   4.461   4.474   4.475
  4.477   4.497   4.498   4.502   4.532   4.535   4.547   4.549
  4.556   4.565   4.604   4.610   4.624   4.628   4.633   4.637
  4.642   4.655   4.673   4.686   4.691   4.692   4.695   4.698
  4.700   4.703   4.706   4.712   4.741   4.744   4.804   4.815
  4.835   4.854   4.863   4.865   4.866   4.873   4.878   4.891
  4.900   4.905   4.942   4.961   4.963   4.963   4.970   4.974
  4.983   4.995   4.997   5.010   5.150   5.158   5.169   5.182
  5.188   5.200   5.205   5.227   5.305   5.320   5.323   5.336
  5.342   5.377
 --------------------------------------------------------------
 
          Ground-State Mulliken Net Atomic Charges

     Atom                 Charge (a.u.)
  ----------------------------------------
      1 O                    -0.473956
      2 C                    -0.086919
      3 H                     0.122480
      4 H                     0.125400
      5 H                     0.136297
      6 O                    -0.483195
      7 C                     0.595072
      8 C                    -0.252898
      9 H                     0.135701
     10 H                     0.137662
     11 C                    -0.190519
     12 H                     0.104767
     13 H                     0.117033
     14 C                    -0.174112
     15 H                     0.119605
     16 H                     0.109842
     17 C                     0.013001
     18 C                     0.091124
     19 C                    -0.082735
     20 H                     0.094020
     21 C                    -0.096701
     22 H                     0.082757
     23 C                    -0.079523
     24 H                     0.092813
     25 C                    -0.098186
     26 H                     0.095790
     27 C                    -0.117366
     28 H                     0.092002
     29 C                    -0.028042
     30 C                    -0.015075
     31 C                    -0.014094
     32 C                    -0.002277
     33 C                     0.007318
     34 C                     0.069741
     35 C                    -0.021327
     36 C                    -0.012196
     37 C                    -0.013699
     38 C                    -0.000532
     39 C                    -0.072089
     40 C                     0.021569
     41 C                    -0.032574
     42 C                     0.014249
     43 C                    -0.009320
     44 C                     0.002615
     45 C                    -0.100398
     46 C                     0.008330
     47 C                    -0.011808
     48 C                     0.003080
     49 C                    -0.036576
     50 C                    -0.001940
     51 C                    -0.006807
     52 C                    -0.005870
     53 C                     0.024073
     54 C                     0.004576
     55 C                     0.001486
     56 C                    -0.016380
     57 C                    -0.013065
     58 C                     0.015286
     59 C                     0.014766
     60 C                     0.006139
     61 C                    -0.011870
     62 C                     0.006181
     63 C                     0.007663
     64 C                     0.021043
     65 C                     0.024903
     66 C                     0.003168
     67 C                     0.001323
     68 C                     0.027284
     69 C                    -0.013343
     70 C                     0.012766
     71 C                    -0.017256
     72 C                     0.023360
     73 C                    -0.001083
     74 C                    -0.019913
     75 C                    -0.021920
     76 C                     0.004067
     77 C                     0.043875
     78 C                     0.014122
     79 C                     0.001127
     80 C                    -0.032566
     81 C                     0.014390
     82 C                    -0.020935
     83 C                    -0.002993
     84 C                    -0.007439
     85 C                    -0.024619
     86 C                    -0.007091
     87 C                     0.027004
     88 C                     0.034781
     89 O                    -0.478854
     90 C                    -0.082513
     91 H                     0.125240
     92 H                     0.129469
     93 H                     0.130278
     94 O                    -0.464475
     95 C                     0.591337
     96 C                    -0.277178
     97 H                     0.137092
     98 H                     0.139161
     99 C                    -0.173561
    100 H                     0.110838
    101 H                     0.135593
    102 C                    -0.183233
    103 H                     0.116125
    104 H                     0.111290
    105 C                    -0.009574
    106 C                     0.075978
    107 C                    -0.100599
    108 H                     0.090837
    109 C                    -0.092065
    110 H                     0.095494
    111 C                    -0.080243
    112 H                     0.090849
    113 C                    -0.093663
    114 H                     0.086282
    115 C                    -0.098560
    116 H                     0.097643
    117 C                    -0.014872
    118 C                     0.011959
    119 C                     0.000022
    120 C                     0.004536
    121 C                    -0.018534
    122 C                    -0.031160
    123 C                    -0.008233
    124 C                    -0.013318
    125 C                    -0.000031
    126 C                    -0.007958
    127 C                    -0.084625
    128 C                     0.006195
    129 C                     0.014257
    130 C                     0.015521
    131 C                    -0.005712
    132 C                    -0.002442
    133 C                    -0.077063
    134 C                     0.023216
    135 C                     0.037175
    136 C                    -0.018942
    137 C                    -0.004735
    138 C                     0.024133
    139 C                    -0.024990
    140 C                     0.025097
    141 C                     0.021402
    142 C                    -0.006908
    143 C                     0.025799
    144 C                     0.006469
    145 C                     0.000860
    146 C                     0.005460
    147 C                    -0.011458
    148 C                     0.018653
    149 C                     0.014720
    150 C                    -0.018345
    151 C                    -0.000782
    152 C                     0.016177
    153 C                    -0.020606
    154 C                    -0.003289
    155 C                    -0.025706
    156 C                    -0.042890
    157 C                     0.055269
    158 C                     0.012070
    159 C                     0.005225
    160 C                     0.021778
    161 C                    -0.002124
    162 C                    -0.045708
    163 C                    -0.004496
    164 C                     0.042959
    165 C                    -0.014727
    166 C                    -0.027769
    167 C                    -0.018981
    168 C                     0.047029
    169 C                     0.032222
    170 C                    -0.010171
    171 C                     0.029101
    172 C                    -0.013714
    173 C                    -0.002601
    174 C                    -0.018752
    175 C                    -0.031538
    176 C                    -0.007555
  ----------------------------------------
  Sum of atomic charges =     0.000000

 -----------------------------------------------------------------
                    Cartesian Multipole Moments
 -----------------------------------------------------------------
    Charge (ESU x 10^10)
                 0.0000
    Dipole Moment (Debye)
         X      -0.1991      Y      -1.7826      Z       3.3519
       Tot       3.8017
    Quadrupole Moments (Debye-Ang)
        XX    -774.9239     XY     -16.8699     YY    -812.5562
        XZ     -38.1342     YZ      -2.3354     ZZ    -791.9963
    Octopole Moments (Debye-Ang^2)
       XXX    -118.3779    XXY    -371.5519    XYY       9.3415
       YYY     -68.6604    XXZ     467.7511    XYZ     -23.3885
       YYZ      61.8607    XZZ    -140.7266    YZZ     -93.7992
       ZZZ     127.7278
    Hexadecapole Moments (Debye-Ang^3)
      XXXX -172974.9445   XXXY   -2088.1606   XXYY  -33337.0039
      XYYY    -971.1646   YYYY  -34006.6669   XXXZ   -6415.9155
      XXYZ     342.9990   XYYZ    -309.2700   YYYZ    -221.7812
      XXZZ  -32495.3329   XYZZ    -525.6877   YYZZ   -9690.4827
      XZZZ   -1298.2919   YZZZ      29.2339   ZZZZ  -25944.7763
 -----------------------------------------------------------------
Archival summary:
1\1\mn366\SP\ProcedureUnspecified\6-31G**\428\afmv_a\TueOct913:35:082018TueOct913:35:082018\0\\#,ProcedureUnspecified,6-31G**,\\0,1\O\C,1,1.3694\O,2,1.23155,1,122.167\C,1,1.43252,2,120.169,3,6.31248,0\H,4,1.09704,1,112.707,2,-36.1385,0\H,4,1.0972,1,107.081,2,72.6684,0\H,4,1.09729,1,105.484,2,-160.834,0\C,2,1.50564,1,116.935,3,178.336,0\H,8,1.09582,2,105.316,1,74.7814,0\H,8,1.0974,2,108.53,1,-161.45,0\C,8,1.54545,2,109.907,1,-39.88,0\H,11,1.09649,8,107.893,2,73.3137,0\H,11,1.09683,8,102.971,2,-170.504,0\C,11,1.49376,8,118.366,2,-50.8177,0\H,14,1.09664,11,114.455,8,55.5372,0\H,14,1.09749,11,110.439,8,-60.9167,0\C,14,1.54164,11,110.827,8,175.987,0\C,17,1.46583,14,117.867,11,-135.988,0\C,17,1.48703,14,114.867,11,88.0209,0\C,19,1.38806,17,122.082,14,75.3925,0\H,20,1.08592,19,121.597,17,10.3256,0\C,19,1.41467,17,118.112,14,-93.9025,0\H,22,1.08538,19,115.434,17,-7.92097,0\C,22,1.34388,19,118.927,17,177.571,0\H,24,1.08563,22,119.159,19,-172.702,0\C,24,1.40763,22,124.307,19,-4.72068,0\H,26,1.08556,24,120.61,22,-176.172,0\C,26,1.39742,24,117.826,22,-0.486155,0\H,28,1.08659,26,116.044,24,170.614,0\C,17,1.49803,14,116.988,11,-64.9159,0\C,30,1.51909,17,133.067,14,-5.60737,0\C,31,1.38697,30,110.024,17,150.581,0\C,32,1.41233,31,110.863,30,6.24519,0\C,31,1.41509,30,119.129,17,-64.2276,0\C,34,1.3833,31,121.253,30,-8.30069,0\C,34,1.39527,31,119.902,30,-149.652,0\C,36,1.39851,34,108.74,31,149.839,0\C,37,1.39552,36,106.146,34,-4.9933,0\C,38,1.38674,37,120.233,36,-143.058,0\C,39,1.3782,38,119.581,37,136.451,0\C,40,1.37868,39,112.658,38,-140.083,0\C,41,1.38424,40,118.914,39,146.354,0\C,33,1.41585,32,107.501,31,0.741241,0\C,41,1.41671,40,104.899,39,1.81062,0\C,44,1.39962,41,110.089,40,-2.45303,0\C,45,1.37391,44,116.183,41,139.087,0\C,46,1.34762,45,122.873,44,-2.3762,0\C,47,1.40225,46,121.847,45,7.99063,0\C,48,1.39051,47,116.704,46,-10.6424,0\C,49,1.4054,48,109.962,47,-140.092,0\C,50,1.37345,49,106.139,48,0.35231,0\C,51,1.39633,50,120.275,49,142.549,0\C,52,1.38234,51,121.611,50,-138.555,0\C,50,1.39931,49,123.211,48,144.596,0\C,54,1.37916,50,121.31,49,-137.268,0\C,55,1.383,54,120.336,50,1.03594,0\C,56,1.36867,55,123.206,54,134.114,0\C,57,1.39134,56,109.889,55,-144.081,0\C,47,1.40654,46,113.154,45,-146.155,0\C,59,1.39757,47,105.137,46,6.67289,0\C,60,1.3856,59,107.466,47,-2.99267,0\C,53,1.40833,52,119.815,51,-0.0793341,0\C,62,1.34965,53,122.552,52,3.11136,0\C,63,1.35132,62,116.84,53,140.948,0\C,64,1.40131,63,106.041,62,-2.62004,0\C,65,1.39483,64,122.104,63,-138.688,0\C,66,1.39252,65,121.054,64,-5.76374,0\C,67,1.37079,66,106.169,65,144.845,0\C,68,1.38101,67,110.83,66,1.26811,0\C,66,1.39339,65,119.951,64,137.048,0\C,70,1.41227,66,121.446,65,-2.85903,0\C,71,1.38136,70,121.309,66,3.00973,0\C,72,1.38434,71,109.004,70,-146.584,0\C,71,1.40263,70,121.484,66,-139.94,0\C,74,1.37419,71,106.977,70,144.84,0\C,75,1.37841,74,118.097,71,-143.583,0\C,76,1.40689,75,120.919,74,3.28479,0\C,48,1.41607,47,120.409,46,-143.947,0\C,76,1.42225,75,117.836,74,130.439,0\C,79,1.37777,76,111.742,75,-140.077,0\C,80,1.33277,79,109.362,76,-0.825844,0\C,80,1.41629,79,119.089,76,152.813,0\C,82,1.35304,80,115.826,79,-138.429,0\C,83,1.36123,82,122.227,80,-4.29491,0\C,35,1.42558,34,125.099,31,1.55878,0\C,85,1.40511,35,117.98,34,-132.006,0\C,84,1.42689,83,122.668,82,-5.91144,0\C,62,1.43024,53,119.17,52,131.782,0\C,61,2.9537,60,114.108,59,-117.393,0\C,89,1.39764,61,94.0271,60,174.086,0\C,90,1.40893,89,119.626,61,115.608,0\C,91,1.39595,90,121.677,89,2.54986,0\C,89,1.41368,61,111.361,60,-60.3639,0\C,93,1.40095,89,121.618,61,110.435,0\C,93,1.41657,89,118.607,61,-109.952,0\C,95,1.36737,93,107.697,89,-140.735,0\C,96,1.37627,95,121.686,93,147.597,0\C,96,1.39762,95,109.031,93,-4.34743,0\C,98,1.39679,96,119.468,95,143.206,0\C,92,1.41783,91,109.307,90,139.627,0\C,100,1.41075,92,105.797,91,-0.4362,0\C,101,1.4126,100,110.357,92,3.88984,0\C,99,1.42236,98,120.898,96,-133.659,0\C,103,1.38978,99,107.583,98,142.21,0\C,104,1.40128,103,108.461,99,0.0827911,0\C,105,1.35907,104,109.338,103,0.283213,0\C,106,1.37976,105,120.254,104,-140.637,0\C,103,1.41924,99,121.129,98,-0.230875,0\C,108,1.4015,103,117.933,99,-2.2972,0\C,105,1.42212,104,117.602,103,-139.699,0\C,110,1.36834,105,123.643,104,-7.66959,0\C,110,1.378,105,119.15,104,138.091,0\C,112,1.34316,110,122.801,105,0.54791,0\C,111,1.39362,110,107.384,105,149.856,0\C,114,1.39032,111,109.157,110,-2.53806,0\C,111,1.40747,110,120.034,105,8.25207,0\C,116,1.37775,111,124.228,110,135.544,0\C,117,1.4067,116,106.967,111,-138.723,0\C,118,1.39017,117,109.446,116,-3.94727,0\C,119,1.35921,118,107.055,117,2.46153,0\C,119,1.38283,118,120.666,117,151.678,0\C,121,1.39541,119,119.008,118,-9.62923,0\C,122,1.40101,121,119.327,119,8.21777,0\C,123,1.37842,122,118.407,121,-136.912,0\C,124,1.39493,123,110.912,122,145.551,0\C,124,1.40773,123,124.358,122,-9.59536,0\C,118,1.40832,117,120.782,116,146.876,0\C,114,1.41623,111,117.304,110,-140.703,0\C,128,1.40293,114,121.228,111,6.1163,0\C,129,1.36859,128,110.686,114,140.407,0\C,130,1.3701,129,118.361,128,-149.74,0\C,122,1.41964,121,109.744,119,-133.644,0\C,132,1.3759,122,121.242,121,146.56,0\C,130,1.42379,129,109.744,128,-1.21852,0\C,134,1.40237,130,116.398,129,-134.845,0\C,135,1.38369,134,124.068,130,131.886,0\C,136,1.38957,135,119.951,134,1.44937,0\C,135,1.39229,134,121.618,130,-9.6682,0\C,137,1.41532,136,118.399,135,-140.668,0\C,139,1.4195,137,106.69,136,137.622,0\C,140,1.38801,139,120.435,137,-143.249,0\C,141,1.42103,140,120.216,139,0.235302,0\C,140,1.4232,139,110.062,137,5.35666,0\C,90,1.42895,89,108.596,61,-100.029,0\C,144,1.38066,90,119.881,89,-140.294,0\C,145,1.37206,144,120.158,90,-4.1788,0\C,143,1.46179,140,109.73,139,2.45611,0\C,134,1.491,130,109.343,129,4.98138,0\C,147,1.49507,143,129.257,140,152.544,0\C,149,1.5094,147,123.676,143,-151.908,0\C,150,1.42395,149,119.624,147,-120.575,0\H,151,1.0858,150,121.865,149,5.74833,0\C,151,1.41197,150,116.157,149,169.063,0\H,153,1.08578,151,119.089,150,-171.636,0\C,153,1.38918,151,122.842,150,16.6594,0\H,155,1.08534,153,114.187,151,178.765,0\C,155,1.40909,153,119.343,151,-15.4224,0\H,157,1.08648,155,120.68,153,-176.778,0\C,157,1.39215,155,118.155,153,2.22741,0\H,159,1.08565,157,114.092,155,-173.639,0\C,149,1.5944,147,120.777,143,1.37071,0\H,161,1.09669,149,105.832,147,22.4389,0\H,161,1.09704,149,105.859,147,-92.6645,0\C,161,1.54852,149,112.434,147,136.019,0\H,164,1.09665,161,114.551,149,-31.0473,0\H,164,1.09686,161,113.603,149,91.1759,0\C,164,1.57919,161,103.62,149,-150.196,0\H,167,1.09632,164,111.926,161,-48.2176,0\H,167,1.09761,164,110.823,161,69.7531,0\C,167,1.50959,164,117.872,161,-168.067,0\O,170,1.20917,167,124.075,164,-144.1,0\O,170,1.38937,167,109.075,164,35.8707,0\C,172,1.44851,170,117.585,167,-177.186,0\H,173,1.09624,172,107.549,170,-57.7876,0\H,173,1.09674,172,106.314,170,59.6336,0\H,173,1.09729,172,109.841,170,-174.494,0\\\@

 Total job time:  915.43s(wall), 7820.54s(cpu) 
 Tue Oct  9 13:35:08 2018

        *************************************************************
        *                                                           *
        *  Thank you very much for using Q-Chem.  Have a nice day.  *
        *                                                           *
        *************************************************************


