
Running Job 1 of 1 ./6/26.qcin
qchem ./6/26.qcin_45584.0 /tmpu/cab_g/afmv_a/scratch_qchem/qchem45584/ 1
/tmpu/appuserlic/qchem4.4/serial-multicore/exe/qcprog.exe_s ./6/26.qcin_45584.0 /tmpu/cab_g/afmv_a/scratch_qchem/qchem45584/
Check license passed

                  Welcome to Q-Chem
     A Quantum Leap Into The Future Of Chemistry


 Q-Chem 4.4, Q-Chem, Inc., Pleasanton, CA (2016)

 Y. Shao,  Z. Gan,  E. Epifanovsky,  A. T. B. Gilbert,  M. Wormit,  
 J. Kussmann,  A. W. Lange,  A. Behn,  J. Deng,  X. Feng,  D. Ghosh,  
 M. Goldey,  P. R. Horn,  L. D. Jacobson,  I. Kaliman,  F. Rob,  
 R. Z. Khaliullin,  T. Kus,  A. Landau,  J. Liu,  E. I. Proynov,  Y. M. Rhee,  
 R. M. Richard,  M. A. Rohrdanz,  R. P. Steele,  E. J. Sundstrom,  
 H. L. Woodcock III,  P. M. Zimmerman,  D. Zuev,  B. Albrecht,  E. Alguire,  
 B. Austin,  S. A. Baeppler,  G. J. O. Beran,  Y. A. Bernard,  E. Berquist,  
 K. Brandhorst,  K. B. Bravaya,  S. T. Brown,  D. Casanova,  C.-M. Chang,  
 Y. Chen,  S. H. Chien,  K. D. Closser,  M. P. Coons,  D. L. Crittenden,  
 S. Dasgupta,  M. Diedenhofen,  R. A. DiStasio Jr.,  H. Do,  A. D. Dutoi,  
 R. G. Edgar,  P.-T. Fang,  S. Fatehi,  Q. Feng,  L. Fusti-Molnar,  
 A. Ghysels,  A. Golubeva-Zadorozhnaya,  J. Gomes,  A. Gunina,  
 M. W. D. Hanson-Heine,  P. H. P. Harbach,  A. W. Hauser,  J. E. Herr,  
 E. G. Hohenstein,  Z. C. Holden,  K. Hui,  T.-C. Jagau,  H. Ji,  B. Kaduk,  
 K. Khistyaev,  Jaehoon Kim,  Jihan Kim,  R. A. King,  P. Klunzinger,  
 K. Koh,  D. Kosenkov,  T. Kowalczyk,  C. M. Krauter,  A. Kunitsa,  
 K. U. Lao,  A. Laurent,  K. V. Lawler,  J. Lee,  D. Lefrancois,  S. Lehtola,  
 S. V. Levchenko,  C. Y. Lin,  Y.-S. Lin,  F. Liu,  E. Livshits,  
 R. C. Lochan,  A. Luenser,  P. Manohar,  S. F. Manzer,  S.-P. Mao,  Y. Mao,  
 N. Mardirossian,  A. V. Marenich,  L. A. Martinez-Martinez,  S. A. Maurer,  
 N. J. Mayhall,  J.-M. Mewes,  A. F. Morrison,  K. Nanda,  T. S. Nguyen-Beck,  
 C. M. Oana,  R. Olivares-Amaya,  D. P. O'Neill,  J. A. Parkhill,  
 T. M. Perrine,  R. Peverati,  P. A. Pieniazek,  F. Plasser,  A. Prociuk,  
 D. R. Rehn,  E. Rosta,  N. J. Russ,  N. Sergueev,  S. M. Sharada,  
 S. Sharma,  D. W. Small,  A. Sodt,  T. Stauch,  T. Stein,  D. Stuck,  
 Y.-C. Su,  A. J. W. Thom,  T. Tsuchimochi,  L. Vogt,  O. Vydrov,  T. Wang,  
 M. A. Watson,  J. Wenzel,  A. White,  C. F. Williams,  V. Vanovschi,  
 K. Yao,  S. Yeganeh,  S. R. Yost,  Z.-Q. You,  I. Y. Zhang,  X. Zhang,  
 Y. Zhao,  B. R. Brooks,  G. K. L. Chan,  D. M. Chipman,  C. J. Cramer,  
 W. A. Goddard III,  M. S. Gordon,  W. J. Hehre,  A. Klamt,  
 H. F. Schaefer III,  M. W. Schmidt,  C. D. Sherrill,  D. G. Truhlar,  
 A. Warshel,  X. Xu,  A. Aspuru-Guzik,  R. Baer,  A. T. Bell,  N. A. Besley,  
 J.-D. Chai,  A. Dreuw,  B. D. Dunietz,  T. R. Furlani,  S. R. Gwaltney,  
 C.-P. Hsu,  Y. Jung,  J. Kong,  D. S. Lambrecht,  W. Liang,  C. Ochsenfeld,  
 V. A. Rassolov,  L. V. Slipchenko,  J. E. Subotnik,  T. Van Voorhis,  
 J. M. Herbert,  A. I. Krylov,  P. M. W. Gill,  M. Head-Gordon

 Contributors to earlier versions of Q-Chem not listed above: 
 R. D. Adamson,  J. Baker,  E. F. C. Byrd,  A. K. Chakraborty,  C.-L. Cheng,  
 H. Dachsel,  R. J. Doerksen,  G. Hawkins,  A. Heyden,  S. Hirata,  
 G. Kedziora,  F. J. Keil,  C. Kelley,  P. P. Korambath,  W. Kurlancheek,  
 A. M. Lee,  M. S. Lee,  D. Liotard,  I. Lotan,  P. E. Maslen,  N. Nair,  
 D. Neuhauser,  R. Olson,  B. Peters,  J. Ritchie,  N. E. Schultz,  
 N. Shenvi,  A. C. Simmonett,  K. S. Thanthiriwatte,  Q. Wu,  W. Zhang

 Please cite Q-Chem as follows:
 Y. Shao et al., Mol. Phys. 113, 184-215 (2015)
 DOI: 10.1080/00268976.2014.952696

 Q-Chem 4.4.2 for Intel X86 Linux

 Parts of Q-Chem use Armadillo 5.200.1 (Boston Tea Smuggler).
 http://arma.sourceforge.net/

 Q-Chem begins on Tue Oct  9 13:35:09 2018  

Host: 
0

     Scratch files written to /tmpu/cab_g/afmv_a/scratch_qchem/qchem45584//
 Dec716 11556_ 22328  22283 4050   
Processing $rem in /tmpu/appuserlic/qchem4.4/serial-multicore/config/preferences.
 MEM_TOTAL  2000 
FILE_GEOM_ORG=        593

Checking the input file for inconsistencies... 	...done.

--------------------------------------------------------------
User input:
--------------------------------------------------------------
$comment
SP
$end

$rem
MEM_STATIC 5000
MEM_TOTAL 20000
JOBTYPE SP
EXCHANGE B3LYP
BASIS 6-31g(d,p)
$end

$molecule
0 1
O          18.366000    -12.780000     -9.016000
C          19.522000    -12.842000     -9.882000
H          20.341000    -13.431000     -9.452000
H          19.926000    -11.825000     -9.971000
H          19.321000    -13.358000    -10.829000
O          17.905000    -10.544000     -9.330000
C          17.604000    -11.654000     -8.851000
C          16.340000    -11.895000     -7.948000
H          15.518000    -11.245000     -8.272000
H          16.768000    -11.570000     -6.992000
C          15.774000    -13.296000     -7.719000
H          16.567000    -13.967000     -7.367000
H          14.926000    -13.312000     -7.024000
C          15.271000    -13.984000     -8.972000
H          14.342000    -13.468000     -9.244000
H          15.926000    -13.771000     -9.825000
C          15.022000    -15.521000     -8.674000
C          13.722000    -15.807000     -7.949000
C          12.522000    -15.993000     -8.694000
H          12.587000    -15.954000     -9.777000
C          11.329000    -15.974000     -7.960000
H          10.350000    -15.972000     -8.430000
C          11.317000    -16.027000     -6.531000
H          10.349000    -15.951000     -6.046000
C          12.501000    -15.918000     -5.809000
H          12.545000    -15.901000     -4.724000
C          13.692000    -15.859000     -6.563000
H          14.569000    -15.699000     -5.944000
C          17.509000    -20.201000     -7.464000
C          15.657000    -20.955000     -8.771000
C          18.108000    -22.158000    -12.528000
C          20.287000    -16.630000     -9.885000
C          17.403000    -19.162000    -14.242000
C          16.133000    -20.049000     -7.782000
C          20.061000    -17.185000    -12.755000
C          18.514000    -22.402000    -10.124000
C          14.597000    -18.076000    -11.410000
C          19.373000    -15.954000    -10.736000
C          15.332000    -16.500000     -9.853000
C          15.347000    -17.064000    -12.063000
C          17.938000    -16.070000    -12.534000
C          19.495000    -18.106000    -13.656000
C          14.725000    -18.873000     -9.097000
C          19.290000    -20.561000    -13.633000
C          16.269000    -16.402000     -8.684000
C          17.699000    -15.951000     -8.914000
C          17.984000    -20.433000    -14.016000
C          21.070000    -20.008000    -10.047000
C          20.246000    -21.456000    -11.586000
C          19.777000    -21.837000    -10.315000
C          17.788000    -22.038000     -9.004000
C          18.570000    -16.827000     -8.197000
C          14.590000    -17.824000    -10.047000
C          16.460000    -21.926000     -9.400000
C          19.289000    -16.128000    -12.140000
C          14.765000    -20.202000     -9.595000
C          16.064000    -17.512000    -13.204000
C          20.422000    -18.391000     -8.483000
C          17.631000    -22.507000    -11.186000
C          15.869000    -16.169000    -11.129000
C          19.593000    -20.667000     -8.222000
C          17.348000    -17.000000    -13.448000
C          14.636000    -19.392000    -11.932000
C          20.953000    -19.230000    -12.340000
C          20.901000    -17.906000    -11.899000
C          15.397000    -19.776000    -13.053000
C          19.892000    -17.101000     -8.633000
C          18.075000    -15.681000    -10.221000
C          21.178000    -18.714000     -9.608000
C          16.437000    -17.602000     -7.841000
C          15.484000    -21.445000    -11.595000
C          17.185000    -15.723000    -11.360000
C          16.128000    -18.808000    -13.720000
C          19.583000    -19.344000     -7.773000
C          17.212000    -21.454000    -13.358000
C          18.345000    -21.186000     -8.012000
C          19.350000    -21.502000    -12.669000
C          14.691000    -20.473000    -11.002000
C          15.892000    -21.077000    -12.891000
C          15.612000    -18.764000     -8.040000
C          17.792000    -17.734000     -7.495000
C          20.972000    -20.282000    -11.399000
C          16.326000    -22.213000    -10.789000
C          18.150000    -18.005000    -14.041000
C          21.073000    -17.643000    -10.533000
C          20.105000    -19.376000    -13.449000
C          18.339000    -19.007000     -7.328000
C          20.291000    -20.989000     -9.390000
O          13.630000     -9.461000     -5.264000
C          12.239000     -9.144000     -5.324000
H          11.721000     -9.830000     -4.643000
H          11.826000     -9.300000     -6.329000
H          12.050000     -8.097000     -5.057000
O          14.234000     -7.441000     -5.984000
C          14.579000     -8.558000     -5.675000
C          16.018000     -8.993000     -5.533000
H          16.152000     -9.973000     -6.008000
H          16.118000     -8.942000     -4.442000
C          17.092000     -8.069000     -6.283000
H          16.896000     -7.977000     -7.359000
H          17.246000     -7.048000     -5.915000
C          18.508000     -8.651000     -6.286000
H          18.490000     -9.537000     -6.932000
H          19.042000     -7.864000     -6.831000
C          19.228000     -8.868000     -4.940000
C          19.304000     -7.562000     -4.205000
C          18.360000     -7.315000     -3.258000
H          17.604000     -8.073000     -3.075000
C          18.305000     -6.132000     -2.541000
H          17.522000     -6.023000     -1.797000
C          19.282000     -5.186000     -2.770000
H          19.174000     -4.198000     -2.333000
C          20.241000     -5.350000     -3.687000
H          20.764000     -4.479000     -4.069000
C          20.276000     -6.559000     -4.350000
H          20.952000     -6.640000     -5.197000
C          23.400000    -10.933000     -2.194000
C          21.613000    -11.165000     -0.631000
C          21.278000    -15.700000     -0.742000
C          22.237000    -13.242000     -6.532000
C          18.531000    -15.620000     -3.008000
C          22.232000    -10.457000     -1.640000
C          20.568000    -15.400000     -5.960000
C          23.290000    -14.245000     -0.694000
C          18.130000    -11.617000     -2.472000
C          20.815000    -13.109000     -6.683000
C          19.011000    -10.216000     -4.244000
C          17.851000    -12.272000     -3.681000
C          18.831000    -13.640000     -5.825000
C          19.945000    -16.011000     -4.893000
C          20.017000    -10.200000     -1.951000
C          20.785000    -16.717000     -2.746000
C          20.346000     -9.832000     -4.814000
C          20.925000    -10.786000     -5.885000
C          19.550000    -16.190000     -2.169000
C          24.128000    -14.877000     -4.087000
C          23.097000    -15.969000     -2.436000
C          23.793000    -14.936000     -1.824000
C          23.380000    -12.848000     -0.578000
C          22.320000    -10.994000     -5.577000
C          18.889000    -10.444000     -2.776000
C          22.179000    -12.329000     -0.121000
C          19.982000    -14.181000     -6.452000
C          20.264000    -11.016000     -0.840000
C          17.671000    -13.647000     -3.740000
C          24.007000    -12.696000     -5.175000
C          22.004000    -14.604000     -0.179000
C          18.327000    -11.497000     -4.748000
C          24.458000    -12.853000     -2.762000
C          18.194000    -14.330000     -4.808000
C          18.310000    -12.370000     -1.286000
C          22.215000    -16.316000     -4.672000
C          22.007000    -15.510000     -5.769000
C          18.222000    -13.801000     -1.341000
C          22.982000    -12.185000     -5.984000
C          20.219000    -11.912000     -6.295000
C          23.907000    -14.088000     -5.219000
C          21.482000     -9.737000     -3.846000
C          20.020000    -13.323000     -0.069000
C          18.948000    -12.235000     -5.767000
C          17.877000    -14.424000     -2.573000
C          24.287000    -12.121000     -3.913000
C          19.888000    -15.564000     -0.944000
C          23.944000    -12.108000     -1.676000
C          21.811000    -16.333000     -1.887000
C          19.468000    -12.076000     -0.510000
C          19.220000    -14.382000     -0.541000
C          21.278000     -9.878000     -2.463000
C          22.628000    -10.405000     -4.380000
C          23.318000    -15.999000     -3.821000
C          21.405000    -13.369000      0.144000
C          18.750000    -15.557000     -4.350000
C          22.781000    -14.406000     -6.019000
C          20.931000    -16.578000     -4.102000
C          23.613000    -10.946000     -3.564000
C          24.452000    -14.233000     -2.861000
$end

--------------------------------------------------------------
 ----------------------------------------------------------------
             Standard Nuclear Orientation (Angstroms)
    I     Atom           X                Y                Z
 ----------------------------------------------------------------
    1      O       0.0653963441     2.0476230899    -2.3024481784
    2      C      -0.2741684487     1.3243636336    -3.5073247324
    3      H      -0.2094139335     0.2370915472    -3.3799345330
    4      H       0.4851200126     1.5627794020    -4.2636744887
    5      H      -1.3161354194     1.4724353833    -3.8169141201
    6      O       1.3313621743     3.6874730004    -3.3119212031
    7      C       0.7894769931     3.2101287188    -2.2967143832
    8      C       0.9127511196     3.8495516857    -0.8659356584
    9      H       0.9607836777     4.9424369027    -0.9462772777
   10      H       1.8799568785     3.4156676832    -0.5848614824
   11      C      -0.0649808453     3.4995138173     0.2552742663
   12      H      -0.1163252772     2.4111115126     0.3807261393
   13      H       0.1801226804     3.9811368968     1.2093960987
   14      C      -1.5044662876     3.8829527094    -0.0226075029
   15      H      -1.5427324078     4.9765405271     0.0540892313
   16      H      -1.7611348474     3.7039054020    -1.0733531012
   17      C      -2.4565177288     3.1874993113     1.0371644651
   18      C      -2.4918092156     3.8808441248     2.3845502601
   19      C      -3.4065569780     4.9501862201     2.6067326498
   20      H      -4.0811528925     5.2158057875     1.7986475073
   21      C      -3.1938882873     5.7166073140     3.7598747637
   22      H      -3.7398344495     6.6325858345     3.9654742236
   23      C      -2.2870943914     5.3060905671     4.7866146679
   24      H      -2.1448792134     5.9903714811     5.6170118463
   25      C      -1.4460338178     4.2151455878     4.5930244731
   26      H      -0.7041578601     3.8911128478     5.3169532311
   27      C      -1.6171459134     3.4971059847     3.3906860102
   28      H      -0.8821535552     2.7078839268     3.2690111292
   29      C      -4.3731498733    -1.6184046777     2.7049405506
   30      C      -6.2201508274    -0.1720833858     3.1559518542
   31      C      -8.9730615137    -1.7457178103    -0.2373970007
   32      C      -2.7772914333    -1.2940915596    -2.1611279693
   33      C      -8.1551200480     0.8764532641    -2.4433044365
   34      C      -4.8076243501    -0.3460135027     3.1630416603
   35      C      -5.1276485914    -0.6189515841    -3.7785358469
   36      C      -7.4546798066    -2.8604407439     1.3296057985
   37      C      -6.1838265543     2.9269617943     0.5538062936
   38      C      -3.0823251354     0.0310164089    -2.5705376812
   39      C      -3.8574206597     2.7439059361     0.5030503428
   40      C      -5.7186073341     3.0397087788    -0.7818254650
   41      C      -4.7020662042     1.6150013879    -2.9863687242
   42      C      -6.5141534898    -0.4048537164    -3.6682440990
   43      C      -5.1847625030     1.7676688678     2.4667811842
   44      C      -8.2886899134    -1.5461051918    -2.3961809906
   45      C      -2.7873447628     1.7227843865     0.7606980789
   46      C      -2.2756420292     0.8765930989    -0.3896590905
   47      C      -8.7664050411    -0.3247803323    -2.0103535106
   48      C      -5.0908186755    -3.6663428014    -1.1266074305
   49      C      -7.3359878884    -3.3490201195    -1.0744296468
   50      C      -6.8765325120    -3.5229181626     0.2443664814
   51      C      -6.6290753242    -2.3922275545     2.3361472274
   52      C      -2.2115762324    -0.4830932080     0.0430702943
   53      C      -5.1033571137     2.6919876402     1.3896860308
   54      C      -7.1320497650    -1.1581430590     2.7323746492
   55      C      -4.1565957449     0.3915849537    -3.4217021671
   56      C      -6.4474006075     1.1687130186     2.7174640672
   57      C      -6.6198496239     2.5400188608    -1.7589366771
   58      C      -3.0638273484    -2.7193190242    -0.4373026175
   59      C      -8.4457829983    -1.9157358920     1.1203088655
   60      C      -4.3392575373     2.8381174959    -0.8330123074
   61      C      -4.7040026075    -3.3301644739     1.2574631351
   62      C      -6.1093496944     1.8471698757    -2.8678488044
   63      C      -7.4533986827     2.3422753570     0.7822562461
   64      C      -6.0874450817    -2.5314259421    -3.0227934785
   65      C      -4.8690262339    -1.9098430213    -3.3043093465
   66      C      -8.2854141133     1.8356512076    -0.2347493066
   67      C      -2.3764095860    -1.5698250242    -0.8539803873
   68      C      -2.8600522571     1.0762748585    -1.6310763775
   69      C      -3.8564543718    -3.1885420854    -1.4827987296
   70      C      -3.0387770889     0.7214021378     1.8156333269
   71      C      -8.4811694806     0.4822923266     1.5113874507
   72      C      -3.8592212588     2.0810751915    -1.9195596468
   73      C      -7.8652443132     1.9442023675    -1.5492636598
   74      C      -3.4708731733    -2.7450243310     0.9590794698
   75      C      -9.2399892557    -0.4260012583    -0.6550449421
   76      C      -5.2333317036    -2.6605932107     2.3263176770
   77      C      -8.3023164425    -2.3568857640    -1.3187645524
   78      C      -7.5900166621     1.4707310036     1.9039656416
   79      C      -8.9811058319     0.7051405387     0.2145041410
   80      C      -4.1931745549     0.8232420083     2.6685489917
   81      C      -2.5766217188    -0.5312259199     1.3791698545
   82      C      -6.2048838667    -3.3617363462    -1.8873029393
   83      C      -8.2885288033    -0.8213642730     1.9715972289
   84      C      -7.0217291426     0.8340377673    -3.2499549067
   85      C      -3.7356546156    -2.2835220993    -2.5690939214
   86      C      -7.1303391284    -1.6236263953    -3.2648120527
   87      C      -3.2366240612    -1.6900336685     1.7904951634
   88      C      -5.5383949479    -3.7404962001     0.2131790278
   89      O       3.7646890627     6.5771427020     1.3474348973
   90      C       3.6145971211     7.8781252255     1.9165455038
   91      H       3.4549287036     7.7440049788     2.9932064327
   92      H       2.7383311080     8.4028694864     1.5143871583
   93      H       4.4883041843     8.5108112845     1.7176402035
   94      O       4.8649223823     7.3590549851    -0.4250536990
   95      C       4.3609857244     6.4060302006     0.1226566303
   96      C       4.4933427358     4.9815512798    -0.3605114831
   97      H       3.5160064502     4.4855577181    -0.3077367595
   98      H       5.2767879582     4.6289118149     0.3212076609
   99      C       4.9099185605     4.8142189718    -1.8994125459
  100      H       4.2146691372     5.3155081728    -2.5849731751
  101      H       5.9147623902     5.1300628079    -2.2029130387
  102      C       4.8364062277     3.3701783558    -2.4025344360
  103      H       3.7757440267     3.0928904772    -2.4297948047
  104      H       5.1616815473     3.5076000604    -3.4402536859
  105      C       5.7482331325     2.3079616135    -1.7564134813
  106      C       7.1796095566     2.7365866543    -1.8945406216
  107      C       7.7550824207     3.3653505326    -0.8350874758
  108      H       7.1569301523     3.5208324707     0.0580128717
  109      C       9.0557757974     3.8389754318    -0.8569779874
  110      H       9.4376322386     4.3211373982     0.0375674259
  111      C       9.8099448075     3.6182074197    -1.9902813841
  112      H      10.7740255585     4.1079890112    -2.0874374352
  113      C       9.3168119674     3.0131045628    -3.0757013648
  114      H       9.8070368602     3.1590967273    -4.0330204560
  115      C       8.0286648278     2.5269565320    -2.9931662896
  116      H       7.5726085702     2.1737791321    -3.9141572853
  117      C       7.1094815321    -2.8879339894    -1.1564162491
  118      C       7.5506635323    -2.0049670095     1.0151936963
  119      C       4.1814293833    -4.1061021541     3.2342618233
  120      C       2.3168713470    -1.9862108174    -2.4679332847
  121      C       2.0743898079    -1.2366578979     3.1166230203
  122      C       7.5328308943    -1.8502878291    -0.3553034209
  123      C       0.7641758001    -1.9455610530    -0.1533721739
  124      C       5.7293564972    -4.9643598726     1.4921974334
  125      C       5.1709227803     1.0571315102     1.8429983887
  126      C       1.9685485678    -0.7327696283    -1.8595498307
  127      C       5.2017025315     1.5776572941    -0.5249229603
  128      C       3.8379530029     1.2661342633     1.4582173838
  129      C       1.6829804973     0.3435224994     0.0677350815
  130      C       0.8882575566    -2.0615977435     1.2145014329
  131      C       6.9753451268     0.1493273421     0.5163294068
  132      C       2.0132933541    -3.6987798463     2.5810936239
  133      C       5.4176453888     0.8655590764    -1.8290954223
  134      C       4.1708502020     0.1896074367    -2.4463386020
  135      C       2.4719058694    -2.5866596108     3.4110009336
  136      C       3.2340090897    -5.0406740741    -1.0339724854
  137      C       3.3059475554    -5.2440119415     1.1874470088
  138      C       4.6115919636    -5.4238934241     0.7527237270
  139      C       6.8182935718    -4.3289606145     0.8728035116
  140      C       4.5635727007    -1.1249362181    -2.8956681230
  141      C       5.9837918671     1.1521158536     0.6705446275
  142      C       7.1998784803    -3.2154447125     1.6042994403
  143      C       1.1610660891    -0.6948524652    -0.7446649329
  144      C       7.1928197748    -0.7857478685     1.5359004578
  145      C       2.7807183231     0.6989940920     2.1561520927
  146      C       4.0298092977    -3.4905220124    -2.7424444970
  147      C       5.5064807735    -4.2632752018     2.7196780631
  148      C       3.7947269281     1.5869962323     0.0940806226
  149      C       5.6266722565    -4.5977890497    -1.2342643357
  150      C       1.7145411642     0.2106270057     1.4452330713
  151      C       5.4666374726     0.1886143931     2.9219959967
  152      C       1.3653034825    -4.1060813878     0.2725461194
  153      C       1.1594138013    -3.2114508274    -0.7538819587
  154      C       4.3945145211    -0.4831253734     3.5986407064
  155      C       3.6089080356    -2.1751657198    -2.9851520392
  156      C       2.9307693189     0.2728631940    -1.8220951541
  157      C       2.9897355997    -4.1350021127    -2.0697691644
  158      C       6.4002881496    -0.2617599699    -1.8186086427
  159      C       6.0096451480    -2.0225875813     3.2813377461
  160      C       2.7456452817     0.9773946638    -0.6105182894
  161      C       3.0530867031    -0.1978870376     3.2189190967
  162      C       5.3414388458    -3.7572168052    -2.2840005898
  163      C       3.8091342101    -2.8627695199     3.7882656722
  164      C       6.7509022842    -4.0887674590    -0.5446116225
  165      C       3.1020651793    -4.5549030287     2.4409436713
  166      C       6.4683817219    -0.7983470435     2.6939793707
  167      C       4.7533218394    -1.8113895885     3.8824302117
  168      C       7.1679576596    -0.5520954369    -0.6781811614
  169      C       5.8487841934    -1.3888642174    -2.5043020155
  170      C       2.4198212933    -5.0572919646     0.1160545047
  171      C       6.4518306986    -3.2172841725     2.6957764820
  172      C       1.2822154926    -1.0109026379     2.0329309899
  173      C       1.9627758407    -3.1798496742    -1.8647387456
  174      C       1.2481334422    -3.3703479821     1.4920409072
  175      C       6.2434232254    -2.6899085364    -2.2209193865
  176      C       4.5812887634    -5.2962908762    -0.6567649412
 ----------------------------------------------------------------
 Molecular Point Group                 C1    NOp =  1
 Largest Abelian Subgroup              C1    NOp =  1
 Nuclear Repulsion Energy = 35495.3107367533 hartrees
 There are      462 alpha and      462 beta electrons
 Requested basis set is 6-31G(d,p)
 There are 676 shells and 2360 basis functions

 Total QAlloc Memory Limit  20000 MB
 Mega-Array Size      4888 MB
 MEM_STATIC part      5000 MB
 A cutoff of  1.0D-08 yielded  39660 shell pairs
 There are    546127 function pairs
 
 -------------------------------------------------------
 OpenMP Integral Computing Module                       
 Release: version 1.0, May 2013, Q-Chem Inc. Pittsburgh 
 -------------------------------------------------------
 Integral Job Info:
 Integral job number is                      11
 Integral operator is                         1
 short-range coefficients                     0
 long-range coefficients              100000000
 Omega coefficients                           0
 if combine SR and LR in K                    0
 Integral screening is                        0
 Integral computing path is                   2
 max size of driver memory is            800000
 size of driver memory is                593474
 size of scratch memory is              2260544
 max col of scratch BK array               1296
 max len of scratch array in speh3          155
 max len of scratch index in speh4           18
 max int batch size is                      520
 min int batch size is                       52
 fixed nKL is                                52
 max L of basis functions is                  2
 order of int derivative is                   0
 number of shells is                        676
 number of basis is                        2360
 number of cartesian basis is              2360
 number of contracted shell pairs         39660
 number of primitive shell pairs         118013
 maxK2 (contraction) of shell pair           36
 max number of K2 of shell pair               1
 max number of CS2 of shell pair           7380
 max number of PS2 of shell pair          35292
 mem total for path MDJ                 1541272
 -------------------------------------------------------
 Smallest overlap matrix eigenvalue = 2.51E-04

 Scale SEOQF with 1.000000e-02/1.000000e-02/1.000000e-02

 Standard Electronic Orientation quadrupole field applied
 Nucleus-field energy     =     0.0000001061 hartrees
 Guess from superposition of atomic densities
 Warning:  Energy on first SCF cycle will be non-variational
 A restricted hybrid HF-DFT SCF calculation will be
 performed using Pulay DIIS extrapolation
 Exchange:     0.2000 Hartree-Fock + 0.0800 Slater + 0.7200 B88
 Correlation:  0.1900 VWN1RPA + 0.8100 LYP
 Using SG-1 standard quadrature grid
 SCF converges when DIIS error is below 1.0E-05
 using 16 threads for integral computing 
 -------------------------------------------------------
 OpenMP BLAS3 based DFT computing Module                
 Release: version 1.0, May 2013, Q-Chem Inc. Pittsburgh 
 -------------------------------------------------------
 ---------------------------------------
  Cycle       Energy         DIIS Error
 ---------------------------------------
    1   -5858.3955970408      1.83E-02
    2   -5803.1058885984      1.30E-03
    3   -5802.1918738518      1.85E-03
    4   -5803.9075014946      7.06E-04
    5   -5804.1784521083      3.35E-04
    6   -5804.2527829120      1.51E-04
    7   -5804.2682897331      5.32E-05
    8   -5804.2694799707      3.61E-05
    9   -5804.2703758327      9.84E-06 Convergence criterion met
 ---------------------------------------
 SCF time:  CPU 7572.91 s  wall 866.71 s
 SCF   energy in the final basis set = -5804.2703758327
 Total energy in the final basis set = -5804.2703758327
 
 --------------------------------------------------------------
 
                    Orbital Energies (a.u.)
 --------------------------------------------------------------
 
 Alpha MOs
 -- Occupied --
-19.201 -19.184 -19.143 -19.129 -10.334 -10.313 -10.245 -10.244
-10.244 -10.242 -10.242 -10.242 -10.240 -10.236 -10.232 -10.231
-10.230 -10.230 -10.230 -10.228 -10.227 -10.226 -10.226 -10.226
-10.225 -10.225 -10.225 -10.224 -10.223 -10.223 -10.223 -10.223
-10.222 -10.222 -10.222 -10.222 -10.222 -10.222 -10.222 -10.222
-10.222 -10.221 -10.221 -10.221 -10.221 -10.221 -10.220 -10.220
-10.220 -10.220 -10.220 -10.220 -10.220 -10.220 -10.220 -10.220
-10.219 -10.219 -10.219 -10.219 -10.219 -10.218 -10.218 -10.218
-10.218 -10.218 -10.218 -10.218 -10.218 -10.218 -10.218 -10.218
-10.218 -10.218 -10.218 -10.217 -10.217 -10.217 -10.217 -10.217
-10.216 -10.216 -10.216 -10.216 -10.216 -10.216 -10.216 -10.215
-10.215 -10.215 -10.215 -10.215 -10.215 -10.215 -10.215 -10.215
-10.214 -10.214 -10.214 -10.214 -10.214 -10.214 -10.214 -10.214
-10.214 -10.213 -10.213 -10.213 -10.213 -10.213 -10.213 -10.213
-10.213 -10.213 -10.212 -10.212 -10.212 -10.212 -10.211 -10.211
-10.211 -10.211 -10.211 -10.210 -10.210 -10.210 -10.208 -10.208
-10.208 -10.207 -10.207 -10.207 -10.206 -10.206 -10.206 -10.205
-10.202 -10.202 -10.201 -10.199 -10.198 -10.196 -10.195 -10.193
-10.193 -10.191 -10.190 -10.189  -1.092  -1.091  -1.006  -1.005
 -0.986  -0.984  -0.970  -0.967  -0.965  -0.964  -0.962  -0.960
 -0.936  -0.934  -0.931  -0.930  -0.927  -0.925  -0.925  -0.924
 -0.922  -0.921  -0.902  -0.896  -0.893  -0.891  -0.890  -0.884
 -0.881  -0.874  -0.865  -0.855  -0.846  -0.843  -0.841  -0.839
 -0.838  -0.837  -0.822  -0.821  -0.808  -0.802  -0.800  -0.800
 -0.800  -0.797  -0.796  -0.795  -0.794  -0.793  -0.785  -0.783
 -0.774  -0.772  -0.771  -0.771  -0.770  -0.770  -0.767  -0.764
 -0.756  -0.753  -0.747  -0.743  -0.736  -0.734  -0.719  -0.717
 -0.717  -0.716  -0.715  -0.715  -0.714  -0.713  -0.711  -0.711
 -0.709  -0.709  -0.708  -0.707  -0.706  -0.702  -0.678  -0.674
 -0.663  -0.660  -0.659  -0.657  -0.650  -0.649  -0.634  -0.633
 -0.630  -0.630  -0.626  -0.625  -0.623  -0.622  -0.620  -0.618
 -0.617  -0.617  -0.615  -0.615  -0.614  -0.612  -0.611  -0.610
 -0.607  -0.606  -0.603  -0.603  -0.569  -0.569  -0.567  -0.564
 -0.562  -0.562  -0.560  -0.560  -0.558  -0.558  -0.555  -0.552
 -0.542  -0.538  -0.535  -0.534  -0.530  -0.530  -0.528  -0.527
 -0.525  -0.525  -0.522  -0.520  -0.518  -0.518  -0.516  -0.515
 -0.510  -0.507  -0.505  -0.501  -0.495  -0.492  -0.489  -0.489
 -0.487  -0.486  -0.484  -0.483  -0.482  -0.478  -0.476  -0.476
 -0.475  -0.473  -0.471  -0.471  -0.471  -0.469  -0.468  -0.468
 -0.467  -0.466  -0.465  -0.464  -0.463  -0.462  -0.461  -0.460
 -0.459  -0.457  -0.455  -0.454  -0.452  -0.448  -0.447  -0.446
 -0.445  -0.444  -0.444  -0.443  -0.441  -0.439  -0.438  -0.434
 -0.434  -0.433  -0.433  -0.431  -0.429  -0.428  -0.427  -0.426
 -0.425  -0.425  -0.424  -0.423  -0.422  -0.422  -0.421  -0.420
 -0.419  -0.418  -0.417  -0.417  -0.417  -0.416  -0.416  -0.415
 -0.414  -0.413  -0.410  -0.410  -0.406  -0.403  -0.398  -0.397
 -0.397  -0.395  -0.394  -0.392  -0.391  -0.387  -0.387  -0.381
 -0.379  -0.377  -0.376  -0.375  -0.373  -0.371  -0.370  -0.368
 -0.366  -0.365  -0.365  -0.362  -0.362  -0.361  -0.360  -0.359
 -0.359  -0.358  -0.357  -0.355  -0.353  -0.353  -0.352  -0.351
 -0.350  -0.350  -0.350  -0.349  -0.348  -0.347  -0.346  -0.345
 -0.343  -0.342  -0.342  -0.340  -0.339  -0.339  -0.337  -0.334
 -0.334  -0.333  -0.332  -0.332  -0.330  -0.329  -0.328  -0.327
 -0.311  -0.306  -0.302  -0.293  -0.288  -0.287  -0.277  -0.273
 -0.272  -0.272  -0.271  -0.270  -0.267  -0.267  -0.265  -0.264
 -0.264  -0.263  -0.262  -0.262  -0.260  -0.259  -0.259  -0.257
 -0.253  -0.251  -0.251  -0.246  -0.223  -0.221  -0.216  -0.215
 -0.214  -0.212  -0.209  -0.205  -0.203  -0.198
 -- Virtual --
 -0.128  -0.126  -0.124  -0.122  -0.110  -0.109  -0.083  -0.081
 -0.076  -0.072  -0.065  -0.063  -0.060  -0.053  -0.025  -0.025
 -0.024  -0.021  -0.020  -0.019  -0.018  -0.017  -0.016  -0.016
 -0.013  -0.012  -0.012  -0.011  -0.007  -0.004  -0.003   0.003
  0.003   0.014   0.030   0.035   0.038   0.040   0.041   0.044
  0.045   0.049   0.054   0.057   0.060   0.060   0.061   0.064
  0.065   0.066   0.070   0.075   0.081   0.082   0.083   0.091
  0.092   0.092   0.097   0.098   0.099   0.102   0.103   0.108
  0.109   0.110   0.111   0.111   0.113   0.114   0.117   0.118
  0.119   0.122   0.124   0.125   0.128   0.129   0.135   0.137
  0.142   0.144   0.146   0.148   0.150   0.152   0.156   0.158
  0.158   0.159   0.159   0.161   0.163   0.166   0.167   0.169
  0.170   0.173   0.173   0.175   0.176   0.177   0.178   0.180
  0.182   0.182   0.183   0.186   0.187   0.190   0.190   0.193
  0.195   0.197   0.198   0.199   0.199   0.202   0.203   0.206
  0.207   0.208   0.210   0.211   0.213   0.214   0.215   0.215
  0.216   0.218   0.220   0.221   0.223   0.223   0.225   0.226
  0.227   0.229   0.231   0.232   0.235   0.237   0.238   0.239
  0.240   0.241   0.243   0.249   0.250   0.254   0.256   0.257
  0.264   0.266   0.270   0.271   0.274   0.274   0.275   0.277
  0.279   0.282   0.289   0.290   0.294   0.297   0.301   0.306
  0.308   0.309   0.311   0.313   0.315   0.316   0.317   0.319
  0.319   0.322   0.323   0.323   0.326   0.326   0.327   0.334
  0.334   0.335   0.337   0.339   0.342   0.343   0.344   0.346
  0.350   0.353   0.356   0.364   0.369   0.372   0.386   0.391
  0.392   0.397   0.398   0.400   0.400   0.403   0.404   0.405
  0.406   0.409   0.410   0.410   0.412   0.414   0.419   0.422
  0.423   0.426   0.427   0.431   0.432   0.434   0.435   0.438
  0.445   0.446   0.448   0.451   0.451   0.452   0.458   0.459
  0.461   0.463   0.465   0.467   0.470   0.472   0.473   0.474
  0.475   0.476   0.478   0.479   0.480   0.480   0.482   0.483
  0.484   0.485   0.486   0.487   0.488   0.489   0.491   0.491
  0.493   0.495   0.497   0.498   0.498   0.499   0.500   0.503
  0.504   0.505   0.506   0.506   0.507   0.508   0.508   0.510
  0.511   0.511   0.512   0.514   0.514   0.515   0.516   0.517
  0.518   0.518   0.518   0.520   0.522   0.522   0.522   0.524
  0.524   0.525   0.525   0.527   0.528   0.529   0.530   0.531
  0.532   0.533   0.533   0.534   0.535   0.536   0.537   0.538
  0.539   0.539   0.539   0.540   0.541   0.542   0.542   0.543
  0.544   0.545   0.545   0.545   0.546   0.548   0.549   0.550
  0.551   0.551   0.551   0.552   0.553   0.554   0.555   0.556
  0.557   0.558   0.558   0.560   0.560   0.561   0.562   0.563
  0.563   0.565   0.565   0.566   0.568   0.568   0.569   0.570
  0.571   0.571   0.572   0.573   0.573   0.574   0.575   0.576
  0.578   0.579   0.580   0.582   0.582   0.583   0.584   0.585
  0.585   0.586   0.587   0.588   0.588   0.589   0.589   0.590
  0.591   0.592   0.593   0.594   0.596   0.596   0.598   0.598
  0.600   0.602   0.602   0.604   0.605   0.606   0.606   0.608
  0.609   0.609   0.611   0.613   0.614   0.615   0.616   0.617
  0.618   0.619   0.620   0.621   0.623   0.624   0.624   0.625
  0.627   0.628   0.628   0.629   0.629   0.631   0.631   0.633
  0.633   0.634   0.635   0.635   0.636   0.636   0.638   0.638
  0.639   0.641   0.641   0.643   0.644   0.645   0.646   0.648
  0.649   0.651   0.651   0.652   0.653   0.654   0.654   0.655
  0.656   0.657   0.658   0.659   0.660   0.660   0.661   0.662
  0.662   0.663   0.665   0.666   0.666   0.667   0.668   0.669
  0.670   0.671   0.672   0.672   0.673   0.673   0.674   0.677
  0.679   0.681   0.681   0.682   0.683   0.684   0.686   0.686
  0.687   0.688   0.690   0.690   0.693   0.693   0.695   0.695
  0.696   0.697   0.698   0.699   0.700   0.701   0.703   0.704
  0.707   0.707   0.708   0.709   0.710   0.712   0.713   0.715
  0.716   0.717   0.718   0.719   0.721   0.721   0.723   0.724
  0.724   0.725   0.727   0.728   0.729   0.730   0.731   0.733
  0.734   0.736   0.738   0.739   0.741   0.743   0.745   0.745
  0.747   0.748   0.749   0.752   0.754   0.754   0.755   0.756
  0.756   0.759   0.761   0.761   0.762   0.765   0.766   0.767
  0.768   0.769   0.770   0.773   0.774   0.775   0.775   0.779
  0.779   0.780   0.781   0.782   0.784   0.785   0.785   0.786
  0.787   0.789   0.791   0.792   0.794   0.795   0.796   0.796
  0.798   0.799   0.799   0.801   0.803   0.804   0.804   0.805
  0.806   0.807   0.808   0.809   0.809   0.810   0.811   0.812
  0.812   0.813   0.814   0.815   0.815   0.816   0.816   0.818
  0.818   0.819   0.820   0.821   0.822   0.824   0.824   0.825
  0.827   0.828   0.829   0.830   0.832   0.833   0.835   0.838
  0.839   0.842   0.844   0.847   0.850   0.851   0.853   0.854
  0.856   0.857   0.858   0.861   0.863   0.864   0.868   0.872
  0.872   0.878   0.879   0.883   0.887   0.889   0.893   0.896
  0.897   0.900   0.902   0.905   0.906   0.911   0.913   0.916
  0.919   0.922   0.923   0.924   0.926   0.928   0.929   0.931
  0.932   0.933   0.936   0.936   0.937   0.939   0.940   0.941
  0.943   0.944   0.945   0.947   0.951   0.955   0.957   0.960
  0.961   0.963   0.965   0.968   0.970   0.971   0.976   0.977
  0.983   0.983   0.985   0.989   0.990   0.991   0.992   0.995
  0.996   0.997   0.999   1.001   1.003   1.006   1.006   1.008
  1.010   1.011   1.013   1.014   1.017   1.018   1.021   1.021
  1.023   1.025   1.027   1.029   1.030   1.032   1.033   1.034
  1.035   1.038   1.038   1.039   1.041   1.042   1.043   1.045
  1.049   1.049   1.052   1.054   1.055   1.058   1.059   1.061
  1.063   1.065   1.066   1.069   1.071   1.073   1.074   1.074
  1.076   1.078   1.078   1.081   1.081   1.082   1.084   1.086
  1.087   1.090   1.092   1.094   1.095   1.098   1.100   1.102
  1.104   1.105   1.108   1.110   1.113   1.114   1.115   1.116
  1.117   1.121   1.122   1.125   1.128   1.132   1.132   1.134
  1.137   1.138   1.141   1.142   1.143   1.145   1.146   1.148
  1.151   1.151   1.153   1.155   1.156   1.159   1.160   1.162
  1.164   1.166   1.166   1.168   1.170   1.172   1.173   1.174
  1.175   1.176   1.177   1.179   1.180   1.183   1.185   1.188
  1.188   1.190   1.193   1.195   1.196   1.197   1.200   1.203
  1.204   1.205   1.207   1.210   1.215   1.216   1.221   1.222
  1.225   1.227   1.232   1.233   1.236   1.238   1.242   1.243
  1.246   1.250   1.251   1.255   1.255   1.257   1.259   1.261
  1.262   1.264   1.266   1.267   1.268   1.269   1.272   1.274
  1.275   1.276   1.281   1.281   1.282   1.286   1.288   1.291
  1.293   1.296   1.298   1.304   1.304   1.307   1.310   1.312
  1.316   1.318   1.321   1.323   1.326   1.327   1.329   1.332
  1.334   1.335   1.337   1.339   1.342   1.345   1.347   1.348
  1.351   1.352   1.355   1.359   1.361   1.363   1.365   1.367
  1.368   1.372   1.373   1.376   1.379   1.382   1.384   1.385
  1.386   1.387   1.388   1.392   1.395   1.396   1.400   1.404
  1.405   1.406   1.412   1.412   1.414   1.417   1.424   1.429
  1.430   1.432   1.435   1.439   1.441   1.445   1.446   1.449
  1.451   1.454   1.457   1.458   1.460   1.463   1.464   1.465
  1.467   1.468   1.469   1.472   1.474   1.475   1.480   1.481
  1.483   1.486   1.489   1.490   1.491   1.494   1.496   1.498
  1.501   1.505   1.506   1.510   1.513   1.515   1.517   1.519
  1.521   1.523   1.528   1.529   1.533   1.534   1.536   1.537
  1.541   1.541   1.545   1.546   1.547   1.550   1.552   1.554
  1.557   1.559   1.560   1.562   1.565   1.568   1.570   1.573
  1.575   1.577   1.578   1.581   1.583   1.584   1.588   1.590
  1.593   1.595   1.598   1.602   1.608   1.612   1.615   1.618
  1.622   1.626   1.627   1.630   1.633   1.639   1.640   1.648
  1.651   1.653   1.657   1.657   1.661   1.663   1.664   1.669
  1.673   1.678   1.679   1.689   1.690   1.694   1.694   1.697
  1.703   1.703   1.705   1.706   1.706   1.709   1.712   1.715
  1.718   1.718   1.722   1.723   1.725   1.728   1.730   1.734
  1.734   1.736   1.737   1.739   1.741   1.743   1.746   1.747
  1.748   1.751   1.752   1.753   1.754   1.756   1.757   1.757
  1.759   1.761   1.762   1.764   1.765   1.766   1.767   1.769
  1.770   1.771   1.773   1.774   1.774   1.776   1.776   1.777
  1.779   1.781   1.781   1.783   1.784   1.785   1.786   1.787
  1.788   1.789   1.791   1.792   1.794   1.794   1.795   1.796
  1.797   1.798   1.800   1.800   1.803   1.804   1.806   1.807
  1.810   1.811   1.813   1.815   1.816   1.817   1.820   1.822
  1.824   1.829   1.831   1.832   1.833   1.834   1.837   1.838
  1.840   1.843   1.845   1.845   1.850   1.852   1.854   1.855
  1.857   1.858   1.860   1.862   1.863   1.864   1.866   1.868
  1.870   1.872   1.873   1.877   1.877   1.879   1.880   1.884
  1.886   1.889   1.894   1.895   1.898   1.898   1.901   1.903
  1.906   1.912   1.914   1.916   1.918   1.920   1.923   1.924
  1.925   1.927   1.930   1.931   1.933   1.935   1.938   1.940
  1.941   1.941   1.946   1.947   1.949   1.950   1.954   1.955
  1.957   1.959   1.960   1.961   1.962   1.964   1.965   1.966
  1.969   1.972   1.973   1.974   1.977   1.978   1.980   1.982
  1.982   1.985   1.986   1.987   1.989   1.991   1.993   1.995
  1.996   1.996   1.998   1.999   2.001   2.002   2.004   2.005
  2.006   2.007   2.009   2.011   2.013   2.015   2.015   2.016
  2.018   2.018   2.020   2.022   2.022   2.022   2.025   2.026
  2.027   2.028   2.028   2.029   2.030   2.032   2.033   2.035
  2.037   2.038   2.038   2.041   2.041   2.044   2.044   2.045
  2.047   2.048   2.050   2.050   2.052   2.052   2.054   2.055
  2.057   2.058   2.059   2.059   2.062   2.064   2.066   2.067
  2.068   2.068   2.069   2.070   2.074   2.075   2.076   2.079
  2.080   2.081   2.082   2.083   2.084   2.087   2.089   2.092
  2.094   2.096   2.096   2.098   2.099   2.102   2.103   2.105
  2.106   2.108   2.109   2.112   2.113   2.115   2.115   2.118
  2.123   2.124   2.127   2.133   2.134   2.137   2.141   2.146
  2.148   2.152   2.155   2.156   2.160   2.163   2.169   2.172
  2.177   2.184   2.187   2.190   2.197   2.197   2.199   2.202
  2.205   2.207   2.210   2.214   2.214   2.218   2.219   2.225
  2.230   2.231   2.234   2.234   2.237   2.238   2.241   2.242
  2.244   2.246   2.253   2.256   2.257   2.261   2.263   2.265
  2.266   2.269   2.270   2.272   2.275   2.276   2.278   2.282
  2.283   2.284   2.285   2.287   2.290   2.291   2.292   2.295
  2.297   2.298   2.300   2.302   2.305   2.306   2.308   2.313
  2.317   2.320   2.324   2.326   2.327   2.329   2.337   2.338
  2.341   2.342   2.343   2.346   2.348   2.351   2.353   2.354
  2.357   2.358   2.359   2.360   2.361   2.363   2.367   2.368
  2.369   2.371   2.373   2.374   2.375   2.376   2.378   2.378
  2.380   2.382   2.384   2.386   2.389   2.390   2.393   2.395
  2.396   2.398   2.399   2.400   2.403   2.404   2.405   2.407
  2.409   2.410   2.413   2.416   2.417   2.420   2.420   2.421
  2.425   2.428   2.429   2.431   2.434   2.436   2.439   2.443
  2.445   2.451   2.452   2.454   2.455   2.458   2.459   2.461
  2.462   2.463   2.465   2.468   2.470   2.471   2.472   2.474
  2.475   2.478   2.480   2.482   2.484   2.485   2.487   2.488
  2.491   2.493   2.494   2.498   2.498   2.500   2.502   2.503
  2.505   2.507   2.510   2.511   2.514   2.514   2.516   2.520
  2.522   2.522   2.524   2.529   2.532   2.534   2.535   2.540
  2.541   2.546   2.548   2.549   2.552   2.553   2.559   2.561
  2.562   2.569   2.572   2.574   2.576   2.582   2.583   2.585
  2.587   2.589   2.591   2.594   2.596   2.599   2.599   2.601
  2.603   2.606   2.608   2.610   2.611   2.612   2.615   2.617
  2.619   2.620   2.621   2.622   2.623   2.627   2.628   2.629
  2.632   2.633   2.635   2.638   2.639   2.641   2.642   2.643
  2.645   2.646   2.648   2.650   2.655   2.656   2.658   2.659
  2.661   2.662   2.663   2.664   2.666   2.668   2.670   2.671
  2.672   2.674   2.675   2.678   2.680   2.684   2.685   2.687
  2.689   2.692   2.694   2.695   2.698   2.701   2.703   2.705
  2.707   2.709   2.712   2.716   2.718   2.721   2.723   2.724
  2.726   2.729   2.731   2.733   2.733   2.734   2.737   2.740
  2.744   2.746   2.750   2.750   2.752   2.754   2.756   2.759
  2.760   2.761   2.762   2.763   2.765   2.767   2.769   2.771
  2.774   2.775   2.777   2.780   2.782   2.785   2.789   2.794
  2.796   2.798   2.801   2.805   2.808   2.816   2.818   2.822
  2.823   2.826   2.828   2.834   2.834   2.837   2.838   2.841
  2.843   2.845   2.848   2.849   2.851   2.855   2.857   2.859
  2.861   2.864   2.866   2.868   2.869   2.871   2.872   2.874
  2.877   2.879   2.880   2.883   2.883   2.885   2.888   2.890
  2.893   2.893   2.894   2.896   2.899   2.901   2.903   2.905
  2.908   2.909   2.910   2.913   2.915   2.915   2.916   2.918
  2.918   2.921   2.923   2.924   2.926   2.930   2.933   2.933
  2.934   2.936   2.940   2.941   2.941   2.945   2.948   2.950
  2.952   2.954   2.960   2.964   2.966   2.971   2.976   2.977
  2.981   2.984   2.986   2.989   2.990   2.992   2.996   2.998
  3.000   3.005   3.008   3.010   3.014   3.018   3.020   3.022
  3.024   3.027   3.028   3.033   3.034   3.037   3.039   3.042
  3.042   3.043   3.047   3.048   3.055   3.058   3.061   3.063
  3.066   3.069   3.074   3.074   3.083   3.087   3.090   3.103
  3.108   3.114   3.116   3.121   3.123   3.134   3.136   3.143
  3.149   3.149   3.156   3.172   3.177   3.178   3.182   3.189
  3.200   3.202   3.205   3.217   3.228   3.233   3.240   3.240
  3.244   3.248   3.249   3.259   3.265   3.272   3.284   3.287
  3.293   3.298   3.298   3.310   3.312   3.315   3.322   3.325
  3.331   3.335   3.343   3.352   3.361   3.382   3.387   3.406
  3.411   3.419   3.427   3.430   3.439   3.444   3.445   3.447
  3.456   3.458   3.460   3.469   3.471   3.479   3.487   3.492
  3.501   3.501   3.504   3.507   3.516   3.537   3.539   3.545
  3.552   3.559   3.561   3.578   3.590   3.596   3.598   3.608
  3.616   3.631   3.671   3.690   3.843   3.907   3.994   4.013
  4.070   4.073   4.079   4.081   4.082   4.087   4.089   4.098
  4.098   4.099   4.101   4.104   4.110   4.115   4.118   4.119
  4.128   4.131   4.136   4.140   4.144   4.146   4.150   4.155
  4.156   4.160   4.161   4.165   4.171   4.174   4.175   4.179
  4.186   4.188   4.207   4.208   4.211   4.213   4.233   4.239
  4.242   4.247   4.248   4.250   4.252   4.254   4.258   4.260
  4.264   4.264   4.269   4.279   4.280   4.282   4.290   4.293
  4.304   4.307   4.317   4.325   4.379   4.383   4.385   4.390
  4.393   4.396   4.398   4.402   4.404   4.411   4.414   4.415
  4.418   4.420   4.426   4.432   4.440   4.457   4.468   4.480
  4.487   4.504   4.513   4.523   4.530   4.538   4.544   4.549
  4.558   4.563   4.614   4.615   4.624   4.627   4.640   4.640
  4.643   4.660   4.684   4.688   4.689   4.691   4.696   4.699
  4.702   4.704   4.712   4.726   4.759   4.775   4.809   4.817
  4.836   4.849   4.857   4.870   4.872   4.875   4.880   4.892
  4.899   4.901   4.947   4.958   4.961   4.962   4.970   4.981
  4.984   4.989   4.991   5.007   5.158   5.175   5.175   5.186
  5.189   5.194   5.200   5.210   5.297   5.324   5.340   5.347
  5.358   5.367
 --------------------------------------------------------------
 
          Ground-State Mulliken Net Atomic Charges

     Atom                 Charge (a.u.)
  ----------------------------------------
      1 O                    -0.465497
      2 C                    -0.093358
      3 H                     0.127517
      4 H                     0.137008
      5 H                     0.128354
      6 O                    -0.488420
      7 C                     0.604117
      8 C                    -0.268342
      9 H                     0.132375
     10 H                     0.142308
     11 C                    -0.184839
     12 H                     0.119401
     13 H                     0.113688
     14 C                    -0.182717
     15 H                     0.101677
     16 H                     0.111461
     17 C                     0.008353
     18 C                     0.078790
     19 C                    -0.087899
     20 H                     0.100298
     21 C                    -0.103616
     22 H                     0.091591
     23 C                    -0.083711
     24 H                     0.088623
     25 C                    -0.085044
     26 H                     0.097891
     27 C                    -0.110136
     28 H                     0.091151
     29 C                    -0.012180
     30 C                    -0.008187
     31 C                    -0.021112
     32 C                    -0.046556
     33 C                     0.000333
     34 C                    -0.028603
     35 C                    -0.017668
     36 C                     0.004299
     37 C                    -0.003129
     38 C                     0.003017
     39 C                    -0.120262
     40 C                    -0.024438
     41 C                    -0.007174
     42 C                     0.015711
     43 C                     0.002971
     44 C                     0.012944
     45 C                    -0.084756
     46 C                     0.028533
     47 C                     0.014859
     48 C                     0.009649
     49 C                    -0.020805
     50 C                     0.004907
     51 C                     0.000336
     52 C                     0.010549
     53 C                     0.036451
     54 C                     0.002140
     55 C                    -0.022510
     56 C                    -0.014396
     57 C                     0.027646
     58 C                    -0.008838
     59 C                    -0.014422
     60 C                     0.076598
     61 C                    -0.015555
     62 C                    -0.009505
     63 C                    -0.004910
     64 C                    -0.002810
     65 C                     0.027675
     66 C                    -0.002521
     67 C                     0.021725
     68 C                     0.020069
     69 C                    -0.006405
     70 C                     0.043456
     71 C                     0.005522
     72 C                    -0.024663
     73 C                    -0.013798
     74 C                     0.011462
     75 C                    -0.021610
     76 C                     0.003145
     77 C                     0.028803
     78 C                     0.001086
     79 C                     0.004233
     80 C                     0.022873
     81 C                     0.002228
     82 C                     0.001318
     83 C                     0.006727
     84 C                    -0.004873
     85 C                    -0.006129
     86 C                    -0.030594
     87 C                    -0.005821
     88 C                     0.029806
     89 O                    -0.478336
     90 C                    -0.081035
     91 H                     0.119579
     92 H                     0.118078
     93 H                     0.135218
     94 O                    -0.461260
     95 C                     0.578450
     96 C                    -0.257686
     97 H                     0.129808
     98 H                     0.141063
     99 C                    -0.179896
    100 H                     0.129409
    101 H                     0.123073
    102 C                    -0.210776
    103 H                     0.113212
    104 H                     0.111459
    105 C                     0.028289
    106 C                     0.112802
    107 C                    -0.113708
    108 H                     0.079722
    109 C                    -0.072544
    110 H                     0.091683
    111 C                    -0.090970
    112 H                     0.083127
    113 C                    -0.067842
    114 H                     0.100083
    115 C                    -0.141053
    116 H                     0.081189
    117 C                    -0.002764
    118 C                     0.020677
    119 C                     0.003454
    120 C                    -0.008999
    121 C                    -0.005441
    122 C                    -0.009000
    123 C                    -0.035177
    124 C                     0.013817
    125 C                     0.017391
    126 C                    -0.012787
    127 C                    -0.064678
    128 C                     0.031858
    129 C                     0.019600
    130 C                     0.058401
    131 C                     0.008130
    132 C                    -0.028839
    133 C                    -0.096352
    134 C                     0.002522
    135 C                    -0.018531
    136 C                     0.010670
    137 C                     0.013110
    138 C                     0.001333
    139 C                    -0.040287
    140 C                    -0.005329
    141 C                    -0.000427
    142 C                     0.041233
    143 C                    -0.003126
    144 C                     0.010341
    145 C                    -0.002172
    146 C                    -0.012526
    147 C                    -0.030262
    148 C                    -0.001828
    149 C                     0.029762
    150 C                    -0.017576
    151 C                    -0.039877
    152 C                    -0.017708
    153 C                    -0.001776
    154 C                    -0.003340
    155 C                    -0.002879
    156 C                     0.039270
    157 C                    -0.013559
    158 C                     0.041621
    159 C                     0.004279
    160 C                    -0.030904
    161 C                    -0.013332
    162 C                     0.002593
    163 C                     0.002413
    164 C                    -0.010716
    165 C                     0.009018
    166 C                    -0.018248
    167 C                     0.008633
    168 C                    -0.001288
    169 C                     0.023587
    170 C                    -0.006952
    171 C                     0.005781
    172 C                     0.011398
    173 C                     0.026872
    174 C                     0.015024
    175 C                    -0.010862
    176 C                    -0.024254
  ----------------------------------------
  Sum of atomic charges =     0.000000

 -----------------------------------------------------------------
                    Cartesian Multipole Moments
 -----------------------------------------------------------------
    Charge (ESU x 10^10)
                 0.0000
    Dipole Moment (Debye)
         X       0.8218      Y       1.5473      Z       1.3894
       Tot       2.2361
    Quadrupole Moments (Debye-Ang)
        XX    -808.6907     XY      -3.2533     YY    -810.5781
        XZ      -0.5094     YZ      23.6484     ZZ    -803.8034
    Octopole Moments (Debye-Ang^2)
       XXX     397.9472    XXY     150.5247    XYY     -81.5165
       YYY     222.5198    XXZ     -88.6626    XYZ      21.5616
       YYZ     170.9345    XZZ      95.8711    YZZ     121.1837
       ZZZ      -9.9133
    Hexadecapole Moments (Debye-Ang^3)
      XXXX -134028.9359   XXXY    1741.9296   XXYY  -30035.9058
      XYYY    -392.3771   YYYY  -43856.9824   XXXZ    -855.7100
      XXYZ     -43.6839   XYYZ     217.6588   YYYZ    1440.1604
      XXZZ  -26072.1364   XYZZ     389.5313   YYZZ  -10831.9265
      XZZZ    -391.9249   YZZZ     371.9671   ZZZZ  -22701.0900
 -----------------------------------------------------------------
Archival summary:
1\1\mn366\SP\ProcedureUnspecified\6-31G**\428\afmv_a\TueOct913:49:522018TueOct913:49:522018\0\\#,ProcedureUnspecified,6-31G**,\\0,1\O\C,1,1.36958\O,2,1.24585,1,123.488\C,1,1.44573,2,123.525,3,7.04403,0\H,4,1.09662,1,112.664,2,-140.907,0\H,4,1.09703,1,113.001,2,103.026,0\H,4,1.09792,1,107.641,2,-25.9339,0\C,2,1.572,1,112.987,3,177.757,0\H,8,1.0967,2,98.1348,1,-94.8005,0\H,8,1.09689,2,110.001,1,148.17,0\C,8,1.52827,2,121.628,1,20.4669,0\H,11,1.09653,8,113.251,2,-176.843,0\H,11,1.09681,8,109.947,2,-52.9622,0\C,11,1.51538,8,114.534,2,62.6203,0\H,14,1.09636,11,110.904,8,-38.6061,0\H,14,1.09694,11,105.818,8,72.1761,0\C,14,1.5853,11,109.687,8,-167.198,0\C,17,1.51572,14,114.052,11,-79.1091,0\C,18,1.3873,17,120.231,14,91.622,0\H,19,1.08531,18,123.149,17,-0.234788,0\C,19,1.41084,18,123.625,17,-170.107,0\H,21,1.08602,19,119.939,18,176.596,0\C,21,1.39105,19,116.386,18,-4.81585,0\H,23,1.08537,21,121.446,19,172.059,0\C,18,1.42465,17,119.798,14,-86.9653,0\H,25,1.08565,18,117.81,17,-1.93409,0\C,25,1.40084,18,116.204,17,167.134,0\H,27,1.08598,25,122.751,18,-171.62,0\C,17,1.52685,14,115.462,11,79.9367,0\C,29,1.4761,17,123.938,14,-148.349,0\C,30,1.40469,29,109.078,17,147.049,0\C,31,1.38591,30,110.808,29,8.58642,0\C,31,1.39557,30,119.556,29,147.49,0\C,33,1.3635,31,122.956,30,-139.446,0\C,34,1.39715,33,110.21,31,144.39,0\C,35,1.36783,34,107.663,33,2.12978,0\C,35,1.39825,34,119.346,33,-138.821,0\C,37,1.35607,35,121.64,34,138.007,0\C,38,1.39674,37,120.16,35,-0.767538,0\C,39,1.38346,38,118.607,37,-2.41214,0\C,39,1.38512,38,120.15,37,-138.468,0\C,40,1.3903,39,106.969,38,-140.987,0\C,41,1.39537,39,111.229,38,140.004,0\C,43,1.39586,41,121.05,39,-138.575,0\C,44,1.38755,43,118.907,41,137.661,0\C,36,1.40336,35,109.704,34,-1.65083,0\C,38,1.40732,37,108.689,35,-148.87,0\C,47,1.39295,38,106.297,37,4.75071,0\C,48,1.38296,47,109.582,38,-5.77756,0\C,49,1.3707,48,120.38,47,150.902,0\C,50,1.39337,49,115.765,48,-137.956,0\C,51,1.40268,50,109.382,49,140.969,0\C,52,1.39477,51,107.431,50,-1.86962,0\C,47,1.40635,38,118.314,37,139.618,0\C,54,1.34847,47,123.782,38,-139.451,0\C,55,1.36701,54,107.947,47,145.294,0\C,44,1.40766,43,120.041,41,-6.9747,0\C,57,1.40138,44,104.285,43,142.672,0\C,58,1.3843,57,121.222,44,-141.835,0\C,59,1.39641,58,116.535,57,142.075,0\C,60,1.40369,59,103.437,58,-145.607,0\C,58,1.40827,57,110.61,44,3.7952,0\C,42,1.40829,40,118.227,39,146.678,0\C,48,1.41158,47,122.114,38,143.105,0\C,64,1.39648,48,119.773,47,-139.384,0\C,65,1.39935,64,108.522,48,141.276,0\C,65,1.40168,64,118.756,48,-9.56915,0\C,64,1.40367,48,117.213,47,-3.65903,0\C,66,1.40727,65,107.21,64,-5.42139,0\C,69,1.40266,66,120.949,65,-140.096,0\C,70,1.39178,69,119.633,66,143.354,0\C,54,1.41166,47,119.922,38,12.1883,0\C,72,1.40973,54,105.565,47,-148.013,0\C,62,1.41628,58,124.169,57,-144.702,0\C,74,1.38612,62,122.106,58,139.956,0\C,74,1.41882,62,118.592,58,-1.27818,0\C,76,1.39494,74,110.321,62,144.036,0\C,77,1.40859,76,116.293,74,-139.715,0\C,53,1.42006,52,121.091,51,-136.27,0\C,79,1.41723,53,124.986,52,139.679,0\C,80,1.40847,79,109.203,53,-142.768,0\C,46,1.42042,36,124.386,35,-142.754,0\C,82,1.4104,46,119.755,36,135.137,0\C,83,1.38416,82,107.738,46,-139.858,0\C,84,1.4198,83,108.875,82,5.13574,0\C,79,1.42287,53,117.489,52,-4.95968,0\C,86,1.38655,79,123.449,53,-4.89958,0\C,77,1.42341,76,108.05,74,6.72801,0\H,9,1.97437,8,123.531,2,-113.95,0\C,89,1.09726,9,167.495,8,107.771,0\H,90,1.09676,89,117.453,9,106.588,0\C,90,1.51,89,109.449,9,-140.887,0\O,92,1.20921,90,124.197,89,136.115,0\O,92,1.37293,90,116.174,89,-52.0611,0\C,94,1.42793,92,120.981,90,-178.562,0\H,95,1.09667,94,107.167,92,160.441,0\H,95,1.09691,94,111.686,92,38.2028,0\H,95,1.09769,94,111.928,92,-81.8485,0\C,90,1.60304,89,103.324,9,-17.4831,0\H,99,1.09617,90,118.29,89,173.207,0\H,99,1.09757,90,112.789,89,-62.3029,0\C,99,1.53094,90,113.67,89,52.2313,0\H,102,1.09615,99,100.289,90,179.667,0\H,102,1.09665,99,107.044,90,-68.6526,0\C,102,1.54182,99,118.928,90,62.439,0\C,105,1.48159,102,121.212,99,-158.087,0\C,106,1.49551,105,125.938,102,-151.183,0\C,107,1.40506,106,121.362,105,-67.3704,0\C,108,1.38661,107,121.751,106,-146.63,0\C,109,1.37758,108,119.27,107,1.38598,0\C,109,1.37931,108,109.862,107,145.35,0\C,111,1.3732,109,105.892,108,0.0289508,0\C,112,1.36606,111,116.838,109,-146.17,0\C,110,1.38652,109,122.063,108,5.03902,0\C,114,1.3888,110,117.901,109,-2.77721,0\C,115,1.36916,114,120.374,110,141.5,0\C,111,1.39117,109,121.002,108,-146.454,0\C,117,1.32322,111,119.542,109,138.497,0\C,117,1.38586,111,123.027,109,-0.127095,0\C,110,1.39459,109,118.196,108,142.463,0\C,108,1.39855,107,120.955,106,-4.25324,0\C,114,1.39882,110,109.173,109,141.308,0\C,122,1.37472,114,107.356,110,-1.64557,0\C,123,1.38356,122,118.077,114,-147.874,0\C,118,1.40204,117,121.441,111,0.45356,0\C,119,1.40469,117,110.13,111,138.35,0\C,125,1.40864,118,125.963,117,-142.745,0\C,127,1.40484,125,106.46,118,144.949,0\C,118,1.41009,117,113.205,111,-141.685,0\C,122,1.4148,114,117.942,110,-147.137,0\C,130,1.39628,122,116.58,114,139.539,0\C,131,1.39742,130,121.737,122,2.63082,0\C,130,1.40222,122,120.743,114,6.81295,0\C,133,1.40448,130,109.791,122,136.416,0\C,134,1.38347,133,106.257,130,-1.99891,0\C,135,1.37127,134,121.536,133,-147.196,0\C,136,1.37707,135,122.087,134,142.047,0\C,132,1.40916,131,120.768,130,-140.013,0\C,138,1.40284,132,105.064,131,139.383,0\C,139,1.38782,138,111.856,132,3.62819,0\C,127,1.41625,125,117.06,118,5.68792,0\C,141,1.41117,127,120.285,125,-6.3213,0\C,142,1.41273,141,107.385,127,140.062,0\C,143,1.39213,142,110.221,141,5.77126,0\C,144,1.3709,143,120.257,142,-140.15,0\C,145,1.38541,144,122.035,143,132.709,0\C,146,1.37838,145,107.56,144,-149.828,0\C,146,1.38888,145,121.528,144,0.257979,0\C,148,1.36121,146,120.58,145,-2.06331,0\C,141,1.4166,127,120.155,125,133.389,0\C,121,1.41864,108,122.931,107,-2.04607,0\C,148,1.42282,146,119.49,145,-138.702,0\C,152,1.37137,148,109.138,146,140.444,0\C,152,1.38425,148,119.113,146,-2.52523,0\C,153,1.38799,152,118.492,148,-139.732,0\C,155,1.40203,153,124.006,152,-11.6179,0\C,155,1.40305,153,121.661,152,140.514,0\C,156,1.40308,155,114.345,153,16.2529,0\C,158,1.4137,156,123.298,155,129.998,0\C,159,1.39083,158,122.09,156,3.37018,0\C,159,1.39233,158,107.008,156,-148.771,0\C,161,1.37711,159,111.319,158,-1.03568,0\C,157,1.41634,155,119.91,153,-3.623,0\C,153,1.41706,152,108.23,148,0.170769,0\C,151,1.4906,121,118.773,108,6.325,0\C,105,1.50055,102,109.194,99,57.5085,0\C,166,1.35976,105,117.65,102,-97.256,0\H,167,1.08609,166,118.282,105,-0.39031,0\C,167,1.38441,166,122.922,105,178.184,0\H,169,1.08559,167,117.995,166,179.466,0\C,169,1.37909,167,118.165,166,2.32262,0\H,171,1.08571,169,119.138,167,-170.831,0\C,171,1.33696,169,122.541,167,-2.55245,0\H,173,1.0854,171,119.248,169,-159.168,0\C,173,1.3793,171,117.091,169,4.25479,0\H,175,1.08671,173,117.114,171,-170.857,0\\\@

 Total job time:  882.96s(wall), 7600.74s(cpu) 
 Tue Oct  9 13:49:52 2018

        *************************************************************
        *                                                           *
        *  Thank you very much for using Q-Chem.  Have a nice day.  *
        *                                                           *
        *************************************************************


