
Running Job 1 of 1 ./6/30.qcin
qchem ./6/30.qcin_46393.0 /tmpu/cab_g/afmv_a/scratch_qchem/qchem46393/ 1
/tmpu/appuserlic/qchem4.4/serial-multicore/exe/qcprog.exe_s ./6/30.qcin_46393.0 /tmpu/cab_g/afmv_a/scratch_qchem/qchem46393/
Check license passed

                  Welcome to Q-Chem
     A Quantum Leap Into The Future Of Chemistry


 Q-Chem 4.4, Q-Chem, Inc., Pleasanton, CA (2016)

 Y. Shao,  Z. Gan,  E. Epifanovsky,  A. T. B. Gilbert,  M. Wormit,  
 J. Kussmann,  A. W. Lange,  A. Behn,  J. Deng,  X. Feng,  D. Ghosh,  
 M. Goldey,  P. R. Horn,  L. D. Jacobson,  I. Kaliman,  F. Rob,  
 R. Z. Khaliullin,  T. Kus,  A. Landau,  J. Liu,  E. I. Proynov,  Y. M. Rhee,  
 R. M. Richard,  M. A. Rohrdanz,  R. P. Steele,  E. J. Sundstrom,  
 H. L. Woodcock III,  P. M. Zimmerman,  D. Zuev,  B. Albrecht,  E. Alguire,  
 B. Austin,  S. A. Baeppler,  G. J. O. Beran,  Y. A. Bernard,  E. Berquist,  
 K. Brandhorst,  K. B. Bravaya,  S. T. Brown,  D. Casanova,  C.-M. Chang,  
 Y. Chen,  S. H. Chien,  K. D. Closser,  M. P. Coons,  D. L. Crittenden,  
 S. Dasgupta,  M. Diedenhofen,  R. A. DiStasio Jr.,  H. Do,  A. D. Dutoi,  
 R. G. Edgar,  P.-T. Fang,  S. Fatehi,  Q. Feng,  L. Fusti-Molnar,  
 A. Ghysels,  A. Golubeva-Zadorozhnaya,  J. Gomes,  A. Gunina,  
 M. W. D. Hanson-Heine,  P. H. P. Harbach,  A. W. Hauser,  J. E. Herr,  
 E. G. Hohenstein,  Z. C. Holden,  K. Hui,  T.-C. Jagau,  H. Ji,  B. Kaduk,  
 K. Khistyaev,  Jaehoon Kim,  Jihan Kim,  R. A. King,  P. Klunzinger,  
 K. Koh,  D. Kosenkov,  T. Kowalczyk,  C. M. Krauter,  A. Kunitsa,  
 K. U. Lao,  A. Laurent,  K. V. Lawler,  J. Lee,  D. Lefrancois,  S. Lehtola,  
 S. V. Levchenko,  C. Y. Lin,  Y.-S. Lin,  F. Liu,  E. Livshits,  
 R. C. Lochan,  A. Luenser,  P. Manohar,  S. F. Manzer,  S.-P. Mao,  Y. Mao,  
 N. Mardirossian,  A. V. Marenich,  L. A. Martinez-Martinez,  S. A. Maurer,  
 N. J. Mayhall,  J.-M. Mewes,  A. F. Morrison,  K. Nanda,  T. S. Nguyen-Beck,  
 C. M. Oana,  R. Olivares-Amaya,  D. P. O'Neill,  J. A. Parkhill,  
 T. M. Perrine,  R. Peverati,  P. A. Pieniazek,  F. Plasser,  A. Prociuk,  
 D. R. Rehn,  E. Rosta,  N. J. Russ,  N. Sergueev,  S. M. Sharada,  
 S. Sharma,  D. W. Small,  A. Sodt,  T. Stauch,  T. Stein,  D. Stuck,  
 Y.-C. Su,  A. J. W. Thom,  T. Tsuchimochi,  L. Vogt,  O. Vydrov,  T. Wang,  
 M. A. Watson,  J. Wenzel,  A. White,  C. F. Williams,  V. Vanovschi,  
 K. Yao,  S. Yeganeh,  S. R. Yost,  Z.-Q. You,  I. Y. Zhang,  X. Zhang,  
 Y. Zhao,  B. R. Brooks,  G. K. L. Chan,  D. M. Chipman,  C. J. Cramer,  
 W. A. Goddard III,  M. S. Gordon,  W. J. Hehre,  A. Klamt,  
 H. F. Schaefer III,  M. W. Schmidt,  C. D. Sherrill,  D. G. Truhlar,  
 A. Warshel,  X. Xu,  A. Aspuru-Guzik,  R. Baer,  A. T. Bell,  N. A. Besley,  
 J.-D. Chai,  A. Dreuw,  B. D. Dunietz,  T. R. Furlani,  S. R. Gwaltney,  
 C.-P. Hsu,  Y. Jung,  J. Kong,  D. S. Lambrecht,  W. Liang,  C. Ochsenfeld,  
 V. A. Rassolov,  L. V. Slipchenko,  J. E. Subotnik,  T. Van Voorhis,  
 J. M. Herbert,  A. I. Krylov,  P. M. W. Gill,  M. Head-Gordon

 Contributors to earlier versions of Q-Chem not listed above: 
 R. D. Adamson,  J. Baker,  E. F. C. Byrd,  A. K. Chakraborty,  C.-L. Cheng,  
 H. Dachsel,  R. J. Doerksen,  G. Hawkins,  A. Heyden,  S. Hirata,  
 G. Kedziora,  F. J. Keil,  C. Kelley,  P. P. Korambath,  W. Kurlancheek,  
 A. M. Lee,  M. S. Lee,  D. Liotard,  I. Lotan,  P. E. Maslen,  N. Nair,  
 D. Neuhauser,  R. Olson,  B. Peters,  J. Ritchie,  N. E. Schultz,  
 N. Shenvi,  A. C. Simmonett,  K. S. Thanthiriwatte,  Q. Wu,  W. Zhang

 Please cite Q-Chem as follows:
 Y. Shao et al., Mol. Phys. 113, 184-215 (2015)
 DOI: 10.1080/00268976.2014.952696

 Q-Chem 4.4.2 for Intel X86 Linux

 Parts of Q-Chem use Armadillo 5.200.1 (Boston Tea Smuggler).
 http://arma.sourceforge.net/

 Q-Chem begins on Tue Oct  9 14:50:46 2018  

Host: 
0

     Scratch files written to /tmpu/cab_g/afmv_a/scratch_qchem/qchem46393//
 Dec716 11556_ 22328  22283 4050   
Processing $rem in /tmpu/appuserlic/qchem4.4/serial-multicore/config/preferences.
 MEM_TOTAL  2000 
FILE_GEOM_ORG=        593

Checking the input file for inconsistencies... 	...done.

--------------------------------------------------------------
User input:
--------------------------------------------------------------
$comment
SP
$end

$rem
MEM_STATIC 5000
MEM_TOTAL 20000
JOBTYPE SP
EXCHANGE B3LYP
BASIS 6-31g(d,p)
$end

$molecule
0 1
O          11.189000     10.255000      6.483000
C          11.081000     10.918000      7.721000
H          11.604000     11.881000      7.747000
H          11.560000     10.264000      8.460000
H          10.055000     11.160000      8.025000
O           9.773000      8.581000      7.104000
C          10.517000      9.106000      6.271000
C          10.758000      8.669000      4.898000
H          11.712000      8.146000      4.754000
H          10.790000      9.602000      4.323000
C           9.600000      7.837000      4.469000
H           9.718000      6.815000      4.850000
H           8.653000      8.249000      4.838000
C           9.514000      7.810000      2.944000
H           9.646000      8.814000      2.523000
H          10.417000      7.282000      2.611000
C           8.306000      7.169000      2.394000
C           7.092000      7.985000      2.607000
C           6.887000      9.228000      1.966000
H           7.659000      9.650000      1.330000
C           5.756000     10.031000      2.035000
H           5.740000     10.998000      1.539000
C           4.859000      9.674000      3.038000
H           4.018000     10.337000      3.217000
C           5.091000      8.545000      3.886000
H           4.444000      8.305000      4.725000
C           6.204000      7.699000      3.667000
H           6.301000      6.844000      4.330000
C           5.790000      2.344000      2.267000
C           4.822000      3.418000      0.298000
C           7.179000      0.855000     -2.767000
C          10.738000      2.279000      2.306000
C           9.718000      3.296000     -3.230000
C           5.321000      3.481000      1.618000
C          11.684000      2.148000     -0.388000
C           6.030000      0.268000     -0.688000
C           7.513000      5.988000     -1.178000
C          11.181000      3.417000      1.607000
C           8.241000      6.403000      1.057000
C           8.949000      6.086000     -1.221000
C          11.163000      4.498000     -0.413000
C          11.294000      2.105000     -1.767000
C           5.930000      5.358000      0.524000
C           9.498000      0.859000     -2.753000
C           8.221000      5.660000      2.346000
C           9.363000      4.755000      2.625000
C           9.016000      2.054000     -3.376000
C           8.944000     -0.467000      1.028000
C           8.370000     -0.534000     -1.113000
C           7.202000     -0.441000     -0.282000
C           5.315000      1.067000      0.275000
C           8.908000      3.539000      3.265000
C           7.051000      6.169000      0.190000
C           4.903000      2.217000     -0.397000
C          11.632000      3.390000      0.305000
C           5.196000      4.545000     -0.385000
C           9.696000      5.279000     -2.131000
C           8.956000      1.111000      2.950000
C           6.032000      0.904000     -1.939000
C           9.417000      6.180000      0.097000
C           6.852000      0.332000      2.008000
C          10.835000      4.500000     -1.733000
C           6.823000      5.186000     -2.088000
C          10.593000      0.243000     -0.650000
C          11.212000      1.037000      0.293000
C           7.548000      4.445000     -3.045000
C           9.609000      2.349000      3.073000
C          10.446000      4.630000      1.747000
C           9.641000      0.325000      1.995000
C           7.081000      4.719000      2.681000
C           5.719000      3.269000     -2.327000
C          10.435000      5.289000      0.531000
C           8.963000      4.471000     -3.087000
C           7.533000      1.094000      2.975000
C           7.622000      2.042000     -3.305000
C           5.785000      1.090000      1.595000
C           8.352000      0.124000     -2.380000
C           5.706000      4.449000     -1.701000
C           6.871000      3.266000     -3.158000
C           5.993000      4.696000      1.790000
C           7.527000      3.538000      3.307000
C           9.502000     -0.492000     -0.272000
C           5.298000      2.073000     -1.731000
C          10.837000      3.244000     -2.420000
C          10.793000      1.063000      1.662000
C          10.604000      0.920000     -1.936000
C           6.855000      2.352000      3.151000
C           7.563000     -0.436000      1.051000
O          15.040000      0.349000     -0.922000
C          15.190000      1.063000      0.263000
H          15.632000      0.399000      1.016000
H          14.225000      1.424000      0.639000
H          15.904000      1.883000      0.117000
O          14.556000      2.184000     -2.211000
C          14.765000      1.004000     -2.137000
C          14.720000      0.180000     -3.406000
H          15.550000     -0.529000     -3.515000
H          14.782000      0.960000     -4.174000
C          13.284000     -0.415000     -3.708000
H          12.892000     -1.049000     -2.903000
H          12.471000      0.295000     -3.901000
C          13.384000     -1.489000     -4.842000
H          13.826000     -0.999000     -5.718000
H          14.015000     -2.305000     -4.470000
C          11.997000     -2.086000     -5.248000
C          11.486000     -3.120000     -4.273000
C          10.748000     -2.675000     -3.188000
H          10.534000     -1.620000     -3.050000
C          10.091000     -3.605000     -2.410000
H           9.498000     -3.175000     -1.608000
C          10.123000     -4.945000     -2.748000
H           9.667000     -5.737000     -2.161000
C          10.916000     -5.355000     -3.804000
H          11.098000     -6.415000     -3.951000
C          11.529000     -4.459000     -4.632000
H          12.041000     -4.831000     -5.513000
C           8.869000     -3.952000     -9.451000
C           7.298000     -3.051000     -7.936000
C           5.903000      0.512000    -10.244000
C          12.299000     -0.295000    -10.504000
C           7.906000      2.727000     -8.367000
C           8.484000     -3.719000     -8.113000
C          10.916000      2.207000    -10.301000
C           6.391000     -1.772000    -10.984000
C           8.745000     -0.137000     -5.662000
C          12.423000      0.518000     -9.377000
C          10.896000     -1.171000     -5.815000
C           9.662000      0.830000     -5.986000
C          11.347000      1.938000     -7.923000
C           9.666000      2.813000    -10.076000
C           8.719000     -2.391000     -6.265000
C           7.374000      2.172000    -10.729000
C          11.596000     -2.139000     -6.775000
C          12.279000     -1.476000     -7.890000
C           7.037000      2.289000     -9.366000
C           9.415000     -0.898000    -12.462000
C           7.374000      0.150000    -12.141000
C           7.246000     -1.247000    -11.944000
C           6.760000     -2.887000    -10.249000
C          11.942000     -2.214000     -9.014000
C           9.426000     -1.349000     -5.665000
C           6.446000     -2.634000     -8.959000
C          11.715000      1.734000     -9.272000
C           7.414000     -2.240000     -6.757000
C           9.250000      1.869000     -6.818000
C          11.138000     -2.113000    -11.338000
C           5.800000     -0.865000    -10.064000
C          10.999000      0.324000     -6.148000
C           8.810000     -2.991000    -11.531000
C          10.069000      2.456000     -7.749000
C           7.407000      0.002000     -6.123000
C           9.421000      1.451000    -11.872000
C          10.778000      1.366000    -11.434000
C           6.966000      1.131000     -6.803000
C          11.965000     -1.607000    -10.297000
C          12.412000     -0.100000     -8.066000
C          10.752000     -0.962000    -12.045000
C          10.792000     -3.141000     -7.456000
C           5.888000     -0.658000     -7.674000
C          11.778000      0.798000     -7.206000
C           7.923000      2.123000     -7.104000
C          10.173000     -3.102000    -11.063000
C           6.100000      1.334000     -9.098000
C           8.009000     -3.512000    -10.478000
C           6.696000      1.080000    -11.273000
C           6.668000     -1.081000     -6.602000
C           6.063000      0.753000     -7.824000
C           9.420000     -3.228000     -7.167000
C          11.168000     -3.297000     -8.819000
C           8.749000      0.341000    -12.380000
C           5.796000     -1.414000     -8.840000
C           9.259000      3.011000     -8.762000
C          11.499000      0.135000    -11.569000
C           8.753000      2.393000    -11.065000
C          10.199000     -3.694000     -9.790000
C           8.447000     -1.854000    -12.260000
$end

--------------------------------------------------------------
 ----------------------------------------------------------------
             Standard Nuclear Orientation (Angstroms)
    I     Atom           X                Y                Z
 ----------------------------------------------------------------
    1      O     -12.7053034971    -0.3571467843     3.6700810108
    2      C     -14.1125903574    -0.3725281718     3.6136531288
    3      H     -14.5898582781    -0.1999378973     4.5852507456
    4      H     -14.3935902745    -1.3803358029     3.2840460518
    5      H     -14.5547532518     0.3872238317     2.9572044499
    6      O     -12.4789166548    -0.5500190655     1.4107620248
    7      C     -11.9825147920    -0.4588620335     2.5369616457
    8      C     -10.5649762234    -0.3559567079     2.8748579322
    9      H     -10.1234862902    -1.2885434163     3.2486890039
   10      H     -10.5367669858     0.3834387520     3.6839540901
   11      C      -9.8421559957     0.1586434385     1.6790541825
   12      H      -9.6497763865    -0.6652579014     0.9806662760
   13      H     -10.4214217504     0.9351464078     1.1650421942
   14      C      -8.5184036341     0.7925478659     2.1028405226
   15      H      -8.6530395506     1.4419339756     2.9762544281
   16      H      -7.9143135007    -0.0334693187     2.5001473580
   17      C      -7.7901835955     1.5003852662     1.0345209121
   18      C      -8.4533608015     2.7628715062     0.6454894384
   19      C      -8.5376724494     3.8775403056     1.5105674774
   20      H      -8.1577342177     3.8129645849     2.5254767918
   21      C      -9.0654210925     5.1284020318     1.2180656626
   22      H      -9.1251683005     5.8915168684     1.9897177975
   23      C      -9.8016357086     5.1789417418     0.0375993240
   24      H     -10.3373335946     6.0980435324    -0.1795887823
   25      C      -9.9516529326     4.0311707767    -0.8036412149
   26      H     -10.5911214895     4.0332326835    -1.6818244038
   27      C      -9.2739413082     2.8261283719    -0.5019364638
   28      H      -9.4099576991     2.0053978862    -1.2004377245
   29      C      -5.3957786754     0.5593995374    -3.7621843047
   30      C      -4.2932048187     2.6358288806    -3.0986836840
   31      C      -0.2267589255     0.6394444826    -2.1001296630
   32      C      -5.1157815477    -3.0459841720    -0.3841286633
   33      C      -0.9115570701     0.4096303376     1.3780319146
   34      C      -5.4348455995     1.8052701204    -3.1455715690
   35      C      -2.6730479150    -2.7627484072     1.0727662887
   36      C      -1.7894192187     0.3228799882    -3.9561713459
   37      C      -4.1607425186     2.7620994385     0.9002494843
   38      C      -5.0604564499    -2.4350805324     0.8822164227
   39      C      -6.2555231381     1.6184444261     0.9374162509
   40      C      -4.0914429765     1.8044192152     1.9733735048
   41      C      -3.8634897391    -1.0170393740     2.2259853635
   42      C      -1.4844044762    -1.9761192565     1.2274639113
   43      C      -5.4013098377     2.8775397010    -1.1606384972
   44      C      -0.1091829339    -1.0286825818    -0.4934246549
   45      C      -6.9943529952     0.7053433510     0.0239903542
   46      C      -6.7147477998    -0.7466677955     0.1444667638
   47      C      -0.2005915913     0.2501156081     0.1428124446
   48      C      -2.7339104375    -2.8567907993    -2.9693040697
   49      C      -0.8865441014    -1.6582492272    -2.7074229507
   50      C      -1.7162452727    -1.0860268098    -3.7309421109
   51      C      -3.0624578068     0.9281457521    -4.2562065242
   52      C      -6.6806305738    -1.3714206916    -1.1608304567
   53      C      -5.4577083891     2.6714296855     0.2465771455
   54      C      -3.0849960671     2.1494898410    -3.5841658681
   55      C      -3.8985149960    -2.2726981291     1.6053056377
   56      C      -4.2500597057     3.2837323138    -1.8925105454
   57      C      -2.8582656968     1.1511121614     2.2730761747
   58      C      -5.1846056112    -2.6916693435    -2.5805366970
   59      C      -1.0305419065     1.1722440215    -3.1363012563
   60      C      -5.2487170107     1.0148561615     1.9255091760
   61      C      -4.0997877626    -1.2693873882    -4.2301746194
   62      C      -2.7448456754    -0.2715869833     2.4331669066
   63      C      -3.0116666922     3.1434606498     0.2062809175
   64      C      -1.5505444379    -2.9825042303    -0.8192282468
   65      C      -2.7280828428    -3.3302435028    -0.1904781347
   66      C      -1.7724174584     2.5623173349     0.5484633019
   67      C      -5.8765068972    -2.4904255005    -1.3743213240
   68      C      -5.8332420590    -1.2582902990     1.1039395580
   69      C      -3.9267099428    -3.2709441495    -2.2956065541
   70      C      -6.8744850147     0.8493656691    -1.4800692321
   71      C      -1.9036969367     2.9172187575    -1.7099767967
   72      C      -5.1168569152    -0.3997526759     1.9180424235
   73      C      -1.6689451752     1.5776005742     1.5605361192
   74      C      -5.2784009413    -1.6894398378    -3.5868077609
   75      C      -0.3349233089     1.2166903837    -0.8552402559
   76      C      -4.1856187603     0.0952262164    -4.3488538095
   77      C      -0.1260745119    -0.7756074268    -1.8820706286
   78      C      -3.0379780683     3.3691583337    -1.1681263246
   79      C      -1.1201883449     2.4086458345    -0.6398637800
   80      C      -6.1563495946     1.9606549217    -1.9570091817
   81      C      -6.7947514459    -0.3966267447    -2.1332908351
   82      C      -1.5686250298    -2.7708464722    -2.1713614080
   83      C      -1.8397700927     2.2966047975    -2.9644187728
   84      C      -1.5203471046    -0.7361637845     1.8549968228
   85      C      -3.9454802958    -3.5420064336    -0.9140096838
   86      C      -0.7816041405    -2.1023491910     0.0446605921
   87      C      -6.1016362631    -0.5413710994    -3.3085169475
   88      C      -2.8477481248    -1.8561270937    -3.9150123382
   89      O      -1.1168476055    -6.0091880639     2.4230118784
   90      C      -2.4894441840    -6.1598274715     2.5956600805
   91      H      -2.7795857882    -7.1522609442     2.2293778783
   92      H      -3.0501071474    -5.4026567188     2.0341696597
   93      H      -2.7355961850    -6.1409578741     3.6645684633
   94      O      -0.9560803910    -4.1013212398     3.6868156940
   95      C      -0.4143007575    -4.9638013633     3.0510800058
   96      C       1.0920400535    -4.9199277218     2.9083408566
   97      H       1.5898957222    -5.8847729676     3.0654248623
   98      H       1.3653648941    -4.2163558028     3.7035440296
   99      C       1.5703128742    -4.1173158460     1.6299065463
  100      H       1.1728851580    -4.5135907858     0.6872176355
  101      H       1.3333421911    -3.0476924982     1.5844226016
  102      C       3.0942612062    -4.3744807140     1.3831684017
  103      H       3.6282076269    -4.0701975998     2.2915477313
  104      H       3.2198768809    -5.4438568639     1.1756681553
  105      C       3.6660043985    -3.5681237854     0.1715941259
  106      C       3.3164877679    -4.1763107645    -1.1658843687
  107      C       2.1150571475    -3.8067236493    -1.7488627806
  108      H       1.4530748585    -3.0948144375    -1.2663384567
  109      C       1.8748015413    -4.1738739421    -3.0562689555
  110      H       0.9331894001    -3.8080097304    -3.4553465847
  111      C       2.8423162256    -4.8431953784    -3.7820734406
  112      H       2.7087412436    -5.2010632880    -4.7988611684
  113      C       4.0042514527    -5.2431655792    -3.1480266234
  114      H       4.6746936791    -5.9315275402    -3.6529999214
  115      C       4.3022327014    -4.8448563045    -1.8765212569
  116      H       5.2781868193    -5.0884969088    -1.4705140946
  117      C       8.0516675732    -0.7836628109    -1.8144281801
  118      C       6.2027026248     0.2825638910    -2.8241589559
  119      C       6.3210035079     4.2388003638    -0.7500191649
  120      C       7.3143897142    -0.7210456789     3.2550746016
  121      C       3.7016407328     3.3609098859     1.4430631321
  122      C       6.7587790158    -0.8879177070    -2.3714991763
  123      C       5.8019171801     1.6437952781     3.8328774071
  124      C       8.1360440567     2.8499030710    -1.6326244652
  125      C       2.8577217244     0.0559817588    -0.6990602962
  126      C       5.9405193955    -0.7732835699     3.4921938757
  127      C       3.6320457828    -2.0287467049     0.1805393200
  128      C       2.7026252193     0.0829030845     0.6633545878
  129      C       3.9111212900     0.2618414659     3.1785834646
  130      C       5.2320112276     2.8057942417     3.2803137329
  131      C       4.5103463038    -0.9992808615    -1.9639926270
  132      C       5.9875069274     4.3316478671     1.4938224899
  133      C       4.9866793890    -2.7223463627     0.3608482430
  134      C       5.6533586493    -2.3987145910     1.6257926054
  135      C       4.7341516529     4.1160623756     0.8874806295
  136      C       9.1424922919     1.7548960404     1.5107745793
  137      C       8.2224982219     3.7040033024     0.6612936833
  138      C       8.7482635630     2.9103133586    -0.3877197005
  139      C       8.0842038323     1.6554350454    -2.3327456882
  140      C       6.9748120949    -2.1512305125     1.2880035855
  141      C       3.5087994301    -1.1342627898    -1.0025891016
  142      C       6.8266748785     1.5302947545    -2.8119803259
  143      C       5.1979387084     0.3993498929     3.7460633007
  144      C       4.7845433803     0.2148677082    -2.6109464229
  145      C       2.8739098807     1.3015860261     1.3167782273
  146      C       8.8823956847    -0.6196436521     1.5581138167
  147      C       6.8527846438     3.4453043515    -1.7632866034
  148      C       3.1728281954    -1.1078880596     1.3196888110
  149      C       9.3584250779     0.6173946178    -0.5563244859
  150      C       3.4278822154     1.4125999408     2.5669308432
  151      C       3.1093509577     1.2749207556    -1.3867785897
  152      C       7.4521425055     2.8845888188     2.8269997978
  153      C       7.1942550266     1.6921698807     3.5700671730
  154      C       3.1026311528     2.5079994945    -0.7456907114
  155      C       7.7770677376    -1.3214178600     2.1143593475
  156      C       5.1203346099    -1.6288800248     2.6579171688
  157      C       8.8910118865     0.5971025259     2.2603249668
  158      C       6.0324413308    -2.4633141758    -0.6156072282
  159      C       4.6926640041     2.5808763322    -2.3543331510
  160      C       3.8909019528    -0.9846940187     2.5113575180
  161      C       2.9173931714     2.5118247383     0.6529465746
  162      C       9.0880905140    -0.6059645699     0.1643873299
  163      C       4.9303651193     4.1320409263    -0.4627278587
  164      C       8.6670623141     0.4846840067    -1.7917419953
  165      C       6.9675678018     4.3952441700     0.5020966242
  166      C       4.0253688384     1.3624774236    -2.4363956971
  167      C       4.1219934797     3.3308181894    -1.2791734590
  168      C       5.7491080387    -1.6400304878    -1.7180591386
  169      C       7.3076339745    -2.2983340968    -0.0072107334
  170      C       8.4105570682     2.9195687713     1.8160764927
  171      C       6.0733019228     2.6582060870    -2.5199080475
  172      C       3.9761799997     2.7063011019     2.6934252920
  173      C       7.9709909832     0.5130721729     3.3254514556
  174      C       6.2443439350     3.5991166990     2.7024625684
  175      C       8.2896927598    -1.4584113421    -0.6150769262
  176      C       9.3943625199     1.8179925267     0.1600917069
 ----------------------------------------------------------------
 Molecular Point Group                 C1    NOp =  1
 Largest Abelian Subgroup              C1    NOp =  1
 Nuclear Repulsion Energy = 35006.7167190527 hartrees
 There are      462 alpha and      462 beta electrons
 Requested basis set is 6-31G(d,p)
 There are 676 shells and 2360 basis functions

 Total QAlloc Memory Limit  20000 MB
 Mega-Array Size      4888 MB
 MEM_STATIC part      5000 MB
 A cutoff of  1.0D-08 yielded  38710 shell pairs
 There are    542674 function pairs
 
 -------------------------------------------------------
 OpenMP Integral Computing Module                       
 Release: version 1.0, May 2013, Q-Chem Inc. Pittsburgh 
 -------------------------------------------------------
 Integral Job Info:
 Integral job number is                      11
 Integral operator is                         1
 short-range coefficients                     0
 long-range coefficients              100000000
 Omega coefficients                           0
 if combine SR and LR in K                    0
 Integral screening is                        0
 Integral computing path is                   2
 max size of driver memory is            800000
 size of driver memory is                593474
 size of scratch memory is              2260544
 max col of scratch BK array               1296
 max len of scratch array in speh3          155
 max len of scratch index in speh4           18
 max int batch size is                      520
 min int batch size is                       52
 fixed nKL is                                52
 max L of basis functions is                  2
 order of int derivative is                   0
 number of shells is                        676
 number of basis is                        2360
 number of cartesian basis is              2360
 number of contracted shell pairs         38710
 number of primitive shell pairs         116512
 maxK2 (contraction) of shell pair           36
 max number of K2 of shell pair               1
 max number of CS2 of shell pair           7409
 max number of PS2 of shell pair          35310
 mem total for path MDJ                 1547304
 -------------------------------------------------------
 Smallest overlap matrix eigenvalue = 2.30E-04

 Scale SEOQF with 1.000000e-02/1.000000e-02/1.000000e-01

 Standard Electronic Orientation quadrupole field applied
 Nucleus-field energy     =    -0.0000003160 hartrees
 Guess from superposition of atomic densities
 Warning:  Energy on first SCF cycle will be non-variational
 A restricted hybrid HF-DFT SCF calculation will be
 performed using Pulay DIIS extrapolation
 Exchange:     0.2000 Hartree-Fock + 0.0800 Slater + 0.7200 B88
 Correlation:  0.1900 VWN1RPA + 0.8100 LYP
 Using SG-1 standard quadrature grid
 SCF converges when DIIS error is below 1.0E-05
 using 16 threads for integral computing 
 -------------------------------------------------------
 OpenMP BLAS3 based DFT computing Module                
 Release: version 1.0, May 2013, Q-Chem Inc. Pittsburgh 
 -------------------------------------------------------
 ---------------------------------------
  Cycle       Energy         DIIS Error
 ---------------------------------------
    1   -5859.0983294696      1.84E-02
    2   -5803.0921331354      1.30E-03
    3   -5802.3337654734      1.78E-03
    4   -5803.9436878129      6.62E-04
    5   -5804.1761371628      3.22E-04
    6   -5804.2421601221      1.42E-04
    7   -5804.2546111534      5.15E-05
    8   -5804.2556124693      3.65E-05
    9   -5804.2566002521      9.45E-06 Convergence criterion met
 ---------------------------------------
 SCF time:  CPU 7524.93 s  wall 867.75 s
 SCF   energy in the final basis set = -5804.2566002521
 Total energy in the final basis set = -5804.2566002521
 
 --------------------------------------------------------------
 
                    Orbital Energies (a.u.)
 --------------------------------------------------------------
 
 Alpha MOs
 -- Occupied --
-19.196 -19.184 -19.138 -19.136 -10.319 -10.317 -10.245 -10.241
-10.240 -10.239 -10.237 -10.237 -10.237 -10.234 -10.231 -10.228
-10.226 -10.226 -10.226 -10.224 -10.224 -10.224 -10.223 -10.223
-10.223 -10.222 -10.222 -10.220 -10.220 -10.220 -10.220 -10.220
-10.219 -10.219 -10.219 -10.219 -10.219 -10.219 -10.218 -10.218
-10.218 -10.217 -10.217 -10.217 -10.217 -10.217 -10.217 -10.217
-10.217 -10.216 -10.216 -10.216 -10.216 -10.216 -10.216 -10.216
-10.216 -10.216 -10.216 -10.215 -10.215 -10.215 -10.215 -10.215
-10.215 -10.215 -10.215 -10.214 -10.214 -10.214 -10.214 -10.214
-10.214 -10.213 -10.213 -10.213 -10.213 -10.213 -10.213 -10.212
-10.212 -10.212 -10.212 -10.212 -10.212 -10.212 -10.211 -10.211
-10.211 -10.211 -10.211 -10.211 -10.211 -10.211 -10.210 -10.210
-10.210 -10.210 -10.210 -10.210 -10.210 -10.210 -10.210 -10.210
-10.210 -10.210 -10.210 -10.210 -10.210 -10.210 -10.209 -10.209
-10.209 -10.209 -10.208 -10.207 -10.207 -10.207 -10.207 -10.207
-10.207 -10.207 -10.206 -10.206 -10.206 -10.206 -10.206 -10.206
-10.205 -10.204 -10.204 -10.204 -10.202 -10.201 -10.200 -10.199
-10.199 -10.199 -10.198 -10.197 -10.197 -10.196 -10.193 -10.192
-10.191 -10.191 -10.190 -10.189  -1.105  -1.091  -1.020  -1.009
 -0.983  -0.983  -0.967  -0.966  -0.964  -0.961  -0.960  -0.960
 -0.936  -0.930  -0.928  -0.927  -0.925  -0.925  -0.923  -0.922
 -0.920  -0.918  -0.897  -0.894  -0.893  -0.889  -0.884  -0.883
 -0.876  -0.874  -0.857  -0.851  -0.845  -0.841  -0.839  -0.839
 -0.838  -0.835  -0.828  -0.820  -0.814  -0.801  -0.799  -0.797
 -0.796  -0.795  -0.794  -0.793  -0.791  -0.790  -0.788  -0.781
 -0.773  -0.770  -0.770  -0.769  -0.768  -0.766  -0.766  -0.762
 -0.758  -0.754  -0.746  -0.740  -0.733  -0.730  -0.720  -0.717
 -0.716  -0.713  -0.713  -0.711  -0.711  -0.711  -0.710  -0.709
 -0.708  -0.706  -0.704  -0.703  -0.702  -0.700  -0.673  -0.673
 -0.662  -0.659  -0.657  -0.656  -0.647  -0.647  -0.634  -0.632
 -0.627  -0.626  -0.624  -0.622  -0.621  -0.620  -0.618  -0.617
 -0.615  -0.615  -0.614  -0.611  -0.611  -0.610  -0.609  -0.608
 -0.605  -0.604  -0.602  -0.601  -0.567  -0.566  -0.566  -0.562
 -0.561  -0.561  -0.560  -0.559  -0.556  -0.555  -0.554  -0.552
 -0.538  -0.535  -0.535  -0.534  -0.528  -0.526  -0.525  -0.523
 -0.522  -0.522  -0.521  -0.517  -0.516  -0.514  -0.514  -0.513
 -0.512  -0.508  -0.506  -0.499  -0.498  -0.491  -0.487  -0.485
 -0.484  -0.484  -0.483  -0.482  -0.480  -0.479  -0.477  -0.477
 -0.476  -0.473  -0.473  -0.471  -0.470  -0.468  -0.466  -0.465
 -0.465  -0.464  -0.463  -0.462  -0.462  -0.460  -0.460  -0.460
 -0.457  -0.455  -0.454  -0.453  -0.449  -0.448  -0.446  -0.444
 -0.443  -0.441  -0.441  -0.440  -0.438  -0.437  -0.434  -0.433
 -0.431  -0.430  -0.429  -0.428  -0.427  -0.426  -0.424  -0.424
 -0.423  -0.422  -0.421  -0.421  -0.420  -0.420  -0.418  -0.418
 -0.417  -0.416  -0.416  -0.415  -0.415  -0.414  -0.413  -0.412
 -0.412  -0.409  -0.408  -0.407  -0.403  -0.400  -0.399  -0.398
 -0.396  -0.395  -0.392  -0.389  -0.388  -0.384  -0.383  -0.382
 -0.380  -0.375  -0.374  -0.373  -0.370  -0.369  -0.367  -0.365
 -0.362  -0.362  -0.362  -0.361  -0.361  -0.359  -0.358  -0.357
 -0.356  -0.355  -0.354  -0.353  -0.353  -0.352  -0.352  -0.351
 -0.350  -0.348  -0.348  -0.347  -0.346  -0.345  -0.344  -0.343
 -0.342  -0.341  -0.340  -0.340  -0.338  -0.337  -0.335  -0.334
 -0.333  -0.333  -0.330  -0.328  -0.326  -0.326  -0.324  -0.321
 -0.305  -0.304  -0.300  -0.295  -0.288  -0.287  -0.274  -0.273
 -0.271  -0.270  -0.267  -0.267  -0.266  -0.265  -0.264  -0.262
 -0.262  -0.261  -0.259  -0.257  -0.256  -0.255  -0.254  -0.253
 -0.249  -0.245  -0.245  -0.241  -0.224  -0.220  -0.214  -0.211
 -0.208  -0.208  -0.204  -0.202  -0.199  -0.198
 -- Virtual --
 -0.126  -0.119  -0.116  -0.112  -0.111  -0.109  -0.077  -0.075
 -0.073  -0.067  -0.062  -0.059  -0.054  -0.051  -0.025  -0.022
 -0.022  -0.019  -0.018  -0.017  -0.016  -0.015  -0.014  -0.011
 -0.010  -0.009  -0.008  -0.007  -0.005  -0.002   0.002   0.004
  0.006   0.010   0.032   0.040   0.043   0.045   0.045   0.048
  0.049   0.050   0.053   0.056   0.058   0.065   0.066   0.069
  0.072   0.077   0.080   0.085   0.086   0.089   0.091   0.093
  0.095   0.099   0.101   0.104   0.104   0.105   0.106   0.109
  0.110   0.113   0.114   0.115   0.115   0.118   0.120   0.124
  0.125   0.126   0.129   0.129   0.132   0.134   0.137   0.138
  0.139   0.141   0.146   0.147   0.149   0.153   0.157   0.157
  0.159   0.160   0.160   0.163   0.165   0.166   0.168   0.171
  0.172   0.174   0.176   0.176   0.177   0.180   0.180   0.184
  0.184   0.185   0.186   0.188   0.189   0.191   0.192   0.192
  0.194   0.196   0.197   0.201   0.201   0.205   0.206   0.208
  0.210   0.210   0.211   0.215   0.216   0.217   0.218   0.219
  0.220   0.223   0.225   0.226   0.227   0.231   0.231   0.232
  0.232   0.233   0.234   0.235   0.235   0.239   0.242   0.243
  0.246   0.248   0.251   0.252   0.254   0.255   0.257   0.259
  0.263   0.272   0.275   0.277   0.277   0.281   0.283   0.284
  0.287   0.289   0.290   0.292   0.298   0.303   0.305   0.307
  0.310   0.311   0.315   0.316   0.318   0.319   0.320   0.322
  0.324   0.325   0.326   0.328   0.330   0.332   0.332   0.333
  0.334   0.336   0.342   0.345   0.345   0.346   0.352   0.353
  0.355   0.360   0.364   0.370   0.372   0.380   0.385   0.393
  0.396   0.398   0.398   0.403   0.407   0.407   0.409   0.410
  0.413   0.414   0.417   0.419   0.420   0.423   0.425   0.427
  0.431   0.433   0.434   0.435   0.437   0.444   0.445   0.447
  0.450   0.451   0.453   0.454   0.460   0.462   0.463   0.464
  0.467   0.469   0.469   0.472   0.474   0.476   0.477   0.477
  0.478   0.479   0.480   0.482   0.483   0.484   0.485   0.486
  0.489   0.490   0.492   0.493   0.494   0.495   0.496   0.497
  0.498   0.499   0.500   0.501   0.503   0.505   0.506   0.506
  0.507   0.507   0.509   0.511   0.511   0.512   0.512   0.513
  0.515   0.515   0.516   0.516   0.517   0.518   0.519   0.520
  0.520   0.521   0.522   0.522   0.523   0.524   0.524   0.525
  0.526   0.528   0.529   0.530   0.531   0.532   0.532   0.534
  0.535   0.536   0.538   0.538   0.538   0.539   0.540   0.541
  0.541   0.542   0.543   0.543   0.544   0.544   0.545   0.546
  0.547   0.548   0.549   0.550   0.550   0.550   0.552   0.552
  0.553   0.554   0.554   0.555   0.556   0.557   0.557   0.559
  0.560   0.560   0.561   0.561   0.562   0.563   0.564   0.565
  0.566   0.566   0.567   0.567   0.568   0.570   0.570   0.572
  0.572   0.573   0.574   0.575   0.576   0.577   0.578   0.580
  0.581   0.581   0.582   0.583   0.584   0.585   0.585   0.587
  0.587   0.588   0.589   0.589   0.591   0.591   0.592   0.593
  0.594   0.595   0.596   0.597   0.598   0.599   0.600   0.601
  0.602   0.603   0.604   0.605   0.606   0.607   0.608   0.610
  0.611   0.612   0.612   0.615   0.616   0.617   0.618   0.618
  0.619   0.620   0.622   0.624   0.625   0.625   0.628   0.628
  0.630   0.631   0.632   0.633   0.633   0.634   0.635   0.636
  0.637   0.638   0.639   0.640   0.641   0.642   0.642   0.644
  0.645   0.646   0.648   0.649   0.650   0.651   0.652   0.653
  0.654   0.655   0.655   0.656   0.657   0.658   0.658   0.659
  0.661   0.662   0.663   0.663   0.664   0.665   0.666   0.666
  0.667   0.668   0.669   0.669   0.671   0.672   0.674   0.675
  0.676   0.677   0.678   0.679   0.681   0.682   0.683   0.683
  0.686   0.686   0.687   0.687   0.689   0.691   0.692   0.693
  0.694   0.694   0.695   0.697   0.698   0.699   0.700   0.701
  0.703   0.704   0.704   0.705   0.706   0.707   0.708   0.709
  0.710   0.711   0.713   0.714   0.716   0.718   0.719   0.720
  0.721   0.722   0.723   0.724   0.725   0.727   0.727   0.728
  0.730   0.731   0.732   0.734   0.735   0.736   0.738   0.739
  0.740   0.741   0.744   0.745   0.746   0.748   0.748   0.750
  0.750   0.752   0.753   0.753   0.756   0.757   0.758   0.760
  0.761   0.762   0.764   0.765   0.766   0.767   0.769   0.770
  0.771   0.771   0.774   0.775   0.775   0.776   0.778   0.779
  0.779   0.780   0.782   0.785   0.785   0.786   0.788   0.788
  0.790   0.792   0.792   0.793   0.794   0.796   0.798   0.799
  0.800   0.801   0.801   0.803   0.804   0.805   0.807   0.807
  0.809   0.810   0.811   0.812   0.813   0.813   0.814   0.815
  0.816   0.817   0.818   0.819   0.820   0.820   0.820   0.821
  0.823   0.823   0.824   0.826   0.827   0.827   0.828   0.829
  0.830   0.830   0.833   0.833   0.835   0.836   0.837   0.839
  0.841   0.842   0.846   0.848   0.849   0.851   0.851   0.853
  0.855   0.855   0.858   0.860   0.861   0.865   0.872   0.873
  0.876   0.882   0.885   0.886   0.890   0.892   0.894   0.896
  0.900   0.901   0.902   0.904   0.909   0.910   0.913   0.917
  0.919   0.920   0.922   0.924   0.925   0.927   0.929   0.931
  0.933   0.934   0.937   0.938   0.938   0.939   0.940   0.943
  0.945   0.947   0.948   0.951   0.953   0.954   0.955   0.958
  0.963   0.966   0.969   0.971   0.972   0.978   0.978   0.983
  0.984   0.987   0.989   0.990   0.994   0.995   0.997   0.999
  1.000   1.002   1.003   1.005   1.008   1.009   1.011   1.012
  1.014   1.017   1.018   1.018   1.021   1.023   1.025   1.027
  1.028   1.029   1.031   1.032   1.032   1.035   1.036   1.038
  1.038   1.039   1.043   1.044   1.046   1.046   1.048   1.049
  1.052   1.053   1.055   1.059   1.060   1.060   1.062   1.062
  1.065   1.067   1.070   1.071   1.073   1.074   1.078   1.079
  1.080   1.081   1.084   1.085   1.086   1.087   1.088   1.090
  1.092   1.094   1.095   1.096   1.098   1.099   1.102   1.102
  1.105   1.107   1.109   1.113   1.114   1.116   1.117   1.121
  1.123   1.124   1.128   1.129   1.131   1.132   1.135   1.136
  1.139   1.140   1.141   1.144   1.146   1.148   1.150   1.152
  1.154   1.155   1.157   1.159   1.159   1.161   1.163   1.164
  1.166   1.168   1.168   1.172   1.174   1.175   1.177   1.180
  1.182   1.182   1.184   1.186   1.187   1.188   1.191   1.194
  1.197   1.199   1.200   1.202   1.203   1.205   1.206   1.208
  1.210   1.212   1.214   1.217   1.218   1.221   1.224   1.229
  1.229   1.233   1.236   1.238   1.241   1.244   1.248   1.249
  1.252   1.252   1.255   1.259   1.259   1.262   1.264   1.267
  1.271   1.272   1.273   1.275   1.276   1.279   1.280   1.282
  1.284   1.284   1.285   1.287   1.289   1.293   1.294   1.297
  1.298   1.300   1.304   1.308   1.309   1.310   1.314   1.315
  1.317   1.319   1.321   1.326   1.328   1.329   1.331   1.333
  1.335   1.339   1.340   1.344   1.346   1.346   1.349   1.351
  1.352   1.356   1.358   1.359   1.360   1.363   1.364   1.367
  1.368   1.372   1.374   1.375   1.378   1.381   1.388   1.392
  1.394   1.397   1.398   1.401   1.402   1.407   1.409   1.411
  1.412   1.418   1.419   1.422   1.424   1.427   1.429   1.434
  1.436   1.440   1.441   1.445   1.446   1.450   1.451   1.452
  1.454   1.458   1.459   1.462   1.464   1.465   1.467   1.469
  1.471   1.472   1.474   1.476   1.478   1.480   1.481   1.482
  1.483   1.486   1.487   1.488   1.492   1.493   1.496   1.498
  1.502   1.506   1.508   1.511   1.512   1.515   1.519   1.521
  1.527   1.530   1.531   1.534   1.535   1.537   1.538   1.543
  1.545   1.548   1.550   1.552   1.552   1.556   1.558   1.562
  1.562   1.566   1.567   1.570   1.572   1.573   1.575   1.579
  1.582   1.584   1.586   1.588   1.589   1.591   1.593   1.595
  1.599   1.601   1.606   1.609   1.613   1.613   1.619   1.622
  1.628   1.632   1.635   1.638   1.639   1.644   1.646   1.651
  1.653   1.655   1.657   1.659   1.664   1.667   1.668   1.675
  1.677   1.683   1.689   1.691   1.693   1.696   1.699   1.701
  1.703   1.706   1.709   1.710   1.715   1.715   1.717   1.719
  1.721   1.725   1.727   1.729   1.731   1.733   1.733   1.734
  1.736   1.737   1.740   1.742   1.745   1.746   1.747   1.748
  1.749   1.750   1.753   1.754   1.755   1.756   1.758   1.759
  1.760   1.762   1.766   1.767   1.769   1.770   1.771   1.774
  1.774   1.776   1.776   1.778   1.779   1.782   1.783   1.783
  1.784   1.786   1.787   1.788   1.790   1.790   1.791   1.792
  1.793   1.794   1.796   1.798   1.799   1.800   1.801   1.802
  1.804   1.804   1.806   1.807   1.810   1.811   1.812   1.814
  1.815   1.816   1.817   1.818   1.821   1.823   1.825   1.828
  1.830   1.832   1.833   1.834   1.839   1.840   1.843   1.846
  1.847   1.849   1.853   1.855   1.858   1.859   1.859   1.863
  1.863   1.865   1.867   1.867   1.871   1.874   1.875   1.876
  1.878   1.881   1.883   1.884   1.886   1.888   1.889   1.894
  1.897   1.898   1.900   1.902   1.903   1.905   1.906   1.909
  1.912   1.914   1.916   1.917   1.919   1.921   1.925   1.926
  1.929   1.930   1.932   1.933   1.935   1.938   1.941   1.942
  1.942   1.945   1.947   1.948   1.952   1.954   1.954   1.958
  1.959   1.961   1.965   1.967   1.969   1.971   1.975   1.976
  1.977   1.980   1.981   1.984   1.985   1.987   1.991   1.992
  1.993   1.994   1.995   1.996   1.997   1.999   2.001   2.001
  2.002   2.005   2.005   2.007   2.008   2.009   2.010   2.011
  2.012   2.012   2.014   2.015   2.016   2.017   2.017   2.019
  2.020   2.023   2.025   2.026   2.027   2.027   2.028   2.029
  2.030   2.032   2.033   2.035   2.036   2.037   2.037   2.039
  2.040   2.042   2.044   2.045   2.046   2.047   2.049   2.050
  2.051   2.052   2.054   2.055   2.057   2.058   2.059   2.060
  2.061   2.062   2.064   2.064   2.065   2.066   2.067   2.067
  2.071   2.072   2.075   2.075   2.077   2.079   2.081   2.083
  2.086   2.086   2.090   2.090   2.093   2.093   2.094   2.096
  2.097   2.098   2.101   2.104   2.106   2.109   2.111   2.114
  2.117   2.120   2.121   2.122   2.124   2.127   2.128   2.132
  2.133   2.136   2.138   2.142   2.145   2.147   2.149   2.154
  2.154   2.155   2.158   2.164   2.164   2.166   2.174   2.178
  2.180   2.181   2.192   2.194   2.195   2.197   2.201   2.208
  2.211   2.215   2.216   2.217   2.221   2.222   2.223   2.228
  2.230   2.235   2.236   2.237   2.239   2.242   2.244   2.249
  2.252   2.256   2.257   2.259   2.261   2.262   2.266   2.269
  2.269   2.275   2.276   2.277   2.279   2.284   2.284   2.289
  2.290   2.292   2.296   2.298   2.299   2.300   2.302   2.304
  2.305   2.307   2.309   2.311   2.313   2.315   2.319   2.321
  2.325   2.327   2.329   2.331   2.333   2.339   2.340   2.341
  2.343   2.345   2.347   2.350   2.353   2.358   2.360   2.362
  2.363   2.365   2.365   2.366   2.368   2.369   2.370   2.371
  2.374   2.375   2.376   2.377   2.380   2.381   2.384   2.385
  2.388   2.389   2.391   2.392   2.393   2.394   2.395   2.400
  2.401   2.402   2.406   2.406   2.409   2.411   2.412   2.414
  2.419   2.420   2.422   2.424   2.426   2.427   2.428   2.431
  2.433   2.434   2.436   2.439   2.441   2.443   2.445   2.447
  2.450   2.453   2.456   2.459   2.460   2.465   2.467   2.468
  2.469   2.472   2.474   2.476   2.477   2.479   2.482   2.484
  2.486   2.489   2.491   2.493   2.494   2.495   2.497   2.499
  2.501   2.502   2.505   2.506   2.509   2.512   2.512   2.513
  2.515   2.517   2.519   2.523   2.523   2.524   2.527   2.529
  2.531   2.534   2.534   2.539   2.539   2.542   2.543   2.546
  2.550   2.553   2.557   2.558   2.560   2.564   2.564   2.570
  2.572   2.575   2.578   2.579   2.582   2.584   2.589   2.593
  2.594   2.597   2.599   2.600   2.604   2.605   2.608   2.609
  2.612   2.614   2.614   2.615   2.618   2.619   2.619   2.623
  2.624   2.625   2.629   2.629   2.631   2.632   2.635   2.638
  2.639   2.642   2.643   2.647   2.647   2.648   2.649   2.650
  2.652   2.652   2.654   2.657   2.660   2.660   2.663   2.665
  2.666   2.668   2.670   2.671   2.672   2.675   2.676   2.678
  2.680   2.683   2.684   2.687   2.687   2.689   2.691   2.693
  2.695   2.695   2.697   2.700   2.705   2.707   2.710   2.711
  2.712   2.715   2.722   2.722   2.723   2.723   2.729   2.729
  2.732   2.733   2.735   2.737   2.743   2.745   2.748   2.748
  2.754   2.755   2.757   2.758   2.759   2.763   2.766   2.767
  2.769   2.772   2.775   2.776   2.777   2.780   2.780   2.784
  2.787   2.791   2.792   2.796   2.797   2.801   2.804   2.806
  2.810   2.811   2.812   2.817   2.820   2.825   2.826   2.827
  2.833   2.837   2.838   2.840   2.843   2.847   2.849   2.851
  2.852   2.853   2.856   2.857   2.860   2.861   2.863   2.864
  2.866   2.867   2.868   2.873   2.877   2.878   2.879   2.882
  2.883   2.884   2.885   2.885   2.888   2.889   2.892   2.896
  2.898   2.899   2.902   2.903   2.905   2.907   2.909   2.910
  2.912   2.915   2.917   2.919   2.920   2.923   2.924   2.927
  2.930   2.931   2.932   2.934   2.937   2.938   2.940   2.943
  2.947   2.948   2.949   2.953   2.955   2.957   2.961   2.964
  2.965   2.967   2.970   2.976   2.980   2.983   2.984   2.988
  2.990   2.993   2.996   2.999   3.002   3.006   3.008   3.012
  3.014   3.016   3.021   3.021   3.024   3.026   3.027   3.029
  3.033   3.037   3.039   3.040   3.044   3.045   3.048   3.052
  3.054   3.056   3.058   3.063   3.068   3.071   3.073   3.076
  3.080   3.082   3.086   3.088   3.092   3.097   3.112   3.115
  3.119   3.126   3.139   3.140   3.140   3.153   3.155   3.158
  3.162   3.168   3.173   3.176   3.184   3.190   3.196   3.197
  3.207   3.209   3.213   3.219   3.227   3.240   3.244   3.250
  3.254   3.259   3.263   3.267   3.269   3.270   3.276   3.283
  3.293   3.301   3.310   3.315   3.322   3.324   3.325   3.329
  3.338   3.341   3.344   3.351   3.360   3.366   3.372   3.382
  3.399   3.415   3.424   3.432   3.435   3.441   3.442   3.455
  3.469   3.469   3.476   3.478   3.483   3.486   3.487   3.493
  3.495   3.504   3.507   3.509   3.514   3.545   3.549   3.555
  3.557   3.561   3.584   3.586   3.591   3.598   3.602   3.614
  3.618   3.628   3.682   3.698   3.832   3.923   4.024   4.050
  4.075   4.080   4.082   4.084   4.089   4.093   4.098   4.100
  4.107   4.108   4.112   4.117   4.119   4.122   4.122   4.125
  4.129   4.134   4.139   4.145   4.148   4.150   4.155   4.156
  4.158   4.164   4.173   4.175   4.179   4.183   4.189   4.192
  4.200   4.200   4.205   4.209   4.216   4.223   4.235   4.242
  4.244   4.247   4.252   4.255   4.259   4.260   4.264   4.269
  4.276   4.279   4.282   4.287   4.290   4.297   4.303   4.305
  4.312   4.321   4.335   4.344   4.375   4.388   4.389   4.393
  4.399   4.403   4.404   4.411   4.414   4.418   4.421   4.423
  4.425   4.426   4.428   4.440   4.445   4.460   4.473   4.482
  4.486   4.500   4.515   4.527   4.537   4.545   4.551   4.559
  4.564   4.575   4.614   4.619   4.630   4.635   4.636   4.643
  4.648   4.659   4.679   4.688   4.692   4.694   4.695   4.702
  4.704   4.707   4.715   4.728   4.752   4.763   4.820   4.825
  4.842   4.864   4.866   4.868   4.881   4.885   4.894   4.903
  4.908   4.916   4.952   4.957   4.961   4.966   4.982   4.989
  5.000   5.003   5.006   5.020   5.175   5.177   5.189   5.201
  5.203   5.205   5.213   5.241   5.332   5.351   5.355   5.364
  5.366   5.371
 --------------------------------------------------------------
 
          Ground-State Mulliken Net Atomic Charges

     Atom                 Charge (a.u.)
  ----------------------------------------
      1 O                    -0.455577
      2 C                    -0.084139
      3 H                     0.119919
      4 H                     0.122609
      5 H                     0.127799
      6 O                    -0.490003
      7 C                     0.615510
      8 C                    -0.267979
      9 H                     0.143406
     10 H                     0.135996
     11 C                    -0.175809
     12 H                     0.115809
     13 H                     0.128349
     14 C                    -0.191037
     15 H                     0.103021
     16 H                     0.098177
     17 C                     0.029750
     18 C                     0.101420
     19 C                    -0.118405
     20 H                     0.077765
     21 C                    -0.075845
     22 H                     0.098506
     23 C                    -0.096017
     24 H                     0.085769
     25 C                    -0.086708
     26 H                     0.092097
     27 C                    -0.114038
     28 H                     0.099788
     29 C                     0.009411
     30 C                     0.000264
     31 C                     0.004599
     32 C                    -0.000557
     33 C                    -0.010571
     34 C                    -0.000729
     35 C                    -0.026289
     36 C                    -0.025906
     37 C                    -0.013147
     38 C                    -0.002238
     39 C                    -0.098329
     40 C                     0.004612
     41 C                     0.017033
     42 C                     0.029313
     43 C                    -0.012357
     44 C                     0.018154
     45 C                    -0.072694
     46 C                     0.014008
     47 C                    -0.031866
     48 C                    -0.004183
     49 C                    -0.014409
     50 C                    -0.000664
     51 C                    -0.015781
     52 C                    -0.005463
     53 C                     0.060762
     54 C                     0.025180
     55 C                    -0.010749
     56 C                    -0.013327
     57 C                    -0.021573
     58 C                    -0.020139
     59 C                     0.005826
     60 C                     0.005656
     61 C                     0.018986
     62 C                    -0.014355
     63 C                     0.002073
     64 C                     0.003787
     65 C                     0.026547
     66 C                     0.003162
     67 C                     0.032194
     68 C                    -0.011022
     69 C                    -0.012071
     70 C                     0.005883
     71 C                    -0.009237
     72 C                     0.016686
     73 C                     0.005322
     74 C                    -0.030441
     75 C                     0.028617
     76 C                    -0.001009
     77 C                    -0.010431
     78 C                     0.023185
     79 C                    -0.004896
     80 C                     0.006445
     81 C                     0.025988
     82 C                    -0.004803
     83 C                    -0.003533
     84 C                     0.018884
     85 C                    -0.010569
     86 C                    -0.020816
     87 C                    -0.010895
     88 C                     0.018753
     89 O                    -0.477735
     90 C                    -0.075969
     91 H                     0.116628
     92 H                     0.115971
     93 H                     0.116977
     94 O                    -0.447656
     95 C                     0.589806
     96 C                    -0.250476
     97 H                     0.121775
     98 H                     0.149393
     99 C                    -0.200532
    100 H                     0.118474
    101 H                     0.124044
    102 C                    -0.194212
    103 H                     0.106467
    104 H                     0.117488
    105 C                     0.006097
    106 C                     0.059114
    107 C                    -0.080765
    108 H                     0.096141
    109 C                    -0.098396
    110 H                     0.086842
    111 C                    -0.075749
    112 H                     0.088963
    113 C                    -0.096551
    114 H                     0.086064
    115 C                    -0.085767
    116 H                     0.093535
    117 C                    -0.017428
    118 C                     0.023177
    119 C                    -0.013324
    120 C                    -0.024703
    121 C                    -0.012475
    122 C                    -0.028177
    123 C                     0.011030
    124 C                    -0.010695
    125 C                     0.024049
    126 C                    -0.006901
    127 C                    -0.072197
    128 C                    -0.003831
    129 C                    -0.039487
    130 C                     0.008342
    131 C                     0.003565
    132 C                    -0.006686
    133 C                    -0.104915
    134 C                     0.056699
    135 C                     0.046353
    136 C                     0.034513
    137 C                    -0.016316
    138 C                     0.020195
    139 C                    -0.020033
    140 C                     0.037699
    141 C                     0.035759
    142 C                     0.005050
    143 C                     0.010722
    144 C                     0.002356
    145 C                     0.041104
    146 C                    -0.034968
    147 C                     0.015528
    148 C                    -0.002612
    149 C                    -0.020987
    150 C                     0.028560
    151 C                     0.031580
    152 C                     0.011738
    153 C                    -0.012772
    154 C                    -0.021377
    155 C                     0.021283
    156 C                    -0.006636
    157 C                     0.008101
    158 C                     0.006703
    159 C                    -0.014442
    160 C                     0.006632
    161 C                    -0.027560
    162 C                    -0.008317
    163 C                    -0.008217
    164 C                     0.013520
    165 C                    -0.016043
    166 C                    -0.035705
    167 C                    -0.005187
    168 C                     0.016577
    169 C                    -0.028018
    170 C                    -0.012376
    171 C                     0.033062
    172 C                    -0.034711
    173 C                    -0.015294
    174 C                    -0.015243
    175 C                     0.010314
    176 C                    -0.002957
  ----------------------------------------
  Sum of atomic charges =     0.000000

 -----------------------------------------------------------------
                    Cartesian Multipole Moments
 -----------------------------------------------------------------
    Charge (ESU x 10^10)
                 0.0000
    Dipole Moment (Debye)
         X      -4.0079      Y      -1.6549      Z       1.3971
       Tot       4.5556
    Quadrupole Moments (Debye-Ang)
        XX    -780.6683     XY     -22.0696     YY    -784.8478
        XZ     -33.3754     YZ       2.3247     ZZ    -803.6168
    Octopole Moments (Debye-Ang^2)
       XXX    -984.2345    XXY      57.9884    XYY    -160.5072
       YYY    -184.8978    XXZ     402.1360    XYZ       4.3934
       YYZ      63.8685    XZZ    -215.7955    YZZ     -50.5739
       ZZZ      66.9276
    Hexadecapole Moments (Debye-Ang^3)
      XXXX -159337.5531   XXXY   -2084.7019   XXYY  -31932.6109
      XYYY    -846.6394   YYYY  -32276.8184   XXXZ   -6406.0967
      XXYZ    -120.3702   XYYZ    -627.7858   YYYZ    -265.9236
      XXZZ  -30087.0119   XYZZ    -277.5565   YYZZ   -9195.0436
      XZZZ   -1184.4265   YZZZ       0.0479   ZZZZ  -23893.0923
 -----------------------------------------------------------------
Archival summary:
1\1\mn366\SP\ProcedureUnspecified\6-31G**\428\afmv_a\TueOct915:05:302018TueOct915:05:302018\0\\#,ProcedureUnspecified,6-31G**,\\0,1\C\C,1,1.37639\C,2,1.38162,1,120.792\C,3,1.39017,2,118.757,1,-1.11039,0\C,4,1.38238,3,124.901,2,-0.764163,0\C,5,1.40396,4,114.023,3,-140.946,0\C,1,1.41162,2,121.237,3,138.987,0\C,6,1.41586,5,121.674,4,137.942,0\C,8,1.36424,6,120.621,5,0.716713,0\C,8,1.41087,6,121.603,5,-134.697,0\C,10,1.39306,8,108.821,6,143.764,0\C,11,1.33583,10,109.229,8,-2.21223,0\C,10,1.39549,8,119.346,6,-1.43054,0\C,12,1.40103,11,123.491,10,-143.016,0\C,14,1.39592,12,119.571,11,138.396,0\C,14,1.39868,12,113.747,11,2.09589,0\C,16,1.38996,14,125.613,12,-4.45615,0\C,17,1.36985,16,116.465,14,1.7181,0\C,16,1.39421,14,106.937,12,143.41,0\C,19,1.40137,16,122.655,14,-143.586,0\C,20,1.37245,19,122.353,16,139.594,0\C,15,1.40339,14,104.238,12,-139.93,0\C,21,1.40694,20,106.499,19,-145.39,0\C,17,1.41258,16,119.025,14,136.255,0\C,24,1.39066,17,121.25,16,5.20479,0\C,25,1.3841,24,123.562,17,-144.796,0\C,26,1.37205,25,117.031,24,4.72284,0\C,27,1.38164,26,119.125,25,132.779,0\C,28,1.3944,27,120.402,26,0.30615,0\C,29,1.36669,28,122.431,27,-141.704,0\C,30,1.3771,29,109.918,28,145.674,0\C,24,1.39907,17,108.862,16,-139.266,0\C,29,1.40506,28,122.03,27,1.64511,0\C,32,1.40647,24,117.622,17,148.657,0\C,30,1.40709,29,119.831,28,4.12537,0\C,35,1.37816,30,123.814,29,136.718,0\C,36,1.40112,35,111.045,30,-139.417,0\C,37,1.36014,36,125.395,35,145.89,0\C,31,1.40806,30,108.635,29,-1.48478,0\C,15,1.41548,14,122.836,12,1.89895,0\C,40,1.37647,15,117.36,14,-4.53477,0\C,41,1.39586,40,110.408,15,-144.593,0\C,21,1.41817,20,119.065,19,-4.27048,0\C,43,1.38103,21,121.484,20,0.25789,0\C,43,1.38154,21,121.637,20,-135.381,0\C,45,1.41492,43,114.199,21,142.04,0\C,46,1.36872,45,123.959,43,-137.789,0\C,47,1.37944,46,118.554,45,-1.50509,0\C,48,1.38595,47,106.16,46,146.632,0\C,46,1.41084,45,103.402,43,2.46736,0\C,18,1.42338,17,106.995,16,139.659,0\C,51,1.42335,18,125.572,17,-144.183,0\C,35,1.4252,30,118.501,29,-1.42111,0\C,53,1.38313,35,108.86,30,143.133,0\C,53,1.39978,35,122.454,30,-4.73549,0\C,54,1.42076,53,124.964,35,-152.521,0\C,56,1.40178,54,118.972,53,136.463,0\C,57,1.42736,56,117.557,54,11.9196,0\C,55,1.48359,53,122.145,35,148.961,0\C,59,1.48794,55,117.205,53,-2.29756,0\C,59,1.51215,55,124.021,53,70.6817,0\C,61,1.47399,59,119.464,55,9.87195,0\H,62,1.09667,61,110.703,59,-154.366,0\H,62,1.09776,61,110.597,59,-40.8597,0\C,61,1.47818,59,120.616,55,157.061,0\C,65,1.41207,61,120.853,59,-50.0082,0\H,66,1.08628,65,124.155,61,4.91853,0\C,65,1.41349,61,122.63,59,143.206,0\H,68,1.08562,65,120.29,61,3.53391,0\C,68,1.38879,65,127.16,61,-175.922,0\H,70,1.0869,68,120.247,65,-176.508,0\C,70,1.39214,68,114.346,65,-12.8838,0\H,72,1.08577,70,117.469,68,-172.748,0\C,66,1.41508,65,119.321,61,-176.554,0\H,74,1.08634,66,117.122,65,178.634,0\C,62,1.52766,61,115.234,59,78.4863,0\H,76,1.09668,62,107.092,61,51.0054,0\H,76,1.09707,62,109.65,61,-67.1553,0\C,76,1.48904,62,109.954,61,172.173,0\H,79,1.09642,76,110.308,62,-44.8216,0\H,79,1.09744,76,111.836,62,75.5719,0\C,79,1.46088,76,108.036,62,-157.974,0\O,82,1.23412,79,127.342,76,-22.2101,0\O,82,1.34786,79,108.698,76,154.084,0\C,84,1.4085,82,120.085,79,-177.489,0\H,85,1.09616,84,113.44,82,175.21,0\H,85,1.09694,84,106.142,82,-67.0621,0\H,85,1.09711,84,114.777,82,55.5241,0\H,1,2.70314,2,78.3399,3,-147.821,0\C,89,1.08529,1,168.821,2,-146.526,0\C,90,1.37907,89,119.332,1,50.857,0\H,91,1.08616,90,114.185,89,8.23948,0\C,91,1.38234,90,120.314,89,-166.148,0\H,93,1.08617,91,124.4,90,-177.214,0\C,93,1.38278,91,119.172,90,-5.65287,0\H,95,1.08551,93,119.282,91,-168.082,0\C,95,1.36535,93,121.737,91,8.79705,0\H,97,1.08475,95,118.646,93,172.762,0\C,90,1.3856,89,121.117,1,-117.919,0\C,99,1.51027,90,117.766,89,-0.734345,0\C,100,1.53978,99,113.743,90,54.4509,0\C,101,1.48832,100,126.731,99,10.2393,0\C,102,1.39022,101,112.32,100,-149.742,0\C,103,1.37148,102,106.658,101,-8.11042,0\C,104,1.39337,103,117.977,102,-141.176,0\C,105,1.37189,104,123.213,103,144.859,0\C,105,1.38103,104,123.019,103,-13.6798,0\C,106,1.38992,105,118.321,104,-3.80152,0\C,102,1.39485,101,123.135,100,68.1295,0\C,107,1.4001,105,106.13,104,152.202,0\C,110,1.39463,107,121.215,105,-131.588,0\C,111,1.36448,110,120.465,107,-5.68189,0\C,112,1.40072,111,119.15,110,3.00221,0\C,109,1.40282,102,122.818,101,144.701,0\C,114,1.38702,109,123.442,102,5.21549,0\C,115,1.39159,114,117.994,109,-140.148,0\C,116,1.39268,115,121.13,114,-3.67338,0\C,117,1.34149,116,122.79,115,139.309,0\C,117,1.38747,116,121.21,115,-1.95239,0\C,119,1.35156,117,110.812,116,151.302,0\C,120,1.3855,119,107.086,117,-4.02509,0\C,121,1.38861,120,120.466,119,-135.057,0\C,122,1.38228,121,121.802,120,-4.02768,0\C,123,1.37541,122,109.867,121,140.705,0\C,118,1.39253,117,121.523,116,-0.255322,0\C,119,1.39511,117,119.08,116,5.61654,0\C,126,1.37264,119,125.35,117,142.11,0\C,115,1.39587,114,113.698,109,-10.6838,0\C,128,1.38979,115,107.12,114,-140.626,0\C,123,1.39856,122,117.604,121,3.00595,0\C,124,1.40198,123,126.566,122,-139.944,0\C,131,1.40487,124,116.687,123,0.681282,0\C,132,1.40889,131,119.023,124,1.59207,0\C,133,1.40416,132,117.402,131,138.728,0\C,134,1.39656,133,106.279,132,-145.265,0\C,111,1.40891,110,124.751,107,140.033,0\C,136,1.39574,111,109.016,110,-145.719,0\C,124,1.40904,123,105.663,122,5.17803,0\C,138,1.39347,124,119.585,123,-147.505,0\C,138,1.40863,124,110.611,123,0.55055,0\C,139,1.40884,138,120.849,124,142.489,0\C,135,1.40994,134,110.269,133,0.994023,0\C,131,1.40996,124,124.76,123,142.632,0\C,143,1.39969,131,108.703,124,-140.747,0\C,144,1.36958,143,105.659,131,3.78133,0\C,144,1.39516,143,119.105,131,138.227,0\C,141,1.41,139,107.093,138,-142.904,0\C,147,1.38977,141,121.064,139,139.656,0\C,147,1.40725,141,109.557,139,-3.43044,0\C,149,1.38599,147,122.705,141,140.464,0\C,108,1.41402,106,121.148,105,-2.82157,0\C,151,1.39569,108,110.166,106,-133.823,0\C,152,1.39357,151,120.939,108,144.29,0\C,153,1.38621,152,116.517,151,-130.869,0\C,154,1.34536,153,116.802,152,146.596,0\C,151,1.39674,108,119.189,106,11.0035,0\C,109,1.41618,102,117.684,101,6.76186,0\C,157,1.4048,109,125.3,102,-3.61105,0\C,149,1.41775,147,107.263,141,1.36782,0\C,158,1.45402,157,119.102,109,-1.2255,0\C,100,1.56365,99,113.197,90,-87.3933,0\H,161,1.09654,100,108.325,99,-41.0878,0\H,161,1.09674,100,108.704,99,-162.778,0\C,161,1.56507,100,113.17,99,78.0794,0\H,164,1.0965,161,111.357,100,45.5625,0\H,164,1.09711,161,99.0861,100,-63.2085,0\C,164,1.58345,161,109.762,100,177.502,0\H,167,1.09639,164,100.662,161,-84.695,0\H,167,1.09702,164,115.109,161,33.9005,0\C,167,1.51372,164,113.041,161,167.887,0\O,170,1.20065,167,118.564,164,90.8888,0\O,170,1.40744,167,118.436,164,-88.6257,0\C,172,1.39159,170,121.158,167,-175.333,0\H,173,1.09678,172,111.467,170,-74.0761,0\H,173,1.09694,172,108.506,170,166.422,0\H,173,1.09705,172,109.897,170,50.515,0\\\@

 Total job time:  883.99s(wall), 7552.08s(cpu) 
 Tue Oct  9 15:05:30 2018

        *************************************************************
        *                                                           *
        *  Thank you very much for using Q-Chem.  Have a nice day.  *
        *                                                           *
        *************************************************************


