
Running Job 1 of 1 ./6/34.qcin
qchem ./6/34.qcin_47018.0 /tmpu/cab_g/afmv_a/scratch_qchem/qchem47018/ 1
/tmpu/appuserlic/qchem4.4/serial-multicore/exe/qcprog.exe_s ./6/34.qcin_47018.0 /tmpu/cab_g/afmv_a/scratch_qchem/qchem47018/
Check license passed

                  Welcome to Q-Chem
     A Quantum Leap Into The Future Of Chemistry


 Q-Chem 4.4, Q-Chem, Inc., Pleasanton, CA (2016)

 Y. Shao,  Z. Gan,  E. Epifanovsky,  A. T. B. Gilbert,  M. Wormit,  
 J. Kussmann,  A. W. Lange,  A. Behn,  J. Deng,  X. Feng,  D. Ghosh,  
 M. Goldey,  P. R. Horn,  L. D. Jacobson,  I. Kaliman,  F. Rob,  
 R. Z. Khaliullin,  T. Kus,  A. Landau,  J. Liu,  E. I. Proynov,  Y. M. Rhee,  
 R. M. Richard,  M. A. Rohrdanz,  R. P. Steele,  E. J. Sundstrom,  
 H. L. Woodcock III,  P. M. Zimmerman,  D. Zuev,  B. Albrecht,  E. Alguire,  
 B. Austin,  S. A. Baeppler,  G. J. O. Beran,  Y. A. Bernard,  E. Berquist,  
 K. Brandhorst,  K. B. Bravaya,  S. T. Brown,  D. Casanova,  C.-M. Chang,  
 Y. Chen,  S. H. Chien,  K. D. Closser,  M. P. Coons,  D. L. Crittenden,  
 S. Dasgupta,  M. Diedenhofen,  R. A. DiStasio Jr.,  H. Do,  A. D. Dutoi,  
 R. G. Edgar,  P.-T. Fang,  S. Fatehi,  Q. Feng,  L. Fusti-Molnar,  
 A. Ghysels,  A. Golubeva-Zadorozhnaya,  J. Gomes,  A. Gunina,  
 M. W. D. Hanson-Heine,  P. H. P. Harbach,  A. W. Hauser,  J. E. Herr,  
 E. G. Hohenstein,  Z. C. Holden,  K. Hui,  T.-C. Jagau,  H. Ji,  B. Kaduk,  
 K. Khistyaev,  Jaehoon Kim,  Jihan Kim,  R. A. King,  P. Klunzinger,  
 K. Koh,  D. Kosenkov,  T. Kowalczyk,  C. M. Krauter,  A. Kunitsa,  
 K. U. Lao,  A. Laurent,  K. V. Lawler,  J. Lee,  D. Lefrancois,  S. Lehtola,  
 S. V. Levchenko,  C. Y. Lin,  Y.-S. Lin,  F. Liu,  E. Livshits,  
 R. C. Lochan,  A. Luenser,  P. Manohar,  S. F. Manzer,  S.-P. Mao,  Y. Mao,  
 N. Mardirossian,  A. V. Marenich,  L. A. Martinez-Martinez,  S. A. Maurer,  
 N. J. Mayhall,  J.-M. Mewes,  A. F. Morrison,  K. Nanda,  T. S. Nguyen-Beck,  
 C. M. Oana,  R. Olivares-Amaya,  D. P. O'Neill,  J. A. Parkhill,  
 T. M. Perrine,  R. Peverati,  P. A. Pieniazek,  F. Plasser,  A. Prociuk,  
 D. R. Rehn,  E. Rosta,  N. J. Russ,  N. Sergueev,  S. M. Sharada,  
 S. Sharma,  D. W. Small,  A. Sodt,  T. Stauch,  T. Stein,  D. Stuck,  
 Y.-C. Su,  A. J. W. Thom,  T. Tsuchimochi,  L. Vogt,  O. Vydrov,  T. Wang,  
 M. A. Watson,  J. Wenzel,  A. White,  C. F. Williams,  V. Vanovschi,  
 K. Yao,  S. Yeganeh,  S. R. Yost,  Z.-Q. You,  I. Y. Zhang,  X. Zhang,  
 Y. Zhao,  B. R. Brooks,  G. K. L. Chan,  D. M. Chipman,  C. J. Cramer,  
 W. A. Goddard III,  M. S. Gordon,  W. J. Hehre,  A. Klamt,  
 H. F. Schaefer III,  M. W. Schmidt,  C. D. Sherrill,  D. G. Truhlar,  
 A. Warshel,  X. Xu,  A. Aspuru-Guzik,  R. Baer,  A. T. Bell,  N. A. Besley,  
 J.-D. Chai,  A. Dreuw,  B. D. Dunietz,  T. R. Furlani,  S. R. Gwaltney,  
 C.-P. Hsu,  Y. Jung,  J. Kong,  D. S. Lambrecht,  W. Liang,  C. Ochsenfeld,  
 V. A. Rassolov,  L. V. Slipchenko,  J. E. Subotnik,  T. Van Voorhis,  
 J. M. Herbert,  A. I. Krylov,  P. M. W. Gill,  M. Head-Gordon

 Contributors to earlier versions of Q-Chem not listed above: 
 R. D. Adamson,  J. Baker,  E. F. C. Byrd,  A. K. Chakraborty,  C.-L. Cheng,  
 H. Dachsel,  R. J. Doerksen,  G. Hawkins,  A. Heyden,  S. Hirata,  
 G. Kedziora,  F. J. Keil,  C. Kelley,  P. P. Korambath,  W. Kurlancheek,  
 A. M. Lee,  M. S. Lee,  D. Liotard,  I. Lotan,  P. E. Maslen,  N. Nair,  
 D. Neuhauser,  R. Olson,  B. Peters,  J. Ritchie,  N. E. Schultz,  
 N. Shenvi,  A. C. Simmonett,  K. S. Thanthiriwatte,  Q. Wu,  W. Zhang

 Please cite Q-Chem as follows:
 Y. Shao et al., Mol. Phys. 113, 184-215 (2015)
 DOI: 10.1080/00268976.2014.952696

 Q-Chem 4.4.2 for Intel X86 Linux

 Parts of Q-Chem use Armadillo 5.200.1 (Boston Tea Smuggler).
 http://arma.sourceforge.net/

 Q-Chem begins on Tue Oct  9 15:48:04 2018  

Host: 
0

     Scratch files written to /tmpu/cab_g/afmv_a/scratch_qchem/qchem47018//
 Dec716 11556_ 22328  22283 4050   
Processing $rem in /tmpu/appuserlic/qchem4.4/serial-multicore/config/preferences.
 MEM_TOTAL  2000 
FILE_GEOM_ORG=        593

Checking the input file for inconsistencies... 	...done.

--------------------------------------------------------------
User input:
--------------------------------------------------------------
$comment
SP
$end

$rem
MEM_STATIC 5000
MEM_TOTAL 20000
JOBTYPE SP
EXCHANGE B3LYP
BASIS 6-31g(d,p)
$end

$molecule
0 1
O          -7.460000     33.374000    -14.429000
C          -6.867000     33.576000    -15.742000
H          -7.486000     33.112000    -16.520000
H          -5.808000     33.289000    -15.729000
H          -6.945000     34.635000    -16.015000
O          -7.779000     31.050000    -14.600000
C          -7.992000     32.101000    -14.004000
C          -8.694000     32.139000    -12.739000
H          -9.774000     32.170000    -12.930000
H          -8.444000     33.152000    -12.402000
C          -8.351000     31.112000    -11.692000
H          -8.368000     30.142000    -12.205000
H          -7.315000     31.224000    -11.348000
C          -9.311000     31.080000    -10.488000
H          -8.834000     30.990000     -9.504000
H          -9.856000     32.028000    -10.401000
C         -10.330000     29.887000    -10.642000
C         -11.229000     30.093000    -11.783000
C         -10.910000     29.329000    -12.929000
H         -10.144000     28.559000    -12.936000
C         -11.619000     29.566000    -14.115000
H         -11.380000     28.909000    -14.947000
C         -12.692000     30.526000    -14.112000
H         -13.264000     30.623000    -15.031000
C         -12.943000     31.253000    -12.968000
H         -13.729000     32.002000    -12.943000
C         -12.241000     31.037000    -11.760000
H         -12.381000     31.743000    -10.947000
C         -14.040000     27.115000     -7.627000
C         -13.432000     25.559000     -9.370000
C         -11.160000     22.706000     -6.887000
C          -9.912000     28.811000     -5.256000
C          -8.004000     24.006000     -7.703000
C         -13.673000     26.850000     -8.962000
C          -8.046000     26.666000     -5.253000
C         -13.275000     23.819000     -6.330000
C          -9.697000     26.149000    -10.638000
C          -8.857000     28.807000     -6.193000
C         -10.057000     28.463000    -10.164000
C          -8.560000     26.637000    -10.030000
C          -7.602000     27.503000     -7.518000
C          -7.767000     25.397000     -5.678000
C         -12.057000     26.995000    -10.558000
C          -9.357000     23.473000     -5.719000
C         -10.899000     29.359000     -9.352000
C         -10.359000     29.683000     -7.985000
C          -8.946000     23.191000     -7.037000
C         -11.836000     26.134000     -4.042000
C         -11.522000     23.975000     -4.746000
C         -12.785000     24.290000     -5.086000
C         -13.992000     24.702000     -7.158000
C         -11.380000     29.575000     -7.024000
C         -10.634000     27.223000    -10.716000
C         -13.602000     24.521000     -8.507000
C          -7.933000     27.763000     -6.176000
C         -12.413000     25.635000    -10.316000
C          -7.779000     25.710000     -9.193000
C         -12.114000     28.308000     -5.016000
C         -12.500000     23.035000     -7.211000
C          -8.743000     27.939000     -9.580000
C         -13.646000     26.502000     -5.481000
C          -7.312000     26.162000     -7.949000
C         -10.086000     24.860000    -10.489000
C          -9.582000     25.350000     -4.234000
C          -9.101000     26.681000     -4.324000
C          -9.406000     23.969000     -9.696000
C         -11.201000     29.184000     -5.652000
C          -9.087000     29.232000     -7.479000
C         -11.380000     27.479000     -4.174000
C         -12.302000     28.899000     -9.059000
C         -11.584000     23.470000     -9.509000
C          -8.273000     28.460000     -8.329000
C          -8.211000     24.367000     -9.035000
C         -13.251000     27.804000     -5.707000
C         -10.052000     22.688000     -7.768000
C         -14.181000     26.007000     -6.721000
C         -10.743000     23.140000     -5.580000
C         -11.495000     24.570000    -10.407000
C         -10.314000     23.095000     -9.105000
C         -12.801000     27.735000     -9.684000
C         -12.542000     29.056000     -7.691000
C         -10.881000     25.076000     -4.065000
C         -12.651000     23.501000     -8.527000
C          -7.440000     25.102000     -7.050000
C         -10.031000     27.743000     -4.320000
C          -8.701000     24.560000     -5.009000
C         -13.466000     28.222000     -7.003000
C         -12.954000     25.638000     -4.619000
O          -9.914000     15.272000     -0.952000
C          -9.008000     15.634000     -2.005000
H          -9.231000     16.642000     -2.376000
H          -9.168000     15.048000     -2.919000
H          -8.012000     15.438000     -1.589000
O         -11.848000     15.545000     -2.169000
C         -11.299000     15.192000     -1.148000
C         -12.087000     14.798000      0.066000
H         -11.826000     13.773000      0.360000
H         -13.160000     14.775000     -0.158000
C         -11.927000     15.784000      1.273000
H         -12.347000     15.412000      2.216000
H         -10.886000     16.101000      1.409000
C         -12.817000     17.004000      1.064000
H         -12.465000     17.624000      0.231000
H         -13.828000     16.728000      0.739000
C         -12.836000     17.955000      2.244000
C         -13.709000     17.417000      3.374000
C         -13.163000     16.465000      4.272000
H         -12.109000     16.204000      4.290000
C         -13.930000     15.884000      5.293000
H         -13.542000     15.215000      6.056000
C         -15.302000     16.191000      5.348000
H         -16.039000     15.781000      6.032000
C         -15.834000     17.221000      4.535000
H         -16.869000     17.532000      4.634000
C         -15.059000     17.819000      3.516000
H         -15.424000     18.568000      2.819000
C         -13.039000     23.187000      3.902000
C         -11.709000     22.248000      5.609000
C          -7.754000     24.212000      4.178000
C         -11.364000     22.285000     -0.793000
C          -6.687000     21.329000      2.260000
C         -12.789000     22.149000      4.797000
C          -8.607000     22.089000     -0.637000
C         -10.026000     25.101000      4.410000
C          -9.606000     19.222000      3.931000
C         -10.721000     21.025000     -0.731000
C         -11.525000     18.729000      2.624000
C          -9.142000     18.829000      2.684000
C          -9.025000     19.833000      0.115000
C          -7.498000     22.236000      0.200000
C         -11.753000     20.137000      4.779000
C          -7.008000     23.768000      2.027000
C         -12.655000     19.451000      2.017000
C         -12.430000     20.168000      0.780000
C          -6.602000     22.716000      2.817000
C         -10.591000     25.212000      0.900000
C          -8.765000     25.389000      2.300000
C          -9.899000     25.572000      3.080000
C         -11.197000     24.526000      4.883000
C         -13.000000     21.471000      0.807000
C         -11.035000     19.187000      3.949000
C         -10.912000     23.429000      5.685000
C          -9.338000     20.916000     -0.716000
C         -11.051000     20.971000      5.597000
C          -7.929000     19.389000      2.223000
C         -12.447000     23.801000      0.500000
C          -8.967000     24.355000      4.892000
C         -10.235000     18.660000      1.825000
C         -12.196000     24.904000      2.710000
C          -7.879000     19.937000      0.905000
C          -8.876000     20.048000      4.821000
C          -8.568000     24.200000      0.184000
C          -9.275000     23.333000     -0.704000
C          -7.697000     20.550000      4.323000
C         -12.483000     22.513000      0.007000
C         -11.209000     19.998000      0.065000
C         -11.305000     24.385000      0.053000
C         -13.264000     20.562000      2.871000
C          -8.880000     22.070000      5.688000
C         -10.179000     19.204000      0.517000
C          -7.192000     20.266000      3.065000
C         -12.975000     24.090000      1.814000
C          -7.177000     22.927000      4.091000
C         -12.258000     24.339000      3.942000
C          -7.712000     24.662000      2.826000
C          -9.656000     20.891000      5.597000
C          -7.684000     21.860000      4.880000
C         -12.897000     20.782000      4.250000
C         -13.608000     21.734000      2.068000
C          -9.171000     25.192000      0.927000
C          -9.515000     23.318000      5.623000
C          -7.121000     21.146000      0.978000
C         -10.626000     23.462000     -0.735000
C          -7.454000     23.544000      0.704000
C         -13.546000     23.040000      2.588000
C         -11.001000     25.466000      2.191000
$end

--------------------------------------------------------------
 ----------------------------------------------------------------
             Standard Nuclear Orientation (Angstroms)
    I     Atom           X                Y                Z
 ----------------------------------------------------------------
    1      O     -14.6405247212     2.5259825454    -1.5507975118
    2      C     -15.8808717941     2.2361003280    -2.2535986491
    3      H     -16.2510629844     1.2384028349    -1.9865795580
    4      H     -15.7670531332     2.4406544617    -3.3256163349
    5      H     -16.6801602731     2.8710029595    -1.8534354624
    6      O     -13.5080247260     0.5429758530    -2.1139193623
    7      C     -13.5673592716     1.5666649332    -1.4403274394
    8      C     -12.4919763007     1.9716785315    -0.5605613050
    9      H     -12.6152510975     1.4721994616     0.4085444598
   10      H     -12.7709897591     3.0149630137    -0.3709644188
   11      C     -11.0740093281     1.8643146740    -1.0569781326
   12      H     -10.9775291900     0.8546529519    -1.4760637919
   13      H     -10.8977456380     2.5342400181    -1.9080404951
   14      C      -9.9990004334     2.0831494176     0.0240895024
   15      H      -9.1485797018     2.7094041286    -0.2733573265
   16      H     -10.4129074405     2.6355028326     0.8766648330
   17      C      -9.4306307219     0.6948026013     0.5086253511
   18      C     -10.4546358060    -0.0899814924     1.2072278947
   19      C     -11.0175137207    -1.1369957455     0.4419157970
   20      H     -10.6440116578    -1.4256948326    -0.5362733699
   21      C     -12.1055261149    -1.8466715389     0.9692063226
   22      H     -12.4590614258    -2.6818102873     0.3704158294
   23      C     -12.5701239959    -1.5360763619     2.2960889267
   24      H     -13.3650923249    -2.1608462011     2.6946388030
   25      C     -11.9922461032    -0.4915283795     2.9854673813
   26      H     -12.3382688944    -0.2174028887     3.9777100145
   27      C     -10.8968183242     0.2427247579     2.4759241435
   28      H     -10.5907134655     1.1443006242     2.9979066842
   29      C      -5.2141447354    -1.3202105003     3.4580790508
   30      C      -5.8627367356    -3.1643519990     2.0412800001
   31      C      -2.3462232354    -3.1633271522    -0.6234927393
   32      C      -4.3503664446     2.8163036882     0.6865129893
   33      C      -3.8925587222    -1.3533268081    -3.2020460772
   34      C      -6.2084949315    -2.0658524589     2.7929288745
   35      C      -3.2776955182     1.9183553379    -1.7885740483
   36      C      -2.3772440871    -2.8603472129     1.8115604148
   37      C      -7.4320534211    -1.9002814287    -1.4004520832
   38      C      -5.1866295234     2.7450448216    -0.4477692670
   39      C      -8.2711949406    -0.0356597489    -0.1643697632
   40      C      -7.2432425824    -0.7682807789    -2.1643251067
   41      C      -5.6534389561     1.5626237130    -2.2957506727
   42      C      -2.9600156750     0.8427833254    -2.5702717925
   43      C      -7.7062151075    -2.1428014660     1.0810263876
   44      C      -1.8721078753    -1.2683800102    -1.8015046045
   45      C      -8.0340146630     0.7340562528     1.0694887345
   46      C      -7.0899445972     1.8977206498     0.9284856068
   47      C      -2.8451709446    -2.0009026241    -2.5101144289
   48      C      -1.7848997036     0.6474376008     1.7142781841
   49      C      -1.2204284245    -1.2358179624     0.5352049638
   50      C      -1.6135583307    -1.6678236135     1.7471513300
   51      C      -3.5148326362    -2.8967763325     2.6385593340
   52      C      -6.1745169520     1.9094448348     1.9959502526
   53      C      -8.0331697257    -1.4911723893    -0.1721125608
   54      C      -4.5676144646    -3.5766365679     1.9796947940
   55      C      -4.6522976721     2.3222213229    -1.6642028910
   56      C      -6.7481329823    -3.1934942947     0.9669070607
   57      C      -6.0774330948    -0.7355499209    -3.0641450496
   58      C      -3.7667662577     1.6912859917     2.5714954837
   59      C      -2.7296919279    -3.6066999389     0.6669294141
   60      C      -7.5626222294     0.3830481164    -1.4546551721
   61      C      -3.1013656068    -0.5257962601     3.2546303625
   62      C      -5.3023011969     0.4334646121    -3.1141906514
   63      C      -6.5888314286    -2.9578312034    -1.4753396349
   64      C      -1.6330227823     0.8377526582    -0.6674752834
   65      C      -2.4541068008     1.9938654680    -0.6517843382
   66      C      -5.4744215011    -2.9600823406    -2.2773467706
   67      C      -4.8206214608     2.3893683032     1.9331293685
   68      C      -6.4842868890     2.3152880434    -0.3109647602
   69      C      -2.6475591668     1.7827300834     1.7505360050
   70      C      -7.4690311528    -0.0167582877     2.2454688190
   71      C      -4.9386395935    -4.0999390838    -0.4222677016
   72      C      -6.8191795170     1.6093854833    -1.4817032038
   73      C      -5.1952439887    -1.8464809753    -3.1171693209
   74      C      -4.0165206492     0.5043181658     3.3151325756
   75      C      -3.1305612233    -3.1955401392    -1.8015951305
   76      C      -3.8464444346    -1.7522236240     3.3525255185
   77      C      -1.5060008177    -1.9952004326    -0.6229870204
   78      C      -6.2927046333    -3.6903379697    -0.2704131814
   79      C      -4.4596445330    -3.6778728218    -1.6507483903
   80      C      -7.3373247361    -1.4213693751     2.1803296361
   81      C      -6.3947637638     0.7135987179     2.7614157362
   82      C      -1.2780708350     0.2055237748     0.4573952665
   83      C      -4.0786735802    -3.9896443419     0.7405166833
   84      C      -3.9671445129     0.0395003612    -3.2158459427
   85      C      -2.9802852245     2.4388598699     0.5802368664
   86      C      -1.8985813748     0.1831490572    -1.8929787552
   87      C      -5.3195168373     0.0699744775     3.4339243860
   88      C      -1.9443162722    -0.4672038133     2.4632974600
   89      O       6.6005971129    -5.2741078714    -3.3694183413
   90      C       5.4760069375    -5.1850817281    -4.2571459365
   91      H       4.6293850889    -4.6965364302    -3.7591610599
   92      H       5.0350499443    -6.1653075571    -4.4787452467
   93      H       5.8816487176    -4.7282721371    -5.1683362261
   94      O       5.5280186720    -6.4539881782    -1.7100714969
   95      C       6.5484884829    -5.9805941295    -2.1606161003
   96      C       7.8196006710    -5.9645972590    -1.3643787579
   97      H       8.6089629829    -6.4908377208    -1.9167917528
   98      H       7.6975763110    -6.5194493991    -0.4266777618
   99      C       8.2894424380    -4.5287843063    -0.9492463947
  100      H       9.3030058765    -4.4910465001    -0.5305603379
  101      H       8.1798416214    -3.8080317040    -1.7684956530
  102      C       7.4969471400    -4.0575637585     0.2648719678
  103      H       6.4445689918    -3.8765127271     0.0160472158
  104      H       7.4242960236    -4.8327312846     1.0380208033
  105      C       7.9720255572    -2.7326945721     0.8271744987
  106      C       9.2549857336    -2.9030559774     1.6355451917
  107      C      10.4972089981    -2.9503101017     0.9532898078
  108      H      10.6013733155    -2.7253486293    -0.1040195750
  109      C      11.7067821180    -3.1679223236     1.6299498320
  110      H      12.6901913906    -3.1314183644     1.1696807113
  111      C      11.6547311940    -3.4452584490     3.0083668135
  112      H      12.4874279281    -3.6945983466     3.6591899573
  113      C      10.4408164058    -3.2892964881     3.7203919210
  114      H      10.4067341156    -3.4084073107     4.7985375557
  115      C       9.2233054781    -3.0545645435     3.0427798970
  116      H       8.2507356617    -2.9870935724     3.5219360514
  117      C       6.5360650761     2.0256825916     3.1638091010
  118      C       8.4108007294     2.7135986023     1.9081786647
  119      C       5.9488419997     5.0262732820    -1.2757461207
  120      C       3.0037099426    -0.4227144282     0.4823779078
  121      C       5.8501151412     2.2620416578    -3.6162970249
  122      C       7.8371293914     1.7950251793     2.7222235422
  123      C       3.1036431780     0.5924428652    -2.0911935441
  124      C       5.7744815707     4.9294449741     1.1668655389
  125      C       8.5393639281     0.3715311526    -1.3923001741
  126      C       3.7068830163    -1.0972792914    -0.5449501186
  127      C       7.8058693149    -1.4320590569    -0.0347630628
  128      C       7.6834004155    -0.3880667823    -2.1765778305
  129      C       4.9783931200    -0.9019225397    -2.3774603629
  130      C       3.6708156770     1.5718513756    -2.9104208179
  131      C       8.8613743780     0.6611830194     1.0527660962
  132      C       4.3482421071     3.8727218716    -2.4955215620
  133      C       6.9614946495    -1.6395272308     1.1529327658
  134      C       5.5239764568    -1.6428109010     0.9843692369
  135      C       5.5610629042     3.6386140108    -3.1037149716
  136      C       2.7982980190     2.9824678537     1.1097905059
  137      C       3.7857598684     4.5568384204    -0.2583766676
  138      C       4.3972129763     4.6523921164     0.9845390931
  139      C       6.5412534109     4.2750748981     2.1205194325
  140      C       4.8685079569    -0.8609273528     1.9755590082
  141      C       8.6445446816    -0.2076791493    -0.0895943611
  142      C       7.7945591367     3.9653172815     1.6095272832
  143      C       3.7097467749    -0.6287819958    -1.8508203583
  144      C       9.0603750656     1.9938421019     0.8480651039
  145      C       6.9327369387     0.2775816294    -3.1720207151
  146      C       3.3201748109     0.9722482311     2.2421856150
  147      C       6.5305544236     5.0262895259     0.0139145539
  148      C       7.1089068921    -1.3892754768    -1.3837163409
  149      C       4.5633470951     3.0499510225     2.7911699340
  150      C       5.5276162436     0.0350663800    -3.2541802298
  151      C       8.8017009886     1.7462228458    -1.6129311225
  152      C       2.6457693152     2.6382532400    -1.2327679873
  153      C       2.4061952888     1.2424190290    -1.0474759441
  154      C       8.0531417362     2.3352707517    -2.6042588232
  155      C       3.6067935271    -0.2766915810     1.7310221799
  156      C       4.9556664080    -1.6607544120    -0.3224083718
  157      C       2.5717744981     1.6354713220     1.3229135641
  158      C       7.1057381086    -0.5928563338     2.2566500566
  159      C       8.4328058367     3.7310766892    -0.7385967542
  160      C       5.7140442053    -1.6273223669    -1.4710534062
  161      C       7.1268124210     1.6691124600    -3.3893652684
  162      C       4.2919092403     1.6620375746     3.0600021349
  163      C       6.5438759640     4.2299176610    -2.2774822667
  164      C       5.9061472052     3.2304732205     2.8632296335
  165      C       4.5687358706     4.6884713806    -1.3913529885
  166      C       9.0343364142     2.4814050871    -0.4611443233
  167      C       7.8094210740     3.6249088764    -2.0529406335
  168      C       8.1248700076     0.4297922576     2.2396197636
  169      C       5.8138648770    -0.2497080794     2.8482933857
  170      C       2.7611307999     3.5394607219    -0.1963130667
  171      C       7.7332246759     4.3981039555     0.2765952599
  172      C       4.8956175029     1.2912234765    -3.5075987390
  173      C       2.3774748990     0.7934829693     0.2333185568
  174      C       3.3821815825     2.8448343929    -2.3975654804
  175      C       5.5388399662     1.0370769999     3.3467163567
  176      C       3.7638457197     3.6801470492     1.8027972721
 ----------------------------------------------------------------
 Molecular Point Group                 C1    NOp =  1
 Largest Abelian Subgroup              C1    NOp =  1
 Nuclear Repulsion Energy = 33060.6615825587 hartrees
 There are      462 alpha and      462 beta electrons
 Requested basis set is 6-31G(d,p)
 There are 676 shells and 2360 basis functions

 Total QAlloc Memory Limit  20000 MB
 Mega-Array Size      4888 MB
 MEM_STATIC part      5000 MB
 A cutoff of  1.0D-08 yielded  36342 shell pairs
 There are    512879 function pairs
 
 -------------------------------------------------------
 OpenMP Integral Computing Module                       
 Release: version 1.0, May 2013, Q-Chem Inc. Pittsburgh 
 -------------------------------------------------------
 Integral Job Info:
 Integral job number is                      11
 Integral operator is                         1
 short-range coefficients                     0
 long-range coefficients              100000000
 Omega coefficients                           0
 if combine SR and LR in K                    0
 Integral screening is                        0
 Integral computing path is                   2
 max size of driver memory is            800000
 size of driver memory is                593474
 size of scratch memory is              2260544
 max col of scratch BK array               1296
 max len of scratch array in speh3          155
 max len of scratch index in speh4           18
 max int batch size is                      520
 min int batch size is                       52
 fixed nKL is                                52
 max L of basis functions is                  2
 order of int derivative is                   0
 number of shells is                        676
 number of basis is                        2360
 number of cartesian basis is              2360
 number of contracted shell pairs         36342
 number of primitive shell pairs         111183
 maxK2 (contraction) of shell pair           36
 max number of K2 of shell pair               1
 max number of CS2 of shell pair           6975
 max number of PS2 of shell pair          33702
 mem total for path MDJ                 1457032
 -------------------------------------------------------
 Smallest overlap matrix eigenvalue = 2.60E-04

 Scale SEOQF with 1.000000e-02/1.000000e-02/1.000000e-01

 Standard Electronic Orientation quadrupole field applied
 Nucleus-field energy     =    -0.0000002044 hartrees
 Guess from superposition of atomic densities
 Warning:  Energy on first SCF cycle will be non-variational
 A restricted hybrid HF-DFT SCF calculation will be
 performed using Pulay DIIS extrapolation
 Exchange:     0.2000 Hartree-Fock + 0.0800 Slater + 0.7200 B88
 Correlation:  0.1900 VWN1RPA + 0.8100 LYP
 Using SG-1 standard quadrature grid
 SCF converges when DIIS error is below 1.0E-05
 using 16 threads for integral computing 
 -------------------------------------------------------
 OpenMP BLAS3 based DFT computing Module                
 Release: version 1.0, May 2013, Q-Chem Inc. Pittsburgh 
 -------------------------------------------------------
 ---------------------------------------
  Cycle       Energy         DIIS Error
 ---------------------------------------
    1   -5858.0177619756      1.82E-02
    2   -5803.1107146583      1.29E-03
    3   -5802.2682765543      1.80E-03
    4   -5803.9157123608      6.78E-04
    5   -5804.1762573016      3.13E-04
    6   -5804.2413440699      1.38E-04
    7   -5804.2538959025      4.89E-05
    8   -5804.2549537980      3.12E-05
    9   -5804.2556899006      8.96E-06 Convergence criterion met
 ---------------------------------------
 SCF time:  CPU 6992.39 s  wall 812.76 s
 SCF   energy in the final basis set = -5804.2556899006
 Total energy in the final basis set = -5804.2556899006
 
 --------------------------------------------------------------
 
                    Orbital Energies (a.u.)
 --------------------------------------------------------------
 
 Alpha MOs
 -- Occupied --
-19.186 -19.182 -19.138 -19.137 -10.319 -10.318 -10.244 -10.244
-10.242 -10.240 -10.238 -10.237 -10.237 -10.237 -10.234 -10.233
-10.232 -10.230 -10.230 -10.227 -10.225 -10.224 -10.223 -10.223
-10.222 -10.221 -10.221 -10.221 -10.221 -10.220 -10.220 -10.220
-10.219 -10.219 -10.219 -10.218 -10.218 -10.217 -10.217 -10.217
-10.217 -10.217 -10.217 -10.217 -10.217 -10.217 -10.217 -10.217
-10.216 -10.216 -10.216 -10.216 -10.216 -10.216 -10.216 -10.215
-10.215 -10.215 -10.215 -10.215 -10.215 -10.215 -10.215 -10.215
-10.215 -10.214 -10.214 -10.214 -10.214 -10.214 -10.214 -10.214
-10.214 -10.214 -10.213 -10.213 -10.213 -10.213 -10.213 -10.213
-10.213 -10.213 -10.213 -10.213 -10.213 -10.212 -10.212 -10.212
-10.212 -10.212 -10.212 -10.212 -10.212 -10.212 -10.212 -10.211
-10.211 -10.211 -10.211 -10.210 -10.210 -10.210 -10.210 -10.210
-10.210 -10.210 -10.210 -10.210 -10.210 -10.210 -10.209 -10.209
-10.209 -10.209 -10.209 -10.209 -10.209 -10.209 -10.208 -10.208
-10.208 -10.208 -10.208 -10.208 -10.208 -10.207 -10.207 -10.207
-10.207 -10.206 -10.206 -10.206 -10.206 -10.206 -10.203 -10.203
-10.202 -10.202 -10.202 -10.201 -10.201 -10.201 -10.201 -10.198
-10.198 -10.197 -10.197 -10.196  -1.083  -1.066  -1.010  -1.000
 -0.983  -0.980  -0.965  -0.963  -0.963  -0.960  -0.958  -0.958
 -0.934  -0.933  -0.931  -0.925  -0.923  -0.922  -0.921  -0.920
 -0.916  -0.916  -0.899  -0.896  -0.889  -0.889  -0.882  -0.881
 -0.874  -0.870  -0.854  -0.851  -0.840  -0.839  -0.838  -0.835
 -0.835  -0.832  -0.821  -0.820  -0.811  -0.806  -0.798  -0.797
 -0.794  -0.794  -0.793  -0.792  -0.790  -0.787  -0.783  -0.782
 -0.770  -0.768  -0.766  -0.766  -0.764  -0.763  -0.763  -0.762
 -0.753  -0.750  -0.743  -0.741  -0.732  -0.731  -0.714  -0.714
 -0.712  -0.712  -0.711  -0.710  -0.709  -0.709  -0.708  -0.707
 -0.705  -0.704  -0.704  -0.703  -0.702  -0.700  -0.673  -0.672
 -0.658  -0.656  -0.656  -0.654  -0.648  -0.647  -0.631  -0.629
 -0.629  -0.627  -0.625  -0.625  -0.622  -0.622  -0.619  -0.616
 -0.613  -0.612  -0.610  -0.610  -0.610  -0.609  -0.608  -0.607
 -0.606  -0.605  -0.602  -0.600  -0.565  -0.565  -0.564  -0.562
 -0.561  -0.558  -0.557  -0.556  -0.553  -0.552  -0.552  -0.551
 -0.536  -0.536  -0.531  -0.530  -0.529  -0.527  -0.523  -0.522
 -0.521  -0.519  -0.518  -0.517  -0.517  -0.514  -0.513  -0.512
 -0.505  -0.505  -0.503  -0.498  -0.493  -0.492  -0.486  -0.484
 -0.483  -0.481  -0.478  -0.478  -0.477  -0.476  -0.474  -0.473
 -0.471  -0.470  -0.468  -0.468  -0.467  -0.466  -0.465  -0.465
 -0.463  -0.462  -0.462  -0.462  -0.460  -0.459  -0.458  -0.456
 -0.455  -0.453  -0.451  -0.451  -0.448  -0.445  -0.444  -0.443
 -0.439  -0.439  -0.438  -0.436  -0.435  -0.435  -0.434  -0.433
 -0.432  -0.430  -0.428  -0.428  -0.427  -0.426  -0.424  -0.423
 -0.422  -0.422  -0.420  -0.420  -0.420  -0.419  -0.417  -0.417
 -0.416  -0.415  -0.415  -0.414  -0.413  -0.413  -0.411  -0.411
 -0.410  -0.409  -0.408  -0.407  -0.404  -0.402  -0.397  -0.396
 -0.394  -0.391  -0.389  -0.388  -0.388  -0.386  -0.386  -0.383
 -0.380  -0.375  -0.374  -0.373  -0.368  -0.368  -0.365  -0.365
 -0.364  -0.363  -0.362  -0.361  -0.360  -0.359  -0.359  -0.357
 -0.357  -0.356  -0.355  -0.353  -0.353  -0.351  -0.351  -0.350
 -0.348  -0.348  -0.346  -0.345  -0.345  -0.344  -0.343  -0.342
 -0.341  -0.339  -0.339  -0.338  -0.337  -0.334  -0.334  -0.333
 -0.331  -0.331  -0.329  -0.327  -0.325  -0.324  -0.324  -0.324
 -0.307  -0.306  -0.294  -0.293  -0.289  -0.286  -0.272  -0.269
 -0.268  -0.268  -0.267  -0.266  -0.266  -0.265  -0.263  -0.262
 -0.260  -0.260  -0.259  -0.259  -0.256  -0.256  -0.255  -0.253
 -0.250  -0.249  -0.242  -0.241  -0.223  -0.221  -0.209  -0.208
 -0.208  -0.207  -0.205  -0.204  -0.196  -0.196
 -- Virtual --
 -0.124  -0.123  -0.121  -0.119  -0.108  -0.103  -0.078  -0.076
 -0.074  -0.073  -0.057  -0.056  -0.055  -0.054  -0.022  -0.020
 -0.020  -0.019  -0.019  -0.016  -0.015  -0.014  -0.014  -0.013
 -0.012  -0.010  -0.010  -0.009  -0.006  -0.004  -0.003   0.002
  0.003   0.005   0.032   0.037   0.041   0.045   0.045   0.047
  0.048   0.054   0.055   0.059   0.062   0.062   0.066   0.066
  0.068   0.070   0.080   0.081   0.085   0.087   0.089   0.092
  0.094   0.096   0.097   0.102   0.103   0.104   0.106   0.108
  0.108   0.110   0.112   0.114   0.115   0.115   0.120   0.122
  0.123   0.123   0.126   0.127   0.129   0.130   0.133   0.135
  0.136   0.139   0.144   0.145   0.147   0.149   0.151   0.155
  0.157   0.159   0.161   0.163   0.163   0.165   0.167   0.169
  0.172   0.173   0.175   0.177   0.177   0.180   0.180   0.181
  0.184   0.185   0.187   0.189   0.189   0.191   0.192   0.194
  0.195   0.195   0.196   0.197   0.201   0.202   0.204   0.206
  0.210   0.211   0.212   0.216   0.217   0.219   0.219   0.220
  0.220   0.222   0.223   0.224   0.225   0.226   0.228   0.228
  0.229   0.231   0.232   0.235   0.235   0.236   0.239   0.240
  0.241   0.242   0.243   0.244   0.248   0.254   0.258   0.261
  0.262   0.266   0.267   0.274   0.276   0.277   0.278   0.278
  0.280   0.282   0.285   0.286   0.291   0.297   0.305   0.307
  0.307   0.309   0.311   0.311   0.313   0.313   0.314   0.317
  0.319   0.321   0.324   0.325   0.327   0.327   0.330   0.332
  0.334   0.335   0.338   0.339   0.344   0.344   0.347   0.348
  0.349   0.350   0.357   0.359   0.367   0.372   0.385   0.388
  0.393   0.397   0.397   0.401   0.403   0.404   0.408   0.408
  0.410   0.412   0.413   0.415   0.415   0.416   0.423   0.423
  0.429   0.431   0.433   0.435   0.436   0.442   0.443   0.446
  0.449   0.452   0.452   0.454   0.456   0.460   0.464   0.466
  0.468   0.469   0.471   0.472   0.474   0.476   0.477   0.478
  0.480   0.480   0.482   0.482   0.485   0.486   0.487   0.487
  0.488   0.490   0.492   0.493   0.494   0.494   0.495   0.498
  0.498   0.499   0.500   0.502   0.503   0.504   0.504   0.506
  0.507   0.508   0.508   0.510   0.511   0.512   0.512   0.514
  0.514   0.516   0.516   0.517   0.517   0.517   0.519   0.520
  0.521   0.521   0.522   0.524   0.526   0.526   0.527   0.527
  0.528   0.528   0.530   0.531   0.532   0.532   0.532   0.534
  0.535   0.535   0.536   0.536   0.537   0.538   0.540   0.540
  0.541   0.541   0.542   0.542   0.543   0.544   0.545   0.546
  0.546   0.547   0.548   0.549   0.549   0.549   0.550   0.551
  0.551   0.552   0.553   0.554   0.554   0.555   0.556   0.557
  0.558   0.559   0.560   0.561   0.561   0.562   0.563   0.563
  0.564   0.565   0.566   0.567   0.568   0.569   0.570   0.570
  0.572   0.573   0.573   0.574   0.574   0.575   0.576   0.577
  0.578   0.579   0.580   0.580   0.581   0.582   0.583   0.584
  0.585   0.586   0.587   0.587   0.588   0.588   0.589   0.590
  0.591   0.592   0.592   0.595   0.596   0.596   0.598   0.599
  0.600   0.600   0.601   0.602   0.604   0.606   0.607   0.607
  0.607   0.608   0.609   0.610   0.612   0.613   0.614   0.615
  0.616   0.617   0.619   0.619   0.621   0.622   0.624   0.624
  0.625   0.628   0.629   0.630   0.631   0.632   0.632   0.633
  0.634   0.634   0.635   0.636   0.636   0.637   0.638   0.639
  0.640   0.642   0.643   0.643   0.644   0.645   0.647   0.648
  0.649   0.651   0.651   0.652   0.653   0.654   0.655   0.656
  0.657   0.658   0.659   0.659   0.660   0.662   0.663   0.664
  0.665   0.666   0.666   0.666   0.667   0.668   0.668   0.669
  0.670   0.670   0.671   0.672   0.673   0.674   0.675   0.676
  0.677   0.678   0.679   0.680   0.681   0.681   0.683   0.684
  0.685   0.686   0.688   0.690   0.691   0.692   0.694   0.695
  0.696   0.698   0.698   0.700   0.701   0.702   0.703   0.704
  0.704   0.705   0.706   0.707   0.708   0.709   0.711   0.712
  0.714   0.716   0.717   0.718   0.718   0.719   0.720   0.721
  0.724   0.725   0.726   0.728   0.729   0.730   0.731   0.732
  0.733   0.734   0.736   0.737   0.739   0.740   0.742   0.744
  0.745   0.747   0.749   0.750   0.751   0.752   0.753   0.756
  0.757   0.758   0.758   0.759   0.761   0.763   0.764   0.764
  0.766   0.768   0.769   0.771   0.773   0.774   0.775   0.776
  0.777   0.778   0.780   0.780   0.782   0.784   0.785   0.785
  0.788   0.790   0.790   0.792   0.792   0.794   0.794   0.796
  0.798   0.799   0.800   0.801   0.802   0.803   0.804   0.804
  0.805   0.806   0.806   0.807   0.808   0.809   0.810   0.811
  0.812   0.813   0.814   0.815   0.815   0.816   0.817   0.818
  0.818   0.819   0.819   0.820   0.821   0.821   0.823   0.824
  0.824   0.825   0.826   0.826   0.827   0.828   0.829   0.830
  0.830   0.831   0.833   0.834   0.835   0.836   0.837   0.839
  0.843   0.844   0.848   0.849   0.851   0.856   0.857   0.858
  0.862   0.865   0.866   0.871   0.873   0.875   0.877   0.878
  0.882   0.890   0.893   0.893   0.895   0.896   0.898   0.900
  0.905   0.907   0.914   0.916   0.918   0.920   0.923   0.925
  0.926   0.927   0.929   0.930   0.931   0.933   0.934   0.934
  0.936   0.937   0.939   0.941   0.942   0.946   0.947   0.948
  0.949   0.952   0.953   0.956   0.961   0.962   0.964   0.964
  0.971   0.973   0.974   0.976   0.982   0.986   0.988   0.988
  0.992   0.994   0.995   0.997   0.999   1.000   1.003   1.007
  1.009   1.010   1.012   1.013   1.014   1.016   1.017   1.019
  1.021   1.022   1.023   1.024   1.025   1.026   1.028   1.029
  1.030   1.033   1.033   1.037   1.037   1.038   1.040   1.042
  1.044   1.044   1.046   1.048   1.050   1.051   1.055   1.056
  1.058   1.060   1.062   1.067   1.068   1.070   1.070   1.071
  1.072   1.072   1.075   1.076   1.078   1.079   1.081   1.082
  1.085   1.085   1.087   1.089   1.090   1.091   1.092   1.093
  1.093   1.095   1.098   1.100   1.103   1.104   1.106   1.107
  1.109   1.110   1.111   1.116   1.119   1.120   1.123   1.124
  1.124   1.128   1.130   1.132   1.134   1.137   1.139   1.140
  1.143   1.144   1.146   1.148   1.148   1.151   1.153   1.155
  1.156   1.158   1.160   1.161   1.164   1.165   1.166   1.168
  1.169   1.171   1.172   1.173   1.175   1.175   1.176   1.178
  1.179   1.181   1.183   1.183   1.186   1.188   1.190   1.191
  1.193   1.194   1.196   1.199   1.202   1.204   1.205   1.209
  1.210   1.211   1.215   1.220   1.225   1.228   1.233   1.235
  1.238   1.245   1.249   1.250   1.253   1.255   1.256   1.257
  1.259   1.260   1.262   1.262   1.264   1.267   1.268   1.270
  1.273   1.274   1.277   1.281   1.281   1.285   1.286   1.288
  1.291   1.293   1.294   1.296   1.298   1.301   1.302   1.306
  1.306   1.312   1.314   1.319   1.320   1.322   1.323   1.325
  1.328   1.332   1.334   1.338   1.340   1.341   1.343   1.344
  1.346   1.348   1.349   1.353   1.355   1.356   1.359   1.359
  1.361   1.363   1.369   1.370   1.374   1.377   1.378   1.380
  1.383   1.384   1.387   1.389   1.391   1.393   1.396   1.398
  1.400   1.402   1.407   1.409   1.412   1.413   1.417   1.421
  1.423   1.432   1.434   1.436   1.438   1.439   1.440   1.445
  1.447   1.449   1.451   1.453   1.455   1.458   1.460   1.461
  1.462   1.465   1.467   1.467   1.469   1.471   1.472   1.475
  1.480   1.482   1.485   1.486   1.489   1.490   1.492   1.494
  1.495   1.499   1.500   1.505   1.509   1.511   1.512   1.515
  1.515   1.520   1.521   1.522   1.527   1.530   1.534   1.536
  1.536   1.537   1.542   1.544   1.546   1.547   1.551   1.551
  1.556   1.559   1.561   1.564   1.564   1.567   1.569   1.570
  1.573   1.575   1.576   1.577   1.581   1.581   1.585   1.587
  1.591   1.591   1.599   1.601   1.608   1.609   1.610   1.617
  1.622   1.623   1.627   1.631   1.632   1.633   1.638   1.642
  1.643   1.645   1.648   1.653   1.655   1.657   1.661   1.663
  1.665   1.670   1.679   1.683   1.690   1.695   1.696   1.697
  1.700   1.702   1.705   1.707   1.709   1.713   1.717   1.719
  1.719   1.720   1.722   1.724   1.725   1.726   1.728   1.731
  1.736   1.738   1.739   1.741   1.741   1.744   1.745   1.747
  1.748   1.751   1.753   1.754   1.755   1.756   1.756   1.758
  1.759   1.761   1.762   1.763   1.763   1.765   1.768   1.769
  1.770   1.771   1.773   1.774   1.775   1.777   1.778   1.778
  1.779   1.779   1.780   1.781   1.784   1.785   1.785   1.788
  1.789   1.790   1.792   1.792   1.793   1.793   1.794   1.796
  1.796   1.799   1.799   1.801   1.801   1.802   1.804   1.805
  1.809   1.810   1.814   1.814   1.816   1.817   1.818   1.820
  1.823   1.825   1.827   1.828   1.831   1.832   1.836   1.839
  1.841   1.844   1.844   1.848   1.850   1.850   1.852   1.855
  1.857   1.858   1.859   1.860   1.862   1.864   1.865   1.870
  1.872   1.874   1.874   1.875   1.878   1.879   1.881   1.883
  1.885   1.890   1.894   1.895   1.897   1.898   1.899   1.900
  1.902   1.906   1.908   1.913   1.915   1.916   1.917   1.920
  1.921   1.921   1.925   1.927   1.928   1.929   1.933   1.934
  1.936   1.937   1.938   1.939   1.941   1.941   1.945   1.947
  1.949   1.950   1.951   1.954   1.954   1.958   1.960   1.963
  1.964   1.969   1.971   1.971   1.971   1.973   1.976   1.978
  1.979   1.982   1.983   1.984   1.985   1.985   1.986   1.987
  1.990   1.992   1.994   1.995   1.995   1.996   1.998   2.001
  2.002   2.003   2.005   2.005   2.007   2.008   2.010   2.011
  2.012   2.013   2.014   2.017   2.018   2.019   2.021   2.022
  2.022   2.024   2.026   2.027   2.029   2.030   2.032   2.033
  2.035   2.037   2.038   2.038   2.041   2.041   2.043   2.044
  2.045   2.045   2.046   2.047   2.049   2.049   2.049   2.051
  2.052   2.053   2.055   2.056   2.058   2.059   2.060   2.061
  2.062   2.062   2.066   2.067   2.067   2.070   2.070   2.074
  2.074   2.075   2.076   2.077   2.078   2.079   2.082   2.084
  2.087   2.089   2.090   2.092   2.093   2.098   2.100   2.101
  2.103   2.104   2.105   2.109   2.110   2.113   2.115   2.118
  2.119   2.123   2.125   2.127   2.133   2.135   2.136   2.140
  2.142   2.147   2.148   2.151   2.154   2.158   2.160   2.168
  2.177   2.180   2.184   2.190   2.191   2.197   2.197   2.199
  2.202   2.206   2.207   2.210   2.214   2.216   2.222   2.223
  2.226   2.229   2.233   2.233   2.234   2.240   2.241   2.243
  2.245   2.246   2.254   2.255   2.257   2.258   2.258   2.260
  2.263   2.266   2.268   2.269   2.272   2.273   2.277   2.278
  2.279   2.285   2.288   2.289   2.290   2.293   2.293   2.297
  2.298   2.301   2.303   2.304   2.305   2.307   2.307   2.309
  2.313   2.314   2.318   2.323   2.324   2.327   2.331   2.332
  2.336   2.338   2.341   2.341   2.345   2.349   2.351   2.353
  2.354   2.358   2.358   2.358   2.361   2.362   2.364   2.365
  2.369   2.371   2.372   2.374   2.375   2.376   2.377   2.378
  2.379   2.382   2.382   2.384   2.386   2.389   2.391   2.392
  2.392   2.394   2.396   2.399   2.401   2.403   2.404   2.406
  2.407   2.410   2.411   2.412   2.416   2.417   2.419   2.422
  2.426   2.428   2.429   2.433   2.436   2.436   2.438   2.440
  2.442   2.445   2.446   2.450   2.453   2.454   2.456   2.461
  2.463   2.464   2.466   2.468   2.470   2.472   2.473   2.475
  2.476   2.479   2.480   2.481   2.483   2.484   2.486   2.488
  2.490   2.491   2.492   2.493   2.494   2.496   2.497   2.502
  2.505   2.507   2.509   2.510   2.513   2.515   2.518   2.520
  2.521   2.523   2.524   2.525   2.530   2.531   2.532   2.534
  2.535   2.539   2.543   2.548   2.552   2.557   2.558   2.560
  2.562   2.565   2.566   2.571   2.573   2.578   2.580   2.583
  2.586   2.587   2.589   2.591   2.595   2.596   2.596   2.599
  2.600   2.602   2.604   2.606   2.608   2.609   2.611   2.613
  2.615   2.617   2.620   2.622   2.623   2.624   2.625   2.627
  2.630   2.630   2.631   2.633   2.635   2.636   2.638   2.640
  2.642   2.644   2.645   2.647   2.648   2.650   2.651   2.652
  2.653   2.654   2.656   2.659   2.661   2.662   2.666   2.668
  2.669   2.670   2.672   2.673   2.674   2.679   2.681   2.682
  2.684   2.685   2.687   2.690   2.694   2.694   2.696   2.698
  2.700   2.704   2.709   2.712   2.716   2.718   2.721   2.723
  2.725   2.725   2.728   2.730   2.733   2.733   2.734   2.737
  2.743   2.744   2.745   2.750   2.751   2.754   2.755   2.757
  2.757   2.759   2.761   2.764   2.766   2.769   2.769   2.772
  2.773   2.775   2.776   2.778   2.779   2.782   2.785   2.788
  2.788   2.794   2.800   2.801   2.803   2.808   2.810   2.814
  2.815   2.818   2.819   2.823   2.828   2.830   2.831   2.835
  2.838   2.840   2.842   2.849   2.852   2.854   2.855   2.856
  2.857   2.861   2.862   2.864   2.867   2.870   2.872   2.875
  2.878   2.878   2.883   2.883   2.884   2.885   2.887   2.889
  2.891   2.892   2.895   2.897   2.898   2.899   2.901   2.902
  2.904   2.905   2.907   2.907   2.909   2.912   2.915   2.915
  2.916   2.920   2.921   2.923   2.924   2.925   2.927   2.929
  2.930   2.935   2.937   2.938   2.942   2.943   2.946   2.948
  2.954   2.955   2.957   2.963   2.964   2.968   2.971   2.972
  2.975   2.977   2.978   2.985   2.989   2.993   2.993   2.995
  3.002   3.002   3.008   3.011   3.014   3.016   3.020   3.022
  3.023   3.024   3.027   3.029   3.030   3.031   3.036   3.038
  3.039   3.044   3.046   3.047   3.048   3.051   3.053   3.060
  3.061   3.063   3.065   3.069   3.078   3.080   3.087   3.088
  3.088   3.103   3.109   3.110   3.116   3.125   3.135   3.139
  3.142   3.144   3.154   3.154   3.168   3.171   3.178   3.179
  3.185   3.189   3.196   3.199   3.219   3.222   3.230   3.232
  3.233   3.237   3.242   3.256   3.257   3.267   3.279   3.289
  3.294   3.295   3.297   3.298   3.302   3.307   3.320   3.324
  3.328   3.334   3.341   3.349   3.356   3.365   3.370   3.377
  3.380   3.393   3.412   3.414   3.416   3.427   3.429   3.432
  3.435   3.441   3.447   3.455   3.469   3.473   3.480   3.487
  3.488   3.496   3.497   3.504   3.509   3.520   3.532   3.541
  3.545   3.554   3.556   3.570   3.581   3.583   3.589   3.592
  3.598   3.611   3.672   3.688   3.838   3.860   3.966   4.001
  4.059   4.078   4.080   4.084   4.089   4.092   4.092   4.094
  4.100   4.101   4.103   4.106   4.107   4.114   4.121   4.121
  4.124   4.127   4.136   4.138   4.141   4.145   4.147   4.147
  4.152   4.155   4.155   4.158   4.163   4.166   4.171   4.175
  4.178   4.183   4.190   4.201   4.210   4.216   4.227   4.235
  4.239   4.241   4.242   4.247   4.249   4.250   4.253   4.255
  4.258   4.262   4.265   4.270   4.276   4.280   4.283   4.287
  4.296   4.303   4.311   4.312   4.376   4.378   4.390   4.392
  4.394   4.397   4.398   4.402   4.404   4.409   4.410   4.412
  4.412   4.419   4.423   4.426   4.429   4.441   4.464   4.473
  4.477   4.484   4.488   4.523   4.528   4.537   4.544   4.551
  4.552   4.562   4.607   4.618   4.625   4.629   4.630   4.634
  4.636   4.660   4.683   4.688   4.689   4.694   4.695   4.696
  4.699   4.703   4.704   4.707   4.747   4.757   4.808   4.815
  4.832   4.847   4.854   4.859   4.866   4.871   4.881   4.886
  4.888   4.905   4.951   4.958   4.962   4.967   4.972   4.978
  4.979   4.981   4.988   5.001   5.156   5.162   5.173   5.174
  5.177   5.188   5.193   5.206   5.301   5.315   5.325   5.327
  5.344   5.351
 --------------------------------------------------------------
 
          Ground-State Mulliken Net Atomic Charges

     Atom                 Charge (a.u.)
  ----------------------------------------
      1 O                    -0.509989
      2 C                    -0.072949
      3 H                     0.125739
      4 H                     0.126954
      5 H                     0.121446
      6 O                    -0.461403
      7 C                     0.600514
      8 C                    -0.261165
      9 H                     0.155522
     10 H                     0.126325
     11 C                    -0.184188
     12 H                     0.132961
     13 H                     0.110715
     14 C                    -0.185460
     15 H                     0.109898
     16 H                     0.110475
     17 C                    -0.003012
     18 C                     0.084808
     19 C                    -0.086835
     20 H                     0.104934
     21 C                    -0.100922
     22 H                     0.097284
     23 C                    -0.079808
     24 H                     0.093898
     25 C                    -0.098147
     26 H                     0.088809
     27 C                    -0.105082
     28 H                     0.095561
     29 C                    -0.026162
     30 C                     0.035733
     31 C                    -0.008556
     32 C                    -0.016435
     33 C                     0.007434
     34 C                    -0.016001
     35 C                     0.007414
     36 C                     0.013935
     37 C                     0.040293
     38 C                     0.013468
     39 C                    -0.073045
     40 C                     0.001979
     41 C                    -0.013345
     42 C                     0.002769
     43 C                    -0.015075
     44 C                    -0.007129
     45 C                    -0.091133
     46 C                     0.033413
     47 C                     0.010439
     48 C                     0.010174
     49 C                    -0.000317
     50 C                     0.012801
     51 C                    -0.010324
     52 C                    -0.010290
     53 C                     0.003092
     54 C                     0.007485
     55 C                    -0.001724
     56 C                    -0.001915
     57 C                    -0.037180
     58 C                    -0.011633
     59 C                    -0.019591
     60 C                     0.044765
     61 C                    -0.004506
     62 C                     0.007458
     63 C                    -0.000915
     64 C                     0.014508
     65 C                    -0.001660
     66 C                     0.024801
     67 C                    -0.014904
     68 C                     0.007208
     69 C                     0.009705
     70 C                     0.032532
     71 C                     0.005329
     72 C                    -0.038137
     73 C                    -0.003572
     74 C                     0.011845
     75 C                    -0.003277
     76 C                    -0.002764
     77 C                    -0.007146
     78 C                    -0.036999
     79 C                    -0.003030
     80 C                     0.014270
     81 C                     0.006585
     82 C                     0.004781
     83 C                    -0.001148
     84 C                    -0.001971
     85 C                    -0.003563
     86 C                    -0.028988
     87 C                     0.010213
     88 C                    -0.018484
     89 O                    -0.485824
     90 C                    -0.078655
     91 H                     0.128962
     92 H                     0.123719
     93 H                     0.128425
     94 O                    -0.454924
     95 C                     0.596616
     96 C                    -0.248920
     97 H                     0.123939
     98 H                     0.133103
     99 C                    -0.189596
    100 H                     0.108627
    101 H                     0.122870
    102 C                    -0.184076
    103 H                     0.113870
    104 H                     0.115056
    105 C                    -0.001203
    106 C                     0.093590
    107 C                    -0.118581
    108 H                     0.099688
    109 C                    -0.093973
    110 H                     0.098049
    111 C                    -0.082087
    112 H                     0.091166
    113 C                    -0.096848
    114 H                     0.092293
    115 C                    -0.097433
    116 H                     0.095264
    117 C                     0.032664
    118 C                     0.019854
    119 C                    -0.029334
    120 C                    -0.021067
    121 C                    -0.018520
    122 C                    -0.027216
    123 C                     0.014094
    124 C                     0.004149
    125 C                    -0.015169
    126 C                     0.009936
    127 C                    -0.071148
    128 C                     0.026417
    129 C                    -0.005787
    130 C                    -0.003727
    131 C                    -0.007038
    132 C                     0.018324
    133 C                    -0.087531
    134 C                     0.039221
    135 C                    -0.017724
    136 C                     0.010153
    137 C                    -0.004273
    138 C                     0.006461
    139 C                    -0.026969
    140 C                     0.000669
    141 C                     0.042467
    142 C                    -0.014531
    143 C                    -0.021653
    144 C                     0.012815
    145 C                    -0.041795
    146 C                     0.007515
    147 C                     0.023059
    148 C                     0.010749
    149 C                    -0.023023
    150 C                    -0.006145
    151 C                     0.007328
    152 C                     0.005069
    153 C                     0.006239
    154 C                     0.021350
    155 C                     0.001379
    156 C                     0.005898
    157 C                     0.026333
    158 C                     0.022019
    159 C                    -0.039049
    160 C                     0.005171
    161 C                     0.007452
    162 C                    -0.025801
    163 C                     0.013251
    164 C                     0.032143
    165 C                     0.005956
    166 C                     0.013698
    167 C                    -0.021964
    168 C                    -0.031488
    169 C                    -0.004985
    170 C                    -0.036994
    171 C                     0.021848
    172 C                     0.017109
    173 C                    -0.000705
    174 C                     0.003054
    175 C                    -0.021938
    176 C                    -0.001783
  ----------------------------------------
  Sum of atomic charges =     0.000000

 -----------------------------------------------------------------
                    Cartesian Multipole Moments
 -----------------------------------------------------------------
    Charge (ESU x 10^10)
                 0.0000
    Dipole Moment (Debye)
         X      -1.2080      Y      -0.3421      Z       0.9514
       Tot       1.5753
    Quadrupole Moments (Debye-Ang)
        XX    -705.9957     XY     -39.5509     YY    -815.3101
        XZ     -11.4754     YZ       0.7951     ZZ    -798.9299
    Octopole Moments (Debye-Ang^2)
       XXX    -840.4959    XXY    -111.1515    XYY     -81.3171
       YYY     -39.6487    XXZ     212.4169    XYZ      16.9072
       YYZ     -29.7469    XZZ       8.5471    YZZ     -96.9317
       ZZZ     -51.6042
    Hexadecapole Moments (Debye-Ang^3)
      XXXX -205618.1694   XXXY   -7520.8216   XXYY  -43191.6108
      XYYY   -1304.2472   YYYY  -34488.4372   XXXZ    -109.6521
      XXYZ    -809.1308   XYYZ     147.5747   YYYZ     238.1331
      XXZZ  -41219.6844   XYZZ   -1115.0357   YYZZ   -8786.2760
      XZZZ      85.3609   YZZZ     273.9222   ZZZZ  -20545.0828
 -----------------------------------------------------------------
Archival summary:
1\1\mn366\SP\ProcedureUnspecified\6-31G**\428\afmv_a\TueOct916:01:532018TueOct916:01:532018\0\\#,ProcedureUnspecified,6-31G**,\\0,1\C\C,1,1.3575\C,1,1.39044,2,116.663\C,1,1.39065,2,122.415,3,-138.711,0\C,4,1.35832,1,108.156,2,140.764,0\C,5,1.3796,4,107.803,1,-0.524315,0\C,4,1.38244,1,119.475,2,-0.263912,0\C,7,1.37815,4,122.042,1,136.732,0\C,6,1.41176,5,119.745,4,-142.978,0\C,2,1.41359,1,123.711,3,4.41127,0\C,10,1.38439,2,119.566,1,-5.5524,0\C,11,1.38737,10,117.414,2,5.99106,0\C,12,1.38798,11,106.628,10,139.638,0\C,13,1.37682,12,110.607,11,3.38413,0\C,14,1.37439,13,105.556,12,-6.47569,0\C,15,1.39579,14,123.913,13,-139.444,0\C,10,1.39716,2,108.113,1,141.773,0\C,17,1.39123,10,117.883,2,-146.266,0\C,18,1.36579,17,120.401,10,140.941,0\C,17,1.40243,10,109.775,2,-1.49018,0\C,20,1.39346,17,106.253,10,-1.01353,0\C,21,1.3783,20,119.171,17,-148.513,0\C,20,1.41401,17,119.597,10,-143.818,0\C,23,1.37682,20,120.586,17,-0.797113,0\C,23,1.39041,20,118.673,17,136.494,0\C,25,1.38348,23,120.316,20,4.78594,0\C,26,1.38847,25,118.51,23,-139.89,0\C,24,1.41358,23,106.447,20,136.061,0\C,28,1.41128,24,110.964,23,9.92604,0\C,29,1.41478,28,118.273,24,-142.13,0\C,30,1.38204,29,122.077,28,-7.40346,0\C,30,1.38214,29,122.376,28,135.396,0\C,32,1.38766,30,107.701,29,-149.165,0\C,33,1.38847,32,110.552,30,-1.00992,0\C,31,1.40177,30,120.86,29,-0.146626,0\C,35,1.41439,31,119.381,30,138.166,0\C,36,1.38608,35,103.547,31,-140.696,0\C,37,1.37479,36,117.601,35,3.29451,0\C,38,1.38501,37,124.53,36,142.061,0\C,36,1.39729,35,120.001,31,7.27539,0\C,40,1.3629,36,118.633,35,-141.118,0\C,41,1.41584,40,111.202,36,143.696,0\C,37,1.41678,36,114.602,35,143.612,0\C,43,1.38736,37,123.88,36,-146.8,0\C,44,1.40039,43,108.935,37,149.547,0\C,44,1.41333,43,117.904,37,6.33305,0\C,8,1.41888,7,121.346,4,1.03813,0\C,47,1.3568,8,122.382,7,-134.872,0\C,48,1.39236,47,110.126,8,139.766,0\C,49,1.39319,48,119.823,47,-151.263,0\C,50,1.35482,49,118.27,48,5.6594,0\C,49,1.41607,48,108.263,47,2.48081,0\C,52,1.40708,49,117.068,48,-141.379,0\C,28,1.42058,24,122.25,23,-141.667,0\C,9,1.42248,6,121.238,5,143.173,0\C,52,1.42394,49,106.515,48,-3.76693,0\C,43,1.42954,37,121.428,36,5.87609,0\C,42,1.44386,41,119.525,40,-139.75,0\C,55,1.44737,9,112.04,6,-153.99,0\C,59,1.47195,55,118.43,9,134.413,0\C,59,1.52391,55,129.204,9,-148.376,0\C,61,1.51564,59,119.901,55,1.2153,0\H,62,1.09645,61,103.928,59,-10.8352,0\H,62,1.09723,61,112.141,59,98.9105,0\C,62,1.52453,61,113.748,59,-132.485,0\H,65,1.09666,62,109.867,61,62.0954,0\H,65,1.09728,62,99.5357,61,-54.2123,0\C,61,1.52593,59,121.626,55,148.91,0\C,68,1.41572,61,121.313,59,-54.4383,0\H,69,1.08629,68,116.862,61,3.37257,0\C,69,1.41301,68,118.371,61,-176.21,0\H,71,1.08524,69,117.878,68,179.746,0\C,71,1.41594,69,121.055,68,3.51336,0\H,73,1.08588,71,112.416,69,175.593,0\C,73,1.407,71,120.176,69,-9.71264,0\H,75,1.0864,73,117.076,71,-169.394,0\C,75,1.40296,73,118.112,71,10.165,0\H,77,1.08598,75,114.772,73,-179.064,0\C,65,1.56673,62,109.779,61,-174.332,0\H,79,1.09637,65,105.697,62,41.9157,0\H,79,1.09781,65,110.916,62,155.82,0\C,79,1.49999,65,113.863,62,-79.8694,0\O,82,1.2118,79,121.361,65,112.711,0\O,82,1.40109,79,114.903,65,-59.9789,0\C,84,1.43551,82,122.389,79,-179.96,0\H,85,1.09701,84,110.579,82,-60.9327,0\H,85,1.09704,84,104.465,82,170.531,0\H,85,1.09745,84,112.597,82,50.3987,0\C,1,3.7093,2,97.485,3,113.467,0\C,89,1.3383,1,97.8006,2,11.8611,0\C,90,1.41453,89,124.013,1,-99.1159,0\C,90,1.41811,89,121.965,1,116.132,0\C,92,1.40581,90,106.647,89,144.054,0\C,93,1.36705,92,111.624,90,4.53833,0\C,92,1.41165,90,118.847,89,4.09138,0\C,95,1.38232,92,119.97,90,-2.66401,0\C,96,1.39103,95,109.706,92,140.117,0\C,97,1.41614,96,107.476,95,3.79753,0\C,98,1.39909,97,107.575,96,-4.06513,0\C,99,1.41103,98,120.109,97,-139.494,0\C,100,1.3738,99,119.707,98,-3.1137,0\C,100,1.39427,99,119.309,98,138.857,0\C,102,1.40646,100,106.424,99,-143.424,0\C,101,1.40751,100,107.386,99,145.966,0\C,97,1.42277,96,120.302,95,-140.38,0\C,105,1.37861,97,118.281,96,141.251,0\C,105,1.37924,97,118.926,96,-2.90157,0\C,106,1.39438,105,104.133,97,-146.468,0\C,107,1.403,105,122.735,97,1.54823,0\C,109,1.35236,107,116.361,105,2.12726,0\C,108,1.40966,106,117.767,105,142.301,0\C,111,1.37522,108,120.203,106,-138.364,0\C,112,1.36056,111,120.406,108,-2.89739,0\C,112,1.3925,111,106.174,108,145.432,0\C,113,1.3947,112,117.624,111,138.876,0\C,115,1.40421,113,107.613,112,-145.255,0\C,114,1.40898,112,118.646,111,-147.312,0\C,116,1.41118,115,109.978,113,4.41952,0\C,118,1.4069,116,105.138,115,-4.92399,0\C,119,1.38914,118,118.281,116,141.937,0\C,116,1.41733,115,113.137,113,142.169,0\C,121,1.41568,116,126.917,115,6.22996,0\C,118,1.41756,116,122.862,115,135.592,0\C,123,1.34536,118,117.936,116,-0.382096,0\C,124,1.41408,123,120.422,118,3.29136,0\C,122,1.41796,121,106.567,116,-141.735,0\C,126,1.4091,122,109.007,121,-1.80825,0\C,126,1.4125,122,118.802,121,142.988,0\C,128,1.39489,126,120.151,122,-141.554,0\C,128,1.39549,126,120.026,122,-3.72186,0\C,129,1.39577,128,109.406,126,141.26,0\C,131,1.40354,129,107.205,128,1.22813,0\C,122,1.42192,121,115.932,116,-2.62609,0\C,133,1.38446,122,121.395,121,0.646603,0\C,133,1.39198,122,117.306,121,-135.113,0\C,135,1.373,133,109.245,122,142.874,0\C,136,1.35464,135,122.602,133,-145.298,0\C,137,1.37861,136,121.678,135,-2.10845,0\C,138,1.38967,137,111.46,136,142.217,0\C,106,1.42221,105,122.09,97,-4.60022,0\C,140,1.39774,106,121.275,105,-143.683,0\C,141,1.41228,140,117.713,106,11.9587,0\C,142,1.36565,141,122.503,140,135.321,0\C,137,1.42742,136,122.239,135,141.482,0\C,140,1.43683,106,120.842,105,4.30147,0\C,145,1.40628,140,107.318,106,-147.946,0\C,144,1.47487,137,110.814,136,-149.559,0\C,147,1.47347,144,119.6,137,140.486,0\C,148,1.50554,147,61.6476,144,117.776,0\C,149,1.46715,148,118.948,147,-107.91,0\C,150,1.38413,149,122.063,148,-65.4326,0\H,151,1.08582,150,123.378,149,-5.80705,0\C,151,1.41376,150,116.94,149,-172.909,0\H,153,1.08601,151,116.428,150,179.445,0\C,153,1.3785,151,122.555,150,-2.96862,0\H,155,1.08681,153,123.976,151,-175.46,0\C,150,1.41378,149,114.599,148,119.255,0\H,157,1.08614,150,123.193,149,-7.39512,0\C,157,1.40194,150,118.703,149,173.024,0\H,159,1.08674,157,115.737,150,176.188,0\C,149,1.57649,148,115.213,147,115.832,0\H,161,1.09695,149,109.913,148,83.4025,0\H,161,1.09722,149,107.851,148,-27.5588,0\C,161,1.54021,149,110.013,148,-154.434,0\H,164,1.09735,161,110.213,149,132.867,0\H,164,1.09743,161,109.718,149,18.2514,0\C,164,1.50618,161,114.558,149,-100.698,0\H,167,1.09647,164,111.369,161,-74.2161,0\H,167,1.0972,164,111.373,161,42.1125,0\C,167,1.44723,164,118.636,161,169.89,0\O,170,1.22686,167,122.095,164,-43.3598,0\O,170,1.44367,167,114.388,164,130.967,0\C,172,1.45479,170,122.571,167,172.338,0\H,173,1.0964,172,109.259,170,-155.033,0\H,173,1.09715,172,110.567,170,-44.6629,0\H,173,1.09728,172,110.267,170,85.2875,0\\\@

 Total job time:  828.85s(wall), 7019.11s(cpu) 
 Tue Oct  9 16:01:53 2018

        *************************************************************
        *                                                           *
        *  Thank you very much for using Q-Chem.  Have a nice day.  *
        *                                                           *
        *************************************************************


