
Running Job 1 of 1 ./6/6.qcin
qchem ./6/6.qcin_47860.0 /tmpu/cab_g/afmv_a/scratch_qchem/qchem47860/ 1
/tmpu/appuserlic/qchem4.4/serial-multicore/exe/qcprog.exe_s ./6/6.qcin_47860.0 /tmpu/cab_g/afmv_a/scratch_qchem/qchem47860/
Check license passed

                  Welcome to Q-Chem
     A Quantum Leap Into The Future Of Chemistry


 Q-Chem 4.4, Q-Chem, Inc., Pleasanton, CA (2016)

 Y. Shao,  Z. Gan,  E. Epifanovsky,  A. T. B. Gilbert,  M. Wormit,  
 J. Kussmann,  A. W. Lange,  A. Behn,  J. Deng,  X. Feng,  D. Ghosh,  
 M. Goldey,  P. R. Horn,  L. D. Jacobson,  I. Kaliman,  F. Rob,  
 R. Z. Khaliullin,  T. Kus,  A. Landau,  J. Liu,  E. I. Proynov,  Y. M. Rhee,  
 R. M. Richard,  M. A. Rohrdanz,  R. P. Steele,  E. J. Sundstrom,  
 H. L. Woodcock III,  P. M. Zimmerman,  D. Zuev,  B. Albrecht,  E. Alguire,  
 B. Austin,  S. A. Baeppler,  G. J. O. Beran,  Y. A. Bernard,  E. Berquist,  
 K. Brandhorst,  K. B. Bravaya,  S. T. Brown,  D. Casanova,  C.-M. Chang,  
 Y. Chen,  S. H. Chien,  K. D. Closser,  M. P. Coons,  D. L. Crittenden,  
 S. Dasgupta,  M. Diedenhofen,  R. A. DiStasio Jr.,  H. Do,  A. D. Dutoi,  
 R. G. Edgar,  P.-T. Fang,  S. Fatehi,  Q. Feng,  L. Fusti-Molnar,  
 A. Ghysels,  A. Golubeva-Zadorozhnaya,  J. Gomes,  A. Gunina,  
 M. W. D. Hanson-Heine,  P. H. P. Harbach,  A. W. Hauser,  J. E. Herr,  
 E. G. Hohenstein,  Z. C. Holden,  K. Hui,  T.-C. Jagau,  H. Ji,  B. Kaduk,  
 K. Khistyaev,  Jaehoon Kim,  Jihan Kim,  R. A. King,  P. Klunzinger,  
 K. Koh,  D. Kosenkov,  T. Kowalczyk,  C. M. Krauter,  A. Kunitsa,  
 K. U. Lao,  A. Laurent,  K. V. Lawler,  J. Lee,  D. Lefrancois,  S. Lehtola,  
 S. V. Levchenko,  C. Y. Lin,  Y.-S. Lin,  F. Liu,  E. Livshits,  
 R. C. Lochan,  A. Luenser,  P. Manohar,  S. F. Manzer,  S.-P. Mao,  Y. Mao,  
 N. Mardirossian,  A. V. Marenich,  L. A. Martinez-Martinez,  S. A. Maurer,  
 N. J. Mayhall,  J.-M. Mewes,  A. F. Morrison,  K. Nanda,  T. S. Nguyen-Beck,  
 C. M. Oana,  R. Olivares-Amaya,  D. P. O'Neill,  J. A. Parkhill,  
 T. M. Perrine,  R. Peverati,  P. A. Pieniazek,  F. Plasser,  A. Prociuk,  
 D. R. Rehn,  E. Rosta,  N. J. Russ,  N. Sergueev,  S. M. Sharada,  
 S. Sharma,  D. W. Small,  A. Sodt,  T. Stauch,  T. Stein,  D. Stuck,  
 Y.-C. Su,  A. J. W. Thom,  T. Tsuchimochi,  L. Vogt,  O. Vydrov,  T. Wang,  
 M. A. Watson,  J. Wenzel,  A. White,  C. F. Williams,  V. Vanovschi,  
 K. Yao,  S. Yeganeh,  S. R. Yost,  Z.-Q. You,  I. Y. Zhang,  X. Zhang,  
 Y. Zhao,  B. R. Brooks,  G. K. L. Chan,  D. M. Chipman,  C. J. Cramer,  
 W. A. Goddard III,  M. S. Gordon,  W. J. Hehre,  A. Klamt,  
 H. F. Schaefer III,  M. W. Schmidt,  C. D. Sherrill,  D. G. Truhlar,  
 A. Warshel,  X. Xu,  A. Aspuru-Guzik,  R. Baer,  A. T. Bell,  N. A. Besley,  
 J.-D. Chai,  A. Dreuw,  B. D. Dunietz,  T. R. Furlani,  S. R. Gwaltney,  
 C.-P. Hsu,  Y. Jung,  J. Kong,  D. S. Lambrecht,  W. Liang,  C. Ochsenfeld,  
 V. A. Rassolov,  L. V. Slipchenko,  J. E. Subotnik,  T. Van Voorhis,  
 J. M. Herbert,  A. I. Krylov,  P. M. W. Gill,  M. Head-Gordon

 Contributors to earlier versions of Q-Chem not listed above: 
 R. D. Adamson,  J. Baker,  E. F. C. Byrd,  A. K. Chakraborty,  C.-L. Cheng,  
 H. Dachsel,  R. J. Doerksen,  G. Hawkins,  A. Heyden,  S. Hirata,  
 G. Kedziora,  F. J. Keil,  C. Kelley,  P. P. Korambath,  W. Kurlancheek,  
 A. M. Lee,  M. S. Lee,  D. Liotard,  I. Lotan,  P. E. Maslen,  N. Nair,  
 D. Neuhauser,  R. Olson,  B. Peters,  J. Ritchie,  N. E. Schultz,  
 N. Shenvi,  A. C. Simmonett,  K. S. Thanthiriwatte,  Q. Wu,  W. Zhang

 Please cite Q-Chem as follows:
 Y. Shao et al., Mol. Phys. 113, 184-215 (2015)
 DOI: 10.1080/00268976.2014.952696

 Q-Chem 4.4.2 for Intel X86 Linux

 Parts of Q-Chem use Armadillo 5.200.1 (Boston Tea Smuggler).
 http://arma.sourceforge.net/

 Q-Chem begins on Tue Oct  9 16:59:00 2018  

Host: 
0

     Scratch files written to /tmpu/cab_g/afmv_a/scratch_qchem/qchem47860//
 Dec716 11556_ 22328  22283 4050   
Processing $rem in /tmpu/appuserlic/qchem4.4/serial-multicore/config/preferences.
 MEM_TOTAL  2000 
FILE_GEOM_ORG=        593

Checking the input file for inconsistencies... 	...done.

--------------------------------------------------------------
User input:
--------------------------------------------------------------
$comment
SP
$end

$rem
MEM_STATIC 5000
MEM_TOTAL 20000
JOBTYPE SP
EXCHANGE B3LYP
BASIS 6-31g(d,p)
$end

$molecule
0 1
O          13.630000     -9.461000     -5.264000
C          12.239000     -9.144000     -5.324000
H          11.721000     -9.830000     -4.643000
H          11.826000     -9.300000     -6.329000
H          12.050000     -8.097000     -5.057000
O          14.234000     -7.441000     -5.984000
C          14.579000     -8.558000     -5.675000
C          16.018000     -8.993000     -5.533000
H          16.152000     -9.973000     -6.008000
H          16.118000     -8.942000     -4.442000
C          17.092000     -8.069000     -6.283000
H          16.896000     -7.977000     -7.359000
H          17.246000     -7.048000     -5.915000
C          18.508000     -8.651000     -6.286000
H          18.490000     -9.537000     -6.932000
H          19.042000     -7.864000     -6.831000
C          19.228000     -8.868000     -4.940000
C          19.304000     -7.562000     -4.205000
C          18.360000     -7.315000     -3.258000
H          17.604000     -8.073000     -3.075000
C          18.305000     -6.132000     -2.541000
H          17.522000     -6.023000     -1.797000
C          19.282000     -5.186000     -2.770000
H          19.174000     -4.198000     -2.333000
C          20.241000     -5.350000     -3.687000
H          20.764000     -4.479000     -4.069000
C          20.276000     -6.559000     -4.350000
H          20.952000     -6.640000     -5.197000
C          23.400000    -10.933000     -2.194000
C          21.613000    -11.165000     -0.631000
C          21.278000    -15.700000     -0.742000
C          22.237000    -13.242000     -6.532000
C          18.531000    -15.620000     -3.008000
C          22.232000    -10.457000     -1.640000
C          20.568000    -15.400000     -5.960000
C          23.290000    -14.245000     -0.694000
C          18.130000    -11.617000     -2.472000
C          20.815000    -13.109000     -6.683000
C          19.011000    -10.216000     -4.244000
C          17.851000    -12.272000     -3.681000
C          18.831000    -13.640000     -5.825000
C          19.945000    -16.011000     -4.893000
C          20.017000    -10.200000     -1.951000
C          20.785000    -16.717000     -2.746000
C          20.346000     -9.832000     -4.814000
C          20.925000    -10.786000     -5.885000
C          19.550000    -16.190000     -2.169000
C          24.128000    -14.877000     -4.087000
C          23.097000    -15.969000     -2.436000
C          23.793000    -14.936000     -1.824000
C          23.380000    -12.848000     -0.578000
C          22.320000    -10.994000     -5.577000
C          18.889000    -10.444000     -2.776000
C          22.179000    -12.329000     -0.121000
C          19.982000    -14.181000     -6.452000
C          20.264000    -11.016000     -0.840000
C          17.671000    -13.647000     -3.740000
C          24.007000    -12.696000     -5.175000
C          22.004000    -14.604000     -0.179000
C          18.327000    -11.497000     -4.748000
C          24.458000    -12.853000     -2.762000
C          18.194000    -14.330000     -4.808000
C          18.310000    -12.370000     -1.286000
C          22.215000    -16.316000     -4.672000
C          22.007000    -15.510000     -5.769000
C          18.222000    -13.801000     -1.341000
C          22.982000    -12.185000     -5.984000
C          20.219000    -11.912000     -6.295000
C          23.907000    -14.088000     -5.219000
C          21.482000     -9.737000     -3.846000
C          20.020000    -13.323000     -0.069000
C          18.948000    -12.235000     -5.767000
C          17.877000    -14.424000     -2.573000
C          24.287000    -12.121000     -3.913000
C          19.888000    -15.564000     -0.944000
C          23.944000    -12.108000     -1.676000
C          21.811000    -16.333000     -1.887000
C          19.468000    -12.076000     -0.510000
C          19.220000    -14.382000     -0.541000
C          21.278000     -9.878000     -2.463000
C          22.628000    -10.405000     -4.380000
C          23.318000    -15.999000     -3.821000
C          21.405000    -13.369000      0.144000
C          18.750000    -15.557000     -4.350000
C          22.781000    -14.406000     -6.019000
C          20.931000    -16.578000     -4.102000
C          23.613000    -10.946000     -3.564000
C          24.452000    -14.233000     -2.861000
O          27.846000    -30.758000     -7.232000
C          29.043000    -31.030000     -8.022000
H          29.848000    -30.373000     -7.670000
H          28.750000    -30.586000     -8.982000
H          29.315000    -32.092000     -8.035000
O          28.892000    -29.876000     -5.350000
C          27.867000    -30.242000     -5.922000
C          26.519000    -30.118000     -5.350000
H          26.716000    -29.837000     -4.308000
H          26.000000    -31.084000     -5.389000
C          25.707000    -28.914000     -5.874000
H          26.343000    -28.022000     -5.933000
H          25.268000    -29.064000     -6.868000
C          24.679000    -28.526000     -4.822000
H          24.139000    -29.458000     -4.617000
H          25.096000    -28.131000     -3.887000
C          23.618000    -27.422000     -5.237000
C          22.600000    -28.092000     -6.100000
C          21.489000    -28.722000     -5.489000
H          21.396000    -28.498000     -4.430000
C          20.495000    -29.391000     -6.288000
H          19.620000    -29.823000     -5.811000
C          20.753000    -29.480000     -7.634000
H          20.031000    -30.091000     -8.168000
C          21.902000    -28.923000     -8.252000
H          22.062000    -29.063000     -9.317000
C          22.758000    -28.270000     -7.475000
H          23.692000    -27.884000     -7.874000
C          22.708000    -22.393000     -7.404000
C          20.847000    -22.653000     -5.808000
C          22.512000    -19.724000     -2.742000
C          27.218000    -23.297000     -5.171000
C          23.930000    -22.180000     -0.646000
C          21.710000    -23.235000     -6.793000
C          26.955000    -22.450000     -2.535000
C          22.367000    -19.531000     -5.136000
C          22.100000    -25.092000     -2.850000
C          27.070000    -24.252000     -4.123000
C          23.363000    -26.286000     -4.326000
C          23.288000    -25.267000     -2.176000
C          25.960000    -24.610000     -2.165000
C          26.115000    -21.869000     -1.579000
C          21.401000    -24.769000     -5.115000
C          24.520000    -20.123000     -1.744000
C          24.032000    -26.025000     -5.574000
C          25.428000    -25.486000     -5.557000
C          23.607000    -20.897000     -1.079000
C          25.881000    -20.007000     -5.518000
C          24.493000    -19.073000     -3.962000
C          23.756000    -19.134000     -5.185000
C          21.897000    -20.509000     -6.062000
C          25.545000    -24.455000     -6.492000
C          22.103000    -25.616000     -4.165000
C          20.945000    -21.296000     -5.436000
C          26.950000    -23.816000     -2.792000
C          20.691000    -23.594000     -4.790000
C          23.795000    -24.392000     -1.206000
C          26.045000    -22.046000     -6.669000
C          21.724000    -19.834000     -3.892000
C          24.133000    -25.965000     -3.084000
C          24.112000    -20.621000     -7.048000
C          25.088000    -24.007000     -1.271000
C          21.367000    -23.958000     -2.446000
C          26.468000    -20.306000     -3.207000
C          27.190000    -21.482000     -3.527000
C          21.815000    -23.049000     -1.426000
C          26.449000    -23.351000     -6.309000
C          26.184000    -25.357000     -4.317000
C          26.593000    -21.182000     -5.800000
C          23.383000    -25.082000     -6.576000
C          20.686000    -21.861000     -3.024000
C          25.471000    -25.527000     -3.094000
C          23.046000    -23.270000     -0.773000
C          24.817000    -21.764000     -7.299000
C          22.351000    -20.698000     -1.729000
C          22.726000    -20.982000     -7.068000
C          23.877000    -19.387000     -2.722000
C          20.654000    -23.188000     -3.395000
C          21.439000    -21.742000     -1.838000
C          22.035000    -24.543000     -6.335000
C          24.318000    -24.157000     -7.104000
C          25.811000    -19.580000     -4.194000
C          20.857000    -20.876000     -4.058000
C          25.200000    -22.677000     -0.878000
C          27.263000    -21.906000     -4.868000
C          25.815000    -20.563000     -1.962000
C          23.981000    -22.865000     -7.527000
C          24.614000    -19.738000     -6.114000
$end

--------------------------------------------------------------
 ----------------------------------------------------------------
             Standard Nuclear Orientation (Angstroms)
    I     Atom           X                Y                Z
 ----------------------------------------------------------------
    1      O      10.7634048084     5.6154992053     0.6135472390
    2      C      11.5084919758     6.7499553916     1.0571960575
    3      H      11.0833922817     7.0603409358     2.0192937990
    4      H      11.4161558248     7.5971295005     0.3653145182
    5      H      12.5778077101     6.5226264609     1.1472205964
    6      O      12.4151095205     4.9076641382    -0.7034406356
    7      C      11.2746055791     4.7592246744    -0.3300621610
    8      C      10.4091778555     3.5769013216    -0.6951050961
    9      H       9.4044681640     3.9281012572    -0.9619347067
   10      H      10.5107841134     2.9851703318     0.2227252826
   11      C      10.8729421369     2.7617041608    -1.9951544338
   12      H      10.9384477966     3.3920603282    -2.8912660958
   13      H      11.8144999220     2.2023042290    -1.9490930236
   14      C       9.8649714065     1.7022280752    -2.4482487184
   15      H       8.9846840483     2.2365370496    -2.8254013224
   16      H      10.3908104361     1.2908243640    -3.3176107266
   17      C       9.5330122685     0.5340980692    -1.4982590238
   18      C      10.7974401642    -0.1975538229    -1.1554112360
   19      C      11.4109480016     0.1176459434     0.0164297262
   20      H      10.9559036076     0.8749621103     0.6480908877
   21      C      12.6004776847    -0.4624417330     0.4227798471
   22      H      13.0157025448    -0.1576924846     1.3784064536
   23      C      13.1574746566    -1.4359314248    -0.3796902104
   24      H      14.1583027593    -1.7942156294    -0.1588904424
   25      C      12.6197110335    -1.7987642308    -1.5487191410
   26      H      13.2411443250    -2.2959697888    -2.2867579594
   27      C      11.4164095893    -1.2193429563    -1.8934097573
   28      H      11.0541565283    -1.3932735720    -2.9030962734
   29      C       6.4500603993    -3.7432111471    -0.3106738101
   30      C       6.9338551998    -2.8635587653     1.8531922389
   31      C       2.7585841852    -1.3658567023     2.8605509067
   32      C       4.3086771135    -0.1970827843    -3.1988817766
   33      C       3.5460926559     1.9851971429     1.9454369601
   34      C       7.3211087747    -3.1175897769     0.5539582670
   35      C       2.8605060358     1.5229624625    -1.5514735458
   36      C       3.4816777073    -3.4792460606     1.7751043724
   37      C       7.4919498279     1.0604449442     1.7282951878
   38      C       4.8831892888     1.0521179571    -2.7841441870
   39      C       8.3874401841     0.7500400651    -0.5034511762
   40      C       6.8696915104     2.0131321964     0.9074854742
   41      C       5.0934465466     2.4953802811    -1.1027261101
   42      C       2.5705603387     1.7293510225    -0.2198301044
   43      C       8.2570105893    -1.1502484403     1.1219819098
   44      C       1.8018196565     0.2217862589     1.4977062845
   45      C       8.2717085806    -0.2312590764    -1.6340435832
   46      C       7.1002814576     0.0025085244    -2.6166468624
   47      C       2.7444797994     0.8811964078     2.3990680934
   48      C       2.3468996708    -2.4994799736    -1.4445934741
   49      C       1.7818024215    -2.0853348770     0.6744570061
   50      C       2.5781722985    -3.2212158989     0.7146853930
   51      C       4.7785868972    -3.9663195847     1.5428309665
   52      C       6.4761892007    -1.2753952354    -2.8648883491
   53      C       8.3277089548     0.2489982447     0.8991468683
   54      C       5.6932285593    -3.2796606795     2.3254810658
   55      C       4.1608833789     1.9339313145    -2.0114130727
   56      C       7.4952138035    -1.6546070924     2.1833367079
   57      C       5.6271912515     2.5457013640     1.2222380571
   58      C       4.3564410609    -2.4627156006    -2.8286230195
   59      C       3.6007574505    -2.5213506936     2.8315883906
   60      C       7.3618988821     1.8903483238    -0.3995516423
   61      C       4.2523158830    -3.8987481349    -0.8342340134
   62      C       4.7296276017     2.7565649402     0.2070740080
   63      C       6.8171737906     0.5632935917     2.8700144318
   64      C       1.5644870820    -0.2320042620    -0.8798816555
   65      C       2.3053155541     0.2352632793    -1.9424931648
   66      C       5.4923700579     1.0297873117     3.1629456166
   67      C       5.1067434049    -1.3520427102    -3.2405442780
   68      C       6.2353964616     1.0794266052    -2.4534494642
   69      C       3.0731596964    -2.0009285692    -2.5293878659
   70      C       8.0692201071    -1.6638350808    -1.2555341253
   71      C       5.4602562174    -1.2039289642     3.4608588593
   72      C       6.3845743206     2.0094098364    -1.3992051111
   73      C       4.9198641109     2.0410703697     2.3416530274
   74      C       4.9071346743    -3.4197321979    -1.9440187145
   75      C       3.3215318589    -0.1217092682     3.2163416864
   76      C       5.2068269821    -4.1413156165     0.1800078604
   77      C       1.8988472188    -1.1415301642     1.7622190111
   78      C       6.7800237340    -0.8522371233     3.0264390725
   79      C       4.6841235167    -0.0358222357     3.5928046881
   80      C       8.1113926421    -2.0786647640     0.0862273330
   81      C       7.0258819115    -2.2305349915    -2.0523983676
   82      C       1.5727592957    -1.6403378922    -0.6394092942
   83      C       4.9846390484    -2.4718237501     3.0976218565
   84      C       3.4287564792     2.3886484447     0.6506963418
   85      C       3.0754194750    -0.5957436051    -2.7149952744
   86      C       1.7786930900     0.6744783669     0.2039103124
   87      C       6.2608185525    -3.3025133177    -1.6116007668
   88      C       2.9455380478    -3.4954850830    -0.6245971840
   89      O     -14.0772788244    -0.1877312219    -2.3517254746
   90      C     -14.7840111273    -0.7836767396    -3.4814472952
   91      H     -14.3979179399    -1.7988639038    -3.6360599478
   92      H     -14.3460885122    -0.2130210293    -4.3103989485
   93      H     -15.8743666020    -0.7382545630    -3.3762866345
   94      O     -13.4366789618    -2.1581468698    -1.2929252147
   95      C     -13.4944520837    -0.9300436270    -1.3066980666
   96      C     -12.8954573714    -0.0686258405    -0.2777040279
   97      H     -12.6123392810    -0.7799803708     0.5080140380
   98      H     -13.6409105631     0.6398182193     0.1049767179
   99      C     -11.5384696219     0.5537510804    -0.6711086745
  100      H     -10.9084294090    -0.1914067155    -1.1725368242
  101      H     -11.6158534871     1.4166308413    -1.3439439112
  102      C     -10.7565355361     0.8571470815     0.5979705003
  103      H     -11.4439060263     1.4645179779     1.1986962310
  104      H     -10.4457059654    -0.0229997909     1.1749154379
  105      C      -9.4045017853     1.6686054929     0.4238958513
  106      C      -9.7740499112     3.1001315338     0.2137521459
  107      C      -9.9596155494     3.9344975189     1.3424420044
  108      H      -9.6348705729     3.4778369740     2.2731986036
  109      C     -10.3309600909     5.3163276010     1.1792033581
  110      H     -10.4169420517     5.9589267621     2.0506684582
  111      C     -10.6045458097     5.7271876493    -0.1024151012
  112      H     -10.9885225496     6.7419583207    -0.1530446158
  113      C     -10.5006686695     4.8822113937    -1.2371391501
  114      H     -10.7684218547     5.2628278972    -2.2183956452
  115      C     -10.1013992509     3.6323351281    -1.0339957229
  116      H     -10.0717650134     2.9158412729    -1.8502746993
  117      C      -4.5393566531     2.1380214297    -2.2076135103
  118      C      -4.0553659695     3.0731523897     0.0216061078
  119      C      -1.5924731304    -0.4856055250     1.4432329815
  120      C      -6.6778337884    -2.4934619772    -1.8613737190
  121      C      -4.2023482761    -2.0158452079     3.2550812745
  122      C      -4.9614102885     2.9301246605    -1.0794591766
  123      C      -5.5864344216    -3.6773470827     0.4062985411
  124      C      -1.5521227865     0.6711645417    -0.6662135958
  125      C      -6.5278112719     1.2898392227     2.6626858822
  126      C      -7.4475651802    -2.5962469533    -0.6658897863
  127      C      -8.1791530981     1.1837330924     1.0938670073
  128      C      -7.0248488767     0.0148866813     2.8166165050
  129      C      -7.2709233660    -2.4413505148     1.6010095857
  130      C      -4.6910743147    -3.5406044941     1.4724733595
  131      C      -6.1751340767     2.8283521419     0.8649785108
  132      C      -2.5410038882    -2.5503034675     1.6000156584
  133      C      -8.2483249076     1.1094943068    -0.3424093809
  134      C      -8.1914708656    -0.2289920477    -1.0093785682
  135      C      -2.9222578732    -1.8726521011     2.7270933063
  136      C      -3.1702217572    -2.0366981392    -2.3305246913
  137      C      -1.7171525817    -1.7933771379    -0.5842655864
  138      C      -1.6320619672    -0.5951407203    -1.3586092276
  139      C      -2.3946532795     1.7418172913    -1.0889488062
  140      C      -7.3311416017    -0.1702673972    -2.1081323956
  141      C      -7.1263545870     2.0159544391     1.6051828834
  142      C      -2.7785905336     2.4737516477     0.0220927244
  143      C      -6.8927860523    -3.2070934547     0.4721540050
  144      C      -4.8116693121     2.9871804662     1.1906891170
  145      C      -6.2879458030    -1.0808962687     3.2854529225
  146      C      -5.2362312220    -1.1343384880    -2.9836479196
  147      C      -1.5312889402     0.7357516559     0.7649357519
  148      C      -8.0283442800    -0.1178678372     1.8160835403
  149      C      -3.2960424816     0.3237045089    -2.8403535689
  150      C      -6.3493335241    -2.2548704033     2.6203850471
  151      C      -5.1893165900     1.4431032879     3.0766944725
  152      C      -3.4603385533    -3.5064572244    -0.4516070571
  153      C      -4.8282426541    -3.6775430250    -0.7775334594
  154      C      -4.3972942355     0.3664205468     3.6066377383
  155      C      -6.5690731421    -1.3081039904    -2.5487008353
  156      C      -8.2172787391    -1.4685609699    -0.2421889954
  157      C      -4.5309473724    -2.2166751280    -2.6188423697
  158      C      -7.2278851752     1.8755331368    -1.1708665393
  159      C      -3.0372250653     1.7492907386     2.3911251366
  160      C      -8.0500255739    -1.3687278238     1.1702761269
  161      C      -4.9532914709    -0.9239991016     3.7342904129
  162      C      -4.6218900611     0.1274994363    -3.1051303908
  163      C      -2.3786583655    -0.5565944933     2.6169618013
  164      C      -3.1885746664     1.6094220128    -2.2181814314
  165      C      -1.7157572597    -1.7472343607     0.8347202829
  166      C      -4.3070387469     2.2841651458     2.3583138221
  167      C      -3.0757414490     0.5392586045     3.1136932807
  168      C      -6.2637470561     2.7803222921    -0.5247239298
  169      C      -6.7006234242     1.0784813491    -2.2174502644
  170      C      -2.6406889706    -2.6847966408    -1.2170758330
  171      C      -2.2455666618     1.8184125203     1.1923252570
  172      C      -5.1008955144    -2.8688130128     2.6396206467
  173      C      -5.3572592541    -3.0250905087    -1.9079462827
  174      C      -3.3928196813    -3.4455572686     0.9746521751
  175      C      -5.4067219626     1.2268108747    -2.7327941880
  176      C      -2.5528128693    -0.7535796993    -2.4031837182
 ----------------------------------------------------------------
 Molecular Point Group                 C1    NOp =  1
 Largest Abelian Subgroup              C1    NOp =  1
 Nuclear Repulsion Energy = 33380.8442398531 hartrees
 There are      462 alpha and      462 beta electrons
 Requested basis set is 6-31G(d,p)
 There are 676 shells and 2360 basis functions

 Total QAlloc Memory Limit  20000 MB
 Mega-Array Size      4888 MB
 MEM_STATIC part      5000 MB
 A cutoff of  1.0D-08 yielded  36758 shell pairs
 There are    520943 function pairs
 
 -------------------------------------------------------
 OpenMP Integral Computing Module                       
 Release: version 1.0, May 2013, Q-Chem Inc. Pittsburgh 
 -------------------------------------------------------
 Integral Job Info:
 Integral job number is                      11
 Integral operator is                         1
 short-range coefficients                     0
 long-range coefficients              100000000
 Omega coefficients                           0
 if combine SR and LR in K                    0
 Integral screening is                        0
 Integral computing path is                   2
 max size of driver memory is            800000
 size of driver memory is                593474
 size of scratch memory is              2260544
 max col of scratch BK array               1296
 max len of scratch array in speh3          155
 max len of scratch index in speh4           18
 max int batch size is                      520
 min int batch size is                       52
 fixed nKL is                                52
 max L of basis functions is                  2
 order of int derivative is                   0
 number of shells is                        676
 number of basis is                        2360
 number of cartesian basis is              2360
 number of contracted shell pairs         36758
 number of primitive shell pairs         112220
 maxK2 (contraction) of shell pair           36
 max number of K2 of shell pair               1
 max number of CS2 of shell pair           7110
 max number of PS2 of shell pair          34170
 mem total for path MDJ                 1485112
 -------------------------------------------------------
 Smallest overlap matrix eigenvalue = 2.44E-04

 Scale SEOQF with 1.000000e-02/1.000000e-02/1.000000e-01

 Standard Electronic Orientation quadrupole field applied
 Nucleus-field energy     =    -0.0000001491 hartrees
 Guess from superposition of atomic densities
 Warning:  Energy on first SCF cycle will be non-variational
 A restricted hybrid HF-DFT SCF calculation will be
 performed using Pulay DIIS extrapolation
 Exchange:     0.2000 Hartree-Fock + 0.0800 Slater + 0.7200 B88
 Correlation:  0.1900 VWN1RPA + 0.8100 LYP
 Using SG-1 standard quadrature grid
 SCF converges when DIIS error is below 1.0E-05
 using 16 threads for integral computing 
 -------------------------------------------------------
 OpenMP BLAS3 based DFT computing Module                
 Release: version 1.0, May 2013, Q-Chem Inc. Pittsburgh 
 -------------------------------------------------------
 ---------------------------------------
  Cycle       Energy         DIIS Error
 ---------------------------------------
    1   -5858.7902338250      1.84E-02
    2   -5803.0827927503      1.31E-03
    3   -5802.1800618585      1.84E-03
    4   -5803.9167041444      6.85E-04
    5   -5804.1877616388      3.04E-04
    6   -5804.2487629807      1.28E-04
    7   -5804.2591153609      4.90E-05
    8   -5804.2599875204      3.47E-05
    9   -5804.2609188675      9.74E-06 Convergence criterion met
 ---------------------------------------
 SCF time:  CPU 7142.65 s  wall 829.88 s
 SCF   energy in the final basis set = -5804.2609188675
 Total energy in the final basis set = -5804.2609188675
 
 --------------------------------------------------------------
 
                    Orbital Energies (a.u.)
 --------------------------------------------------------------
 
 Alpha MOs
 -- Occupied --
-19.183 -19.180 -19.135 -19.129 -10.316 -10.314 -10.244 -10.242
-10.242 -10.240 -10.240 -10.240 -10.239 -10.237 -10.232 -10.232
-10.229 -10.228 -10.228 -10.227 -10.227 -10.224 -10.223 -10.223
-10.223 -10.222 -10.222 -10.222 -10.221 -10.220 -10.220 -10.220
-10.219 -10.219 -10.219 -10.219 -10.219 -10.219 -10.219 -10.219
-10.219 -10.219 -10.218 -10.218 -10.218 -10.218 -10.217 -10.217
-10.217 -10.217 -10.217 -10.217 -10.216 -10.216 -10.216 -10.216
-10.216 -10.216 -10.216 -10.216 -10.216 -10.216 -10.216 -10.216
-10.216 -10.215 -10.215 -10.215 -10.215 -10.215 -10.215 -10.215
-10.215 -10.214 -10.214 -10.214 -10.214 -10.214 -10.214 -10.214
-10.214 -10.214 -10.214 -10.213 -10.213 -10.213 -10.213 -10.213
-10.213 -10.213 -10.213 -10.213 -10.212 -10.212 -10.212 -10.212
-10.212 -10.212 -10.212 -10.211 -10.211 -10.211 -10.211 -10.211
-10.211 -10.211 -10.211 -10.210 -10.210 -10.210 -10.210 -10.210
-10.210 -10.209 -10.209 -10.208 -10.207 -10.207 -10.207 -10.207
-10.207 -10.207 -10.206 -10.206 -10.206 -10.206 -10.205 -10.205
-10.205 -10.205 -10.204 -10.204 -10.203 -10.203 -10.202 -10.202
-10.202 -10.201 -10.200 -10.200 -10.198 -10.197 -10.196 -10.194
-10.192 -10.191 -10.191 -10.189  -1.091  -1.070  -1.005  -0.999
 -0.984  -0.983  -0.971  -0.967  -0.965  -0.962  -0.960  -0.959
 -0.940  -0.933  -0.928  -0.927  -0.926  -0.923  -0.922  -0.921
 -0.919  -0.918  -0.900  -0.897  -0.891  -0.889  -0.886  -0.881
 -0.880  -0.876  -0.864  -0.860  -0.843  -0.840  -0.840  -0.838
 -0.836  -0.835  -0.823  -0.820  -0.813  -0.803  -0.798  -0.797
 -0.797  -0.795  -0.794  -0.792  -0.791  -0.790  -0.783  -0.783
 -0.772  -0.770  -0.769  -0.769  -0.769  -0.767  -0.766  -0.765
 -0.756  -0.756  -0.748  -0.742  -0.736  -0.733  -0.716  -0.716
 -0.714  -0.713  -0.713  -0.712  -0.711  -0.709  -0.708  -0.707
 -0.706  -0.706  -0.705  -0.704  -0.702  -0.701  -0.676  -0.675
 -0.660  -0.660  -0.657  -0.657  -0.649  -0.649  -0.634  -0.632
 -0.629  -0.627  -0.627  -0.625  -0.622  -0.620  -0.618  -0.617
 -0.616  -0.615  -0.615  -0.613  -0.612  -0.609  -0.609  -0.608
 -0.605  -0.605  -0.603  -0.601  -0.568  -0.566  -0.562  -0.562
 -0.561  -0.559  -0.558  -0.558  -0.555  -0.554  -0.554  -0.550
 -0.540  -0.539  -0.534  -0.532  -0.527  -0.527  -0.525  -0.525
 -0.523  -0.522  -0.520  -0.519  -0.516  -0.515  -0.513  -0.511
 -0.509  -0.505  -0.503  -0.499  -0.494  -0.490  -0.488  -0.488
 -0.486  -0.484  -0.481  -0.481  -0.478  -0.476  -0.475  -0.474
 -0.474  -0.471  -0.470  -0.468  -0.467  -0.466  -0.466  -0.465
 -0.465  -0.464  -0.464  -0.463  -0.462  -0.460  -0.459  -0.459
 -0.458  -0.456  -0.453  -0.451  -0.447  -0.446  -0.445  -0.444
 -0.444  -0.443  -0.441  -0.438  -0.437  -0.437  -0.434  -0.433
 -0.432  -0.431  -0.431  -0.429  -0.428  -0.427  -0.426  -0.424
 -0.424  -0.423  -0.421  -0.421  -0.420  -0.419  -0.418  -0.418
 -0.417  -0.417  -0.416  -0.416  -0.415  -0.414  -0.413  -0.413
 -0.413  -0.411  -0.410  -0.409  -0.405  -0.402  -0.398  -0.396
 -0.395  -0.394  -0.391  -0.391  -0.386  -0.384  -0.383  -0.380
 -0.379  -0.379  -0.375  -0.373  -0.371  -0.367  -0.366  -0.366
 -0.363  -0.362  -0.361  -0.360  -0.360  -0.359  -0.359  -0.357
 -0.357  -0.356  -0.355  -0.355  -0.354  -0.351  -0.351  -0.350
 -0.348  -0.347  -0.347  -0.347  -0.346  -0.344  -0.344  -0.343
 -0.341  -0.341  -0.340  -0.340  -0.339  -0.337  -0.337  -0.336
 -0.333  -0.332  -0.332  -0.330  -0.329  -0.327  -0.326  -0.325
 -0.312  -0.310  -0.293  -0.292  -0.290  -0.284  -0.272  -0.271
 -0.269  -0.268  -0.267  -0.266  -0.265  -0.264  -0.263  -0.263
 -0.263  -0.262  -0.261  -0.261  -0.258  -0.258  -0.257  -0.255
 -0.253  -0.250  -0.247  -0.244  -0.224  -0.216  -0.214  -0.211
 -0.209  -0.208  -0.207  -0.202  -0.201  -0.197
 -- Virtual --
 -0.124  -0.122  -0.120  -0.118  -0.108  -0.106  -0.079  -0.077
 -0.075  -0.069  -0.060  -0.059  -0.056  -0.054  -0.027  -0.025
 -0.020  -0.019  -0.016  -0.015  -0.015  -0.014  -0.013  -0.012
 -0.011  -0.009  -0.008  -0.005  -0.004  -0.003   0.002   0.005
  0.007   0.014   0.033   0.038   0.038   0.043   0.044   0.047
  0.052   0.053   0.055   0.059   0.061   0.062   0.066   0.068
  0.069   0.072   0.074   0.081   0.083   0.086   0.089   0.092
  0.095   0.096   0.096   0.100   0.101   0.102   0.104   0.108
  0.111   0.111   0.112   0.113   0.114   0.115   0.119   0.120
  0.121   0.127   0.127   0.129   0.131   0.133   0.133   0.135
  0.140   0.143   0.143   0.149   0.150   0.154   0.155   0.159
  0.159   0.159   0.160   0.160   0.164   0.164   0.169   0.171
  0.172   0.173   0.174   0.175   0.177   0.179   0.180   0.181
  0.182   0.183   0.184   0.187   0.187   0.188   0.190   0.190
  0.195   0.196   0.197   0.200   0.203   0.203   0.205   0.208
  0.209   0.212   0.213   0.215   0.216   0.217   0.217   0.218
  0.219   0.220   0.221   0.224   0.225   0.226   0.228   0.230
  0.232   0.234   0.235   0.236   0.237   0.240   0.241   0.242
  0.243   0.244   0.246   0.251   0.253   0.254   0.258   0.260
  0.264   0.268   0.272   0.272   0.277   0.277   0.278   0.281
  0.282   0.290   0.290   0.293   0.295   0.299   0.306   0.309
  0.310   0.316   0.317   0.317   0.319   0.320   0.321   0.322
  0.323   0.323   0.324   0.326   0.326   0.329   0.333   0.334
  0.337   0.338   0.341   0.344   0.344   0.349   0.350   0.351
  0.354   0.355   0.358   0.364   0.365   0.370   0.388   0.394
  0.395   0.400   0.400   0.402   0.403   0.405   0.406   0.408
  0.410   0.412   0.413   0.415   0.415   0.416   0.426   0.428
  0.429   0.434   0.435   0.437   0.440   0.442   0.446   0.448
  0.449   0.450   0.452   0.455   0.456   0.459   0.465   0.466
  0.468   0.469   0.470   0.472   0.473   0.475   0.476   0.477
  0.478   0.479   0.480   0.482   0.482   0.483   0.484   0.484
  0.486   0.489   0.491   0.491   0.493   0.495   0.496   0.497
  0.498   0.499   0.500   0.502   0.503   0.503   0.505   0.505
  0.506   0.506   0.508   0.508   0.509   0.510   0.511   0.512
  0.513   0.513   0.514   0.516   0.516   0.517   0.518   0.520
  0.521   0.521   0.522   0.523   0.524   0.524   0.525   0.526
  0.528   0.529   0.530   0.530   0.531   0.532   0.533   0.533
  0.534   0.534   0.535   0.536   0.537   0.538   0.539   0.539
  0.541   0.541   0.541   0.543   0.544   0.545   0.545   0.546
  0.547   0.547   0.547   0.549   0.550   0.550   0.551   0.552
  0.553   0.553   0.553   0.554   0.555   0.556   0.557   0.558
  0.559   0.559   0.560   0.560   0.561   0.562   0.563   0.564
  0.565   0.566   0.567   0.567   0.569   0.569   0.570   0.571
  0.572   0.573   0.573   0.574   0.576   0.577   0.577   0.578
  0.579   0.580   0.580   0.581   0.582   0.583   0.584   0.585
  0.586   0.587   0.588   0.588   0.588   0.590   0.590   0.591
  0.592   0.594   0.594   0.595   0.596   0.596   0.598   0.600
  0.601   0.601   0.602   0.603   0.605   0.605   0.607   0.609
  0.609   0.610   0.612   0.612   0.614   0.616   0.616   0.618
  0.618   0.619   0.620   0.622   0.622   0.623   0.624   0.625
  0.627   0.628   0.628   0.630   0.632   0.633   0.634   0.634
  0.635   0.636   0.637   0.637   0.638   0.638   0.640   0.641
  0.642   0.643   0.644   0.645   0.646   0.647   0.650   0.650
  0.651   0.651   0.653   0.654   0.654   0.654   0.656   0.657
  0.658   0.658   0.660   0.661   0.661   0.662   0.663   0.664
  0.665   0.666   0.667   0.667   0.668   0.668   0.669   0.671
  0.671   0.673   0.673   0.674   0.676   0.676   0.677   0.679
  0.680   0.682   0.683   0.684   0.685   0.687   0.688   0.688
  0.690   0.690   0.691   0.692   0.693   0.694   0.694   0.697
  0.698   0.699   0.699   0.702   0.703   0.704   0.705   0.707
  0.708   0.710   0.711   0.711   0.713   0.713   0.714   0.716
  0.719   0.719   0.721   0.722   0.723   0.725   0.726   0.726
  0.727   0.728   0.729   0.731   0.732   0.733   0.734   0.736
  0.738   0.739   0.741   0.743   0.743   0.744   0.747   0.749
  0.750   0.751   0.752   0.753   0.754   0.756   0.758   0.760
  0.761   0.762   0.763   0.764   0.765   0.766   0.766   0.768
  0.770   0.772   0.773   0.773   0.774   0.775   0.776   0.776
  0.779   0.779   0.781   0.783   0.785   0.785   0.786   0.787
  0.790   0.791   0.792   0.793   0.794   0.795   0.796   0.797
  0.799   0.800   0.800   0.802   0.803   0.804   0.804   0.805
  0.806   0.807   0.808   0.808   0.809   0.810   0.811   0.811
  0.812   0.814   0.814   0.815   0.816   0.817   0.818   0.818
  0.820   0.821   0.821   0.823   0.823   0.824   0.825   0.825
  0.826   0.829   0.830   0.831   0.832   0.833   0.834   0.835
  0.836   0.838   0.838   0.844   0.847   0.848   0.849   0.855
  0.856   0.856   0.857   0.860   0.862   0.864   0.866   0.867
  0.869   0.870   0.874   0.879   0.880   0.883   0.884   0.888
  0.890   0.894   0.896   0.898   0.901   0.904   0.905   0.906
  0.908   0.912   0.913   0.915   0.915   0.920   0.923   0.923
  0.928   0.931   0.932   0.933   0.936   0.938   0.939   0.940
  0.942   0.943   0.945   0.946   0.950   0.951   0.952   0.955
  0.959   0.961   0.962   0.963   0.966   0.966   0.969   0.973
  0.975   0.977   0.979   0.981   0.983   0.986   0.988   0.990
  0.992   0.993   0.997   0.998   0.999   1.000   1.003   1.005
  1.007   1.008   1.009   1.011   1.013   1.017   1.018   1.019
  1.020   1.020   1.023   1.024   1.026   1.027   1.031   1.032
  1.033   1.034   1.035   1.037   1.040   1.040   1.041   1.044
  1.046   1.048   1.049   1.052   1.055   1.057   1.058   1.059
  1.061   1.063   1.064   1.068   1.069   1.073   1.073   1.074
  1.075   1.076   1.080   1.080   1.081   1.083   1.085   1.087
  1.088   1.089   1.090   1.092   1.093   1.095   1.097   1.098
  1.100   1.101   1.103   1.105   1.108   1.110   1.112   1.115
  1.116   1.118   1.120   1.122   1.125   1.126   1.127   1.132
  1.133   1.135   1.137   1.141   1.142   1.146   1.148   1.149
  1.151   1.152   1.155   1.157   1.159   1.160   1.162   1.164
  1.166   1.167   1.169   1.170   1.172   1.174   1.174   1.176
  1.177   1.178   1.179   1.182   1.182   1.183   1.188   1.188
  1.189   1.190   1.193   1.193   1.196   1.197   1.199   1.200
  1.202   1.204   1.205   1.208   1.209   1.210   1.214   1.217
  1.220   1.222   1.223   1.224   1.229   1.231   1.235   1.238
  1.243   1.243   1.247   1.250   1.252   1.256   1.258   1.260
  1.261   1.263   1.264   1.266   1.267   1.271   1.272   1.276
  1.277   1.279   1.281   1.282   1.283   1.284   1.286   1.288
  1.293   1.295   1.296   1.301   1.302   1.305   1.306   1.311
  1.312   1.314   1.316   1.320   1.321   1.323   1.326   1.328
  1.330   1.332   1.336   1.337   1.342   1.342   1.345   1.350
  1.351   1.352   1.355   1.356   1.357   1.365   1.365   1.369
  1.371   1.373   1.374   1.376   1.378   1.380   1.382   1.383
  1.385   1.388   1.390   1.395   1.396   1.400   1.403   1.405
  1.408   1.411   1.415   1.416   1.420   1.420   1.424   1.426
  1.428   1.433   1.435   1.441   1.443   1.446   1.448   1.449
  1.452   1.456   1.458   1.461   1.462   1.464   1.464   1.466
  1.466   1.470   1.471   1.473   1.475   1.476   1.479   1.480
  1.482   1.484   1.486   1.489   1.491   1.493   1.496   1.501
  1.502   1.503   1.504   1.508   1.508   1.512   1.514   1.518
  1.519   1.521   1.523   1.527   1.528   1.531   1.532   1.533
  1.535   1.539   1.541   1.544   1.546   1.551   1.552   1.555
  1.558   1.560   1.564   1.565   1.566   1.567   1.571   1.571
  1.574   1.575   1.580   1.581   1.584   1.585   1.588   1.589
  1.591   1.593   1.598   1.609   1.612   1.613   1.615   1.622
  1.623   1.626   1.630   1.633   1.635   1.637   1.645   1.647
  1.649   1.652   1.655   1.657   1.659   1.664   1.670   1.672
  1.673   1.679   1.683   1.687   1.692   1.695   1.697   1.701
  1.703   1.704   1.705   1.706   1.710   1.712   1.715   1.717
  1.718   1.721   1.723   1.726   1.730   1.733   1.734   1.735
  1.736   1.738   1.739   1.741   1.743   1.744   1.747   1.748
  1.749   1.750   1.752   1.752   1.754   1.756   1.757   1.758
  1.760   1.762   1.763   1.766   1.767   1.768   1.771   1.771
  1.772   1.772   1.775   1.776   1.776   1.778   1.780   1.781
  1.782   1.783   1.784   1.786   1.788   1.789   1.789   1.790
  1.792   1.793   1.794   1.795   1.797   1.798   1.799   1.801
  1.802   1.803   1.803   1.805   1.807   1.808   1.809   1.811
  1.814   1.815   1.816   1.819   1.821   1.822   1.823   1.827
  1.828   1.830   1.831   1.833   1.837   1.837   1.838   1.839
  1.844   1.847   1.851   1.852   1.853   1.855   1.856   1.856
  1.860   1.861   1.862   1.864   1.864   1.867   1.868   1.871
  1.873   1.875   1.879   1.880   1.883   1.883   1.887   1.888
  1.889   1.889   1.893   1.896   1.900   1.901   1.903   1.907
  1.910   1.912   1.915   1.916   1.919   1.922   1.923   1.924
  1.928   1.930   1.931   1.933   1.937   1.938   1.939   1.941
  1.942   1.943   1.946   1.947   1.949   1.949   1.950   1.954
  1.955   1.958   1.959   1.963   1.965   1.967   1.968   1.973
  1.976   1.979   1.980   1.982   1.983   1.985   1.986   1.987
  1.988   1.989   1.990   1.991   1.993   1.993   1.994   1.995
  1.996   1.998   1.999   1.999   2.001   2.002   2.004   2.005
  2.008   2.008   2.011   2.012   2.013   2.014   2.015   2.016
  2.018   2.019   2.020   2.023   2.023   2.025   2.026   2.028
  2.028   2.030   2.030   2.032   2.034   2.034   2.036   2.036
  2.037   2.038   2.039   2.041   2.042   2.043   2.045   2.046
  2.047   2.048   2.050   2.052   2.053   2.053   2.054   2.057
  2.058   2.058   2.060   2.060   2.063   2.066   2.068   2.068
  2.070   2.070   2.070   2.072   2.073   2.075   2.077   2.077
  2.081   2.082   2.085   2.086   2.088   2.089   2.091   2.092
  2.093   2.095   2.097   2.099   2.101   2.102   2.105   2.106
  2.106   2.108   2.109   2.112   2.112   2.114   2.117   2.118
  2.119   2.121   2.123   2.124   2.127   2.133   2.138   2.140
  2.141   2.143   2.147   2.152   2.152   2.155   2.162   2.168
  2.173   2.183   2.189   2.193   2.194   2.196   2.198   2.203
  2.204   2.206   2.210   2.212   2.213   2.218   2.220   2.221
  2.228   2.231   2.233   2.235   2.237   2.243   2.244   2.246
  2.248   2.251   2.253   2.255   2.257   2.261   2.263   2.264
  2.265   2.268   2.271   2.272   2.276   2.277   2.278   2.282
  2.282   2.285   2.289   2.292   2.294   2.295   2.296   2.297
  2.298   2.302   2.306   2.308   2.310   2.314   2.318   2.322
  2.322   2.323   2.324   2.326   2.328   2.335   2.338   2.340
  2.342   2.344   2.346   2.348   2.353   2.355   2.356   2.357
  2.358   2.360   2.360   2.363   2.365   2.366   2.368   2.368
  2.370   2.373   2.374   2.375   2.377   2.378   2.378   2.380
  2.382   2.386   2.388   2.390   2.393   2.394   2.395   2.397
  2.397   2.398   2.401   2.402   2.403   2.405   2.407   2.408
  2.409   2.411   2.412   2.414   2.418   2.420   2.421   2.422
  2.424   2.429   2.430   2.433   2.434   2.438   2.439   2.443
  2.446   2.447   2.454   2.455   2.457   2.458   2.460   2.464
  2.465   2.466   2.468   2.471   2.473   2.474   2.477   2.478
  2.481   2.481   2.483   2.484   2.486   2.489   2.491   2.494
  2.496   2.498   2.500   2.500   2.502   2.504   2.506   2.507
  2.510   2.511   2.513   2.514   2.518   2.521   2.522   2.523
  2.527   2.528   2.529   2.532   2.533   2.535   2.536   2.539
  2.542   2.545   2.547   2.549   2.551   2.552   2.552   2.556
  2.562   2.566   2.572   2.577   2.580   2.581   2.583   2.587
  2.589   2.590   2.594   2.594   2.595   2.601   2.605   2.606
  2.607   2.609   2.611   2.614   2.615   2.616   2.619   2.621
  2.623   2.623   2.624   2.627   2.627   2.630   2.632   2.634
  2.636   2.638   2.639   2.641   2.645   2.646   2.648   2.649
  2.651   2.652   2.654   2.656   2.657   2.658   2.659   2.662
  2.663   2.663   2.666   2.667   2.669   2.671   2.672   2.675
  2.677   2.678   2.680   2.681   2.684   2.685   2.689   2.690
  2.691   2.693   2.694   2.698   2.700   2.702   2.704   2.708
  2.710   2.711   2.712   2.716   2.719   2.720   2.725   2.729
  2.730   2.731   2.733   2.734   2.738   2.738   2.741   2.742
  2.744   2.748   2.751   2.752   2.755   2.757   2.758   2.760
  2.764   2.766   2.767   2.768   2.771   2.771   2.774   2.775
  2.778   2.780   2.781   2.783   2.785   2.788   2.790   2.792
  2.796   2.798   2.802   2.803   2.807   2.808   2.817   2.820
  2.824   2.827   2.832   2.834   2.837   2.840   2.841   2.842
  2.845   2.848   2.849   2.850   2.853   2.857   2.860   2.862
  2.864   2.864   2.868   2.869   2.870   2.872   2.874   2.876
  2.877   2.879   2.881   2.884   2.887   2.888   2.889   2.891
  2.893   2.894   2.898   2.898   2.902   2.904   2.906   2.907
  2.909   2.911   2.913   2.916   2.916   2.918   2.919   2.924
  2.925   2.926   2.929   2.930   2.931   2.934   2.935   2.937
  2.938   2.940   2.942   2.946   2.949   2.951   2.952   2.954
  2.958   2.961   2.962   2.966   2.976   2.979   2.981   2.983
  2.987   2.990   2.992   2.994   3.002   3.004   3.006   3.008
  3.010   3.014   3.016   3.018   3.021   3.023   3.027   3.030
  3.032   3.036   3.037   3.038   3.043   3.045   3.046   3.050
  3.059   3.060   3.062   3.064   3.065   3.069   3.072   3.073
  3.074   3.080   3.085   3.087   3.093   3.096   3.103   3.103
  3.110   3.117   3.122   3.135   3.139   3.145   3.154   3.155
  3.165   3.174   3.178   3.181   3.183   3.188   3.189   3.199
  3.201   3.207   3.208   3.213   3.223   3.235   3.243   3.243
  3.245   3.250   3.255   3.259   3.264   3.269   3.274   3.282
  3.287   3.296   3.304   3.315   3.318   3.325   3.331   3.335
  3.339   3.342   3.350   3.355   3.369   3.373   3.376   3.387
  3.392   3.395   3.408   3.417   3.419   3.427   3.432   3.440
  3.445   3.459   3.462   3.470   3.475   3.480   3.483   3.485
  3.501   3.504   3.506   3.511   3.536   3.539   3.541   3.553
  3.555   3.560   3.563   3.567   3.577   3.582   3.596   3.609
  3.625   3.627   3.688   3.693   3.885   3.907   3.976   3.994
  4.053   4.065   4.080   4.083   4.086   4.089   4.090   4.094
  4.096   4.098   4.102   4.107   4.111   4.117   4.119   4.123
  4.126   4.128   4.132   4.135   4.137   4.139   4.145   4.150
  4.154   4.157   4.159   4.165   4.167   4.168   4.173   4.174
  4.177   4.180   4.187   4.190   4.200   4.212   4.224   4.227
  4.233   4.239   4.241   4.247   4.249   4.251   4.252   4.258
  4.262   4.264   4.267   4.271   4.278   4.282   4.289   4.293
  4.300   4.304   4.313   4.329   4.367   4.378   4.385   4.388
  4.389   4.395   4.401   4.403   4.408   4.412   4.415   4.417
  4.418   4.422   4.425   4.428   4.440   4.446   4.454   4.468
  4.475   4.485   4.504   4.520   4.525   4.528   4.544   4.552
  4.557   4.571   4.611   4.615   4.622   4.622   4.631   4.635
  4.643   4.646   4.677   4.678   4.689   4.695   4.696   4.703
  4.704   4.706   4.709   4.712   4.758   4.769   4.800   4.835
  4.849   4.852   4.857   4.869   4.873   4.882   4.890   4.894
  4.901   4.904   4.948   4.959   4.970   4.975   4.982   4.987
  4.991   4.995   5.000   5.008   5.167   5.176   5.178   5.189
  5.199   5.202   5.212   5.222   5.323   5.333   5.349   5.354
  5.358   5.366
 --------------------------------------------------------------
 
          Ground-State Mulliken Net Atomic Charges

     Atom                 Charge (a.u.)
  ----------------------------------------
      1 O                    -0.476433
      2 C                    -0.081059
      3 H                     0.121166
      4 H                     0.119013
      5 H                     0.134206
      6 O                    -0.462715
      7 C                     0.578190
      8 C                    -0.250352
      9 H                     0.133962
     10 H                     0.144777
     11 C                    -0.175919
     12 H                     0.114029
     13 H                     0.126525
     14 C                    -0.203465
     15 H                     0.101494
     16 H                     0.109182
     17 C                     0.025831
     18 C                     0.111406
     19 C                    -0.113456
     20 H                     0.080992
     21 C                    -0.073568
     22 H                     0.092538
     23 C                    -0.090161
     24 H                     0.083320
     25 C                    -0.068158
     26 H                     0.099756
     27 C                    -0.139606
     28 H                     0.079811
     29 C                    -0.003397
     30 C                     0.020403
     31 C                    -0.001796
     32 C                    -0.005010
     33 C                    -0.003128
     34 C                    -0.008669
     35 C                    -0.040290
     36 C                     0.014202
     37 C                     0.017487
     38 C                     0.002407
     39 C                    -0.062932
     40 C                     0.032124
     41 C                     0.002246
     42 C                     0.050715
     43 C                     0.006730
     44 C                    -0.023527
     45 C                    -0.093358
     46 C                    -0.002254
     47 C                    -0.023800
     48 C                     0.001620
     49 C                     0.018358
     50 C                    -0.006152
     51 C                    -0.040837
     52 C                    -0.005707
     53 C                    -0.001753
     54 C                     0.041535
     55 C                    -0.021422
     56 C                     0.010854
     57 C                     0.002223
     58 C                    -0.013475
     59 C                    -0.029726
     60 C                     0.000788
     61 C                     0.029367
     62 C                    -0.014331
     63 C                    -0.039879
     64 C                    -0.004916
     65 C                    -0.008021
     66 C                    -0.003323
     67 C                    -0.004009
     68 C                     0.034688
     69 C                    -0.012824
     70 C                     0.039533
     71 C                     0.004271
     72 C                    -0.009728
     73 C                    -0.012481
     74 C                     0.002629
     75 C                     0.001567
     76 C                    -0.010452
     77 C                     0.009457
     78 C                    -0.018922
     79 C                     0.009126
     80 C                    -0.001763
     81 C                     0.024482
     82 C                    -0.001771
     83 C                     0.005951
     84 C                     0.010699
     85 C                     0.026226
     86 C                     0.018495
     87 C                    -0.011209
     88 C                    -0.023139
     89 O                    -0.497043
     90 C                    -0.083893
     91 H                     0.137900
     92 H                     0.127487
     93 H                     0.129269
     94 O                    -0.466011
     95 C                     0.581067
     96 C                    -0.240644
     97 H                     0.140241
     98 H                     0.129993
     99 C                    -0.184543
    100 H                     0.119285
    101 H                     0.119048
    102 C                    -0.183296
    103 H                     0.116066
    104 H                     0.112347
    105 C                    -0.017211
    106 C                     0.112025
    107 C                    -0.127828
    108 H                     0.085913
    109 C                    -0.080076
    110 H                     0.097613
    111 C                    -0.098631
    112 H                     0.084379
    113 C                    -0.076269
    114 H                     0.096469
    115 C                    -0.104895
    116 H                     0.082405
    117 C                    -0.026782
    118 C                    -0.006691
    119 C                     0.013101
    120 C                     0.000210
    121 C                     0.006330
    122 C                    -0.011840
    123 C                     0.032509
    124 C                    -0.019009
    125 C                     0.001069
    126 C                    -0.004983
    127 C                    -0.091024
    128 C                    -0.001489
    129 C                     0.000168
    130 C                    -0.002309
    131 C                     0.003681
    132 C                     0.022763
    133 C                    -0.069280
    134 C                     0.034704
    135 C                     0.008225
    136 C                    -0.000737
    137 C                    -0.010962
    138 C                     0.004892
    139 C                     0.022259
    140 C                    -0.010269
    141 C                     0.052614
    142 C                     0.000002
    143 C                    -0.011100
    144 C                     0.003114
    145 C                     0.010923
    146 C                     0.004790
    147 C                     0.017555
    148 C                     0.012767
    149 C                    -0.005873
    150 C                     0.028365
    151 C                    -0.004341
    152 C                    -0.001813
    153 C                    -0.016628
    154 C                    -0.004231
    155 C                    -0.011874
    156 C                    -0.025466
    157 C                     0.025805
    158 C                     0.014032
    159 C                    -0.017623
    160 C                     0.004351
    161 C                    -0.039558
    162 C                     0.010230
    163 C                    -0.014846
    164 C                    -0.020578
    165 C                     0.011374
    166 C                    -0.001888
    167 C                    -0.000518
    168 C                    -0.018645
    169 C                     0.026410
    170 C                    -0.008740
    171 C                    -0.002941
    172 C                    -0.012404
    173 C                    -0.021087
    174 C                    -0.014453
    175 C                     0.026001
    176 C                     0.005083
  ----------------------------------------
  Sum of atomic charges =     0.000000

 -----------------------------------------------------------------
                    Cartesian Multipole Moments
 -----------------------------------------------------------------
    Charge (ESU x 10^10)
                 0.0000
    Dipole Moment (Debye)
         X      -0.6540      Y       2.9941      Z      -0.9583
       Tot       3.2111
    Quadrupole Moments (Debye-Ang)
        XX    -751.4483     XY     -39.5305     YY    -804.3686
        XZ       9.8589     YZ       6.1183     ZZ    -796.9391
    Octopole Moments (Debye-Ang^2)
       XXX    -522.7207    XXY     317.6108    XYY      47.4257
       YYY     273.1337    XXZ    -162.6336    XYZ      85.5916
       YYZ      32.5286    XZZ     -77.8846    YZZ      50.4626
       ZZZ     -97.5147
    Hexadecapole Moments (Debye-Ang^3)
      XXXX -230155.9215   XXXY   -7748.2848   XXYY  -44610.5340
      XYYY     923.1535   YYYY  -26652.7181   XXXZ    4652.9919
      XXYZ    1357.7216   XYYZ     451.4520   YYYZ     332.8624
      XXZZ  -40581.5093   XYZZ     299.0787   YYZZ   -7581.0844
      XZZZ     682.5895   YZZZ      67.3206   ZZZZ  -18281.7825
 -----------------------------------------------------------------
Archival summary:
1\1\mn366\SP\ProcedureUnspecified\6-31G**\428\afmv_a\TueOct917:13:062018TueOct917:13:062018\0\\#,ProcedureUnspecified,6-31G**,\\0,1\C\C,1,1.37707\C,2,1.37127,1,122.087\C,3,1.38347,2,121.536,1,142.047,0\C,4,1.40448,3,106.257,2,-147.196,0\C,5,1.40222,4,109.791,3,-1.99891,0\C,6,1.39628,5,107.024,4,-0.18495,0\C,7,1.39742,6,121.737,5,141.307,0\C,8,1.40916,7,120.768,6,-140.013,0\C,9,1.40284,8,105.064,7,139.383,0\C,10,1.38782,9,111.856,8,3.62819,0\C,6,1.4148,5,120.743,4,136.416,0\C,12,1.37472,6,123.714,5,-132.64,0\C,13,1.38356,12,118.077,6,-4.86371,0\C,12,1.39882,6,117.942,5,6.81295,0\C,15,1.38652,12,109.173,6,-147.137,0\C,16,1.37758,15,122.063,12,141.308,0\C,17,1.37931,16,119.823,15,-135.336,0\C,18,1.3732,17,105.892,16,143.764,0\C,19,1.36606,18,116.838,17,-146.17,0\C,17,1.38661,16,119.27,15,5.03902,0\C,15,1.3888,12,121.491,6,-4.57644,0\C,22,1.36916,15,120.374,12,2.02163,0\C,18,1.39117,17,121.002,16,-2.71853,0\C,24,1.32322,18,119.542,17,138.497,0\C,24,1.38586,18,123.027,17,-0.127095,0\C,16,1.39459,15,107.409,12,-0.0167834,0\C,21,1.39855,17,107.873,16,-145.242,0\C,25,1.40204,24,121.441,18,0.45356,0\C,26,1.40469,24,110.13,18,138.35,0\C,21,1.40506,17,121.751,16,1.38598,0\C,29,1.40864,25,125.963,24,-142.745,0\C,32,1.40484,29,106.46,25,144.949,0\C,25,1.41009,24,113.205,18,-141.685,0\C,32,1.41625,29,117.06,25,5.68792,0\C,35,1.41117,32,120.285,29,-6.3213,0\C,36,1.41273,35,107.385,32,140.062,0\C,37,1.39213,36,110.221,35,5.77126,0\C,38,1.3709,37,120.257,36,-140.15,0\C,39,1.38541,38,122.035,37,132.709,0\C,40,1.37838,39,107.56,38,-149.828,0\C,40,1.38888,39,121.528,38,0.257979,0\C,42,1.36121,40,120.58,39,-2.06331,0\C,35,1.4166,32,120.155,29,133.389,0\C,28,1.41864,21,122.931,17,144.9,0\C,42,1.42282,40,119.49,39,-138.702,0\C,46,1.37137,42,109.138,40,140.444,0\C,46,1.38425,42,119.113,40,-2.52523,0\C,47,1.38799,46,118.492,42,-139.732,0\C,49,1.40203,47,124.006,46,-11.6179,0\C,49,1.40305,47,121.661,46,140.514,0\C,50,1.40308,49,114.345,47,16.2529,0\C,52,1.4137,50,123.298,49,129.998,0\C,53,1.39083,52,122.09,50,3.37018,0\C,53,1.39233,52,107.008,50,-148.771,0\C,55,1.37711,53,111.319,52,-1.03568,0\C,51,1.41634,49,119.91,47,-3.623,0\C,47,1.41706,46,108.23,42,0.170769,0\C,45,1.4906,28,118.773,21,6.325,0\C,31,1.49551,21,121.362,17,-146.63,0\C,60,1.48159,31,125.938,21,-67.3704,0\C,61,1.50055,60,119.106,31,-10.1705,0\C,62,1.35976,61,117.65,60,117.478,0\H,63,1.08609,62,118.282,61,-0.39031,0\C,63,1.38441,62,122.922,61,178.184,0\H,65,1.08559,63,117.995,62,179.466,0\C,65,1.37909,63,118.165,62,2.32262,0\H,67,1.08571,65,119.138,63,-170.831,0\C,67,1.33696,65,122.541,63,-2.55245,0\H,69,1.0854,67,119.248,65,-159.168,0\C,69,1.3793,67,117.091,65,4.25479,0\H,71,1.08671,69,117.114,67,-170.857,0\C,61,1.54182,60,121.212,31,-151.183,0\H,73,1.09615,61,107.915,60,88.7624,0\H,73,1.09665,61,114.092,60,-30.2089,0\C,73,1.53094,61,118.928,60,-158.087,0\H,76,1.09617,73,102.991,61,-66.7729,0\H,76,1.09757,73,101.251,61,-176.336,0\C,76,1.60304,73,113.67,61,62.439,0\H,79,1.09676,76,112.18,73,-75.2266,0\H,79,1.09726,76,103.324,73,52.2313,0\C,79,1.51,76,115.368,73,171.636,0\O,82,1.20921,79,124.197,76,20.1445,0\O,82,1.37293,79,116.174,76,-168.031,0\C,84,1.42793,82,120.981,79,-178.562,0\H,85,1.09667,84,107.167,82,160.441,0\H,85,1.09691,84,111.686,82,38.2028,0\H,85,1.09769,84,111.928,82,-81.8485,0\C,1,3.25186,2,118.168,3,131.285,0\C,89,1.42649,1,139.03,2,25.423,0\C,90,1.38476,89,108.827,1,110.92,0\C,90,1.38672,89,120.518,1,-98.6815,0\C,91,1.41047,90,118.38,89,147.244,0\C,93,1.39504,91,117.663,90,-136.95,0\C,94,1.4108,93,109.719,91,143.524,0\C,95,1.39335,94,107.194,93,-1.52015,0\C,96,1.42347,95,109.079,94,0.929021,0\C,92,1.43238,90,118.84,89,-8.86272,0\C,98,1.36619,92,106.613,90,-134.585,0\C,98,1.37987,92,121.517,90,4.94512,0\C,99,1.4011,98,112.298,92,-1.82267,0\C,101,1.36325,99,105.689,98,0.444878,0\C,101,1.40063,99,122.151,98,144.599,0\C,100,1.40144,98,120.116,92,2.2834,0\C,103,1.40317,101,122.549,99,3.71322,0\C,105,1.39674,103,112.054,101,-147.773,0\C,99,1.40869,98,122.355,92,142.977,0\C,107,1.34237,99,121.1,98,1.11878,0\C,108,1.35709,107,107.623,99,-147.455,0\C,108,1.40253,107,117.525,99,-1.61029,0\C,110,1.39291,108,118.258,107,-137.221,0\C,111,1.39029,110,119.405,108,-1.48555,0\C,109,1.40833,108,117.887,107,140.224,0\C,113,1.40581,109,118.247,108,-134.74,0\C,114,1.38997,113,123.149,109,-7.90637,0\C,114,1.39896,113,107.254,109,142.393,0\C,116,1.39367,114,109.307,113,-0.449682,0\C,117,1.38497,116,117.112,114,-140.721,0\C,118,1.36926,117,121.354,116,-5.38692,0\C,118,1.38262,117,119.513,116,137.251,0\C,119,1.39209,118,121.153,117,2.74996,0\C,121,1.38338,119,119.469,118,-0.727213,0\C,122,1.39136,121,108.475,119,138.512,0\C,123,1.35067,122,109.63,121,4.17677,0\C,123,1.38681,122,123.169,121,-147.314,0\C,125,1.39393,123,119.676,122,142.174,0\C,124,1.40128,123,119.409,122,-143.15,0\C,127,1.37704,124,124.862,123,132.774,0\C,115,1.40572,114,118.657,113,5.68377,0\C,120,1.40613,118,109.508,117,-144.14,0\C,130,1.39841,120,125.28,118,142.323,0\C,131,1.36565,130,121.18,120,-135.937,0\C,126,1.4079,125,122.23,123,6.02283,0\C,121,1.40914,119,122.637,118,137.67,0\C,128,1.40942,127,114.244,124,2.62669,0\C,134,1.41089,121,117.898,119,-3.15632,0\C,107,1.41274,99,123.242,98,-145.209,0\C,137,1.37453,107,109.553,99,147.763,0\C,130,1.41448,120,105.387,118,-0.112484,0\C,139,1.39053,130,122.378,120,146.075,0\C,140,1.40988,139,118.659,130,-2.50713,0\C,141,1.37826,140,108.669,139,-136.767,0\C,128,1.41556,127,113.942,124,-148.801,0\C,103,1.41726,101,123.768,99,-141.407,0\C,120,1.41974,118,122.26,117,-0.728467,0\C,126,1.42583,125,108.53,123,-143.032,0\C,143,1.43611,128,106.183,127,-4.97164,0\C,147,1.43986,143,114.851,128,135.535,0\C,147,1.47832,143,125.375,128,-152.713,0\C,149,1.49332,147,125.684,143,2.4268,0\C,150,1.39545,149,123.332,147,-126.56,0\H,151,1.08653,150,114.447,149,-0.315985,0\C,151,1.32773,150,124.498,149,-176.3,0\H,153,1.08601,151,122.841,150,178.711,0\C,150,1.41582,149,119.024,147,61.1803,0\H,155,1.08642,150,113.334,149,-10.4222,0\C,153,1.41858,151,117.41,150,0.272627,0\H,157,1.08617,153,123.031,151,175.524,0\C,157,1.37339,153,123.619,151,0.773728,0\H,159,1.08618,157,123.777,153,179.514,0\C,149,1.58643,147,119.269,143,147.378,0\H,161,1.09647,149,108.122,147,-111.283,0\H,161,1.09733,149,103.094,147,4.61284,0\C,161,1.52119,149,116.651,147,131.777,0\H,164,1.09693,161,113.023,149,44.6715,0\H,164,1.09711,161,102.801,149,-70.4566,0\C,164,1.54387,161,108.64,149,172.63,0\H,167,1.09706,164,102.537,161,43.565,0\H,167,1.09729,164,115.196,161,-76.0579,0\C,167,1.46958,164,114.591,161,154.484,0\O,170,1.22954,167,123.951,164,-100.064,0\O,170,1.40812,167,112.293,164,76.5506,0\C,172,1.45976,170,124.023,167,177.751,0\H,173,1.09636,172,112.976,170,-100.869,0\H,173,1.09708,172,108.449,170,26.1141,0\H,173,1.09754,172,100.316,170,134.278,0\\\@

 Total job time:  846.04s(wall), 7170.64s(cpu) 
 Tue Oct  9 17:13:06 2018

        *************************************************************
        *                                                           *
        *  Thank you very much for using Q-Chem.  Have a nice day.  *
        *                                                           *
        *************************************************************


