
Running Job 1 of 1 ./6/7.qcin
qchem ./6/7.qcin_48037.0 /tmpu/cab_g/afmv_a/scratch_qchem/qchem48037/ 1
/tmpu/appuserlic/qchem4.4/serial-multicore/exe/qcprog.exe_s ./6/7.qcin_48037.0 /tmpu/cab_g/afmv_a/scratch_qchem/qchem48037/
Check license passed

                  Welcome to Q-Chem
     A Quantum Leap Into The Future Of Chemistry


 Q-Chem 4.4, Q-Chem, Inc., Pleasanton, CA (2016)

 Y. Shao,  Z. Gan,  E. Epifanovsky,  A. T. B. Gilbert,  M. Wormit,  
 J. Kussmann,  A. W. Lange,  A. Behn,  J. Deng,  X. Feng,  D. Ghosh,  
 M. Goldey,  P. R. Horn,  L. D. Jacobson,  I. Kaliman,  F. Rob,  
 R. Z. Khaliullin,  T. Kus,  A. Landau,  J. Liu,  E. I. Proynov,  Y. M. Rhee,  
 R. M. Richard,  M. A. Rohrdanz,  R. P. Steele,  E. J. Sundstrom,  
 H. L. Woodcock III,  P. M. Zimmerman,  D. Zuev,  B. Albrecht,  E. Alguire,  
 B. Austin,  S. A. Baeppler,  G. J. O. Beran,  Y. A. Bernard,  E. Berquist,  
 K. Brandhorst,  K. B. Bravaya,  S. T. Brown,  D. Casanova,  C.-M. Chang,  
 Y. Chen,  S. H. Chien,  K. D. Closser,  M. P. Coons,  D. L. Crittenden,  
 S. Dasgupta,  M. Diedenhofen,  R. A. DiStasio Jr.,  H. Do,  A. D. Dutoi,  
 R. G. Edgar,  P.-T. Fang,  S. Fatehi,  Q. Feng,  L. Fusti-Molnar,  
 A. Ghysels,  A. Golubeva-Zadorozhnaya,  J. Gomes,  A. Gunina,  
 M. W. D. Hanson-Heine,  P. H. P. Harbach,  A. W. Hauser,  J. E. Herr,  
 E. G. Hohenstein,  Z. C. Holden,  K. Hui,  T.-C. Jagau,  H. Ji,  B. Kaduk,  
 K. Khistyaev,  Jaehoon Kim,  Jihan Kim,  R. A. King,  P. Klunzinger,  
 K. Koh,  D. Kosenkov,  T. Kowalczyk,  C. M. Krauter,  A. Kunitsa,  
 K. U. Lao,  A. Laurent,  K. V. Lawler,  J. Lee,  D. Lefrancois,  S. Lehtola,  
 S. V. Levchenko,  C. Y. Lin,  Y.-S. Lin,  F. Liu,  E. Livshits,  
 R. C. Lochan,  A. Luenser,  P. Manohar,  S. F. Manzer,  S.-P. Mao,  Y. Mao,  
 N. Mardirossian,  A. V. Marenich,  L. A. Martinez-Martinez,  S. A. Maurer,  
 N. J. Mayhall,  J.-M. Mewes,  A. F. Morrison,  K. Nanda,  T. S. Nguyen-Beck,  
 C. M. Oana,  R. Olivares-Amaya,  D. P. O'Neill,  J. A. Parkhill,  
 T. M. Perrine,  R. Peverati,  P. A. Pieniazek,  F. Plasser,  A. Prociuk,  
 D. R. Rehn,  E. Rosta,  N. J. Russ,  N. Sergueev,  S. M. Sharada,  
 S. Sharma,  D. W. Small,  A. Sodt,  T. Stauch,  T. Stein,  D. Stuck,  
 Y.-C. Su,  A. J. W. Thom,  T. Tsuchimochi,  L. Vogt,  O. Vydrov,  T. Wang,  
 M. A. Watson,  J. Wenzel,  A. White,  C. F. Williams,  V. Vanovschi,  
 K. Yao,  S. Yeganeh,  S. R. Yost,  Z.-Q. You,  I. Y. Zhang,  X. Zhang,  
 Y. Zhao,  B. R. Brooks,  G. K. L. Chan,  D. M. Chipman,  C. J. Cramer,  
 W. A. Goddard III,  M. S. Gordon,  W. J. Hehre,  A. Klamt,  
 H. F. Schaefer III,  M. W. Schmidt,  C. D. Sherrill,  D. G. Truhlar,  
 A. Warshel,  X. Xu,  A. Aspuru-Guzik,  R. Baer,  A. T. Bell,  N. A. Besley,  
 J.-D. Chai,  A. Dreuw,  B. D. Dunietz,  T. R. Furlani,  S. R. Gwaltney,  
 C.-P. Hsu,  Y. Jung,  J. Kong,  D. S. Lambrecht,  W. Liang,  C. Ochsenfeld,  
 V. A. Rassolov,  L. V. Slipchenko,  J. E. Subotnik,  T. Van Voorhis,  
 J. M. Herbert,  A. I. Krylov,  P. M. W. Gill,  M. Head-Gordon

 Contributors to earlier versions of Q-Chem not listed above: 
 R. D. Adamson,  J. Baker,  E. F. C. Byrd,  A. K. Chakraborty,  C.-L. Cheng,  
 H. Dachsel,  R. J. Doerksen,  G. Hawkins,  A. Heyden,  S. Hirata,  
 G. Kedziora,  F. J. Keil,  C. Kelley,  P. P. Korambath,  W. Kurlancheek,  
 A. M. Lee,  M. S. Lee,  D. Liotard,  I. Lotan,  P. E. Maslen,  N. Nair,  
 D. Neuhauser,  R. Olson,  B. Peters,  J. Ritchie,  N. E. Schultz,  
 N. Shenvi,  A. C. Simmonett,  K. S. Thanthiriwatte,  Q. Wu,  W. Zhang

 Please cite Q-Chem as follows:
 Y. Shao et al., Mol. Phys. 113, 184-215 (2015)
 DOI: 10.1080/00268976.2014.952696

 Q-Chem 4.4.2 for Intel X86 Linux

 Parts of Q-Chem use Armadillo 5.200.1 (Boston Tea Smuggler).
 http://arma.sourceforge.net/

 Q-Chem begins on Tue Oct  9 17:13:07 2018  

Host: 
0

     Scratch files written to /tmpu/cab_g/afmv_a/scratch_qchem/qchem48037//
 Dec716 11556_ 22328  22283 4050   
Processing $rem in /tmpu/appuserlic/qchem4.4/serial-multicore/config/preferences.
 MEM_TOTAL  2000 
FILE_GEOM_ORG=        593

Checking the input file for inconsistencies... 	...done.

--------------------------------------------------------------
User input:
--------------------------------------------------------------
$comment
SP
$end

$rem
MEM_STATIC 5000
MEM_TOTAL 20000
JOBTYPE SP
EXCHANGE B3LYP
BASIS 6-31g(d,p)
$end

$molecule
0 1
O          18.366000    -12.780000     -9.016000
C          19.522000    -12.842000     -9.882000
H          20.341000    -13.431000     -9.452000
H          19.926000    -11.825000     -9.971000
H          19.321000    -13.358000    -10.829000
O          17.905000    -10.544000     -9.330000
C          17.604000    -11.654000     -8.851000
C          16.340000    -11.895000     -7.948000
H          15.518000    -11.245000     -8.272000
H          16.768000    -11.570000     -6.992000
C          15.774000    -13.296000     -7.719000
H          16.567000    -13.967000     -7.367000
H          14.926000    -13.312000     -7.024000
C          15.271000    -13.984000     -8.972000
H          14.342000    -13.468000     -9.244000
H          15.926000    -13.771000     -9.825000
C          15.022000    -15.521000     -8.674000
C          13.722000    -15.807000     -7.949000
C          12.522000    -15.993000     -8.694000
H          12.587000    -15.954000     -9.777000
C          11.329000    -15.974000     -7.960000
H          10.350000    -15.972000     -8.430000
C          11.317000    -16.027000     -6.531000
H          10.349000    -15.951000     -6.046000
C          12.501000    -15.918000     -5.809000
H          12.545000    -15.901000     -4.724000
C          13.692000    -15.859000     -6.563000
H          14.569000    -15.699000     -5.944000
C          17.509000    -20.201000     -7.464000
C          15.657000    -20.955000     -8.771000
C          18.108000    -22.158000    -12.528000
C          20.287000    -16.630000     -9.885000
C          17.403000    -19.162000    -14.242000
C          16.133000    -20.049000     -7.782000
C          20.061000    -17.185000    -12.755000
C          18.514000    -22.402000    -10.124000
C          14.597000    -18.076000    -11.410000
C          19.373000    -15.954000    -10.736000
C          15.332000    -16.500000     -9.853000
C          15.347000    -17.064000    -12.063000
C          17.938000    -16.070000    -12.534000
C          19.495000    -18.106000    -13.656000
C          14.725000    -18.873000     -9.097000
C          19.290000    -20.561000    -13.633000
C          16.269000    -16.402000     -8.684000
C          17.699000    -15.951000     -8.914000
C          17.984000    -20.433000    -14.016000
C          21.070000    -20.008000    -10.047000
C          20.246000    -21.456000    -11.586000
C          19.777000    -21.837000    -10.315000
C          17.788000    -22.038000     -9.004000
C          18.570000    -16.827000     -8.197000
C          14.590000    -17.824000    -10.047000
C          16.460000    -21.926000     -9.400000
C          19.289000    -16.128000    -12.140000
C          14.765000    -20.202000     -9.595000
C          16.064000    -17.512000    -13.204000
C          20.422000    -18.391000     -8.483000
C          17.631000    -22.507000    -11.186000
C          15.869000    -16.169000    -11.129000
C          19.593000    -20.667000     -8.222000
C          17.348000    -17.000000    -13.448000
C          14.636000    -19.392000    -11.932000
C          20.953000    -19.230000    -12.340000
C          20.901000    -17.906000    -11.899000
C          15.397000    -19.776000    -13.053000
C          19.892000    -17.101000     -8.633000
C          18.075000    -15.681000    -10.221000
C          21.178000    -18.714000     -9.608000
C          16.437000    -17.602000     -7.841000
C          15.484000    -21.445000    -11.595000
C          17.185000    -15.723000    -11.360000
C          16.128000    -18.808000    -13.720000
C          19.583000    -19.344000     -7.773000
C          17.212000    -21.454000    -13.358000
C          18.345000    -21.186000     -8.012000
C          19.350000    -21.502000    -12.669000
C          14.691000    -20.473000    -11.002000
C          15.892000    -21.077000    -12.891000
C          15.612000    -18.764000     -8.040000
C          17.792000    -17.734000     -7.495000
C          20.972000    -20.282000    -11.399000
C          16.326000    -22.213000    -10.789000
C          18.150000    -18.005000    -14.041000
C          21.073000    -17.643000    -10.533000
C          20.105000    -19.376000    -13.449000
C          18.339000    -19.007000     -7.328000
C          20.291000    -20.989000     -9.390000
O          27.846000    -30.758000     -7.232000
C          29.043000    -31.030000     -8.022000
H          29.848000    -30.373000     -7.670000
H          28.750000    -30.586000     -8.982000
H          29.315000    -32.092000     -8.035000
O          28.892000    -29.876000     -5.350000
C          27.867000    -30.242000     -5.922000
C          26.519000    -30.118000     -5.350000
H          26.716000    -29.837000     -4.308000
H          26.000000    -31.084000     -5.389000
C          25.707000    -28.914000     -5.874000
H          26.343000    -28.022000     -5.933000
H          25.268000    -29.064000     -6.868000
C          24.679000    -28.526000     -4.822000
H          24.139000    -29.458000     -4.617000
H          25.096000    -28.131000     -3.887000
C          23.618000    -27.422000     -5.237000
C          22.600000    -28.092000     -6.100000
C          21.489000    -28.722000     -5.489000
H          21.396000    -28.498000     -4.430000
C          20.495000    -29.391000     -6.288000
H          19.620000    -29.823000     -5.811000
C          20.753000    -29.480000     -7.634000
H          20.031000    -30.091000     -8.168000
C          21.902000    -28.923000     -8.252000
H          22.062000    -29.063000     -9.317000
C          22.758000    -28.270000     -7.475000
H          23.692000    -27.884000     -7.874000
C          22.708000    -22.393000     -7.404000
C          20.847000    -22.653000     -5.808000
C          22.512000    -19.724000     -2.742000
C          27.218000    -23.297000     -5.171000
C          23.930000    -22.180000     -0.646000
C          21.710000    -23.235000     -6.793000
C          26.955000    -22.450000     -2.535000
C          22.367000    -19.531000     -5.136000
C          22.100000    -25.092000     -2.850000
C          27.070000    -24.252000     -4.123000
C          23.363000    -26.286000     -4.326000
C          23.288000    -25.267000     -2.176000
C          25.960000    -24.610000     -2.165000
C          26.115000    -21.869000     -1.579000
C          21.401000    -24.769000     -5.115000
C          24.520000    -20.123000     -1.744000
C          24.032000    -26.025000     -5.574000
C          25.428000    -25.486000     -5.557000
C          23.607000    -20.897000     -1.079000
C          25.881000    -20.007000     -5.518000
C          24.493000    -19.073000     -3.962000
C          23.756000    -19.134000     -5.185000
C          21.897000    -20.509000     -6.062000
C          25.545000    -24.455000     -6.492000
C          22.103000    -25.616000     -4.165000
C          20.945000    -21.296000     -5.436000
C          26.950000    -23.816000     -2.792000
C          20.691000    -23.594000     -4.790000
C          23.795000    -24.392000     -1.206000
C          26.045000    -22.046000     -6.669000
C          21.724000    -19.834000     -3.892000
C          24.133000    -25.965000     -3.084000
C          24.112000    -20.621000     -7.048000
C          25.088000    -24.007000     -1.271000
C          21.367000    -23.958000     -2.446000
C          26.468000    -20.306000     -3.207000
C          27.190000    -21.482000     -3.527000
C          21.815000    -23.049000     -1.426000
C          26.449000    -23.351000     -6.309000
C          26.184000    -25.357000     -4.317000
C          26.593000    -21.182000     -5.800000
C          23.383000    -25.082000     -6.576000
C          20.686000    -21.861000     -3.024000
C          25.471000    -25.527000     -3.094000
C          23.046000    -23.270000     -0.773000
C          24.817000    -21.764000     -7.299000
C          22.351000    -20.698000     -1.729000
C          22.726000    -20.982000     -7.068000
C          23.877000    -19.387000     -2.722000
C          20.654000    -23.188000     -3.395000
C          21.439000    -21.742000     -1.838000
C          22.035000    -24.543000     -6.335000
C          24.318000    -24.157000     -7.104000
C          25.811000    -19.580000     -4.194000
C          20.857000    -20.876000     -4.058000
C          25.200000    -22.677000     -0.878000
C          27.263000    -21.906000     -4.868000
C          25.815000    -20.563000     -1.962000
C          23.981000    -22.865000     -7.527000
C          24.614000    -19.738000     -6.114000
$end

--------------------------------------------------------------
 ----------------------------------------------------------------
             Standard Nuclear Orientation (Angstroms)
    I     Atom           X                Y                Z
 ----------------------------------------------------------------
    1      O      -7.4814723179     3.8142677481    -2.2742184094
    2      C      -7.0615461695     3.3806560825    -3.5879074720
    3      H      -5.9780701876     3.4652894358    -3.7345328180
    4      H      -7.4975777787     4.0714408573    -4.3214733046
    5      H      -7.2499699629     2.3150732405    -3.7681730566
    6      O      -9.3525689160     4.9764956567    -2.9517409619
    7      C      -8.6284776016     4.5262019378    -2.0434076888
    8      C      -8.9062272023     4.7640544752    -0.5145298880
    9      H      -9.9870234512     4.7957182530    -0.3300390389
   10      H      -8.4453347147     5.7552079444    -0.4254349082
   11      C      -8.2674062051     3.8873118027     0.5619588578
   12      H      -7.1799542105     3.8561097304     0.4224289683
   13      H      -8.5108814706     4.2077609592     1.5819672564
   14      C      -8.6649787901     2.4262793545     0.5012775192
   15      H      -9.7059937840     2.3851782449     0.8446133332
   16      H      -8.7380012788     2.0835563825    -0.5375736158
   17      C      -7.7067382491     1.5729287850     1.4322672459
   18      C      -8.0523783643     1.6452946624     2.9062811842
   19      C      -9.0094179531     0.7433262620     3.4541399527
   20      H      -9.4429884458     0.0007845027     2.7913553999
   21      C      -9.4800563758     1.0457669318     4.7384277384
   22      H     -10.3029964066     0.5112012163     5.2035666439
   23      C      -8.8597747387     2.0393432599     5.5588244539
   24      H      -9.3267572550     2.2451021560     6.5167470009
   25      C      -7.8727434225     2.8704843139     5.0392142834
   26      H      -7.4048087864     3.6734784945     5.6010750511
   27      C      -7.4621247598     2.6048889998     3.7158362410
   28      H      -6.7472836771     3.3337986284     3.3476202991
   29      C      -2.5869514279    -0.1548567080     2.0274220113
   30      C      -3.8273995358    -1.9697034388     2.9624561472
   31      C      -3.0422912660    -4.9850254754    -0.4815381938
   32      C      -4.1241998958     1.0225248529    -2.7245466132
   33      C      -6.1425253872    -4.3784811619    -2.0408615694
   34      C      -3.6977314106    -0.5601535501     2.8145092363
   35      C      -5.1023331362    -1.4614730855    -3.9365740906
   36      C      -1.6260015917    -3.3304686009     0.6410272197
   37      C      -7.4634227241    -2.1794636713     1.1983988866
   38      C      -5.4996170041     0.6726647993    -2.7735233535
   39      C      -7.3652495003     0.1358881187     0.9195474804
   40      C      -7.9091643444    -1.8294097895    -0.1023046491
   41      C      -7.0897514201    -0.9899539110    -2.6610219620
   42      C      -5.2433260521    -2.8355524667    -3.6674554330
   43      C      -5.9052666632    -1.0128276709     2.6859042252
   44      C      -3.7776518343    -4.4867030307    -2.5742583317
   45      C      -6.3434303079     1.2326344064     0.8348886445
   46      C      -5.8156421260     1.6528857258    -0.5237980241
   47      C      -4.8551323220    -4.9407334213    -1.8660202340
   48      C      -1.5064806930    -1.1750730508    -2.1176474218
   49      C      -1.7368777869    -3.4105184591    -1.8112130805
   50      C      -1.2625666349    -2.8401103088    -0.6152923167
   51      C      -1.8605378471    -2.4270720318     1.6622222960
   52      C      -4.3940987086     1.7649063913    -0.4415077869
   53      C      -7.0645602155    -1.0304292064     1.8631924619
   54      C      -2.9471504806    -2.9055049139     2.3856301768
   55      C      -6.0241676365    -0.4725642208    -3.4230194086
   56      C      -5.2273076302    -2.2446440421     2.8829955167
   57      C      -7.6348008709    -2.8054215396    -1.0966887540
   58      C      -2.3167745972     0.8945382200    -1.3822414274
   59      C      -2.5642906038    -4.3437933150     0.7475389736
   60      C      -7.7658028850    -0.4575883486    -0.3106755355
   61      C      -1.2671991736    -0.5916984372     0.2379530143
   62      C      -7.2456819680    -2.3841999366    -2.3778971058
   63      C      -6.8044797014    -3.4201852854     1.3780234095
   64      C      -3.0370051122    -2.3376554917    -3.5950502342
   65      C      -3.7430904136    -1.1526922713    -3.8129188036
   66      C      -6.5350343072    -4.3305199796     0.3378753797
   67      C      -3.5522465003     1.5344670319    -1.5600061378
   68      C      -6.2926457201     0.9642680318    -1.6286954143
   69      C      -2.0916296986     0.0207275828    -2.4439639642
   70      C      -5.1098479099     1.0796177081     1.6309623580
   71      C      -4.7945370949    -4.3667925100     1.7120106559
   72      C      -7.3081365387    -0.0642830550    -1.5834620304
   73      C      -6.9703006728    -4.0235384346    -0.9398489732
   74      C      -1.9424419349     0.6068158551    -0.0062614498
   75      C      -4.4155704207    -5.2975639866    -0.5428247523
   76      C      -1.6428844537    -1.0348554478     1.4762734229
   77      C      -2.7303555483    -4.4025184910    -1.7290007067
   78      C      -5.6839910896    -3.4542946891     2.2611020127
   79      C      -5.3098584226    -4.9761124173     0.5524084915
   80      C      -4.9690818846     0.0003433621     2.5721434311
   81      C      -4.0138022106     1.5141483996     0.8673971001
   82      C      -1.9537298097    -2.3518492992    -2.6901418660
   83      C      -3.4243998697    -4.1248270797     1.8242635616
   84      C      -6.3291334597    -3.3167528854    -2.9211850861
   85      C      -3.2355663525     0.0417703116    -3.2834025475
   86      C      -3.9459185860    -3.4050233103    -3.5250271168
   87      C      -2.7713819568     0.9011659441     1.0355381783
   88      C      -1.0976749839    -1.5075302758    -0.8049398817
   89      O      10.9488546824    -4.9043992265    -1.5196106655
   90      C      11.5623638535    -5.4140667059    -2.7422056750
   91      H      11.7988747886    -4.5629986547    -3.3928390201
   92      H      10.6889875909    -5.8714777668    -3.2244649676
   93      H      12.4176295429    -6.0724019663    -2.5495601832
   94      O      11.8297413906    -2.7518425091    -1.5867089946
   95      C      11.1729233951    -3.6130681580    -1.0047764363
   96      C      10.4679210529    -3.3891043189     0.2650565828
   97      H      10.8451936059    -2.4114754454     0.5897737004
   98      H      10.7442207760    -4.1615711971     0.9937481396
   99      C       8.9522420896    -3.1326925078     0.1218565006
  100      H       8.7579305951    -2.4564516369    -0.7199168226
  101      H       8.3553778270    -4.0375306814    -0.0463039337
  102      C       8.4807126430    -2.3231567041     1.3203321005
  103      H       8.8229657276    -2.9012581129     2.1868830726
  104      H       8.8805839612    -1.3029886088     1.3794843288
  105      C       6.9156594393    -2.1043938163     1.4600220022
  106      C       6.3389726219    -3.3755986360     1.9905534536
  107      C       6.2893087876    -3.5754199413     3.3913200114
  108      H       6.5249506264    -2.6815739056     3.9621248714
  109      C       5.7539204626    -4.7949591337     3.9391169626
  110      H       5.6715648159    -4.9128538419     5.0157303497
  111      C       5.4173271102    -5.7732864434     3.0359106792
  112      H       5.1285659512    -6.7085192261     3.5067797006
  113      C       5.5355939428    -5.6192444851     1.6306854192
  114      H       5.2860168478    -6.4483004849     0.9750922353
  115      C       5.9838922212    -4.4539154954     1.1791203635
  116      H       6.1661442577    -4.2983586379     0.1193377163
  117      C       2.1816226358    -0.5189632921    -0.9669381532
  118      C       1.8221005446     0.0863537060     1.3957874334
  119      C       2.2674499391     4.5738664705     0.7511828215
  120      C       6.5794004774     1.3997515923    -2.7337681531
  121      C       5.6334420291     4.7440290492     1.7889775733
  122      C       2.3413267859    -0.8365331437     0.4301777954
  123      C       6.9586529195     3.8100890069    -1.3990340474
  124      C       1.0552811450     2.9451912603    -0.5401629395
  125      C       5.4296579677     0.8565986956     3.0269667907
  126      C       7.5375651875     1.4934672896    -1.6824020149
  127      C       6.3965089486    -0.7456567306     1.7241399681
  128      C       6.5829267727     1.4657465223     2.5852032921
  129      C       7.8723040308     2.4459942810     0.3607989634
  130      C       6.4427406789     4.7160107471    -0.4661689120
  131      C       3.8325733952    -0.7042082002     2.1688539180
  132      C       4.2248049109     5.4331922797    -0.0346859129
  133      C       6.1373027988    -1.3387783226     0.4379809776
  134      C       6.6890593834    -0.6888322374    -0.7919624185
  135      C       4.4173629119     5.2167227404     1.3035712951
  136      C       3.4526500227     3.0604307715    -3.1783513935
  137      C       2.6071618150     4.5230266846    -1.6401710121
  138      C       1.6669488039     3.4520265752    -1.7477686858
  139      C       1.0021775233     1.5346020905    -0.3345463078
  140      C       5.7088694974    -0.6568892029    -1.7864886524
  141      C       5.2240399639    -0.4388169759     2.4945858421
  142      C       1.1619848812     1.2735405819     1.0159563753
  143      C       7.7318684029     2.7186092919    -1.0210924543
  144      C       2.7536312160     0.1660905091     2.4311780122
  145      C       6.7445785437     2.8472783810     2.4154610516
  146      C       4.3977017508     0.9119539596    -3.1664090385
  147      C       1.3566158092     3.5128252713     0.7403772004
  148      C       7.1976265663     0.5179467095     1.7194592891
  149      C       2.0821421001     1.1941146616    -2.4813368946
  150      C       7.2959350244     3.3153241736     1.2747427835
  151      C       4.3953299001     1.7521134477     3.3656108183
  152      C       4.9816690510     4.6478204887    -2.2207576920
  153      C       6.0710128832     3.7828787765    -2.4888357584
  154      C       4.5180227593     3.1803917437     3.2544686955
  155      C       5.6495015687     0.3882901461    -2.7731986288
  156      C       7.6045263113     0.4433059302    -0.7147583165
  157      C       4.5507366137     2.2215609125    -3.4183434734
  158      C       4.6960737753    -1.5674342640     0.0078305826
  159      C       2.3636626533     2.5875414164     2.7576286576
  160      C       7.7663579367     1.0698370001     0.5557798937
  161      C       5.7198203484     3.7525520332     2.7865732392
  162      C       3.1679396201     0.3974075699    -2.7110683805
  163      C       3.2150403876     4.6271266441     1.7999924781
  164      C       1.4204513427     0.6619465347    -1.3277861041
  165      C       2.9312217498     5.0859129570    -0.3777145958
  166      C       3.0470251822     1.4342171122     3.0777109961
  167      C       3.2612407966     3.6734872025     2.8109318124
  168      C       3.5852357944    -1.3073495835     0.9374008808
  169      C       4.4768806572    -1.1476459088    -1.3279710920
  170      C       3.6818548171     4.2846080026    -2.5546044342
  171      C       1.4066336611     2.5284263617     1.6856105056
  172      C       6.6709583161     4.5025887538     0.9063680685
  173      C       5.8347250694     2.5490256733    -3.1253580194
  174      C       5.2472796901     5.2446432740    -0.9496414301
  175      C       3.2501797496    -0.6645874901    -1.8008573865
  176      C       2.2204658255     2.5539659697    -2.6703341608
 ----------------------------------------------------------------
 Molecular Point Group                 C1    NOp =  1
 Largest Abelian Subgroup              C1    NOp =  1
 Nuclear Repulsion Energy = 34284.2776181131 hartrees
 There are      462 alpha and      462 beta electrons
 Requested basis set is 6-31G(d,p)
 There are 676 shells and 2360 basis functions

 Total QAlloc Memory Limit  20000 MB
 Mega-Array Size      4888 MB
 MEM_STATIC part      5000 MB
 A cutoff of  1.0D-08 yielded  37333 shell pairs
 There are    527406 function pairs
 
 -------------------------------------------------------
 OpenMP Integral Computing Module                       
 Release: version 1.0, May 2013, Q-Chem Inc. Pittsburgh 
 -------------------------------------------------------
 Integral Job Info:
 Integral job number is                      11
 Integral operator is                         1
 short-range coefficients                     0
 long-range coefficients              100000000
 Omega coefficients                           0
 if combine SR and LR in K                    0
 Integral screening is                        0
 Integral computing path is                   2
 max size of driver memory is            800000
 size of driver memory is                593474
 size of scratch memory is              2260544
 max col of scratch BK array               1296
 max len of scratch array in speh3          155
 max len of scratch index in speh4           18
 max int batch size is                      520
 min int batch size is                       52
 fixed nKL is                                52
 max L of basis functions is                  2
 order of int derivative is                   0
 number of shells is                        676
 number of basis is                        2360
 number of cartesian basis is              2360
 number of contracted shell pairs         37333
 number of primitive shell pairs         113425
 maxK2 (contraction) of shell pair           36
 max number of K2 of shell pair               1
 max number of CS2 of shell pair           7208
 max number of PS2 of shell pair          34494
 mem total for path MDJ                 1505496
 -------------------------------------------------------
 Smallest overlap matrix eigenvalue = 2.46E-04

 Scale SEOQF with 1.000000e-02/1.000000e-02/1.000000e-02

 Standard Electronic Orientation quadrupole field applied
 Nucleus-field energy     =     0.0000001257 hartrees
 Guess from superposition of atomic densities
 Warning:  Energy on first SCF cycle will be non-variational
 A restricted hybrid HF-DFT SCF calculation will be
 performed using Pulay DIIS extrapolation
 Exchange:     0.2000 Hartree-Fock + 0.0800 Slater + 0.7200 B88
 Correlation:  0.1900 VWN1RPA + 0.8100 LYP
 Using SG-1 standard quadrature grid
 SCF converges when DIIS error is below 1.0E-05
 using 16 threads for integral computing 
 -------------------------------------------------------
 OpenMP BLAS3 based DFT computing Module                
 Release: version 1.0, May 2013, Q-Chem Inc. Pittsburgh 
 -------------------------------------------------------
 ---------------------------------------
  Cycle       Energy         DIIS Error
 ---------------------------------------
    1   -5858.0633472508      1.82E-02
    2   -5803.1203919329      1.29E-03
    3   -5802.2622953526      1.82E-03
    4   -5803.9224386880      6.93E-04
    5   -5804.1859839133      3.21E-04
    6   -5804.2506848346      1.50E-04
    7   -5804.2648003806      5.59E-05
    8   -5804.2660161989      3.86E-05
    9   -5804.2672216883      9.94E-06 Convergence criterion met
 ---------------------------------------
 SCF time:  CPU 7322.12 s  wall 845.46 s
 SCF   energy in the final basis set = -5804.2672216883
 Total energy in the final basis set = -5804.2672216883
 
 --------------------------------------------------------------
 
                    Orbital Energies (a.u.)
 --------------------------------------------------------------
 
 Alpha MOs
 -- Occupied --
-19.194 -19.181 -19.136 -19.134 -10.327 -10.316 -10.244 -10.243
-10.242 -10.241 -10.241 -10.240 -10.238 -10.235 -10.233 -10.232
-10.229 -10.229 -10.227 -10.226 -10.226 -10.225 -10.224 -10.224
-10.224 -10.224 -10.224 -10.223 -10.223 -10.223 -10.222 -10.222
-10.222 -10.222 -10.221 -10.221 -10.221 -10.221 -10.221 -10.220
-10.220 -10.220 -10.220 -10.220 -10.220 -10.220 -10.220 -10.220
-10.220 -10.219 -10.219 -10.219 -10.219 -10.219 -10.219 -10.219
-10.218 -10.218 -10.218 -10.218 -10.218 -10.218 -10.218 -10.218
-10.217 -10.217 -10.217 -10.217 -10.217 -10.217 -10.217 -10.217
-10.217 -10.217 -10.217 -10.217 -10.216 -10.216 -10.216 -10.216
-10.216 -10.216 -10.216 -10.216 -10.215 -10.215 -10.215 -10.215
-10.215 -10.215 -10.215 -10.214 -10.214 -10.214 -10.214 -10.214
-10.214 -10.214 -10.214 -10.213 -10.213 -10.213 -10.213 -10.213
-10.213 -10.213 -10.213 -10.212 -10.212 -10.212 -10.212 -10.212
-10.212 -10.212 -10.211 -10.211 -10.211 -10.211 -10.211 -10.210
-10.210 -10.210 -10.209 -10.209 -10.208 -10.208 -10.208 -10.207
-10.207 -10.207 -10.207 -10.206 -10.206 -10.206 -10.204 -10.204
-10.203 -10.202 -10.202 -10.201 -10.201 -10.201 -10.200 -10.199
-10.197 -10.196 -10.193 -10.192  -1.084  -1.071  -0.999  -0.997
 -0.985  -0.983  -0.972  -0.966  -0.966  -0.963  -0.961  -0.960
 -0.940  -0.934  -0.927  -0.926  -0.925  -0.924  -0.923  -0.922
 -0.921  -0.920  -0.898  -0.895  -0.892  -0.891  -0.889  -0.887
 -0.877  -0.873  -0.861  -0.854  -0.841  -0.841  -0.839  -0.837
 -0.836  -0.836  -0.824  -0.821  -0.814  -0.807  -0.799  -0.799
 -0.796  -0.795  -0.795  -0.793  -0.793  -0.792  -0.784  -0.782
 -0.770  -0.770  -0.770  -0.769  -0.767  -0.767  -0.766  -0.763
 -0.757  -0.753  -0.743  -0.741  -0.736  -0.732  -0.717  -0.716
 -0.714  -0.714  -0.713  -0.712  -0.712  -0.710  -0.710  -0.709
 -0.708  -0.708  -0.707  -0.706  -0.704  -0.701  -0.675  -0.673
 -0.661  -0.658  -0.658  -0.657  -0.649  -0.648  -0.634  -0.632
 -0.629  -0.629  -0.628  -0.624  -0.623  -0.622  -0.617  -0.616
 -0.616  -0.614  -0.614  -0.613  -0.612  -0.610  -0.610  -0.609
 -0.606  -0.605  -0.602  -0.602  -0.568  -0.568  -0.565  -0.563
 -0.563  -0.561  -0.559  -0.559  -0.558  -0.555  -0.555  -0.554
 -0.540  -0.537  -0.535  -0.533  -0.530  -0.528  -0.526  -0.526
 -0.524  -0.524  -0.521  -0.519  -0.517  -0.517  -0.514  -0.512
 -0.509  -0.508  -0.499  -0.498  -0.491  -0.490  -0.489  -0.487
 -0.487  -0.484  -0.479  -0.478  -0.477  -0.476  -0.476  -0.475
 -0.474  -0.473  -0.471  -0.470  -0.468  -0.468  -0.467  -0.467
 -0.467  -0.465  -0.465  -0.464  -0.461  -0.460  -0.460  -0.458
 -0.456  -0.455  -0.453  -0.453  -0.450  -0.448  -0.446  -0.445
 -0.444  -0.442  -0.442  -0.439  -0.439  -0.438  -0.437  -0.434
 -0.433  -0.432  -0.430  -0.430  -0.429  -0.427  -0.426  -0.426
 -0.425  -0.424  -0.422  -0.421  -0.421  -0.419  -0.419  -0.418
 -0.418  -0.417  -0.416  -0.416  -0.415  -0.415  -0.414  -0.413
 -0.413  -0.412  -0.412  -0.408  -0.403  -0.401  -0.399  -0.396
 -0.395  -0.394  -0.392  -0.391  -0.389  -0.387  -0.385  -0.384
 -0.379  -0.376  -0.374  -0.372  -0.371  -0.369  -0.367  -0.367
 -0.364  -0.364  -0.363  -0.361  -0.361  -0.361  -0.360  -0.359
 -0.358  -0.357  -0.356  -0.356  -0.354  -0.352  -0.352  -0.352
 -0.349  -0.349  -0.348  -0.347  -0.346  -0.345  -0.344  -0.344
 -0.342  -0.342  -0.341  -0.340  -0.338  -0.337  -0.336  -0.334
 -0.333  -0.332  -0.332  -0.331  -0.330  -0.329  -0.328  -0.325
 -0.312  -0.306  -0.295  -0.293  -0.289  -0.287  -0.274  -0.271
 -0.270  -0.269  -0.268  -0.267  -0.267  -0.266  -0.265  -0.264
 -0.263  -0.263  -0.261  -0.260  -0.259  -0.258  -0.257  -0.256
 -0.250  -0.247  -0.246  -0.244  -0.222  -0.222  -0.214  -0.213
 -0.211  -0.209  -0.208  -0.208  -0.199  -0.196
 -- Virtual --
 -0.126  -0.124  -0.122  -0.120  -0.110  -0.108  -0.082  -0.079
 -0.077  -0.074  -0.064  -0.060  -0.055  -0.053  -0.025  -0.024
 -0.023  -0.022  -0.019  -0.018  -0.018  -0.017  -0.016  -0.014
 -0.014  -0.011  -0.010  -0.007  -0.006  -0.005   0.002   0.003
  0.005   0.005   0.036   0.037   0.038   0.040   0.042   0.042
  0.046   0.051   0.054   0.055   0.058   0.060   0.061   0.063
  0.066   0.070   0.076   0.080   0.080   0.082   0.083   0.088
  0.092   0.093   0.095   0.096   0.099   0.100   0.107   0.110
  0.110   0.111   0.112   0.112   0.113   0.115   0.118   0.120
  0.122   0.125   0.126   0.127   0.129   0.130   0.132   0.137
  0.138   0.139   0.143   0.144   0.150   0.150   0.154   0.155
  0.158   0.158   0.159   0.160   0.163   0.164   0.165   0.168
  0.171   0.171   0.172   0.172   0.173   0.177   0.178   0.178
  0.179   0.181   0.183   0.184   0.186   0.186   0.189   0.190
  0.191   0.193   0.196   0.196   0.199   0.199   0.201   0.205
  0.208   0.210   0.211   0.213   0.215   0.215   0.216   0.217
  0.217   0.218   0.220   0.222   0.223   0.225   0.226   0.226
  0.228   0.229   0.232   0.233   0.233   0.235   0.236   0.239
  0.239   0.241   0.241   0.243   0.244   0.250   0.253   0.256
  0.260   0.263   0.266   0.271   0.272   0.276   0.276   0.278
  0.279   0.281   0.283   0.290   0.292   0.295   0.301   0.302
  0.305   0.308   0.309   0.310   0.313   0.315   0.316   0.317
  0.317   0.320   0.323   0.323   0.324   0.325   0.327   0.333
  0.334   0.335   0.339   0.340   0.341   0.342   0.343   0.346
  0.348   0.355   0.357   0.358   0.363   0.370   0.384   0.386
  0.393   0.394   0.396   0.400   0.402   0.402   0.404   0.405
  0.408   0.409   0.412   0.412   0.412   0.415   0.416   0.422
  0.425   0.427   0.433   0.436   0.437   0.440   0.441   0.443
  0.445   0.448   0.450   0.452   0.453   0.454   0.459   0.462
  0.464   0.467   0.467   0.468   0.469   0.471   0.472   0.473
  0.475   0.476   0.477   0.478   0.479   0.481   0.482   0.483
  0.484   0.485   0.487   0.489   0.490   0.492   0.492   0.494
  0.494   0.495   0.496   0.498   0.499   0.500   0.500   0.501
  0.502   0.504   0.505   0.506   0.507   0.508   0.509   0.511
  0.512   0.513   0.514   0.514   0.515   0.516   0.516   0.517
  0.518   0.519   0.521   0.522   0.522   0.523   0.523   0.525
  0.525   0.526   0.526   0.527   0.528   0.530   0.530   0.531
  0.532   0.533   0.534   0.534   0.535   0.536   0.536   0.538
  0.538   0.540   0.540   0.541   0.542   0.542   0.543   0.544
  0.544   0.545   0.546   0.547   0.548   0.549   0.549   0.550
  0.551   0.551   0.552   0.552   0.554   0.554   0.555   0.556
  0.557   0.558   0.559   0.559   0.560   0.561   0.562   0.563
  0.564   0.565   0.565   0.567   0.568   0.568   0.569   0.570
  0.571   0.571   0.572   0.573   0.574   0.575   0.576   0.576
  0.577   0.578   0.579   0.580   0.582   0.582   0.582   0.583
  0.584   0.585   0.586   0.587   0.588   0.588   0.589   0.590
  0.592   0.593   0.593   0.594   0.594   0.596   0.596   0.598
  0.598   0.600   0.601   0.601   0.602   0.604   0.604   0.606
  0.608   0.609   0.610   0.611   0.612   0.612   0.612   0.613
  0.616   0.617   0.618   0.618   0.619   0.621   0.621   0.623
  0.624   0.625   0.626   0.627   0.628   0.629   0.631   0.631
  0.633   0.633   0.634   0.635   0.636   0.636   0.637   0.638
  0.639   0.640   0.641   0.642   0.643   0.646   0.646   0.648
  0.648   0.649   0.650   0.651   0.652   0.653   0.654   0.655
  0.656   0.656   0.657   0.658   0.658   0.659   0.661   0.662
  0.663   0.664   0.664   0.664   0.666   0.666   0.667   0.668
  0.668   0.670   0.670   0.672   0.672   0.673   0.674   0.674
  0.676   0.677   0.679   0.682   0.683   0.684   0.684   0.686
  0.687   0.688   0.688   0.688   0.690   0.690   0.692   0.693
  0.695   0.696   0.698   0.698   0.701   0.701   0.703   0.704
  0.704   0.705   0.705   0.708   0.709   0.711   0.713   0.713
  0.716   0.717   0.718   0.719   0.719   0.721   0.722   0.724
  0.725   0.725   0.725   0.727   0.728   0.729   0.731   0.732
  0.734   0.736   0.739   0.739   0.740   0.740   0.742   0.743
  0.745   0.749   0.749   0.751   0.752   0.753   0.756   0.756
  0.758   0.759   0.760   0.761   0.761   0.763   0.765   0.766
  0.767   0.769   0.770   0.772   0.772   0.774   0.775   0.776
  0.778   0.778   0.779   0.780   0.782   0.783   0.784   0.785
  0.787   0.787   0.788   0.790   0.791   0.793   0.794   0.794
  0.796   0.798   0.799   0.799   0.800   0.801   0.803   0.803
  0.804   0.805   0.807   0.807   0.808   0.809   0.810   0.810
  0.811   0.813   0.813   0.814   0.815   0.815   0.816   0.818
  0.818   0.819   0.820   0.820   0.821   0.822   0.823   0.824
  0.825   0.826   0.828   0.832   0.834   0.835   0.836   0.839
  0.840   0.841   0.843   0.843   0.846   0.849   0.852   0.854
  0.855   0.856   0.858   0.863   0.864   0.866   0.867   0.869
  0.872   0.877   0.879   0.883   0.885   0.888   0.888   0.891
  0.892   0.894   0.896   0.900   0.902   0.907   0.909   0.911
  0.913   0.914   0.916   0.918   0.920   0.921   0.923   0.926
  0.928   0.929   0.929   0.930   0.932   0.936   0.937   0.938
  0.939   0.941   0.942   0.944   0.945   0.947   0.952   0.954
  0.954   0.957   0.960   0.961   0.965   0.967   0.969   0.971
  0.975   0.977   0.979   0.980   0.983   0.986   0.987   0.990
  0.991   0.993   0.994   0.995   0.996   1.001   1.005   1.006
  1.007   1.008   1.012   1.013   1.015   1.016   1.019   1.020
  1.021   1.024   1.025   1.027   1.030   1.031   1.035   1.035
  1.036   1.038   1.038   1.039   1.041   1.043   1.044   1.045
  1.049   1.050   1.053   1.054   1.055   1.058   1.059   1.061
  1.062   1.063   1.065   1.067   1.067   1.068   1.070   1.071
  1.073   1.075   1.075   1.076   1.077   1.079   1.080   1.083
  1.084   1.085   1.086   1.089   1.089   1.093   1.093   1.095
  1.100   1.102   1.104   1.104   1.105   1.110   1.113   1.113
  1.115   1.116   1.117   1.121   1.122   1.123   1.127   1.129
  1.130   1.133   1.134   1.136   1.136   1.139   1.142   1.143
  1.144   1.147   1.148   1.149   1.151   1.153   1.156   1.158
  1.159   1.161   1.162   1.164   1.166   1.167   1.169   1.170
  1.170   1.171   1.174   1.175   1.178   1.178   1.181   1.182
  1.184   1.186   1.190   1.192   1.193   1.195   1.197   1.197
  1.201   1.204   1.206   1.207   1.210   1.212   1.214   1.215
  1.218   1.220   1.226   1.231   1.234   1.234   1.239   1.242
  1.244   1.245   1.247   1.249   1.253   1.255   1.257   1.258
  1.260   1.262   1.264   1.265   1.269   1.271   1.273   1.274
  1.275   1.277   1.279   1.281   1.283   1.283   1.285   1.290
  1.292   1.296   1.297   1.300   1.304   1.307   1.309   1.311
  1.313   1.315   1.317   1.318   1.320   1.324   1.326   1.327
  1.328   1.329   1.334   1.339   1.340   1.344   1.346   1.348
  1.351   1.351   1.354   1.356   1.358   1.360   1.365   1.367
  1.369   1.373   1.374   1.374   1.377   1.380   1.382   1.384
  1.384   1.389   1.392   1.394   1.397   1.399   1.400   1.405
  1.406   1.406   1.408   1.411   1.413   1.419   1.420   1.425
  1.428   1.432   1.434   1.435   1.440   1.443   1.444   1.447
  1.450   1.451   1.456   1.457   1.460   1.461   1.463   1.463
  1.465   1.466   1.467   1.469   1.470   1.471   1.473   1.478
  1.480   1.481   1.485   1.487   1.488   1.490   1.493   1.494
  1.499   1.503   1.506   1.507   1.510   1.513   1.517   1.519
  1.520   1.522   1.523   1.526   1.527   1.530   1.532   1.532
  1.534   1.540   1.541   1.543   1.545   1.548   1.552   1.553
  1.555   1.557   1.558   1.561   1.563   1.567   1.569   1.571
  1.575   1.576   1.577   1.580   1.581   1.581   1.584   1.587
  1.590   1.592   1.596   1.600   1.606   1.610   1.614   1.615
  1.621   1.621   1.626   1.631   1.633   1.638   1.639   1.647
  1.647   1.650   1.653   1.653   1.657   1.659   1.663   1.673
  1.676   1.678   1.682   1.686   1.688   1.693   1.696   1.696
  1.699   1.700   1.706   1.706   1.710   1.713   1.716   1.719
  1.719   1.721   1.723   1.727   1.727   1.729   1.732   1.734
  1.736   1.738   1.738   1.740   1.742   1.742   1.746   1.749
  1.750   1.751   1.752   1.754   1.755   1.755   1.757   1.758
  1.759   1.760   1.760   1.763   1.764   1.766   1.766   1.768
  1.768   1.771   1.773   1.773   1.775   1.776   1.778   1.778
  1.779   1.780   1.781   1.783   1.784   1.785   1.787   1.788
  1.789   1.790   1.791   1.792   1.793   1.794   1.794   1.795
  1.797   1.800   1.800   1.802   1.802   1.805   1.806   1.808
  1.809   1.810   1.812   1.816   1.817   1.818   1.820   1.822
  1.824   1.825   1.828   1.830   1.832   1.834   1.836   1.837
  1.839   1.839   1.843   1.845   1.849   1.851   1.852   1.852
  1.854   1.856   1.856   1.859   1.860   1.864   1.865   1.867
  1.867   1.872   1.874   1.876   1.879   1.882   1.885   1.885
  1.886   1.888   1.890   1.896   1.898   1.901   1.903   1.904
  1.905   1.908   1.909   1.912   1.915   1.917   1.918   1.922
  1.923   1.927   1.927   1.930   1.931   1.932   1.933   1.936
  1.938   1.940   1.940   1.941   1.943   1.944   1.948   1.951
  1.951   1.953   1.958   1.960   1.961   1.963   1.967   1.968
  1.968   1.969   1.973   1.974   1.976   1.978   1.979   1.980
  1.983   1.984   1.985   1.985   1.988   1.989   1.990   1.991
  1.994   1.996   1.997   1.998   1.998   1.999   2.000   2.002
  2.004   2.006   2.007   2.007   2.008   2.009   2.011   2.013
  2.015   2.016   2.017   2.018   2.019   2.020   2.021   2.023
  2.024   2.026   2.026   2.027   2.029   2.029   2.031   2.032
  2.034   2.034   2.036   2.036   2.038   2.039   2.040   2.041
  2.043   2.045   2.047   2.048   2.049   2.050   2.051   2.051
  2.053   2.054   2.056   2.058   2.060   2.061   2.061   2.064
  2.065   2.067   2.067   2.070   2.071   2.071   2.073   2.075
  2.078   2.078   2.080   2.083   2.084   2.086   2.088   2.091
  2.091   2.092   2.095   2.096   2.098   2.100   2.100   2.104
  2.105   2.107   2.108   2.111   2.116   2.118   2.118   2.121
  2.122   2.127   2.129   2.129   2.136   2.138   2.144   2.145
  2.148   2.151   2.152   2.155   2.160   2.160   2.164   2.167
  2.182   2.183   2.189   2.192   2.192   2.197   2.198   2.201
  2.204   2.207   2.208   2.209   2.214   2.216   2.219   2.221
  2.228   2.230   2.233   2.235   2.236   2.238   2.242   2.243
  2.244   2.246   2.251   2.253   2.254   2.255   2.259   2.261
  2.264   2.266   2.268   2.270   2.271   2.275   2.276   2.277
  2.281   2.281   2.282   2.285   2.288   2.290   2.293   2.294
  2.294   2.299   2.303   2.304   2.306   2.309   2.316   2.317
  2.321   2.324   2.325   2.328   2.331   2.334   2.338   2.340
  2.342   2.343   2.345   2.345   2.349   2.353   2.355   2.355
  2.356   2.358   2.358   2.361   2.363   2.364   2.364   2.366
  2.368   2.369   2.371   2.372   2.373   2.374   2.375   2.377
  2.379   2.380   2.381   2.384   2.386   2.389   2.390   2.392
  2.394   2.394   2.397   2.397   2.399   2.400   2.403   2.404
  2.406   2.407   2.408   2.409   2.411   2.414   2.415   2.419
  2.421   2.422   2.424   2.427   2.431   2.433   2.434   2.438
  2.441   2.443   2.444   2.447   2.452   2.455   2.458   2.458
  2.459   2.463   2.465   2.466   2.468   2.471   2.473   2.475
  2.477   2.479   2.480   2.484   2.485   2.486   2.487   2.491
  2.492   2.492   2.494   2.496   2.498   2.498   2.502   2.503
  2.504   2.507   2.508   2.512   2.513   2.516   2.518   2.520
  2.521   2.522   2.525   2.526   2.530   2.531   2.534   2.537
  2.540   2.542   2.547   2.549   2.551   2.551   2.553   2.554
  2.558   2.560   2.562   2.569   2.571   2.577   2.585   2.587
  2.588   2.589   2.590   2.593   2.594   2.598   2.599   2.601
  2.603   2.606   2.607   2.609   2.609   2.613   2.614   2.618
  2.620   2.620   2.623   2.623   2.624   2.625   2.628   2.629
  2.631   2.632   2.634   2.636   2.640   2.641   2.642   2.643
  2.646   2.647   2.648   2.650   2.650   2.651   2.655   2.656
  2.658   2.659   2.660   2.663   2.664   2.666   2.668   2.668
  2.670   2.671   2.674   2.674   2.676   2.679   2.680   2.684
  2.687   2.689   2.693   2.694   2.696   2.700   2.701   2.703
  2.706   2.707   2.710   2.712   2.712   2.719   2.722   2.725
  2.728   2.729   2.730   2.732   2.734   2.737   2.739   2.742
  2.744   2.747   2.747   2.750   2.751   2.752   2.754   2.757
  2.757   2.761   2.762   2.763   2.767   2.769   2.770   2.771
  2.773   2.775   2.777   2.779   2.783   2.788   2.789   2.791
  2.794   2.796   2.797   2.800   2.809   2.812   2.818   2.820
  2.824   2.829   2.830   2.832   2.836   2.837   2.841   2.841
  2.844   2.846   2.850   2.851   2.852   2.854   2.855   2.857
  2.858   2.862   2.864   2.865   2.868   2.869   2.869   2.874
  2.875   2.876   2.879   2.880   2.882   2.883   2.888   2.889
  2.891   2.893   2.894   2.896   2.897   2.898   2.900   2.903
  2.904   2.906   2.910   2.911   2.913   2.915   2.916   2.919
  2.919   2.920   2.921   2.923   2.927   2.930   2.931   2.932
  2.936   2.937   2.938   2.939   2.943   2.943   2.946   2.948
  2.949   2.957   2.964   2.966   2.966   2.973   2.974   2.978
  2.984   2.984   2.987   2.990   2.992   2.993   2.998   3.002
  3.003   3.006   3.007   3.010   3.014   3.015   3.017   3.021
  3.022   3.025   3.030   3.034   3.037   3.041   3.041   3.044
  3.045   3.048   3.051   3.054   3.056   3.062   3.065   3.067
  3.069   3.071   3.073   3.075   3.081   3.084   3.089   3.093
  3.097   3.098   3.111   3.117   3.122   3.127   3.130   3.138
  3.150   3.153   3.154   3.164   3.176   3.182   3.188   3.199
  3.201   3.207   3.211   3.214   3.220   3.223   3.231   3.236
  3.240   3.242   3.247   3.251   3.262   3.265   3.276   3.280
  3.283   3.291   3.298   3.304   3.311   3.316   3.318   3.320
  3.326   3.330   3.334   3.335   3.342   3.369   3.376   3.376
  3.392   3.394   3.416   3.418   3.422   3.427   3.438   3.442
  3.452   3.461   3.462   3.468   3.470   3.476   3.482   3.485
  3.486   3.501   3.503   3.504   3.506   3.517   3.534   3.538
  3.541   3.557   3.559   3.566   3.579   3.588   3.600   3.612
  3.618   3.625   3.672   3.687   3.843   3.885   3.972   3.976
  4.060   4.068   4.071   4.074   4.080   4.080   4.081   4.089
  4.097   4.098   4.099   4.104   4.108   4.114   4.118   4.120
  4.123   4.128   4.128   4.133   4.136   4.140   4.143   4.146
  4.151   4.157   4.158   4.163   4.164   4.168   4.172   4.175
  4.176   4.185   4.193   4.197   4.202   4.215   4.222   4.233
  4.236   4.242   4.242   4.245   4.248   4.250   4.253   4.260
  4.265   4.267   4.271   4.275   4.280   4.283   4.287   4.291
  4.299   4.308   4.312   4.326   4.367   4.380   4.387   4.387
  4.394   4.396   4.397   4.404   4.407   4.408   4.414   4.416
  4.423   4.426   4.428   4.431   4.453   4.462   4.468   4.474
  4.478   4.490   4.497   4.504   4.530   4.540   4.543   4.547
  4.554   4.558   4.611   4.616   4.620   4.629   4.634   4.639
  4.646   4.652   4.669   4.678   4.687   4.688   4.693   4.697
  4.700   4.704   4.706   4.711   4.743   4.760   4.796   4.832
  4.835   4.850   4.856   4.864   4.868   4.872   4.878   4.887
  4.903   4.906   4.960   4.962   4.964   4.968   4.971   4.983
  4.988   4.990   4.992   5.000   5.158   5.169   5.174   5.177
  5.192   5.199   5.203   5.227   5.290   5.333   5.341   5.349
  5.357   5.366
 --------------------------------------------------------------
 
          Ground-State Mulliken Net Atomic Charges

     Atom                 Charge (a.u.)
  ----------------------------------------
      1 O                    -0.463614
      2 C                    -0.091839
      3 H                     0.125315
      4 H                     0.137849
      5 H                     0.128600
      6 O                    -0.479003
      7 C                     0.585647
      8 C                    -0.256589
      9 H                     0.134785
     10 H                     0.141877
     11 C                    -0.180820
     12 H                     0.113058
     13 H                     0.109858
     14 C                    -0.181508
     15 H                     0.102163
     16 H                     0.113480
     17 C                     0.008393
     18 C                     0.079876
     19 C                    -0.088030
     20 H                     0.100752
     21 C                    -0.103446
     22 H                     0.091926
     23 C                    -0.083195
     24 H                     0.089196
     25 C                    -0.085087
     26 H                     0.097038
     27 C                    -0.109613
     28 H                     0.088453
     29 C                    -0.013832
     30 C                    -0.007886
     31 C                    -0.021289
     32 C                    -0.041162
     33 C                     0.000434
     34 C                    -0.029074
     35 C                    -0.017513
     36 C                     0.005535
     37 C                    -0.003482
     38 C                     0.004094
     39 C                    -0.120374
     40 C                    -0.024639
     41 C                    -0.007557
     42 C                     0.015523
     43 C                     0.002934
     44 C                     0.014066
     45 C                    -0.086618
     46 C                     0.026521
     47 C                     0.014739
     48 C                     0.012986
     49 C                    -0.019609
     50 C                    -0.001078
     51 C                    -0.000609
     52 C                     0.012245
     53 C                     0.036597
     54 C                     0.000474
     55 C                    -0.023548
     56 C                    -0.014447
     57 C                     0.027761
     58 C                    -0.003738
     59 C                    -0.014769
     60 C                     0.076875
     61 C                    -0.011041
     62 C                    -0.008940
     63 C                    -0.004690
     64 C                    -0.002137
     65 C                     0.029038
     66 C                    -0.002962
     67 C                     0.008082
     68 C                     0.024141
     69 C                    -0.006053
     70 C                     0.044118
     71 C                     0.006107
     72 C                    -0.023361
     73 C                    -0.013395
     74 C                     0.017675
     75 C                    -0.021546
     76 C                     0.002515
     77 C                     0.027041
     78 C                     0.000580
     79 C                     0.003869
     80 C                     0.023350
     81 C                    -0.001777
     82 C                    -0.003644
     83 C                     0.006968
     84 C                    -0.004455
     85 C                    -0.009089
     86 C                    -0.030701
     87 C                    -0.013172
     88 C                     0.038931
     89 O                    -0.497185
     90 C                    -0.083765
     91 H                     0.137822
     92 H                     0.127545
     93 H                     0.129322
     94 O                    -0.465735
     95 C                     0.580799
     96 C                    -0.240512
     97 H                     0.140128
     98 H                     0.130070
     99 C                    -0.184515
    100 H                     0.119123
    101 H                     0.119195
    102 C                    -0.182771
    103 H                     0.116133
    104 H                     0.112291
    105 C                    -0.018447
    106 C                     0.112604
    107 C                    -0.128026
    108 H                     0.085659
    109 C                    -0.079969
    110 H                     0.097755
    111 C                    -0.098722
    112 H                     0.084734
    113 C                    -0.076086
    114 H                     0.096774
    115 C                    -0.105034
    116 H                     0.082460
    117 C                    -0.020569
    118 C                     0.004101
    119 C                     0.008198
    120 C                     0.000129
    121 C                     0.006065
    122 C                    -0.012386
    123 C                     0.033481
    124 C                    -0.023650
    125 C                     0.000342
    126 C                    -0.005534
    127 C                    -0.092105
    128 C                    -0.001707
    129 C                     0.000479
    130 C                    -0.002762
    131 C                     0.004764
    132 C                     0.026862
    133 C                    -0.069182
    134 C                     0.036278
    135 C                     0.008029
    136 C                    -0.002731
    137 C                    -0.019795
    138 C                    -0.007028
    139 C                     0.030587
    140 C                    -0.010095
    141 C                     0.054387
    142 C                     0.004962
    143 C                    -0.010511
    144 C                    -0.002362
    145 C                     0.011676
    146 C                     0.005839
    147 C                     0.002688
    148 C                     0.013255
    149 C                    -0.011356
    150 C                     0.026228
    151 C                    -0.003728
    152 C                    -0.002006
    153 C                    -0.018299
    154 C                    -0.003493
    155 C                    -0.012375
    156 C                    -0.025310
    157 C                     0.025996
    158 C                     0.015755
    159 C                    -0.018783
    160 C                     0.005099
    161 C                    -0.040787
    162 C                     0.009916
    163 C                    -0.010975
    164 C                    -0.014314
    165 C                     0.004095
    166 C                    -0.001710
    167 C                    -0.000912
    168 C                    -0.020200
    169 C                     0.026518
    170 C                    -0.000098
    171 C                     0.000168
    172 C                    -0.012021
    173 C                    -0.021031
    174 C                    -0.015671
    175 C                     0.021514
    176 C                     0.013897
  ----------------------------------------
  Sum of atomic charges =     0.000000

 -----------------------------------------------------------------
                    Cartesian Multipole Moments
 -----------------------------------------------------------------
    Charge (ESU x 10^10)
                 0.0000
    Dipole Moment (Debye)
         X       0.1699      Y      -2.8851      Z       3.2642
       Tot       4.3598
    Quadrupole Moments (Debye-Ang)
        XX    -824.3832     XY     -22.1052     YY    -794.7624
        XZ     -20.8336     YZ      15.1363     ZZ    -798.2454
    Octopole Moments (Debye-Ang^2)
       XXX    -124.5973    XXY    -408.3087    XYY     294.5092
       YYY    -173.0818    XXZ     426.0380    XYZ    -122.2728
       YYZ      52.6602    XZZ      48.1597    YZZ     -53.3951
       ZZZ      51.1922
    Hexadecapole Moments (Debye-Ang^3)
      XXXX -170207.7260   XXXY   -2518.5026   XXYY  -33972.7692
      XYYY   -2499.2823   YYYY  -42814.6561   XXXZ   -2911.4339
      XXYZ    1956.3996   XYYZ   -1204.4843   YYYZ     447.7019
      XXZZ  -30827.9320   XYZZ   -1007.5699   YYZZ  -11058.1108
      XZZZ    -786.8321   YZZZ     107.5265   ZZZZ  -23741.2418
 -----------------------------------------------------------------
Archival summary:
1\1\mn366\SP\ProcedureUnspecified\6-31G**\428\afmv_a\TueOct917:27:292018TueOct917:27:292018\0\\#,ProcedureUnspecified,6-31G**,\\0,1\C\C,1,1.36783\C,1,1.39715,2,107.663\C,3,1.3635,1,110.21,2,2.12978,0\C,4,1.39557,3,122.956,1,144.39,0\C,5,1.38591,4,115.948,3,-2.55136,0\C,1,1.39825,2,119.757,3,140.761,0\C,7,1.35607,1,121.64,2,1.75333,0\C,8,1.39674,7,120.16,1,-0.767538,0\C,9,1.38346,8,118.607,7,-2.41214,0\C,9,1.38512,8,120.15,7,-138.468,0\C,10,1.3903,9,106.969,8,-140.987,0\C,11,1.39537,9,111.229,8,140.004,0\C,13,1.39586,11,121.05,9,-138.575,0\C,14,1.38755,13,118.907,11,137.661,0\C,2,1.40336,1,109.704,3,-1.65083,0\C,5,1.40469,4,119.556,3,-139.446,0\C,8,1.40732,7,108.689,1,-148.87,0\C,18,1.39295,8,106.297,7,4.75071,0\C,19,1.38296,18,109.582,8,-5.77756,0\C,20,1.3707,19,120.38,18,150.902,0\C,21,1.39337,20,115.765,19,-137.956,0\C,22,1.40268,21,109.382,20,140.969,0\C,23,1.39477,22,107.431,21,-1.86962,0\C,18,1.40635,8,118.314,7,139.618,0\C,25,1.34847,18,123.782,8,-139.451,0\C,26,1.36701,25,107.947,18,145.294,0\C,14,1.40766,13,120.041,11,-6.9747,0\C,28,1.40138,14,104.285,13,142.672,0\C,29,1.3843,28,121.222,14,-141.835,0\C,30,1.39641,29,116.535,28,142.075,0\C,31,1.40369,30,103.437,29,-145.607,0\C,29,1.40827,28,110.61,14,3.7952,0\C,12,1.40829,10,118.227,9,146.678,0\C,19,1.41158,18,122.114,8,143.105,0\C,35,1.39648,19,119.773,18,-139.384,0\C,36,1.39935,35,108.522,19,141.276,0\C,36,1.40168,35,118.756,19,-9.56915,0\C,35,1.40367,19,117.213,18,-3.65903,0\C,37,1.40727,36,107.21,35,-5.42139,0\C,40,1.40266,37,120.949,36,-140.096,0\C,41,1.39178,40,119.633,37,143.354,0\C,25,1.41166,18,119.922,8,12.1883,0\C,43,1.40973,25,105.565,18,-148.013,0\C,33,1.41628,29,124.169,28,-144.702,0\C,45,1.38612,33,122.106,29,139.956,0\C,45,1.41882,33,118.592,29,-1.27818,0\C,47,1.39494,45,110.321,33,144.036,0\C,48,1.40859,47,116.293,45,-139.715,0\C,24,1.42006,23,121.091,22,-136.27,0\C,50,1.41723,24,124.986,23,139.679,0\C,51,1.40847,50,109.203,24,-142.768,0\C,16,1.42042,2,124.386,1,-142.754,0\C,53,1.4104,16,119.755,2,135.137,0\C,54,1.38416,53,107.738,16,-139.858,0\C,55,1.4198,54,108.875,53,5.13574,0\C,50,1.42287,24,117.489,23,-4.95968,0\C,57,1.38655,50,123.449,24,-4.89958,0\C,48,1.42341,47,108.05,45,6.72801,0\C,17,1.4761,5,109.078,4,147.49,0\C,60,1.52685,17,123.938,5,147.049,0\C,61,1.51572,60,126.494,17,7.68358,0\C,62,1.3873,61,120.231,60,-64.6974,0\H,63,1.08531,62,123.149,61,-0.234788,0\C,63,1.41084,62,123.625,61,-170.107,0\H,65,1.08602,63,119.939,62,176.596,0\C,65,1.39105,63,116.386,62,-4.81585,0\H,67,1.08537,65,121.446,63,172.059,0\C,62,1.42465,61,119.798,60,116.715,0\H,69,1.08565,62,117.81,61,-1.93409,0\C,69,1.40084,62,116.204,61,167.134,0\H,71,1.08598,69,122.751,62,-171.62,0\C,61,1.5853,60,115.462,17,-148.349,0\H,73,1.09636,61,115.369,60,-46.1541,0\H,73,1.09694,61,111.694,60,-163.068,0\C,73,1.51538,61,109.687,60,79.9367,0\H,76,1.09653,73,105.115,61,67.8575,0\H,76,1.09681,73,103.156,61,-47.7393,0\C,76,1.52827,73,114.534,61,-167.198,0\H,79,1.0967,76,106.594,73,173.532,0\H,79,1.09689,76,108.057,73,-65.9376,0\C,79,1.572,76,121.628,73,62.6203,0\O,82,1.24585,79,123.484,76,-161.776,0\O,82,1.36958,79,112.987,76,20.4669,0\C,84,1.44573,82,123.525,79,-175.199,0\H,85,1.09662,84,112.664,82,-140.907,0\H,85,1.09703,84,113.001,82,103.026,0\H,85,1.09792,84,107.641,82,-25.9339,0\C,3,3.10473,1,79.4234,2,-122.897,0\C,89,1.38476,3,87.1337,1,66.1392,0\C,89,1.38672,3,100.006,1,-56.9104,0\C,90,1.41047,89,118.38,3,-102.33,0\C,92,1.39504,90,117.663,89,-136.95,0\C,93,1.4108,92,109.719,90,143.524,0\C,94,1.39335,93,107.194,92,-1.52015,0\C,95,1.42347,94,109.079,93,0.929021,0\C,89,1.42649,3,110.246,1,175.16,0\C,91,1.43238,89,118.84,3,-129.654,0\C,98,1.36619,91,106.613,89,-134.585,0\C,98,1.37987,91,121.517,89,4.94512,0\C,99,1.4011,98,112.298,91,-1.82267,0\C,101,1.36325,99,105.689,98,0.444878,0\C,101,1.40063,99,122.151,98,144.599,0\C,100,1.40144,98,120.116,91,2.2834,0\C,103,1.40317,101,122.549,99,3.71322,0\C,105,1.39674,103,112.054,101,-147.773,0\C,99,1.40869,98,122.355,91,142.977,0\C,107,1.34237,99,121.1,98,1.11878,0\C,108,1.35709,107,107.623,99,-147.455,0\C,108,1.40253,107,117.525,99,-1.61029,0\C,110,1.39291,108,118.258,107,-137.221,0\C,111,1.39029,110,119.405,108,-1.48555,0\C,109,1.40833,108,117.887,107,140.224,0\C,113,1.40581,109,118.247,108,-134.74,0\C,114,1.38997,113,123.149,109,-7.90637,0\C,114,1.39896,113,107.254,109,142.393,0\C,116,1.39367,114,109.307,113,-0.449682,0\C,117,1.38497,116,117.112,114,-140.721,0\C,118,1.36926,117,121.354,116,-5.38692,0\C,118,1.38262,117,119.513,116,137.251,0\C,119,1.39209,118,121.153,117,2.74996,0\C,121,1.38338,119,119.469,118,-0.727213,0\C,122,1.39136,121,108.475,119,138.512,0\C,123,1.35067,122,109.63,121,4.17677,0\C,123,1.38681,122,123.169,121,-147.314,0\C,125,1.39393,123,119.676,122,142.174,0\C,124,1.40128,123,119.409,122,-143.15,0\C,127,1.37704,124,124.862,123,132.774,0\C,115,1.40572,114,118.657,113,5.68377,0\C,120,1.40613,118,109.508,117,-144.14,0\C,130,1.39841,120,125.28,118,142.323,0\C,131,1.36565,130,121.18,120,-135.937,0\C,126,1.4079,125,122.23,123,6.02283,0\C,121,1.40914,119,122.637,118,137.67,0\C,128,1.40942,127,114.244,124,2.62669,0\C,134,1.41089,121,117.898,119,-3.15632,0\C,107,1.41274,99,123.242,98,-145.209,0\C,137,1.37453,107,109.553,99,147.763,0\C,130,1.41448,120,105.387,118,-0.112484,0\C,139,1.39053,130,122.378,120,146.075,0\C,140,1.40988,139,118.659,130,-2.50713,0\C,141,1.37826,140,108.669,139,-136.767,0\C,128,1.41556,127,113.942,124,-148.801,0\C,103,1.41726,101,123.768,99,-141.407,0\C,120,1.41974,118,122.26,117,-0.728467,0\C,126,1.42583,125,108.53,123,-143.032,0\C,143,1.43611,128,106.183,127,-4.97164,0\C,147,1.43986,143,114.851,128,135.535,0\C,147,1.47832,143,125.375,128,-152.713,0\C,149,1.49332,147,125.684,143,2.4268,0\C,150,1.39545,149,123.332,147,-126.56,0\H,151,1.08653,150,114.447,149,-0.315985,0\C,151,1.32773,150,124.498,149,-176.3,0\H,153,1.08601,151,122.841,150,178.711,0\C,150,1.41582,149,119.024,147,61.1803,0\H,155,1.08642,150,113.334,149,-10.4222,0\C,153,1.41858,151,117.41,150,0.272627,0\H,157,1.08617,153,123.031,151,175.524,0\C,157,1.37339,153,123.619,151,0.773728,0\H,159,1.08618,157,123.777,153,179.514,0\C,149,1.58643,147,119.269,143,147.378,0\H,161,1.09647,149,108.122,147,-111.283,0\H,161,1.09733,149,103.094,147,4.61284,0\C,161,1.52119,149,116.651,147,131.777,0\H,164,1.09693,161,113.023,149,44.6715,0\H,164,1.09711,161,102.801,149,-70.4566,0\C,164,1.54387,161,108.64,149,172.63,0\H,167,1.09706,164,102.537,161,43.565,0\H,167,1.09729,164,115.196,161,-76.0579,0\C,167,1.46958,164,114.591,161,154.484,0\O,170,1.22954,167,123.951,164,-100.064,0\O,170,1.40812,167,112.293,164,76.5506,0\C,172,1.45976,170,124.023,167,177.751,0\H,173,1.09636,172,112.976,170,-100.869,0\H,173,1.09708,172,108.449,170,26.1141,0\H,173,1.09754,172,100.316,170,134.278,0\\\@

 Total job time:  861.54s(wall), 7349.71s(cpu) 
 Tue Oct  9 17:27:29 2018

        *************************************************************
        *                                                           *
        *  Thank you very much for using Q-Chem.  Have a nice day.  *
        *                                                           *
        *************************************************************


