
Running Job 1 of 1 ./6/9.qcin
qchem ./6/9.qcin_48329.0 /tmpu/cab_g/afmv_a/scratch_qchem/qchem48329/ 1
/tmpu/appuserlic/qchem4.4/serial-multicore/exe/qcprog.exe_s ./6/9.qcin_48329.0 /tmpu/cab_g/afmv_a/scratch_qchem/qchem48329/
Check license passed

                  Welcome to Q-Chem
     A Quantum Leap Into The Future Of Chemistry


 Q-Chem 4.4, Q-Chem, Inc., Pleasanton, CA (2016)

 Y. Shao,  Z. Gan,  E. Epifanovsky,  A. T. B. Gilbert,  M. Wormit,  
 J. Kussmann,  A. W. Lange,  A. Behn,  J. Deng,  X. Feng,  D. Ghosh,  
 M. Goldey,  P. R. Horn,  L. D. Jacobson,  I. Kaliman,  F. Rob,  
 R. Z. Khaliullin,  T. Kus,  A. Landau,  J. Liu,  E. I. Proynov,  Y. M. Rhee,  
 R. M. Richard,  M. A. Rohrdanz,  R. P. Steele,  E. J. Sundstrom,  
 H. L. Woodcock III,  P. M. Zimmerman,  D. Zuev,  B. Albrecht,  E. Alguire,  
 B. Austin,  S. A. Baeppler,  G. J. O. Beran,  Y. A. Bernard,  E. Berquist,  
 K. Brandhorst,  K. B. Bravaya,  S. T. Brown,  D. Casanova,  C.-M. Chang,  
 Y. Chen,  S. H. Chien,  K. D. Closser,  M. P. Coons,  D. L. Crittenden,  
 S. Dasgupta,  M. Diedenhofen,  R. A. DiStasio Jr.,  H. Do,  A. D. Dutoi,  
 R. G. Edgar,  P.-T. Fang,  S. Fatehi,  Q. Feng,  L. Fusti-Molnar,  
 A. Ghysels,  A. Golubeva-Zadorozhnaya,  J. Gomes,  A. Gunina,  
 M. W. D. Hanson-Heine,  P. H. P. Harbach,  A. W. Hauser,  J. E. Herr,  
 E. G. Hohenstein,  Z. C. Holden,  K. Hui,  T.-C. Jagau,  H. Ji,  B. Kaduk,  
 K. Khistyaev,  Jaehoon Kim,  Jihan Kim,  R. A. King,  P. Klunzinger,  
 K. Koh,  D. Kosenkov,  T. Kowalczyk,  C. M. Krauter,  A. Kunitsa,  
 K. U. Lao,  A. Laurent,  K. V. Lawler,  J. Lee,  D. Lefrancois,  S. Lehtola,  
 S. V. Levchenko,  C. Y. Lin,  Y.-S. Lin,  F. Liu,  E. Livshits,  
 R. C. Lochan,  A. Luenser,  P. Manohar,  S. F. Manzer,  S.-P. Mao,  Y. Mao,  
 N. Mardirossian,  A. V. Marenich,  L. A. Martinez-Martinez,  S. A. Maurer,  
 N. J. Mayhall,  J.-M. Mewes,  A. F. Morrison,  K. Nanda,  T. S. Nguyen-Beck,  
 C. M. Oana,  R. Olivares-Amaya,  D. P. O'Neill,  J. A. Parkhill,  
 T. M. Perrine,  R. Peverati,  P. A. Pieniazek,  F. Plasser,  A. Prociuk,  
 D. R. Rehn,  E. Rosta,  N. J. Russ,  N. Sergueev,  S. M. Sharada,  
 S. Sharma,  D. W. Small,  A. Sodt,  T. Stauch,  T. Stein,  D. Stuck,  
 Y.-C. Su,  A. J. W. Thom,  T. Tsuchimochi,  L. Vogt,  O. Vydrov,  T. Wang,  
 M. A. Watson,  J. Wenzel,  A. White,  C. F. Williams,  V. Vanovschi,  
 K. Yao,  S. Yeganeh,  S. R. Yost,  Z.-Q. You,  I. Y. Zhang,  X. Zhang,  
 Y. Zhao,  B. R. Brooks,  G. K. L. Chan,  D. M. Chipman,  C. J. Cramer,  
 W. A. Goddard III,  M. S. Gordon,  W. J. Hehre,  A. Klamt,  
 H. F. Schaefer III,  M. W. Schmidt,  C. D. Sherrill,  D. G. Truhlar,  
 A. Warshel,  X. Xu,  A. Aspuru-Guzik,  R. Baer,  A. T. Bell,  N. A. Besley,  
 J.-D. Chai,  A. Dreuw,  B. D. Dunietz,  T. R. Furlani,  S. R. Gwaltney,  
 C.-P. Hsu,  Y. Jung,  J. Kong,  D. S. Lambrecht,  W. Liang,  C. Ochsenfeld,  
 V. A. Rassolov,  L. V. Slipchenko,  J. E. Subotnik,  T. Van Voorhis,  
 J. M. Herbert,  A. I. Krylov,  P. M. W. Gill,  M. Head-Gordon

 Contributors to earlier versions of Q-Chem not listed above: 
 R. D. Adamson,  J. Baker,  E. F. C. Byrd,  A. K. Chakraborty,  C.-L. Cheng,  
 H. Dachsel,  R. J. Doerksen,  G. Hawkins,  A. Heyden,  S. Hirata,  
 G. Kedziora,  F. J. Keil,  C. Kelley,  P. P. Korambath,  W. Kurlancheek,  
 A. M. Lee,  M. S. Lee,  D. Liotard,  I. Lotan,  P. E. Maslen,  N. Nair,  
 D. Neuhauser,  R. Olson,  B. Peters,  J. Ritchie,  N. E. Schultz,  
 N. Shenvi,  A. C. Simmonett,  K. S. Thanthiriwatte,  Q. Wu,  W. Zhang

 Please cite Q-Chem as follows:
 Y. Shao et al., Mol. Phys. 113, 184-215 (2015)
 DOI: 10.1080/00268976.2014.952696

 Q-Chem 4.4.2 for Intel X86 Linux

 Parts of Q-Chem use Armadillo 5.200.1 (Boston Tea Smuggler).
 http://arma.sourceforge.net/

 Q-Chem begins on Tue Oct  9 17:41:40 2018  

Host: 
0

     Scratch files written to /tmpu/cab_g/afmv_a/scratch_qchem/qchem48329//
 Dec716 11556_ 22328  22283 4050   
Processing $rem in /tmpu/appuserlic/qchem4.4/serial-multicore/config/preferences.
 MEM_TOTAL  2000 
FILE_GEOM_ORG=        593

Checking the input file for inconsistencies... 	...done.

--------------------------------------------------------------
User input:
--------------------------------------------------------------
$comment
SP
$end

$rem
MEM_STATIC 5000
MEM_TOTAL 20000
JOBTYPE SP
EXCHANGE B3LYP
BASIS 6-31g(d,p)
$end

$molecule
0 1
O         -10.615000     18.145000      9.372000
C         -11.911000     18.522000      8.803000
H         -12.738000     18.590000      9.521000
H         -12.262000     17.723000      8.138000
H         -11.911000     19.412000      8.162000
O          -9.293000     18.763000      7.633000
C          -9.435000     18.195000      8.713000
C          -8.310000     17.700000      9.613000
H          -8.408000     18.239000     10.563000
H          -7.348000     18.027000      9.199000
C          -8.251000     16.200000      9.823000
H          -7.440000     16.016000     10.538000
H          -9.231000     15.861000     10.183000
C          -7.839000     15.453000      8.500000
H          -8.350000     15.868000      7.623000
H          -6.768000     15.676000      8.422000
C          -8.166000     13.893000      8.348000
C          -9.585000     13.572000      8.699000
C         -10.592000     13.799000      7.717000
H         -10.270000     14.203000      6.762000
C         -11.906000     13.557000      8.018000
H         -12.671000     13.600000      7.249000
C         -12.231000     13.016000      9.260000
H         -13.208000     12.706000      9.620000
C         -11.301000     12.932000     10.280000
H         -11.737000     12.600000     11.217000
C          -9.980000     13.238000     10.007000
H          -9.251000     13.046000     10.788000
C          -6.056000      8.983000      9.297000
C          -7.413000      8.618000      7.372000
C          -4.059000      7.966000      4.437000
C          -2.798000     12.761000      8.482000
C          -4.252000     11.221000      3.279000
C          -7.231000      9.207000      8.633000
C          -2.145000     12.731000      5.761000
C          -4.295000      7.191000      6.760000
C          -7.674000     11.854000      5.178000
C          -3.368000     13.700000      7.652000
C          -7.553000     13.123000      7.172000
C          -6.847000     12.946000      4.962000
C          -4.306000     13.869000      5.562000
C          -2.349000     12.051000      4.511000
C          -8.203000     10.690000      7.200000
C          -2.668000      9.698000      4.086000
C          -6.993000     12.928000      8.520000
C          -5.579000     13.283000      8.751000
C          -3.749000      9.911000      3.311000
C          -1.901000      9.374000      7.968000
C          -2.326000      8.333000      6.063000
C          -3.037000      7.713000      7.029000
C          -5.355000      7.307000      7.673000
C          -4.907000     12.313000      9.545000
C          -8.062000     11.878000      6.513000
C          -6.542000      7.575000      6.900000
C          -3.096000     13.673000      6.265000
C          -8.046000      9.477000      6.489000
C          -5.795000     12.710000      4.043000
C          -3.085000     10.730000      9.547000
C          -4.820000      7.353000      5.433000
C          -6.642000     13.680000      6.161000
C          -3.850000      8.505000      9.197000
C          -4.529000     13.214000      4.302000
C          -7.560000     10.641000      4.466000
C          -1.352000     10.573000      5.921000
C          -1.494000     11.802000      6.635000
C          -6.525000     10.485000      3.528000
C          -3.545000     12.061000      9.488000
C          -4.802000     13.951000      7.761000
C          -2.049000     10.586000      8.640000
C          -7.078000     11.581000      9.213000
C          -6.834000      8.514000      4.658000
C          -5.314000     14.112000      6.456000
C          -5.619000     11.516000      3.327000
C          -4.029000      9.763000      9.755000
C          -4.664000      8.860000      3.569000
C          -5.115000      8.029000      8.825000
C          -2.830000      8.513000      4.760000
C          -7.742000      9.447000      5.114000
C          -6.072000      9.157000      3.682000
C          -7.736000     10.535000      8.525000
C          -5.830000     11.349000      9.839000
C          -1.556000      9.371000      6.623000
C          -6.178000      7.600000      5.506000
C          -3.539000     12.334000      3.809000
C          -1.892000     11.783000      7.985000
C          -1.865000     10.730000      4.649000
C          -5.393000     10.025000      9.882000
C          -2.792000      8.327000      8.269000
O         -11.098000      8.472000     10.304000
C         -10.966000      9.543000      9.399000
H         -11.983000      9.900000      9.194000
H         -10.508000      9.367000      8.418000
H         -10.364000     10.387000      9.757000
O          -8.917000      8.180000     11.046000
C         -10.109000      7.885000     11.085000
C         -10.644000      6.788000     11.959000
H          -9.921000      6.675000     12.776000
H         -10.496000      5.837000     11.432000
C         -12.161000      6.895000     12.417000
H         -12.300000      6.386000     13.379000
H         -12.254000      7.911000     12.821000
C         -13.260000      6.507000     11.431000
H         -14.286000      6.681000     11.776000
H         -13.148000      7.215000     10.600000
C         -13.142000      5.091000     10.831000
C         -13.430000      4.021000     11.840000
C         -14.711000      3.768000     12.324000
H         -15.579000      4.181000     11.819000
C         -14.927000      2.980000     13.439000
H         -15.939000      2.918000     13.827000
C         -13.853000      2.248000     13.999000
H         -14.094000      1.624000     14.854000
C         -12.574000      2.352000     13.437000
H         -11.746000      1.761000     13.818000
C         -12.343000      3.301000     12.369000
H         -11.358000      3.499000     11.957000
C         -10.160000      1.695000      7.632000
C         -12.464000      0.934000      7.395000
C         -13.138000      2.222000      3.133000
C          -9.941000      6.713000      6.498000
C         -14.938000      5.163000      4.053000
C         -11.445000      1.524000      8.175000
C         -11.935000      7.223000      4.521000
C         -11.152000      1.240000      4.237000
C         -15.137000      3.905000      7.937000
C         -11.193000      7.248000      6.857000
C         -13.628000      4.927000      9.403000
C         -15.079000      5.290000      7.620000
C         -13.430000      7.249000      6.474000
C         -12.933000      6.585000      3.818000
C         -13.468000      2.385000      8.842000
C         -12.975000      4.481000      2.694000
C         -12.155000      4.923000      9.655000
C         -11.286000      5.901000      8.962000
C         -14.297000      4.183000      3.188000
C          -9.268000      4.264000      4.125000
C         -10.881000      3.225000      2.958000
C         -10.302000      2.265000      3.691000
C         -10.951000      0.810000      5.550000
C         -10.092000      5.233000      8.442000
C         -14.212000      3.633000      8.936000
C         -12.239000      0.526000      6.082000
C         -12.182000      7.431000      5.937000
C         -13.721000      1.460000      7.801000
C         -15.315000      5.715000      6.255000
C          -8.715000      4.782000      6.433000
C         -12.577000      1.192000      3.984000
C         -14.135000      5.924000      8.406000
C          -9.038000      2.433000      5.760000
C         -14.509000      6.695000      5.709000
C         -15.389000      2.927000      6.888000
C         -10.924000      5.736000      3.233000
C         -10.629000      6.754000      4.128000
C         -15.608000      3.362000      5.567000
C          -9.392000      5.705000      7.286000
C         -11.875000      6.759000      7.990000
C          -8.971000      5.186000      5.148000
C         -11.387000      3.624000      9.364000
C         -14.507000      1.353000      5.460000
C         -13.234000      6.832000      7.773000
C         -15.554000      4.746000      5.280000
C          -8.791000      3.387000      6.778000
C         -14.372000      2.806000      3.502000
C          -9.907000      1.397000      6.268000
C         -12.261000      3.245000      2.648000
C         -14.726000      1.691000      6.836000
C         -15.086000      2.354000      4.705000
C         -12.030000      2.387000      9.068000
C         -10.123000      3.858000      8.752000
C         -10.262000      4.463000      3.178000
C         -13.247000      0.748000      5.132000
C         -14.270000      6.352000      4.350000
C          -9.735000      6.383000      5.188000
C         -12.307000      5.664000      3.019000
C          -9.443000      2.893000      7.933000
C          -9.246000      2.879000      4.476000
$end

--------------------------------------------------------------
 ----------------------------------------------------------------
             Standard Nuclear Orientation (Angstroms)
    I     Atom           X                Y                Z
 ----------------------------------------------------------------
    1      O      -6.8999699309    -7.3710146071    -2.5214962627
    2      C      -6.3860073347    -8.0635453635    -3.7054513299
    3      H      -5.9220819819    -9.0395497231    -3.5150156264
    4      H      -5.5434133004    -7.4965922537    -4.1206939875
    5      H      -7.0819497855    -8.1493605523    -4.5488260144
    6      O      -8.2098990392    -5.8418374051    -3.5700342049
    7      C      -7.6763870008    -6.2639001042    -2.5470894444
    8      C      -7.9910646859    -5.8107669602    -1.1271252518
    9      H      -8.3499411776    -6.6955648384    -0.5877131845
   10      H      -8.8475182679    -5.1253917232    -1.1498639002
   11      C      -6.8558835576    -5.1275064607    -0.3908509171
   12      H      -7.2176826474    -4.9272696760     0.6249289058
   13      H      -5.9788757224    -5.7871596117    -0.4160695097
   14      C      -6.5309402126    -3.7212615606    -1.0193165910
   15      H      -6.5370548640    -3.7547592780    -2.1153619888
   16      H      -7.3738406833    -3.1065553061    -0.6809247809
   17      C      -5.1082963749    -3.0454111559    -0.7313170394
   18      C      -3.9712975532    -3.9893521890    -0.9679855953
   19      C      -3.5210126002    -4.1830096626    -2.3057607050
   20      H      -4.0386479339    -3.6341783894    -3.0866338668
   21      C      -2.5113312757    -5.0715031916    -2.5643798687
   22      H      -2.0681582413    -5.1392421543    -3.5530375924
   23      C      -1.8844952119    -5.7174411673    -1.5010310639
   24      H      -1.0320148725    -6.3899974086    -1.5353001929
   25      C      -2.3983805606    -5.6678852878    -0.2181350964
   26      H      -1.8658415718    -6.3159273070     0.4708734425
   27      C      -3.4623986465    -4.8237420137     0.0435778102
   28      H      -3.7666866750    -4.7097578356     1.0792816302
   29      C      -2.5888720663     0.2643415783     2.7556356404
   30      C      -1.4586192947     0.6925182100     0.7014953228
   31      C      -3.0462508653     4.8563377008     0.0452345178
   32      C      -7.5750153830     0.8829773436     2.2008946058
   33      C      -5.4697784947     3.7364233168    -2.1560250311
   34      C      -2.0310261886    -0.2180780351     1.6033438833
   35      C      -7.9621235601     2.8813925623     0.2805733116
   36      C      -2.2910309115     3.7645718290     2.1165481354
   37      C      -3.8259509812     0.1352145988    -2.3707361742
   38      C      -7.9535930830     0.5170065748     0.9287840282
   39      C      -4.8907114271    -1.5837017093    -1.1408378376
   40      C      -5.1955295436     0.2295355945    -2.5667134969
   41      C      -7.5022492660     1.0347956692    -1.2631758739
   42      C      -7.3048820086     3.8181108733    -0.5895464208
   43      C      -2.5842494260    -0.7715866878    -0.5379487685
   44      C      -5.2680348000     5.0614119061    -0.2367703008
   45      C      -5.0865502775    -1.9024410094     0.2835151395
   46      C      -6.2463712884    -1.3140611110     0.9816600513
   47      C      -4.7603964416     4.7085163790    -1.4335672944
   48      C      -5.4896407023     3.4821885575     3.3991798418
   49      C      -4.4131149363     4.8392912672     2.0234271349
   50      C      -3.4838823024     4.1461507051     2.7156408832
   51      C      -1.7189372765     2.5030455577     2.3443316724
   52      C      -5.9072920104    -0.8464087978     2.2813702333
   53      C      -3.6010610190    -0.8931775937    -1.4623425353
   54      C      -1.1880880544     2.0532214776     1.0817234986
   55      C      -8.1037772874     1.5028047531    -0.0732781737
   56      C      -1.7354275511     0.3577111439    -0.6136246024
   57      C      -5.6688919273     1.5507254241    -2.7599658914
   58      C      -5.8081103663     1.1245379411     3.6710136961
   59      C      -2.0912404347     4.1104309861     0.7369600777
   60      C      -5.8956339396    -0.7047818364    -1.7572156446
   61      C      -3.5927444854     1.9745245419     3.8384257389
   62      C      -6.8526867185     1.9523652922    -2.1589930896
   63      C      -2.9502858222     1.2376355499    -2.4665880184
   64      C      -6.7711963019     4.3982640365     1.5423998435
   65      C      -7.6418784113     3.2686402098     1.6215432234
   66      C      -3.4755510113     2.5180300741    -2.7117233759
   67      C      -6.5607704666     0.1847078415     2.9383035507
   68      C      -7.2543296378    -0.5894969087     0.2823177298
   69      C      -6.3433413107     2.3815957375     3.4473744047
   70      C      -3.9804825070    -1.6673060109     1.2950528894
   71      C      -1.7417144299     2.6774728931    -1.2198752950
   72      C      -7.0618503763    -0.2474902560    -1.0730689985
   73      C      -4.8467794989     2.6853227958    -2.8379912663
   74      C      -4.4631479842     0.8962531048     3.7629442357
   75      C      -3.3678650585     4.5128885038    -1.2575670633
   76      C      -2.4315672134     1.6242578260     3.1354566280
   77      C      -4.2404705428     5.1755455758     0.6664628932
   78      C      -1.9032326377     1.3585648784    -1.5903918496
   79      C      -2.7207637743     3.3971767995    -1.9055557368
   80      C      -2.7533017329    -1.1569004264     0.8113820435
   81      C      -4.5776920706    -1.1123206323     2.4520040408
   82      C      -5.7041020016     4.4781536649     2.4557187372
   83      C      -1.4363361936     3.0752134542     0.0967045845
   84      C      -6.7838025723     3.3178396506    -1.8008258785
   85      C      -7.3771383221     2.2472018903     2.5531233029
   86      C      -6.5749329926     4.7226815716     0.2149828117
   87      C      -3.8161586894    -0.1815417605     3.1587653874
   88      C      -4.1151714015     3.2750885369     3.6197126572
   89      O       0.9590411644    -3.2731337918     1.4924991817
   90      C       0.0390167846    -3.2152065745     0.4277505831
   91      H       0.3948130520    -3.9289121083    -0.3257720954
   92      H      -0.1104564623    -2.2682158403    -0.1051352375
   93      H      -0.9957525006    -3.4682005192     0.6888072635
   94      O      -0.1736336078    -2.1586037452     3.1858566855
   95      C       0.8010102438    -2.7913213613     2.7869233818
   96      C       1.9929005022    -3.0754068673     3.6542197771
   97      H       1.6306820106    -3.0263419605     4.6883268312
   98      H       2.6428631148    -2.1916405922     3.6309867543
   99      C       2.8568417299    -4.3622014034     3.3074239049
  100      H       3.3422653511    -4.7445764573     4.2140656346
  101      H       2.1216353061    -5.1732695933     3.2315232751
  102      C       3.8449913449    -4.2980401921     2.1455354949
  103      H       4.3499478102    -5.2405592158     1.9033499090
  104      H       3.2211046836    -4.1099902944     1.2624886842
  105      C       4.8768605293    -3.1538033968     2.2158785291
  106      C       5.8936027491    -3.3716983943     3.2950828788
  107      C       6.8914697369    -4.3388366845     3.2049108076
  108      H       7.1101823183    -4.8133527996     2.2530614166
  109      C       7.6430788673    -4.7158736766     4.3020670507
  110      H       8.3237027519    -5.5536142794     4.1859903078
  111      C       7.5450224351    -3.9784965538     5.5060437592
  112      H       8.1838472504    -4.3056403338     6.3205140181
  113      C       6.6647192833    -2.8916029793     5.5849723267
  114      H       6.6098993163    -2.2802962027     6.4812562081
  115      C       5.7780233901    -2.6143100149     4.4752583973
  116      H       5.0079873897    -1.8494858452     4.5107766686
  117      C       5.6647810288     2.3266023506     2.1604246745
  118      C       7.6973760575     1.3809309431     1.2023176667
  119      C       7.1074491209     2.7456706070    -3.0482512199
  120      C       1.6068270250     0.5550514602    -0.4680459352
  121      C       5.9346487254    -0.4358372901    -4.1610978999
  122      C       6.6011497788     1.2810500504     2.0872881482
  123      C       2.4511505276     0.1593730267    -3.1653077690
  124      C       6.6359181500     3.8799170718    -0.8991864231
  125      C       7.0457417273    -2.1556808546    -0.6234105967
  126      C       1.9708760695    -0.7242742520    -0.9300026596
  127      C       5.3068660800    -2.5583314665     0.8881796149
  128      C       5.9272429243    -2.6438939882    -1.3532642559
  129      C       3.3662190357    -1.9324998373    -2.2506343046
  130      C       3.5718457321     0.2528671757    -3.9606429830
  131      C       7.1921813284    -0.8343668945     1.4131725373
  132      C       5.2405070281     1.9481197631    -4.1440663837
  133      C       4.3906831462    -1.7609303778     1.7588169305
  134      C       3.0834350059    -1.3069854340     1.2325752676
  135      C       6.2991341301     0.9720439542    -4.2283793367
  136      C       3.0973110241     3.6019857778    -1.2271952701
  137      C       4.9147098015     3.7748237337    -2.5350055486
  138      C       5.3039711678     4.2131035388    -1.3306316859
  139      C       6.8477419144     3.4722072898     0.4192116300
  140      C       2.8593227759     0.0959421478     1.5844671667
  141      C       6.6818200793    -2.0011656732     0.7074898852
  142      C       7.8742468199     2.4888118161     0.3762579202
  143      C       2.4443621307    -0.9196437625    -2.1931937395
  144      C       8.0716271110     0.0759589716     0.7797714534
  145      C       5.7411200534    -2.2260434622    -2.7281479655
  146      C       2.3498683520     2.3618794814     0.7233079536
  147      C       7.5627563477     3.1403070869    -1.7303819631
  148      C       4.8434719876    -2.8175937264    -0.5129327988
  149      C       4.3858250254     3.7433301959     0.8700504055
  150      C       4.4717954457    -1.8979538628    -3.1632620367
  151      C       7.9659580397    -1.2130299413    -1.2438944355
  152      C       2.9802667986     2.3060156535    -3.2300797116
  153      C       2.0017951140     1.4590195487    -2.7305151402
  154      C       7.7614569903    -0.8147620338    -2.5787311276
  155      C       2.0523726354     0.9670476780     0.7850132117
  156      C       2.7798449632    -1.5619627502    -0.1351559393
  157      C       2.1927211112     2.7316444441    -0.5876289698
  158      C       4.9256935737    -0.4393573591     2.3325020348
  159      C       8.6434228320     0.9762935608    -1.4500207524
  160      C       3.5709938681    -2.3419861731    -0.9505980709
  161      C       6.6462683330    -1.3222857277    -3.2854948497
  162      C       3.4874459482     2.8275940350     1.4715413176
  163      C       7.4219930787     1.4470427371    -3.5115014267
  164      C       5.7381863153     3.4255069026     1.2658133346
  165      C       5.7602734428     3.0620053969    -3.4169421378
  166      C       8.5175567344    -0.1282506553    -0.5446364140
  167      C       8.2221091772     0.5297267015    -2.6870898064
  168      C       6.2931337135    -0.0474112705     2.2446400546
  169      C       3.9531464643     0.6003122539     2.3171652865
  170      C       3.5613907891     3.4107894998    -2.5204547007
  171      C       8.3290959548     2.2786517974    -0.9340065688
  172      C       4.5890997950    -0.7878712590    -4.0439477368
  173      C       1.7346292670     1.6092190574    -1.3281815430
  174      C       3.8996749464     1.5830350334    -4.0018676882
  175      C       4.2816155236     1.9989502508     2.2996772754
  176      C       4.1659029049     4.1217030865    -0.4335232274
 ----------------------------------------------------------------
 Molecular Point Group                 C1    NOp =  1
 Largest Abelian Subgroup              C1    NOp =  1
 Nuclear Repulsion Energy = 35134.5006820419 hartrees
 There are      462 alpha and      462 beta electrons
 Requested basis set is 6-31G(d,p)
 There are 676 shells and 2360 basis functions

 Total QAlloc Memory Limit  20000 MB
 Mega-Array Size      4888 MB
 MEM_STATIC part      5000 MB
 A cutoff of  1.0D-08 yielded  38694 shell pairs
 There are    538418 function pairs
 
 -------------------------------------------------------
 OpenMP Integral Computing Module                       
 Release: version 1.0, May 2013, Q-Chem Inc. Pittsburgh 
 -------------------------------------------------------
 Integral Job Info:
 Integral job number is                      11
 Integral operator is                         1
 short-range coefficients                     0
 long-range coefficients              100000000
 Omega coefficients                           0
 if combine SR and LR in K                    0
 Integral screening is                        0
 Integral computing path is                   2
 max size of driver memory is            800000
 size of driver memory is                593474
 size of scratch memory is              2260544
 max col of scratch BK array               1296
 max len of scratch array in speh3          155
 max len of scratch index in speh4           18
 max int batch size is                      520
 min int batch size is                       52
 fixed nKL is                                52
 max L of basis functions is                  2
 order of int derivative is                   0
 number of shells is                        676
 number of basis is                        2360
 number of cartesian basis is              2360
 number of contracted shell pairs         38694
 number of primitive shell pairs         116113
 maxK2 (contraction) of shell pair           36
 max number of K2 of shell pair               1
 max number of CS2 of shell pair           7319
 max number of PS2 of shell pair          34938
 mem total for path MDJ                 1528584
 -------------------------------------------------------
 Smallest overlap matrix eigenvalue = 2.48E-04

 Scale SEOQF with 1.000000e-02/1.000000e-02/1.000000e-02

 Standard Electronic Orientation quadrupole field applied
 Nucleus-field energy     =     0.0000001013 hartrees
 Guess from superposition of atomic densities
 Warning:  Energy on first SCF cycle will be non-variational
 A restricted hybrid HF-DFT SCF calculation will be
 performed using Pulay DIIS extrapolation
 Exchange:     0.2000 Hartree-Fock + 0.0800 Slater + 0.7200 B88
 Correlation:  0.1900 VWN1RPA + 0.8100 LYP
 Using SG-1 standard quadrature grid
 SCF converges when DIIS error is below 1.0E-05
 using 16 threads for integral computing 
 -------------------------------------------------------
 OpenMP BLAS3 based DFT computing Module                
 Release: version 1.0, May 2013, Q-Chem Inc. Pittsburgh 
 -------------------------------------------------------
 ---------------------------------------
  Cycle       Energy         DIIS Error
 ---------------------------------------
    1   -5857.7433551485      1.82E-02
    2   -5803.1381689066      1.29E-03
    3   -5802.2031424744      1.85E-03
    4   -5803.8960909958      7.26E-04
    5   -5804.1952573102      3.29E-04
    6   -5804.2635516889      1.55E-04
    7   -5804.2796953814      5.32E-05
    8   -5804.2810129564      3.43E-05
    9   -5804.2818959683      9.97E-06 Convergence criterion met
 ---------------------------------------
 SCF time:  CPU 7487.84 s  wall 860.18 s
 SCF   energy in the final basis set = -5804.2818959683
 Total energy in the final basis set = -5804.2818959683
 
 --------------------------------------------------------------
 
                    Orbital Energies (a.u.)
 --------------------------------------------------------------
 
 Alpha MOs
 -- Occupied --
-19.196 -19.195 -19.142 -19.134 -10.326 -10.320 -10.253 -10.247
-10.243 -10.242 -10.240 -10.239 -10.235 -10.235 -10.234 -10.232
-10.230 -10.230 -10.229 -10.226 -10.226 -10.225 -10.225 -10.225
-10.224 -10.224 -10.224 -10.224 -10.223 -10.222 -10.222 -10.221
-10.221 -10.220 -10.220 -10.219 -10.219 -10.219 -10.219 -10.219
-10.219 -10.219 -10.218 -10.218 -10.218 -10.218 -10.218 -10.218
-10.218 -10.218 -10.217 -10.217 -10.217 -10.217 -10.217 -10.217
-10.217 -10.217 -10.216 -10.216 -10.216 -10.216 -10.216 -10.216
-10.216 -10.215 -10.215 -10.215 -10.215 -10.215 -10.215 -10.215
-10.214 -10.214 -10.214 -10.214 -10.214 -10.214 -10.214 -10.214
-10.213 -10.213 -10.213 -10.213 -10.213 -10.213 -10.212 -10.212
-10.212 -10.212 -10.212 -10.212 -10.212 -10.212 -10.212 -10.212
-10.211 -10.211 -10.211 -10.211 -10.211 -10.210 -10.210 -10.210
-10.210 -10.210 -10.209 -10.209 -10.209 -10.209 -10.208 -10.208
-10.208 -10.208 -10.208 -10.208 -10.208 -10.208 -10.207 -10.207
-10.207 -10.207 -10.206 -10.206 -10.206 -10.206 -10.206 -10.205
-10.205 -10.205 -10.205 -10.205 -10.204 -10.204 -10.204 -10.204
-10.204 -10.204 -10.203 -10.203 -10.203 -10.203 -10.203 -10.202
-10.201 -10.200 -10.200 -10.200  -1.091  -1.089  -1.014  -1.003
 -0.982  -0.979  -0.965  -0.963  -0.962  -0.960  -0.956  -0.954
 -0.935  -0.933  -0.926  -0.924  -0.922  -0.922  -0.920  -0.919
 -0.918  -0.912  -0.896  -0.892  -0.888  -0.888  -0.886  -0.881
 -0.876  -0.872  -0.862  -0.853  -0.839  -0.838  -0.838  -0.834
 -0.833  -0.830  -0.819  -0.817  -0.809  -0.804  -0.796  -0.794
 -0.793  -0.793  -0.793  -0.792  -0.790  -0.786  -0.782  -0.780
 -0.769  -0.768  -0.768  -0.767  -0.766  -0.765  -0.764  -0.763
 -0.760  -0.751  -0.747  -0.744  -0.733  -0.730  -0.716  -0.713
 -0.713  -0.712  -0.711  -0.710  -0.709  -0.709  -0.708  -0.707
 -0.706  -0.706  -0.704  -0.704  -0.701  -0.701  -0.674  -0.671
 -0.657  -0.655  -0.654  -0.653  -0.648  -0.648  -0.634  -0.630
 -0.629  -0.627  -0.625  -0.622  -0.620  -0.620  -0.617  -0.617
 -0.616  -0.615  -0.614  -0.612  -0.611  -0.610  -0.609  -0.608
 -0.605  -0.604  -0.600  -0.599  -0.577  -0.572  -0.565  -0.564
 -0.563  -0.560  -0.556  -0.556  -0.554  -0.554  -0.551  -0.551
 -0.538  -0.537  -0.533  -0.530  -0.529  -0.525  -0.524  -0.524
 -0.522  -0.521  -0.519  -0.515  -0.514  -0.514  -0.511  -0.510
 -0.507  -0.506  -0.502  -0.498  -0.495  -0.489  -0.486  -0.485
 -0.483  -0.481  -0.480  -0.479  -0.478  -0.476  -0.474  -0.473
 -0.471  -0.470  -0.468  -0.467  -0.467  -0.467  -0.466  -0.465
 -0.464  -0.463  -0.462  -0.461  -0.461  -0.460  -0.458  -0.457
 -0.455  -0.452  -0.452  -0.450  -0.449  -0.449  -0.444  -0.442
 -0.440  -0.439  -0.439  -0.437  -0.437  -0.435  -0.434  -0.433
 -0.433  -0.432  -0.428  -0.428  -0.427  -0.425  -0.425  -0.424
 -0.422  -0.421  -0.419  -0.419  -0.419  -0.417  -0.417  -0.417
 -0.416  -0.416  -0.415  -0.415  -0.413  -0.413  -0.413  -0.412
 -0.410  -0.410  -0.408  -0.407  -0.401  -0.396  -0.396  -0.395
 -0.395  -0.392  -0.391  -0.391  -0.390  -0.386  -0.384  -0.383
 -0.381  -0.380  -0.377  -0.374  -0.370  -0.369  -0.368  -0.366
 -0.365  -0.364  -0.363  -0.361  -0.360  -0.360  -0.358  -0.357
 -0.356  -0.356  -0.355  -0.354  -0.353  -0.352  -0.352  -0.350
 -0.350  -0.347  -0.347  -0.346  -0.346  -0.345  -0.343  -0.342
 -0.342  -0.341  -0.341  -0.339  -0.337  -0.337  -0.334  -0.333
 -0.332  -0.330  -0.329  -0.327  -0.326  -0.325  -0.323  -0.322
 -0.311  -0.305  -0.300  -0.298  -0.286  -0.285  -0.274  -0.272
 -0.269  -0.269  -0.267  -0.266  -0.266  -0.265  -0.263  -0.263
 -0.261  -0.259  -0.258  -0.258  -0.258  -0.256  -0.256  -0.253
 -0.252  -0.249  -0.244  -0.242  -0.218  -0.217  -0.214  -0.210
 -0.208  -0.206  -0.204  -0.202  -0.199  -0.198
 -- Virtual --
 -0.124  -0.122  -0.118  -0.116  -0.112  -0.104  -0.085  -0.074
 -0.072  -0.069  -0.063  -0.058  -0.056  -0.051  -0.024  -0.023
 -0.021  -0.020  -0.019  -0.018  -0.017  -0.016  -0.015  -0.015
 -0.012  -0.010  -0.009  -0.007  -0.006  -0.004  -0.002   0.000
  0.002   0.006   0.031   0.037   0.039   0.041   0.046   0.047
  0.049   0.052   0.053   0.057   0.062   0.063   0.068   0.069
  0.070   0.072   0.075   0.079   0.079   0.084   0.087   0.088
  0.089   0.094   0.095   0.098   0.100   0.103   0.104   0.106
  0.108   0.109   0.111   0.113   0.113   0.116   0.119   0.121
  0.122   0.123   0.125   0.126   0.128   0.130   0.132   0.133
  0.137   0.139   0.145   0.147   0.150   0.151   0.152   0.153
  0.157   0.158   0.159   0.160   0.162   0.164   0.165   0.167
  0.170   0.171   0.172   0.177   0.178   0.179   0.181   0.182
  0.183   0.184   0.185   0.187   0.188   0.189   0.190   0.192
  0.194   0.194   0.197   0.197   0.198   0.201   0.203   0.204
  0.208   0.208   0.209   0.212   0.214   0.214   0.216   0.217
  0.218   0.220   0.221   0.222   0.225   0.226   0.229   0.229
  0.230   0.231   0.232   0.232   0.234   0.237   0.237   0.240
  0.241   0.242   0.244   0.247   0.248   0.252   0.257   0.257
  0.260   0.265   0.266   0.269   0.271   0.273   0.274   0.279
  0.281   0.283   0.286   0.287   0.292   0.292   0.294   0.298
  0.305   0.309   0.310   0.312   0.313   0.314   0.316   0.318
  0.320   0.321   0.323   0.324   0.325   0.326   0.330   0.332
  0.335   0.336   0.336   0.340   0.340   0.342   0.344   0.346
  0.347   0.352   0.353   0.358   0.359   0.373   0.375   0.388
  0.392   0.392   0.394   0.396   0.398   0.401   0.402   0.405
  0.407   0.408   0.410   0.412   0.416   0.419   0.421   0.422
  0.423   0.427   0.429   0.430   0.435   0.438   0.439   0.440
  0.443   0.444   0.446   0.450   0.455   0.456   0.459   0.461
  0.464   0.465   0.465   0.467   0.469   0.469   0.470   0.470
  0.473   0.474   0.477   0.478   0.478   0.480   0.482   0.482
  0.485   0.485   0.486   0.487   0.488   0.491   0.492   0.492
  0.493   0.494   0.495   0.497   0.499   0.500   0.500   0.501
  0.502   0.504   0.505   0.506   0.507   0.509   0.510   0.510
  0.511   0.512   0.514   0.514   0.515   0.516   0.516   0.517
  0.518   0.519   0.520   0.520   0.520   0.521   0.522   0.524
  0.525   0.525   0.526   0.527   0.528   0.529   0.530   0.531
  0.532   0.534   0.534   0.534   0.535   0.536   0.536   0.538
  0.538   0.540   0.540   0.542   0.542   0.543   0.543   0.544
  0.545   0.546   0.546   0.547   0.548   0.549   0.551   0.551
  0.551   0.552   0.552   0.553   0.554   0.555   0.556   0.556
  0.557   0.558   0.559   0.561   0.561   0.562   0.562   0.563
  0.563   0.564   0.565   0.566   0.567   0.568   0.568   0.570
  0.572   0.572   0.573   0.575   0.576   0.576   0.577   0.578
  0.579   0.581   0.581   0.582   0.583   0.584   0.584   0.586
  0.586   0.587   0.587   0.588   0.589   0.589   0.590   0.591
  0.592   0.593   0.594   0.594   0.595   0.597   0.598   0.598
  0.599   0.601   0.602   0.603   0.603   0.604   0.604   0.606
  0.607   0.609   0.609   0.610   0.613   0.613   0.615   0.615
  0.617   0.618   0.619   0.619   0.620   0.623   0.623   0.624
  0.626   0.627   0.628   0.630   0.631   0.632   0.633   0.634
  0.634   0.635   0.637   0.638   0.638   0.639   0.641   0.641
  0.643   0.643   0.644   0.645   0.646   0.647   0.649   0.649
  0.650   0.652   0.653   0.653   0.654   0.654   0.656   0.656
  0.658   0.659   0.660   0.660   0.661   0.662   0.662   0.663
  0.664   0.665   0.666   0.668   0.669   0.670   0.670   0.671
  0.672   0.673   0.673   0.674   0.675   0.676   0.677   0.677
  0.680   0.682   0.683   0.683   0.685   0.686   0.687   0.687
  0.689   0.691   0.692   0.693   0.694   0.694   0.696   0.697
  0.698   0.700   0.701   0.701   0.702   0.703   0.705   0.706
  0.707   0.708   0.710   0.711   0.712   0.713   0.715   0.715
  0.717   0.718   0.719   0.719   0.721   0.722   0.724   0.726
  0.727   0.728   0.730   0.731   0.732   0.733   0.735   0.736
  0.737   0.738   0.739   0.742   0.743   0.744   0.746   0.747
  0.749   0.750   0.751   0.753   0.754   0.756   0.759   0.759
  0.760   0.762   0.762   0.763   0.765   0.767   0.768   0.769
  0.771   0.772   0.774   0.776   0.777   0.779   0.780   0.781
  0.782   0.783   0.784   0.785   0.787   0.787   0.788   0.789
  0.791   0.792   0.794   0.795   0.795   0.798   0.799   0.801
  0.801   0.802   0.803   0.804   0.805   0.806   0.807   0.808
  0.808   0.809   0.809   0.810   0.810   0.811   0.812   0.813
  0.814   0.814   0.814   0.816   0.817   0.818   0.819   0.819
  0.820   0.821   0.822   0.822   0.823   0.825   0.826   0.827
  0.828   0.828   0.829   0.830   0.831   0.833   0.835   0.837
  0.839   0.840   0.841   0.844   0.845   0.846   0.847   0.849
  0.853   0.855   0.861   0.863   0.866   0.869   0.870   0.873
  0.875   0.876   0.877   0.878   0.882   0.886   0.887   0.890
  0.892   0.894   0.899   0.902   0.903   0.905   0.907   0.911
  0.917   0.919   0.920   0.922   0.923   0.925   0.927   0.929
  0.930   0.931   0.933   0.935   0.936   0.938   0.938   0.940
  0.942   0.944   0.947   0.948   0.951   0.952   0.953   0.957
  0.958   0.959   0.967   0.968   0.970   0.972   0.975   0.976
  0.978   0.979   0.982   0.983   0.986   0.989   0.994   0.995
  0.997   0.998   1.002   1.003   1.004   1.006   1.008   1.009
  1.012   1.015   1.016   1.016   1.019   1.021   1.023   1.024
  1.026   1.028   1.029   1.030   1.033   1.034   1.035   1.036
  1.038   1.039   1.041   1.042   1.044   1.046   1.046   1.048
  1.050   1.051   1.052   1.055   1.055   1.057   1.060   1.061
  1.064   1.065   1.067   1.067   1.068   1.070   1.071   1.074
  1.077   1.079   1.082   1.084   1.085   1.087   1.088   1.089
  1.090   1.093   1.093   1.094   1.097   1.098   1.100   1.103
  1.104   1.105   1.109   1.111   1.113   1.113   1.114   1.116
  1.117   1.119   1.121   1.125   1.126   1.129   1.131   1.131
  1.135   1.136   1.138   1.139   1.142   1.144   1.146   1.147
  1.147   1.149   1.151   1.154   1.156   1.158   1.159   1.161
  1.162   1.164   1.166   1.167   1.169   1.170   1.174   1.175
  1.177   1.178   1.178   1.181   1.182   1.183   1.186   1.188
  1.189   1.191   1.192   1.193   1.195   1.199   1.201   1.205
  1.205   1.209   1.212   1.214   1.216   1.218   1.222   1.226
  1.229   1.231   1.231   1.234   1.239   1.239   1.241   1.245
  1.246   1.250   1.251   1.255   1.257   1.259   1.260   1.262
  1.264   1.265   1.266   1.270   1.271   1.272   1.276   1.278
  1.281   1.284   1.286   1.289   1.290   1.292   1.294   1.296
  1.299   1.300   1.306   1.307   1.308   1.309   1.312   1.313
  1.315   1.317   1.320   1.324   1.327   1.327   1.331   1.331
  1.333   1.337   1.337   1.340   1.342   1.343   1.347   1.351
  1.352   1.353   1.355   1.357   1.361   1.362   1.365   1.368
  1.370   1.371   1.374   1.376   1.377   1.379   1.380   1.386
  1.388   1.389   1.391   1.392   1.394   1.397   1.399   1.401
  1.404   1.406   1.411   1.412   1.414   1.417   1.421   1.424
  1.429   1.432   1.435   1.435   1.438   1.443   1.446   1.449
  1.451   1.455   1.455   1.456   1.457   1.458   1.460   1.464
  1.465   1.466   1.468   1.470   1.471   1.472   1.473   1.474
  1.479   1.481   1.483   1.487   1.488   1.489   1.492   1.493
  1.496   1.497   1.501   1.502   1.507   1.509   1.511   1.515
  1.516   1.518   1.522   1.526   1.528   1.530   1.533   1.538
  1.540   1.542   1.543   1.545   1.551   1.553   1.555   1.557
  1.559   1.561   1.563   1.565   1.566   1.567   1.569   1.570
  1.573   1.576   1.576   1.580   1.582   1.584   1.585   1.587
  1.592   1.594   1.596   1.599   1.604   1.604   1.607   1.611
  1.617   1.619   1.622   1.631   1.633   1.636   1.641   1.642
  1.647   1.652   1.655   1.656   1.661   1.663   1.667   1.668
  1.673   1.675   1.682   1.685   1.690   1.693   1.696   1.699
  1.702   1.703   1.706   1.707   1.708   1.711   1.717   1.718
  1.720   1.721   1.724   1.726   1.727   1.729   1.734   1.734
  1.737   1.738   1.739   1.743   1.745   1.746   1.748   1.750
  1.751   1.751   1.752   1.754   1.755   1.756   1.757   1.758
  1.759   1.761   1.761   1.762   1.764   1.766   1.766   1.768
  1.770   1.773   1.774   1.774   1.775   1.776   1.778   1.780
  1.781   1.782   1.783   1.787   1.789   1.790   1.791   1.792
  1.793   1.794   1.795   1.796   1.796   1.798   1.799   1.799
  1.801   1.803   1.804   1.805   1.806   1.806   1.807   1.810
  1.810   1.812   1.813   1.815   1.817   1.818   1.819   1.822
  1.825   1.825   1.830   1.832   1.833   1.835   1.837   1.839
  1.841   1.844   1.844   1.846   1.848   1.851   1.852   1.854
  1.856   1.856   1.860   1.861   1.862   1.866   1.868   1.869
  1.870   1.873   1.873   1.874   1.878   1.880   1.881   1.883
  1.886   1.887   1.889   1.890   1.893   1.896   1.899   1.900
  1.905   1.906   1.906   1.909   1.911   1.914   1.915   1.918
  1.919   1.924   1.927   1.929   1.930   1.930   1.936   1.936
  1.937   1.940   1.941   1.942   1.943   1.946   1.947   1.948
  1.953   1.955   1.957   1.959   1.961   1.962   1.963   1.965
  1.967   1.971   1.973   1.977   1.978   1.980   1.981   1.981
  1.983   1.986   1.987   1.990   1.992   1.993   1.995   1.996
  1.997   1.998   1.999   2.000   2.002   2.004   2.005   2.007
  2.008   2.009   2.011   2.011   2.012   2.014   2.015   2.016
  2.017   2.018   2.019   2.021   2.022   2.023   2.024   2.025
  2.027   2.028   2.029   2.030   2.031   2.032   2.033   2.034
  2.034   2.038   2.039   2.040   2.043   2.043   2.044   2.046
  2.047   2.048   2.048   2.049   2.051   2.053   2.054   2.055
  2.056   2.057   2.058   2.058   2.062   2.062   2.064   2.066
  2.067   2.068   2.070   2.071   2.073   2.074   2.076   2.077
  2.078   2.079   2.082   2.085   2.086   2.087   2.088   2.090
  2.091   2.091   2.095   2.097   2.098   2.102   2.105   2.107
  2.110   2.112   2.112   2.113   2.115   2.116   2.123   2.124
  2.125   2.128   2.131   2.133   2.135   2.139   2.140   2.143
  2.146   2.152   2.155   2.156   2.159   2.162   2.164   2.168
  2.170   2.172   2.179   2.182   2.187   2.187   2.194   2.199
  2.201   2.205   2.206   2.209   2.212   2.216   2.221   2.222
  2.228   2.231   2.232   2.233   2.236   2.242   2.243   2.248
  2.250   2.250   2.252   2.252   2.256   2.259   2.260   2.264
  2.266   2.267   2.269   2.274   2.276   2.278   2.281   2.282
  2.283   2.284   2.286   2.287   2.289   2.291   2.292   2.295
  2.298   2.301   2.304   2.306   2.308   2.310   2.310   2.312
  2.313   2.317   2.321   2.322   2.324   2.328   2.330   2.331
  2.333   2.335   2.336   2.339   2.341   2.344   2.345   2.347
  2.350   2.351   2.353   2.355   2.357   2.361   2.361   2.364
  2.365   2.367   2.368   2.371   2.372   2.373   2.375   2.376
  2.380   2.381   2.383   2.383   2.385   2.386   2.388   2.389
  2.391   2.392   2.394   2.397   2.399   2.400   2.402   2.403
  2.406   2.408   2.410   2.413   2.415   2.416   2.417   2.420
  2.423   2.425   2.425   2.429   2.431   2.434   2.437   2.438
  2.442   2.444   2.448   2.449   2.451   2.455   2.456   2.457
  2.459   2.463   2.464   2.467   2.469   2.470   2.471   2.474
  2.475   2.476   2.479   2.480   2.482   2.484   2.486   2.487
  2.490   2.491   2.494   2.496   2.498   2.500   2.502   2.503
  2.504   2.508   2.509   2.511   2.514   2.516   2.517   2.518
  2.521   2.521   2.524   2.528   2.531   2.532   2.533   2.537
  2.539   2.545   2.548   2.551   2.553   2.555   2.559   2.560
  2.562   2.564   2.566   2.570   2.573   2.576   2.578   2.579
  2.583   2.589   2.593   2.595   2.598   2.600   2.601   2.602
  2.602   2.606   2.608   2.610   2.613   2.615   2.616   2.620
  2.620   2.621   2.621   2.625   2.625   2.629   2.630   2.631
  2.635   2.636   2.637   2.641   2.641   2.643   2.643   2.646
  2.648   2.649   2.650   2.653   2.655   2.656   2.657   2.659
  2.661   2.662   2.663   2.666   2.668   2.669   2.670   2.672
  2.673   2.675   2.676   2.677   2.680   2.682   2.683   2.685
  2.686   2.686   2.690   2.695   2.697   2.698   2.702   2.704
  2.705   2.706   2.712   2.717   2.720   2.722   2.723   2.724
  2.725   2.727   2.729   2.731   2.732   2.734   2.736   2.738
  2.741   2.744   2.746   2.748   2.750   2.753   2.753   2.754
  2.756   2.758   2.761   2.765   2.765   2.770   2.771   2.774
  2.776   2.780   2.781   2.784   2.786   2.786   2.791   2.793
  2.794   2.799   2.801   2.805   2.808   2.808   2.810   2.812
  2.816   2.820   2.825   2.827   2.831   2.835   2.838   2.839
  2.840   2.844   2.846   2.849   2.850   2.852   2.854   2.856
  2.858   2.860   2.864   2.865   2.865   2.868   2.871   2.873
  2.874   2.876   2.878   2.881   2.882   2.886   2.888   2.889
  2.892   2.895   2.895   2.897   2.899   2.901   2.903   2.903
  2.904   2.906   2.908   2.908   2.913   2.913   2.916   2.917
  2.919   2.920   2.923   2.925   2.928   2.928   2.931   2.933
  2.935   2.936   2.937   2.941   2.943   2.946   2.949   2.951
  2.952   2.955   2.957   2.959   2.961   2.968   2.969   2.971
  2.975   2.978   2.980   2.981   2.986   2.989   2.990   2.995
  3.001   3.007   3.008   3.010   3.014   3.017   3.020   3.021
  3.023   3.025   3.027   3.030   3.030   3.038   3.042   3.044
  3.045   3.048   3.050   3.054   3.057   3.058   3.063   3.064
  3.066   3.070   3.074   3.080   3.083   3.089   3.091   3.099
  3.105   3.111   3.113   3.114   3.125   3.131   3.141   3.146
  3.147   3.148   3.152   3.159   3.168   3.173   3.176   3.183
  3.186   3.195   3.204   3.209   3.222   3.228   3.230   3.234
  3.243   3.250   3.250   3.260   3.266   3.269   3.270   3.279
  3.285   3.289   3.292   3.297   3.299   3.306   3.317   3.318
  3.326   3.326   3.330   3.340   3.344   3.358   3.381   3.382
  3.416   3.418   3.425   3.430   3.436   3.438   3.442   3.448
  3.455   3.465   3.471   3.472   3.477   3.481   3.489   3.493
  3.497   3.499   3.506   3.510   3.513   3.525   3.530   3.532
  3.546   3.550   3.552   3.568   3.576   3.585   3.588   3.594
  3.604   3.624   3.640   3.705   3.856   3.876   3.981   4.052
  4.062   4.070   4.073   4.083   4.084   4.087   4.091   4.096
  4.098   4.100   4.103   4.109   4.110   4.116   4.120   4.120
  4.121   4.127   4.136   4.137   4.142   4.145   4.148   4.155
  4.159   4.161   4.162   4.163   4.168   4.172   4.173   4.177
  4.183   4.192   4.198   4.207   4.217   4.226   4.232   4.241
  4.242   4.248   4.251   4.254   4.254   4.260   4.264   4.267
  4.269   4.273   4.275   4.278   4.283   4.288   4.294   4.297
  4.305   4.314   4.324   4.353   4.374   4.382   4.388   4.393
  4.395   4.399   4.402   4.406   4.408   4.415   4.418   4.419
  4.422   4.422   4.427   4.434   4.440   4.453   4.469   4.478
  4.484   4.501   4.518   4.528   4.537   4.545   4.548   4.551
  4.558   4.565   4.606   4.616   4.625   4.632   4.635   4.643
  4.658   4.674   4.678   4.686   4.688   4.692   4.699   4.701
  4.706   4.708   4.711   4.718   4.756   4.762   4.779   4.792
  4.842   4.845   4.853   4.853   4.864   4.869   4.879   4.884
  4.887   4.913   4.932   4.954   4.960   4.969   4.975   4.981
  4.984   4.992   4.998   5.003   5.132   5.160   5.176   5.180
  5.190   5.193   5.206   5.211   5.293   5.305   5.338   5.344
  5.353   5.369
 --------------------------------------------------------------
 
          Ground-State Mulliken Net Atomic Charges

     Atom                 Charge (a.u.)
  ----------------------------------------
      1 O                    -0.460397
      2 C                    -0.092435
      3 H                     0.129408
      4 H                     0.123563
      5 H                     0.140185
      6 O                    -0.478306
      7 C                     0.592518
      8 C                    -0.241243
      9 H                     0.131002
     10 H                     0.127200
     11 C                    -0.199627
     12 H                     0.108689
     13 H                     0.124312
     14 C                    -0.179318
     15 H                     0.119778
     16 H                     0.112347
     17 C                    -0.007634
     18 C                     0.084811
     19 C                    -0.099540
     20 H                     0.100877
     21 C                    -0.093860
     22 H                     0.095046
     23 C                    -0.080910
     24 H                     0.084828
     25 C                    -0.087328
     26 H                     0.094983
     27 C                    -0.116893
     28 H                     0.097537
     29 C                     0.019836
     30 C                     0.008527
     31 C                    -0.013194
     32 C                     0.008779
     33 C                     0.003938
     34 C                     0.025313
     35 C                    -0.007643
     36 C                    -0.005759
     37 C                     0.022136
     38 C                    -0.017247
     39 C                    -0.089206
     40 C                    -0.008650
     41 C                     0.007605
     42 C                    -0.015652
     43 C                    -0.024313
     44 C                     0.034993
     45 C                    -0.085730
     46 C                     0.042354
     47 C                    -0.017307
     48 C                    -0.005252
     49 C                    -0.001478
     50 C                     0.030237
     51 C                    -0.021004
     52 C                     0.048760
     53 C                     0.037418
     54 C                    -0.030864
     55 C                     0.004216
     56 C                     0.004962
     57 C                    -0.000890
     58 C                    -0.004585
     59 C                     0.013393
     60 C                     0.034052
     61 C                    -0.032429
     62 C                    -0.009664
     63 C                     0.011835
     64 C                     0.001826
     65 C                    -0.021130
     66 C                    -0.026492
     67 C                    -0.034421
     68 C                    -0.054529
     69 C                     0.017965
     70 C                     0.001241
     71 C                     0.011837
     72 C                     0.012350
     73 C                     0.009759
     74 C                     0.014434
     75 C                    -0.012781
     76 C                     0.026178
     77 C                    -0.000426
     78 C                     0.000428
     79 C                    -0.010177
     80 C                    -0.000943
     81 C                    -0.017174
     82 C                    -0.009039
     83 C                     0.003962
     84 C                    -0.008164
     85 C                     0.010127
     86 C                     0.008644
     87 C                     0.014708
     88 C                    -0.016269
     89 O                    -0.468676
     90 C                    -0.094858
     91 H                     0.116312
     92 H                     0.123395
     93 H                     0.128825
     94 O                    -0.468162
     95 C                     0.613898
     96 C                    -0.274198
     97 H                     0.139913
     98 H                     0.145092
     99 C                    -0.189996
    100 H                     0.110734
    101 H                     0.105376
    102 C                    -0.177592
    103 H                     0.107568
    104 H                     0.124022
    105 C                    -0.004519
    106 C                     0.113135
    107 C                    -0.105776
    108 H                     0.088034
    109 C                    -0.088076
    110 H                     0.093201
    111 C                    -0.083173
    112 H                     0.093093
    113 C                    -0.098434
    114 H                     0.095710
    115 C                    -0.115909
    116 H                     0.093889
    117 C                    -0.021314
    118 C                    -0.002613
    119 C                    -0.019793
    120 C                    -0.008459
    121 C                    -0.023159
    122 C                     0.044973
    123 C                    -0.023589
    124 C                    -0.010078
    125 C                     0.000013
    126 C                    -0.017584
    127 C                    -0.106938
    128 C                    -0.001744
    129 C                    -0.010360
    130 C                     0.018386
    131 C                    -0.014869
    132 C                     0.001061
    133 C                    -0.057187
    134 C                    -0.004652
    135 C                    -0.003081
    136 C                    -0.008174
    137 C                     0.037187
    138 C                     0.001848
    139 C                     0.005224
    140 C                    -0.001241
    141 C                     0.050511
    142 C                    -0.008890
    143 C                     0.013011
    144 C                    -0.000029
    145 C                     0.006358
    146 C                    -0.005020
    147 C                    -0.012430
    148 C                     0.021537
    149 C                     0.002582
    150 C                    -0.019661
    151 C                    -0.003152
    152 C                     0.015581
    153 C                    -0.043738
    154 C                     0.006540
    155 C                     0.002093
    156 C                     0.029191
    157 C                     0.018509
    158 C                     0.008899
    159 C                     0.009952
    160 C                     0.003928
    161 C                     0.006832
    162 C                     0.007966
    163 C                     0.001563
    164 C                     0.011661
    165 C                    -0.016982
    166 C                    -0.021544
    167 C                    -0.008191
    168 C                    -0.018417
    169 C                     0.020580
    170 C                    -0.002554
    171 C                     0.015857
    172 C                     0.001356
    173 C                     0.026888
    174 C                     0.017982
    175 C                    -0.030934
    176 C                    -0.023515
  ----------------------------------------
  Sum of atomic charges =     0.000000

 -----------------------------------------------------------------
                    Cartesian Multipole Moments
 -----------------------------------------------------------------
    Charge (ESU x 10^10)
                 0.0000
    Dipole Moment (Debye)
         X       2.6725      Y      -7.0715      Z       1.9619
       Tot       7.8101
    Quadrupole Moments (Debye-Ang)
        XX    -831.1853     XY      -6.2215     YY    -767.4664
        XZ       5.8851     YZ      -4.0484     ZZ    -806.5833
    Octopole Moments (Debye-Ang^2)
       XXX     142.2805    XXY    -196.0722    XYY     -31.6918
       YYY    -605.0358    XXZ     277.4797    XYZ     -23.9977
       YYZ     -19.8283    XZZ      90.6841    YZZ    -147.1192
       ZZZ     100.4940
    Hexadecapole Moments (Debye-Ang^3)
      XXXX -138903.1172   XXXY    -551.9209   XXYY  -29617.6093
      XYYY    1292.7298   YYYY  -42713.6063   XXXZ     -99.4608
      XXYZ   -1121.6899   XYYZ     616.5530   YYYZ     807.2852
      XXZZ  -27476.4718   XYZZ    -170.2035   YYZZ  -11535.3708
      XZZZ    1169.1858   YZZZ      54.7156   ZZZZ  -26407.4251
 -----------------------------------------------------------------
Archival summary:
1\1\mn366\SP\ProcedureUnspecified\6-31G**\428\afmv_a\TueOct917:56:172018TueOct917:56:172018\0\\#,ProcedureUnspecified,6-31G**,\\0,1\O\C,1,1.3902\O,2,1.22858,1,124.821\C,1,1.40836,2,127.982,3,4.18908,0\H,4,1.09677,1,115.27,2,44.1247,0\H,4,1.09686,1,119.461,2,-76.0851,0\H,4,1.09716,1,106.298,2,164.521,0\C,2,1.50117,1,112.464,3,177.465,0\H,8,1.09681,2,105.905,1,158.379,0\H,8,1.09728,2,107.797,1,-94.9093,0\C,8,1.58824,2,117.327,1,28.5217,0\H,11,1.0972,8,110.035,2,152.061,0\H,11,1.09732,8,104.448,2,50.5552,0\C,11,1.52661,8,118.962,2,-78.4195,0\H,14,1.09635,11,115.475,8,175.129,0\H,14,1.09744,11,104.574,8,62.2541,0\C,14,1.54239,11,115.436,8,-54.8333,0\C,17,1.49864,14,112.263,11,-70.588,0\C,18,1.39256,17,122.718,14,-71.7714,0\H,19,1.08583,18,120.305,17,-14.3187,0\C,19,1.38233,18,121.847,17,166.49,0\H,21,1.0856,19,117.808,18,-173.127,0\C,18,1.40706,17,118.035,14,104.502,0\H,23,1.0859,18,117.698,17,5.10563,0\C,21,1.41524,19,119.699,18,9.38154,0\H,25,1.08558,21,116.135,19,178.121,0\C,25,1.40089,21,119.717,19,-1.44484,0\H,27,1.08629,25,120.985,21,176.841,0\C,17,1.51733,14,116.157,11,146.581,0\C,29,1.49441,17,61.6976,14,-106.26,0\C,30,1.4805,29,119.858,17,123.115,0\C,31,1.42403,30,118.342,29,4.68386,0\C,32,1.37815,31,123.179,30,-7.74649,0\C,33,1.3783,32,107.737,31,154.195,0\C,34,1.37077,33,106.255,32,0.537358,0\C,35,1.36309,34,112.231,33,4.59436,0\C,36,1.40805,35,121.606,34,-146.935,0\C,37,1.36654,36,118.048,35,-0.309565,0\C,37,1.39227,36,118.777,35,133.412,0\C,38,1.4206,37,108.152,36,141.799,0\C,40,1.37112,38,108.802,37,-0.241212,0\C,40,1.40884,38,117.291,37,-143.577,0\C,42,1.38724,40,123.564,38,0.526336,0\C,43,1.4015,42,107.272,40,141.306,0\C,44,1.33945,43,110.872,42,1.59491,0\C,44,1.41453,43,116.923,42,-147.27,0\C,33,1.42722,32,121.265,31,7.70517,0\C,47,1.38235,33,118.081,32,130.957,0\C,48,1.422,47,110.353,33,-134.574,0\C,49,1.38838,48,108.908,47,0.408699,0\C,46,1.42815,44,119.533,43,5.70258,0\C,51,1.3969,46,120.089,44,-1.18142,0\C,52,1.37059,51,119.097,46,140.679,0\C,53,1.37741,52,106.132,51,-149.383,0\C,52,1.40131,51,123.435,46,-4.02722,0\C,55,1.38722,52,110.25,51,150.669,0\C,42,1.42895,40,116.917,38,140.391,0\C,57,1.37508,42,123.097,40,-4.31922,0\C,58,1.41684,57,118.613,42,2.08822,0\C,59,1.41533,58,105.725,57,-143.1,0\C,60,1.42825,59,110.612,58,3.64805,0\C,61,1.40546,60,118.66,59,137.973,0\C,62,1.37275,61,124.365,60,5.3118,0\C,62,1.4124,61,119.808,60,-140.861,0\C,64,1.39322,62,121.754,61,0.838931,0\C,65,1.4028,64,118.414,62,140.356,0\C,66,1.40141,65,105.151,64,-138.118,0\C,61,1.41891,60,106.813,59,-2.4682,0\C,68,1.39643,61,116.695,60,145.68,0\C,69,1.39616,68,117.497,61,-139.909,0\C,64,1.42182,62,109.002,61,150.177,0\C,71,1.41231,64,119.638,62,-143.592,0\C,72,1.40356,71,117.056,64,133.116,0\C,73,1.40792,72,108.107,71,-141.338,0\C,74,1.41448,73,119.127,72,145.568,0\C,75,1.39524,74,122.976,73,1.1631,0\C,76,1.38136,75,108.448,74,-141.686,0\C,71,1.41539,64,107.083,62,-0.0624863,0\C,77,1.42185,76,107.742,75,-1.71211,0\C,79,1.39576,77,109.174,76,-0.446311,0\C,63,1.42521,62,119.241,61,-7.81078,0\C,81,1.42373,63,116.996,62,3.07098,0\C,82,1.40985,81,105.922,63,-143.211,0\C,74,1.42534,73,106.976,72,-1.01772,0\C,84,1.38104,74,109.604,73,2.60839,0\C,46,1.43209,44,120.872,43,143.6,0\C,86,1.4142,46,109.131,44,-141.176,0\C,87,1.41434,86,107.329,46,-2.86553,0\C,5,2.76198,4,125.78,1,113.936,0\H,89,1.08549,5,91.0252,4,-76.8503,0\C,89,1.38288,5,98.3055,4,36.2228,0\H,91,1.08638,89,110.063,5,-93.4142,0\C,89,1.38319,5,80.9369,4,154.339,0\H,93,1.08548,89,117.404,5,78.0132,0\C,91,1.39315,89,121.619,5,92.3218,0\H,95,1.08556,91,118.85,89,-179.939,0\C,95,1.36958,91,119.233,89,-11.4108,0\H,97,1.08578,95,122.927,91,-178.931,0\C,93,1.40657,89,120.283,5,-91.8063,0\C,99,1.4966,93,122.364,89,179.164,0\C,100,1.52864,99,124.456,93,-60.6007,0\C,101,1.47266,100,61.4204,99,-102.214,0\C,102,1.47047,101,116.353,100,-118.152,0\C,103,1.4207,102,107.166,101,-137.177,0\C,104,1.38674,103,111.188,102,8.30691,0\C,105,1.39045,104,107.6,103,-1.95064,0\C,106,1.37956,105,119.458,104,143.589,0\C,105,1.41114,104,123.375,103,147.878,0\C,108,1.37064,105,119.97,104,-141.225,0\C,109,1.37945,108,110.213,105,140.664,0\C,110,1.39523,109,106.202,108,0.562097,0\C,108,1.40549,105,119.448,104,-3.04331,0\C,112,1.38715,108,119.681,105,-0.878725,0\C,113,1.39929,112,119.1,108,-133.742,0\C,113,1.40331,112,118.46,108,2.10607,0\C,115,1.38703,113,106.856,112,-146.421,0\C,114,1.40361,113,123.098,112,-5.59991,0\C,117,1.34705,114,116.633,113,137.576,0\C,118,1.37286,117,108.92,114,-138.075,0\C,119,1.38347,118,109.359,117,1.50884,0\C,120,1.38517,119,106.208,118,1.31576,0\C,120,1.39532,119,119.442,118,140.183,0\C,122,1.38221,120,119.672,119,-136.238,0\C,109,1.40852,108,118.14,105,-0.229857,0\C,124,1.38501,109,120.698,108,135.438,0\C,125,1.40363,124,111.824,109,-146.83,0\C,126,1.3681,125,118.6,124,140.128,0\C,127,1.36659,126,119.973,125,-133.996,0\C,128,1.39473,127,106.993,126,145.226,0\C,129,1.36729,128,123.794,127,-144.439,0\C,130,1.38444,129,122.871,128,136.84,0\C,131,1.37349,130,107.898,129,-138.763,0\C,129,1.38779,128,109.453,127,5.19508,0\C,131,1.39371,130,119.065,129,4.3299,0\C,134,1.38855,131,119.69,130,-139.818,0\C,128,1.39492,127,123.955,126,0.814264,0\C,136,1.36662,128,117.683,127,134.401,0\C,137,1.38629,136,122.968,128,9.90294,0\C,133,1.40185,129,107.344,128,-6.7387,0\C,139,1.38058,133,123.771,129,-141.553,0\C,140,1.40379,139,117.042,133,7.83837,0\C,141,1.38831,140,121.812,139,-3.45432,0\C,142,1.35021,141,120.743,140,139.519,0\C,142,1.40521,141,119.555,140,-2.71516,0\C,135,1.40685,134,121.166,131,0.0137834,0\C,145,1.38051,135,120.202,134,136.857,0\C,132,1.40757,131,120.097,130,146.233,0\C,116,1.41335,115,110.363,113,2.32067,0\C,148,1.41032,116,122.844,115,139.785,0\C,107,1.41341,106,121.837,105,-137.635,0\C,150,1.41436,107,121.912,106,1.09332,0\C,137,1.42229,136,106.383,128,-143.338,0\C,132,1.42279,131,111.081,130,-1.97687,0\C,153,1.37678,132,121.457,131,144.359,0\C,154,1.41368,153,119.92,132,-2.4352,0\C,155,1.41306,154,108.706,153,-135.854,0\C,156,1.36907,155,109.282,154,-4.21188,0\C,157,1.41106,156,108.452,155,5.56327,0\C,155,1.43031,154,119.093,153,4.93887,0\C,125,1.4385,124,121.147,109,6.95964,0\C,100,1.60113,99,112.356,93,89.7675,0\H,161,1.09657,100,101.399,99,74.1071,0\H,161,1.09675,100,113.004,99,-169.687,0\C,161,1.57419,100,119.253,99,-49.0023,0\H,164,1.09672,161,105.948,100,-84.1971,0\H,164,1.09769,161,111.269,100,39.2788,0\C,164,1.51578,161,111.306,100,160.352,0\H,167,1.09664,164,111.706,161,169.209,0\H,167,1.09716,164,108.245,161,54.0919,0\C,167,1.52337,164,115.604,161,-68.6358,0\O,170,1.22849,167,125.751,164,116.133,0\O,170,1.35247,167,110.147,164,-75.0099,0\C,172,1.46475,170,124.971,167,178.792,0\H,173,1.0968,172,115.841,170,40.0444,0\H,173,1.09719,172,109.333,170,-76.6116,0\H,173,1.0973,172,115.379,170,169.701,0\\\@

 Total job time:  876.46s(wall), 7515.99s(cpu) 
 Tue Oct  9 17:56:17 2018

        *************************************************************
        *                                                           *
        *  Thank you very much for using Q-Chem.  Have a nice day.  *
        *                                                           *
        *************************************************************


