
Running Job 1 of 1 ./8/19.qcin
qchem ./8/19.qcin_7782.0 /tmpu/cab_g/afmv_a/scratch_qchem/qchem7782/ 1
/tmpu/appuserlic/qchem4.4/serial-multicore/exe/qcprog.exe_s ./8/19.qcin_7782.0 /tmpu/cab_g/afmv_a/scratch_qchem/qchem7782/
Check license passed

                  Welcome to Q-Chem
     A Quantum Leap Into The Future Of Chemistry


 Q-Chem 4.4, Q-Chem, Inc., Pleasanton, CA (2016)

 Y. Shao,  Z. Gan,  E. Epifanovsky,  A. T. B. Gilbert,  M. Wormit,  
 J. Kussmann,  A. W. Lange,  A. Behn,  J. Deng,  X. Feng,  D. Ghosh,  
 M. Goldey,  P. R. Horn,  L. D. Jacobson,  I. Kaliman,  F. Rob,  
 R. Z. Khaliullin,  T. Kus,  A. Landau,  J. Liu,  E. I. Proynov,  Y. M. Rhee,  
 R. M. Richard,  M. A. Rohrdanz,  R. P. Steele,  E. J. Sundstrom,  
 H. L. Woodcock III,  P. M. Zimmerman,  D. Zuev,  B. Albrecht,  E. Alguire,  
 B. Austin,  S. A. Baeppler,  G. J. O. Beran,  Y. A. Bernard,  E. Berquist,  
 K. Brandhorst,  K. B. Bravaya,  S. T. Brown,  D. Casanova,  C.-M. Chang,  
 Y. Chen,  S. H. Chien,  K. D. Closser,  M. P. Coons,  D. L. Crittenden,  
 S. Dasgupta,  M. Diedenhofen,  R. A. DiStasio Jr.,  H. Do,  A. D. Dutoi,  
 R. G. Edgar,  P.-T. Fang,  S. Fatehi,  Q. Feng,  L. Fusti-Molnar,  
 A. Ghysels,  A. Golubeva-Zadorozhnaya,  J. Gomes,  A. Gunina,  
 M. W. D. Hanson-Heine,  P. H. P. Harbach,  A. W. Hauser,  J. E. Herr,  
 E. G. Hohenstein,  Z. C. Holden,  K. Hui,  T.-C. Jagau,  H. Ji,  B. Kaduk,  
 K. Khistyaev,  Jaehoon Kim,  Jihan Kim,  R. A. King,  P. Klunzinger,  
 K. Koh,  D. Kosenkov,  T. Kowalczyk,  C. M. Krauter,  A. Kunitsa,  
 K. U. Lao,  A. Laurent,  K. V. Lawler,  J. Lee,  D. Lefrancois,  S. Lehtola,  
 S. V. Levchenko,  C. Y. Lin,  Y.-S. Lin,  F. Liu,  E. Livshits,  
 R. C. Lochan,  A. Luenser,  P. Manohar,  S. F. Manzer,  S.-P. Mao,  Y. Mao,  
 N. Mardirossian,  A. V. Marenich,  L. A. Martinez-Martinez,  S. A. Maurer,  
 N. J. Mayhall,  J.-M. Mewes,  A. F. Morrison,  K. Nanda,  T. S. Nguyen-Beck,  
 C. M. Oana,  R. Olivares-Amaya,  D. P. O'Neill,  J. A. Parkhill,  
 T. M. Perrine,  R. Peverati,  P. A. Pieniazek,  F. Plasser,  A. Prociuk,  
 D. R. Rehn,  E. Rosta,  N. J. Russ,  N. Sergueev,  S. M. Sharada,  
 S. Sharma,  D. W. Small,  A. Sodt,  T. Stauch,  T. Stein,  D. Stuck,  
 Y.-C. Su,  A. J. W. Thom,  T. Tsuchimochi,  L. Vogt,  O. Vydrov,  T. Wang,  
 M. A. Watson,  J. Wenzel,  A. White,  C. F. Williams,  V. Vanovschi,  
 K. Yao,  S. Yeganeh,  S. R. Yost,  Z.-Q. You,  I. Y. Zhang,  X. Zhang,  
 Y. Zhao,  B. R. Brooks,  G. K. L. Chan,  D. M. Chipman,  C. J. Cramer,  
 W. A. Goddard III,  M. S. Gordon,  W. J. Hehre,  A. Klamt,  
 H. F. Schaefer III,  M. W. Schmidt,  C. D. Sherrill,  D. G. Truhlar,  
 A. Warshel,  X. Xu,  A. Aspuru-Guzik,  R. Baer,  A. T. Bell,  N. A. Besley,  
 J.-D. Chai,  A. Dreuw,  B. D. Dunietz,  T. R. Furlani,  S. R. Gwaltney,  
 C.-P. Hsu,  Y. Jung,  J. Kong,  D. S. Lambrecht,  W. Liang,  C. Ochsenfeld,  
 V. A. Rassolov,  L. V. Slipchenko,  J. E. Subotnik,  T. Van Voorhis,  
 J. M. Herbert,  A. I. Krylov,  P. M. W. Gill,  M. Head-Gordon

 Contributors to earlier versions of Q-Chem not listed above: 
 R. D. Adamson,  J. Baker,  E. F. C. Byrd,  A. K. Chakraborty,  C.-L. Cheng,  
 H. Dachsel,  R. J. Doerksen,  G. Hawkins,  A. Heyden,  S. Hirata,  
 G. Kedziora,  F. J. Keil,  C. Kelley,  P. P. Korambath,  W. Kurlancheek,  
 A. M. Lee,  M. S. Lee,  D. Liotard,  I. Lotan,  P. E. Maslen,  N. Nair,  
 D. Neuhauser,  R. Olson,  B. Peters,  J. Ritchie,  N. E. Schultz,  
 N. Shenvi,  A. C. Simmonett,  K. S. Thanthiriwatte,  Q. Wu,  W. Zhang

 Please cite Q-Chem as follows:
 Y. Shao et al., Mol. Phys. 113, 184-215 (2015)
 DOI: 10.1080/00268976.2014.952696

 Q-Chem 4.4.2 for Intel X86 Linux

 Parts of Q-Chem use Armadillo 5.200.1 (Boston Tea Smuggler).
 http://arma.sourceforge.net/

 Q-Chem begins on Fri Oct 12 07:17:24 2018  

Host: 
0

     Scratch files written to /tmpu/cab_g/afmv_a/scratch_qchem/qchem7782//
 Dec716 11556_ 22328  22283 4050   
Processing $rem in /tmpu/appuserlic/qchem4.4/serial-multicore/config/preferences.
 MEM_TOTAL  2000 
FILE_GEOM_ORG=        593

Checking the input file for inconsistencies... 	...done.

--------------------------------------------------------------
User input:
--------------------------------------------------------------
$comment
SP
$end

$rem
MEM_STATIC 5000
MEM_TOTAL 20000
JOBTYPE SP
EXCHANGE B3LYP
BASIS 6-31g(d,p)
$end

$molecule
0 1
C           1.814000     11.158000     -2.459000
C           3.060000     11.032000     -1.745000
N           0.982000     10.064000     -2.636000
C           3.540000      9.740000     -1.334000
C           1.439000      8.889000     -2.181000
C           2.701000      8.629000     -1.605000
C           3.150000      7.289000     -1.063000
C           4.513000      6.986000     -0.983000
C           2.230000      6.357000     -0.553000
N           4.993000      5.855000     -0.553000
N           0.915000      6.511000     -0.563000
C           2.715000      5.153000     -0.081000
C           4.138000      4.944000     -0.094000
S           0.318000      5.155000      0.096000
N           1.747000      4.285000      0.267000
C           4.682000      3.600000      0.308000
S           3.772000      2.112000      0.597000
C           6.013000      3.341000      0.434000
C           5.166000      1.313000      1.250000
S           7.310000      4.479000      0.520000
C           6.224000      2.132000      1.125000
C           4.996000      0.085000      2.014000
C           8.222000      3.202000      1.333000
C           7.538000      2.027000      1.645000
N           3.776000     -0.325000      2.325000
S           6.242000     -0.956000      2.670000
C           3.729000     -1.369000      3.249000
C           4.974000     -1.657000      3.644000
C           1.403000     12.415000     -3.158000
H           3.749000     11.848000     -1.547000
H           4.534000      9.635000     -0.908000
H           0.605000      8.196000     -2.278000
H           5.254000      7.583000     -1.514000
H           9.258000      3.397000      1.579000
H           8.086000      1.174000      2.030000
H           2.832000     -1.769000      3.704000
H           5.285000     -2.421000      4.344000
H           0.411000     12.459000     -3.626000
C           2.415000     12.869000     -4.258000
H           1.398000     13.245000     -2.442000
H           3.427000     13.102000     -3.901000
H           2.048000     13.840000     -4.612000
C           2.576000     11.826000     -5.406000
H           3.175000     11.022000     -4.963000
C           3.234000     12.533000     -6.647000
H           1.598000     11.415000     -5.688000
H           4.050000     13.178000     -6.300000
H           2.489000     13.254000     -7.004000
C           3.576000     11.601000     -7.813000
H           4.023000     10.627000     -7.577000
C           4.278000     12.433000     -8.875000
H           2.616000     11.329000     -8.268000
H           4.365000     11.850000     -9.800000
H           5.279000     12.794000     -8.606000
H           3.692000     13.326000     -9.122000
C          -7.950000     -3.326000      1.443000
C          -8.920000     -2.370000      1.075000
N          -6.672000     -3.349000      1.071000
C          -8.431000     -1.291000      0.359000
C          -6.262000     -2.275000      0.374000
C          -7.036000     -1.196000      0.009000
C          -6.482000      0.058000     -0.696000
C          -7.241000      1.209000     -0.918000
C          -5.177000      0.167000     -1.279000
N          -6.852000      2.342000     -1.538000
N          -4.353000     -0.854000     -1.300000
C          -4.754000      1.310000     -1.935000
C          -5.632000      2.405000     -2.039000
S          -3.109000     -0.301000     -2.120000
N          -3.484000      1.241000     -2.418000
C          -5.201000      3.720000     -2.629000
S          -3.624000      4.363000     -2.883000
C          -6.103000      4.705000     -3.045000
C          -4.137000      5.969000     -3.380000
S          -7.877000      4.721000     -3.168000
C          -5.480000      5.901000     -3.456000
C          -3.343000      7.125000     -3.653000
C          -7.693000      6.295000     -4.073000
C          -6.416000      6.750000     -4.074000
N          -2.045000      6.952000     -3.870000
S          -3.888000      8.791000     -3.994000
C          -1.460000      8.071000     -4.236000
C          -2.263000      9.160000     -4.453000
C          -8.364000     -4.585000      2.210000
H          -9.980000     -2.596000      1.134000
H          -9.128000     -0.493000      0.121000
H          -5.189000     -2.214000      0.196000
H          -8.255000      1.254000     -0.522000
H          -8.606000      6.785000     -4.383000
H          -6.237000      7.767000     -4.407000
H          -0.406000      7.927000     -4.431000
H          -1.957000     10.116000     -4.858000
H          -7.964000     -4.537000      3.231000
C          -7.834000     -5.934000      1.621000
H          -9.433000     -4.659000      2.440000
H          -6.755000     -5.953000      1.819000
H          -8.042000     -5.858000      0.547000
C          -8.581000     -7.232000      2.093000
H          -8.030000     -8.137000      1.808000
C         -10.081000     -7.321000      1.766000
H          -8.468000     -7.246000      3.184000
H         -10.107000     -7.209000      0.676000
H         -10.565000     -6.447000      2.221000
C         -10.766000     -8.569000      2.259000
H         -10.377000     -9.432000      1.704000
C         -12.220000     -8.542000      2.138000
H         -10.470000     -8.754000      3.298000
H         -12.580000     -8.393000      1.113000
H         -12.799000     -7.844000      2.755000
H         -12.608000     -9.522000      2.443000
$end

--------------------------------------------------------------
 ----------------------------------------------------------------
             Standard Nuclear Orientation (Angstroms)
    I     Atom           X                Y                Z
 ----------------------------------------------------------------
    1      C       7.7386264985    -2.5868315226    -1.6860493531
    2      C       8.3358787269    -1.3018374864    -1.9511306662
    3      N       6.4344052391    -2.6839460964    -1.2278303376
    4      C       7.6466127587    -0.0888685479    -1.6015540947
    5      C       5.8048845345    -1.5280011597    -0.9748600117
    6      C       6.3444218055    -0.2263663165    -1.0565072298
    7      C       5.5737106362     1.0517342454    -0.8046575780
    8      C       6.2494760589     2.2133398345    -0.4173701538
    9      C       4.1889069296     1.1314326793    -1.0306904383
   10      N       5.6718873832     3.3506267707    -0.1576958451
   11      N       3.4242017719     0.1151750890    -1.3987767484
   12      C       3.5538431323     2.3304634649    -0.7725351584
   13      C       4.3557592142     3.4412096785    -0.3344113781
   14      S       1.9207446324     0.7167032850    -1.4836676152
   15      N       2.2154957665     2.2660810738    -0.8999448760
   16      C       3.6736912733     4.7225610023     0.0615660316
   17      S       1.9411241763     4.9973560234     0.2817113262
   18      C       4.3504283745     5.8600993374     0.3818025562
   19      C       2.1665739378     6.7121386829     0.4110899794
   20      S       6.0146910273     6.2201881559     0.0898867027
   21      C       3.4849805508     6.9712286899     0.3904412265
   22      C       1.0186706015     7.5980965584     0.2770132357
   23      C       5.5435511290     7.9207211138     0.1881560029
   24      C       4.1816540972     8.2017344807     0.2981240088
   25      N      -0.1517844084     7.0971153718    -0.0866815822
   26      S       0.9711883028     9.3367999028     0.4799642434
   27      C      -1.1178045478     8.0488918157    -0.4135572332
   28      C      -0.5733107189     9.2677866280    -0.3309987272
   29      C       8.5067031951    -3.8685053806    -1.7563438036
   30      H       9.3410597453    -1.1498400436    -2.3336079828
   31      H       8.1487206182     0.8708194197    -1.6877150044
   32      H       4.7709134619    -1.7996074586    -0.7690741049
   33      H       7.2787775918     2.1731939738    -0.0618737908
   34      H       6.3250685811     8.6674381934     0.1291553666
   35      H       3.8579000702     9.2197363748     0.4851894347
   36      H      -2.0945695352     7.8391935508    -0.8301995224
   37      H      -1.0546316991    10.2199592056    -0.5102039067
   38      H       7.9706123863    -4.8145295985    -1.6057821090
   39      C       9.7285707433    -3.9102571433    -0.7839465160
   40      H       8.9548606858    -3.9704874315    -2.7514998340
   41      H      10.4990264539    -3.1481115517    -0.9611867349
   42      H      10.2514817626    -4.8475828942    -1.0094027263
   43      C       9.3185124279    -3.7897934411     0.7157250062
   44      H       9.0522711710    -2.7340882317     0.8424850319
   45      C      10.5140761130    -4.2816286073     1.6110571479
   46      H       8.4279693019    -4.3988907251     0.9178696061
   47      H      11.4513535068    -3.8795234119     1.2084251832
   48      H      10.6060972827    -5.3564204085     1.4144110489
   49      C      10.3080027462    -4.0999362218     3.1175981014
   50      H       9.8600241092    -3.1601163783     3.4643470056
   51      C      11.5866074945    -4.5418689187     3.8123911562
   52      H       9.5639560773    -4.8510342002     3.4088975714
   53      H      11.4123509213    -4.6103733027     4.8931431148
   54      H      12.4592377754    -3.8963427027     3.6496173945
   55      H      11.8859683127    -5.5426571006     3.4797350044
   56      C      -9.9493203531    -0.0393106825    -0.6889386552
   57      C      -9.8365957843    -1.4020745323    -1.0359658321
   58      N      -9.0385349398     0.7015837797    -0.0614497495
   59      C      -8.5924353839    -1.9612934936    -0.8006850394
   60      C      -7.8544787157     0.0980568070     0.1414074694
   61      C      -7.5233760244    -1.1892608741    -0.2187677599
   62      C      -6.1125278579    -1.7893010245    -0.0577824527
   63      C      -5.7485131709    -3.0363640554    -0.5701232618
   64      C      -5.0466255702    -1.1982938337     0.6967755725
   65      N      -4.5516183555    -3.6494287721    -0.4652211449
   66      N      -5.2251773055    -0.0882795113     1.3734183748
   67      C      -3.8126404573    -1.8095479180     0.8359272358
   68      C      -3.5918984844    -3.0556828456     0.2201791351
   69      S      -3.8338142450     0.1142525466     2.1142520940
   70      N      -2.9178783320    -1.1025207614     1.5778594020
   71      C      -2.2424560166    -3.7205573217     0.2259199563
   72      S      -0.6781693993    -3.0625447909     0.5173318442
   73      C      -2.0539187924    -5.0731039443    -0.0773230960
   74      C       0.2316244346    -4.5045519137     0.0903603729
   75      S      -3.2010894334    -6.3949544381    -0.3922386286
   76      C      -0.6977478528    -5.4550534313    -0.1261183012
   77      C       1.6454291375    -4.6793254215    -0.0187793679
   78      C      -1.7672947499    -7.5194753672    -0.2920264256
   79      C      -0.5888488544    -6.8554983720    -0.2017223759
   80      N       2.4307936896    -3.7722517472     0.5488841501
   81      S       2.5455613435    -6.1018924565    -0.6145369048
   82      C       3.6973332104    -4.1193675091     0.4878080501
   83      C       3.9865150775    -5.3626093082    -0.0107324967
   84      C     -11.2828289860     0.6916941008    -0.8682504861
   85      H     -10.7176696309    -2.0055169680    -1.2301901960
   86      H      -8.4370779666    -2.9864348139    -1.1234951170
   87      H      -7.0591786886     0.7412841001     0.5162281151
   88      H      -6.4722356177    -3.5906763721    -1.1667811834
   89      H      -1.9625003585    -8.5695152439    -0.4625550968
   90      H       0.3270573024    -7.4207175113    -0.3390622340
   91      H       4.3363154303    -3.3898255377     0.9665013074
   92      H       4.9578517151    -5.8398675901    -0.0288064780
   93      H     -11.1868016580     1.4314291551    -1.6734310880
   94      C     -11.7786206907     1.4980172768     0.3774041697
   95      H     -12.0952391353     0.0826764098    -1.2808328431
   96      H     -11.1122880120     2.3650237807     0.4674401812
   97      H     -11.6469641648     0.8039401117     1.2161171410
   98      C     -13.3029410372     1.8746384127     0.3915816678
   99      H     -13.5273196574     2.6058650963     1.1782282034
  100      C     -14.3016534725     0.7056046964     0.3635880648
  101      H     -13.4569089914     2.4769140670    -0.5121903750
  102      H     -14.0195496742     0.1138410781     1.2419691137
  103      H     -14.0889918547     0.1183296777    -0.5392076423
  104      C     -15.7529685563     1.1097236717     0.3513250551
  105      H     -16.0010091536     1.5767880186     1.3128039981
  106      C     -16.6791894246     0.0094836640     0.1041958813
  107      H     -15.8970812782     1.9068642717    -0.3870247179
  108      H     -16.6064083088    -0.8074110305     0.8320777173
  109      H     -16.6887198045    -0.4760184566    -0.8793339163
  110      H     -17.7023411350     0.3941329720     0.1999794254
 ----------------------------------------------------------------
 Molecular Point Group                 C1    NOp =  1
 Largest Abelian Subgroup              C1    NOp =  1
 Nuclear Repulsion Energy = 10902.4464288227 hartrees
 There are      270 alpha and      270 beta electrons
 Requested basis set is 6-31G(d,p)
 There are 406 shells and 1262 basis functions

 Total QAlloc Memory Limit  20000 MB
 Mega-Array Size      4888 MB
 MEM_STATIC part      5000 MB
 A cutoff of  1.0D-08 yielded  12714 shell pairs
 There are    132567 function pairs
 
 -------------------------------------------------------
 OpenMP Integral Computing Module                       
 Release: version 1.0, May 2013, Q-Chem Inc. Pittsburgh 
 -------------------------------------------------------
 Integral Job Info:
 Integral job number is                      11
 Integral operator is                         1
 short-range coefficients                     0
 long-range coefficients              100000000
 Omega coefficients                           0
 if combine SR and LR in K                    0
 Integral screening is                        0
 Integral computing path is                   2
 max size of driver memory is            800000
 size of driver memory is                593474
 size of scratch memory is             15166112
 max col of scratch BK array               1296
 max len of scratch array in speh3          155
 max len of scratch index in speh4           18
 max int batch size is                      520
 min int batch size is                       52
 fixed nKL is                                52
 max L of basis functions is                  2
 order of int derivative is                   0
 number of shells is                        406
 number of basis is                        1262
 number of cartesian basis is              1262
 number of contracted shell pairs         12714
 number of primitive shell pairs          41746
 maxK2 (contraction) of shell pair           36
 max number of K2 of shell pair               1
 max number of CS2 of shell pair           1274
 max number of PS2 of shell pair           7644
 mem total for path MDJ                  280168
 -------------------------------------------------------
 Smallest overlap matrix eigenvalue = 3.79E-04

 Scale SEOQF with 1.000000e-03/1.000000e-02/1.000000e-01

 Standard Electronic Orientation quadrupole field applied
 Nucleus-field energy     =     0.0000000206 hartrees
 Guess from superposition of atomic densities
 Warning:  Energy on first SCF cycle will be non-variational
 A restricted hybrid HF-DFT SCF calculation will be
 performed using Pulay DIIS extrapolation
 Exchange:     0.2000 Hartree-Fock + 0.0800 Slater + 0.7200 B88
 Correlation:  0.1900 VWN1RPA + 0.8100 LYP
 Using SG-1 standard quadrature grid
 SCF converges when DIIS error is below 1.0E-05
 using 16 threads for integral computing 
 -------------------------------------------------------
 OpenMP BLAS3 based DFT computing Module                
 Release: version 1.0, May 2013, Q-Chem Inc. Pittsburgh 
 -------------------------------------------------------
 ---------------------------------------
  Cycle       Energy         DIIS Error
 ---------------------------------------
    1   -5680.6639094947      2.18E-02
    2   -5662.4832777679      2.17E-03
    3   -5661.2856008174      3.18E-03
    4   -5663.3691076368      8.04E-04
    5   -5663.4713041791      4.18E-04
    6   -5663.4972211977      2.20E-04
    7   -5663.5062622450      6.61E-05
    8   -5663.5070026994      2.81E-05
    9   -5663.5071590507      9.18E-06 Convergence criterion met
 ---------------------------------------
 SCF time:  CPU 946.79 s  wall 78.25 s
 SCF   energy in the final basis set = -5663.5071590507
 Total energy in the final basis set = -5663.5071590507
 
 --------------------------------------------------------------
 
                    Orbital Energies (a.u.)
 --------------------------------------------------------------
 
 Alpha MOs
 -- Occupied --
-88.986 -88.985 -88.926 -88.921 -88.919 -88.912 -88.909 -88.904
-14.391 -14.385 -14.381 -14.379 -14.350 -14.349 -14.336 -14.332
-14.332 -14.328 -10.267 -10.264 -10.263 -10.263 -10.253 -10.252
-10.250 -10.247 -10.238 -10.237 -10.236 -10.234 -10.234 -10.233
-10.231 -10.229 -10.229 -10.227 -10.226 -10.223 -10.222 -10.222
-10.221 -10.221 -10.220 -10.220 -10.220 -10.218 -10.217 -10.217
-10.215 -10.215 -10.208 -10.204 -10.201 -10.200 -10.199 -10.195
-10.190 -10.186 -10.180 -10.180 -10.179 -10.179 -10.176 -10.174
-10.174 -10.173 -10.171 -10.168  -8.043  -8.040  -7.987  -7.983
 -7.978  -7.971  -7.969  -7.963  -6.008  -6.005  -6.003  -6.001
 -5.999  -5.998  -5.951  -5.947  -5.947  -5.944  -5.944  -5.943
 -5.940  -5.939  -5.935  -5.935  -5.934  -5.931  -5.930  -5.928
 -5.928  -5.926  -5.924  -5.919  -1.060  -1.037  -0.974  -0.973
 -0.966  -0.962  -0.945  -0.930  -0.923  -0.917  -0.913  -0.903
 -0.843  -0.839  -0.833  -0.831  -0.808  -0.807  -0.806  -0.805
 -0.805  -0.799  -0.796  -0.795  -0.787  -0.784  -0.770  -0.765
 -0.751  -0.750  -0.741  -0.737  -0.718  -0.718  -0.710  -0.710
 -0.695  -0.695  -0.679  -0.674  -0.659  -0.654  -0.644  -0.641
 -0.639  -0.633  -0.625  -0.619  -0.611  -0.611  -0.601  -0.597
 -0.592  -0.590  -0.582  -0.581  -0.578  -0.576  -0.573  -0.561
 -0.546  -0.544  -0.543  -0.538  -0.524  -0.522  -0.518  -0.515
 -0.512  -0.504  -0.502  -0.495  -0.487  -0.485  -0.481  -0.476
 -0.473  -0.473  -0.470  -0.467  -0.462  -0.461  -0.452  -0.449
 -0.447  -0.442  -0.436  -0.436  -0.435  -0.434  -0.431  -0.429
 -0.426  -0.421  -0.421  -0.419  -0.416  -0.415  -0.415  -0.414
 -0.412  -0.411  -0.409  -0.403  -0.399  -0.398  -0.398  -0.396
 -0.394  -0.394  -0.391  -0.388  -0.387  -0.386  -0.382  -0.380
 -0.379  -0.374  -0.371  -0.369  -0.366  -0.361  -0.360  -0.359
 -0.357  -0.348  -0.348  -0.346  -0.345  -0.344  -0.341  -0.339
 -0.334  -0.332  -0.331  -0.329  -0.329  -0.323  -0.321  -0.319
 -0.316  -0.313  -0.310  -0.309  -0.305  -0.303  -0.302  -0.299
 -0.297  -0.296  -0.290  -0.288  -0.285  -0.282  -0.280  -0.278
 -0.278  -0.272  -0.268  -0.265  -0.255  -0.255  -0.254  -0.247
 -0.239  -0.238  -0.232  -0.229  -0.193  -0.193
 -- Virtual --
 -0.113  -0.107  -0.070  -0.066  -0.040  -0.038  -0.027  -0.024
 -0.013  -0.010  -0.005  -0.002   0.000   0.002   0.004   0.006
  0.009   0.020   0.026   0.027   0.035   0.037   0.040   0.041
  0.055   0.058   0.064   0.066   0.068   0.075   0.084   0.091
  0.094   0.095   0.097   0.101   0.104   0.109   0.111   0.113
  0.115   0.117   0.119   0.121   0.123   0.125   0.126   0.127
  0.132   0.133   0.135   0.136   0.138   0.141   0.142   0.148
  0.152   0.153   0.157   0.158   0.161   0.162   0.167   0.168
  0.169   0.170   0.172   0.176   0.178   0.180   0.181   0.184
  0.186   0.191   0.193   0.195   0.196   0.200   0.202   0.203
  0.204   0.206   0.209   0.210   0.212   0.215   0.217   0.221
  0.223   0.227   0.229   0.230   0.234   0.236   0.237   0.238
  0.241   0.242   0.249   0.250   0.253   0.254   0.257   0.260
  0.266   0.268   0.269   0.272   0.276   0.277   0.282   0.284
  0.286   0.289   0.291   0.294   0.297   0.299   0.302   0.307
  0.312   0.316   0.319   0.321   0.324   0.326   0.328   0.330
  0.332   0.337   0.339   0.341   0.343   0.350   0.350   0.352
  0.353   0.357   0.363   0.364   0.366   0.368   0.371   0.375
  0.375   0.379   0.384   0.390   0.394   0.398   0.402   0.406
  0.412   0.415   0.417   0.423   0.428   0.431   0.434   0.437
  0.441   0.450   0.453   0.456   0.461   0.465   0.468   0.472
  0.480   0.489   0.491   0.491   0.494   0.497   0.498   0.502
  0.502   0.505   0.508   0.511   0.513   0.514   0.516   0.518
  0.520   0.521   0.523   0.527   0.530   0.533   0.535   0.536
  0.538   0.539   0.540   0.541   0.547   0.547   0.549   0.551
  0.554   0.555   0.556   0.559   0.561   0.563   0.564   0.566
  0.569   0.572   0.573   0.574   0.574   0.576   0.580   0.580
  0.585   0.587   0.588   0.593   0.594   0.595   0.597   0.599
  0.601   0.603   0.607   0.608   0.610   0.612   0.616   0.617
  0.619   0.620   0.622   0.627   0.628   0.628   0.630   0.632
  0.634   0.637   0.638   0.642   0.644   0.646   0.649   0.652
  0.655   0.657   0.658   0.660   0.663   0.666   0.672   0.673
  0.678   0.685   0.688   0.690   0.693   0.694   0.698   0.700
  0.701   0.709   0.713   0.715   0.717   0.722   0.729   0.729
  0.731   0.733   0.733   0.734   0.745   0.746   0.750   0.752
  0.753   0.756   0.757   0.758   0.763   0.764   0.768   0.771
  0.772   0.778   0.780   0.782   0.782   0.786   0.788   0.793
  0.794   0.794   0.797   0.799   0.801   0.805   0.807   0.810
  0.813   0.815   0.819   0.821   0.821   0.824   0.826   0.828
  0.829   0.830   0.833   0.834   0.839   0.839   0.842   0.844
  0.845   0.847   0.847   0.849   0.849   0.852   0.853   0.856
  0.858   0.860   0.861   0.865   0.868   0.870   0.870   0.874
  0.875   0.876   0.879   0.882   0.886   0.890   0.892   0.893
  0.897   0.898   0.901   0.904   0.906   0.908   0.913   0.913
  0.915   0.917   0.919   0.922   0.924   0.928   0.930   0.932
  0.933   0.938   0.940   0.941   0.942   0.944   0.946   0.946
  0.953   0.956   0.956   0.960   0.961   0.965   0.966   0.967
  0.969   0.974   0.975   0.977   0.979   0.986   0.988   0.989
  0.992   0.995   0.998   1.001   1.003   1.004   1.005   1.010
  1.015   1.018   1.020   1.023   1.024   1.026   1.027   1.028
  1.034   1.035   1.038   1.045   1.047   1.053   1.054   1.059
  1.064   1.066   1.069   1.070   1.073   1.078   1.079   1.080
  1.081   1.084   1.090   1.091   1.098   1.100   1.109   1.110
  1.112   1.115   1.123   1.129   1.138   1.141   1.145   1.153
  1.154   1.161   1.164   1.171   1.182   1.185   1.188   1.191
  1.195   1.200   1.203   1.210   1.210   1.214   1.223   1.228
  1.232   1.241   1.243   1.248   1.252   1.258   1.268   1.271
  1.274   1.276   1.284   1.288   1.292   1.294   1.301   1.305
  1.309   1.314   1.319   1.320   1.323   1.327   1.329   1.331
  1.333   1.337   1.343   1.346   1.355   1.359   1.361   1.365
  1.370   1.376   1.377   1.386   1.387   1.388   1.394   1.405
  1.407   1.414   1.422   1.424   1.425   1.428   1.434   1.440
  1.444   1.448   1.452   1.456   1.461   1.463   1.473   1.478
  1.486   1.489   1.490   1.502   1.505   1.507   1.511   1.517
  1.520   1.523   1.527   1.538   1.549   1.552   1.554   1.558
  1.565   1.571   1.577   1.581   1.584   1.591   1.595   1.611
  1.623   1.625   1.630   1.635   1.641   1.642   1.649   1.660
  1.661   1.665   1.666   1.671   1.672   1.676   1.681   1.681
  1.687   1.688   1.700   1.701   1.707   1.709   1.712   1.713
  1.714   1.717   1.729   1.731   1.734   1.742   1.743   1.748
  1.751   1.751   1.759   1.760   1.764   1.768   1.770   1.774
  1.775   1.786   1.789   1.794   1.795   1.801   1.803   1.818
  1.818   1.826   1.828   1.832   1.836   1.843   1.846   1.847
  1.851   1.854   1.859   1.862   1.864   1.865   1.869   1.873
  1.875   1.878   1.884   1.887   1.889   1.892   1.898   1.903
  1.906   1.907   1.908   1.912   1.917   1.921   1.922   1.931
  1.937   1.939   1.942   1.949   1.951   1.953   1.954   1.956
  1.957   1.964   1.966   1.974   1.976   1.986   1.993   1.996
  2.002   2.009   2.011   2.017   2.024   2.032   2.038   2.041
  2.043   2.050   2.056   2.059   2.060   2.063   2.066   2.068
  2.077   2.079   2.083   2.089   2.097   2.100   2.106   2.106
  2.108   2.110   2.116   2.117   2.123   2.125   2.125   2.132
  2.135   2.146   2.146   2.152   2.154   2.156   2.161   2.162
  2.163   2.166   2.177   2.179   2.182   2.186   2.192   2.197
  2.198   2.201   2.207   2.212   2.216   2.217   2.217   2.219
  2.224   2.232   2.233   2.238   2.240   2.241   2.242   2.251
  2.258   2.267   2.269   2.275   2.281   2.281   2.284   2.288
  2.289   2.292   2.296   2.297   2.300   2.303   2.306   2.309
  2.311   2.312   2.323   2.326   2.328   2.331   2.333   2.334
  2.338   2.342   2.345   2.350   2.353   2.361   2.366   2.368
  2.371   2.375   2.380   2.382   2.386   2.387   2.401   2.403
  2.406   2.408   2.410   2.415   2.419   2.420   2.427   2.432
  2.432   2.434   2.440   2.440   2.445   2.447   2.449   2.451
  2.455   2.462   2.462   2.467   2.468   2.469   2.478   2.486
  2.488   2.488   2.498   2.498   2.499   2.503   2.508   2.510
  2.513   2.519   2.521   2.526   2.531   2.535   2.535   2.544
  2.547   2.551   2.556   2.556   2.559   2.562   2.572   2.578
  2.583   2.583   2.586   2.594   2.594   2.601   2.606   2.611
  2.615   2.617   2.622   2.633   2.640   2.641   2.645   2.657
  2.659   2.665   2.665   2.668   2.676   2.678   2.681   2.687
  2.688   2.691   2.692   2.692   2.698   2.700   2.701   2.703
  2.706   2.713   2.713   2.721   2.734   2.739   2.753   2.757
  2.762   2.766   2.769   2.775   2.785   2.787   2.794   2.799
  2.808   2.810   2.818   2.825   2.825   2.827   2.837   2.838
  2.841   2.844   2.858   2.864   2.866   2.870   2.876   2.882
  2.887   2.887   2.890   2.892   2.895   2.895   2.900   2.904
  2.913   2.928   2.930   2.931   2.935   2.939   2.941   2.944
  2.948   2.954   2.962   2.968   2.976   3.005   3.009   3.016
  3.047   3.049   3.069   3.088   3.091   3.101   3.113   3.162
  3.169   3.173   3.179   3.189   3.194   3.196   3.225   3.233
  3.234   3.235   3.260   3.272   3.277   3.281   3.287   3.295
  3.302   3.303   3.312   3.314   3.323   3.327   3.333   3.340
  3.345   3.348   3.349   3.384   3.393   3.400   3.414   3.423
  3.455   3.473   3.495   3.497   3.505   3.511   3.547   3.547
  3.560   3.569   3.570   3.576   3.582   3.602   3.611   3.614
  3.626   3.640   3.705   3.715   3.854   3.859   3.934   3.934
  3.946   3.951   3.954   3.965   3.982   3.996   4.001   4.009
  4.026   4.029   4.069   4.083   4.087   4.093   4.118   4.123
  4.127   4.130   4.153   4.155   4.163   4.170   4.171   4.189
  4.204   4.210   4.230   4.250   4.259   4.268   4.268   4.271
  4.286   4.296   4.321   4.340   4.380   4.385   4.393   4.400
  4.423   4.434   4.459   4.465   4.472   4.477   4.495   4.511
  4.512   4.527   4.530   4.536   4.588   4.590   4.641   4.652
  4.689   4.691   4.715   4.724   4.754   4.757   4.797   4.800
 --------------------------------------------------------------
 
          Ground-State Mulliken Net Atomic Charges

     Atom                 Charge (a.u.)
  ----------------------------------------
      1 C                     0.276221
      2 C                    -0.128703
      3 N                    -0.488779
      4 C                    -0.078499
      5 C                     0.066930
      6 C                     0.037261
      7 C                     0.030363
      8 C                     0.043624
      9 C                     0.254904
     10 N                    -0.510710
     11 N                    -0.550415
     12 C                     0.235296
     13 C                     0.300470
     14 S                     0.610664
     15 N                    -0.576764
     16 C                    -0.205076
     17 S                     0.352890
     18 C                    -0.132303
     19 C                    -0.240358
     20 S                     0.291891
     21 C                     0.136417
     22 C                     0.079428
     23 C                    -0.307990
     24 C                    -0.069660
     25 N                    -0.445601
     26 S                     0.247989
     27 C                     0.130471
     28 C                    -0.297001
     29 C                    -0.233888
     30 H                     0.091136
     31 H                     0.108305
     32 H                     0.131655
     33 H                     0.109970
     34 H                     0.119660
     35 H                     0.118049
     36 H                     0.126577
     37 H                     0.122604
     38 H                     0.114853
     39 C                    -0.192833
     40 H                     0.105391
     41 H                     0.094037
     42 H                     0.089491
     43 C                    -0.174119
     44 H                     0.101634
     45 C                    -0.171555
     46 H                     0.093323
     47 H                     0.088354
     48 H                     0.094049
     49 C                    -0.175524
     50 H                     0.097229
     51 C                    -0.316971
     52 H                     0.096984
     53 H                     0.094806
     54 H                     0.102444
     55 H                     0.101300
     56 C                     0.270568
     57 C                    -0.116259
     58 N                    -0.481353
     59 C                    -0.088714
     60 C                     0.061278
     61 C                     0.068273
     62 C                     0.088712
     63 C                     0.027221
     64 C                     0.202107
     65 N                    -0.525096
     66 N                    -0.530294
     67 C                     0.200438
     68 C                     0.307860
     69 S                     0.604649
     70 N                    -0.538970
     71 C                    -0.228812
     72 S                     0.337583
     73 C                    -0.116182
     74 C                    -0.199336
     75 S                     0.251807
     76 C                     0.129509
     77 C                     0.028184
     78 C                    -0.306881
     79 C                    -0.063085
     80 N                    -0.409827
     81 S                     0.270266
     82 C                     0.145771
     83 C                    -0.313365
     84 C                    -0.242566
     85 H                     0.106956
     86 H                     0.096391
     87 H                     0.127531
     88 H                     0.100258
     89 H                     0.126991
     90 H                     0.109919
     91 H                     0.113904
     92 H                     0.142401
     93 H                     0.113598
     94 C                    -0.167307
     95 H                     0.088553
     96 H                     0.117175
     97 H                     0.091125
     98 C                    -0.194501
     99 H                     0.090023
    100 C                    -0.162119
    101 H                     0.082201
    102 H                     0.090416
    103 H                     0.089200
    104 C                    -0.164252
    105 H                     0.094486
    106 C                    -0.316445
    107 H                     0.093276
    108 H                     0.100839
    109 H                     0.100025
    110 H                     0.095951
  ----------------------------------------
  Sum of atomic charges =     0.000000

 -----------------------------------------------------------------
                    Cartesian Multipole Moments
 -----------------------------------------------------------------
    Charge (ESU x 10^10)
                 0.0000
    Dipole Moment (Debye)
         X       1.8292      Y      -0.1277      Z      -1.5454
       Tot       2.3980
    Quadrupole Moments (Debye-Ang)
        XX    -384.9253     XY      -1.5859     YY    -393.7391
        XZ       0.5527     YZ       1.3108     ZZ    -450.7773
    Octopole Moments (Debye-Ang^2)
       XXX      89.2128    XXY    -129.0103    XYY      81.0674
       YYY     250.7196    XXZ    -158.5987    XYZ      -1.2357
       YYZ     -38.4427    XZZ     -19.3886    YZZ       5.6795
       ZZZ      12.4873
    Hexadecapole Moments (Debye-Ang^3)
      XXXX -113249.7177   XXXY     438.9549   XXYY  -27821.6336
      XYYY    -150.2103   YYYY  -46894.7049   XXXZ     -99.4024
      XXYZ     198.5900   XYYZ     162.4589   YYYZ     173.0350
      XXZZ  -20848.9652   XYZZ    -102.9115   YYZZ   -9964.0220
      XZZZ    -105.0270   YZZZ     -14.2945   ZZZZ   -3495.6009
 -----------------------------------------------------------------
Archival summary:
1\1\mn246\SP\ProcedureUnspecified\6-31G**\8105042\afmv_a\FriOct1207:18:462018FriOct1207:18:462018\0\\#,ProcedureUnspecified,6-31G**,\\0,1\S\C,1,1.72189\C,2,1.39889,1,106.483\C,3,1.40978,2,113.523,1,3.28437,0\C,4,1.34687,3,117.841,2,1.24952,0\C,4,1.40671,3,110.246,2,-169.757,0\H,6,1.085,4,126.212,3,-174.22,0\C,6,1.35564,4,115.081,3,-3.75726,0\H,8,1.08156,6,130.009,4,-172.975,0\C,5,1.42874,4,125.747,3,174.946,0\N,10,1.32734,5,117.985,4,162.936,0\C,11,1.31466,10,111.698,5,-173.788,0\H,12,1.08152,11,111.748,10,178.93,0\C,12,1.37034,11,117.371,10,5.93079,0\H,14,1.0824,12,126.547,11,172.9,0\C,2,1.50436,1,130.291,3,177.791,0\N,16,1.32037,2,117.081,1,-157.103,0\C,17,1.34886,16,118.748,2,175.472,0\H,18,1.08951,17,113.627,16,-179.009,0\C,18,1.39648,17,127.491,16,-1.86505,0\C,16,1.40738,2,122.029,1,18.5999,0\N,21,1.3605,16,126.554,2,5.19582,0\C,21,1.38409,16,119.136,2,-174.493,0\N,23,1.3122,21,116.299,16,-175.133,0\C,20,1.54158,18,123.219,17,179.034,0\C,25,1.37715,20,123.819,18,172.115,0\H,26,1.08937,25,117.801,20,-3.0879,0\N,26,1.34439,25,126.294,20,-175.026,0\C,28,1.33124,26,115.078,25,0.939634,0\C,29,1.41077,28,126.79,26,-6.45553,0\H,30,1.08543,29,121.077,28,-158.915,0\C,30,1.3842,29,114.851,28,6.56669,0\H,32,1.08594,30,117.351,29,175.398,0\C,29,1.53126,28,112.663,26,-178.962,0\H,34,1.09596,29,115.109,28,173.59,0\H,34,1.09761,29,109.357,28,-75.5754,0\C,34,1.56449,29,115.39,28,42.9148,0\H,37,1.09659,34,104.165,29,46.6583,0\H,37,1.09718,34,106.269,29,-71.0676,0\C,37,1.57022,34,116.005,29,161.692,0\H,40,1.09693,37,105.101,34,59.3188,0\H,40,1.0972,37,111.398,34,168.216,0\C,40,1.53781,37,116.613,34,-60.4012,0\H,43,1.09605,40,103.22,37,-56.9583,0\H,43,1.0978,40,107.208,37,57.7036,0\C,43,1.50658,40,114.952,37,178.869,0\H,46,1.09607,43,109.1,40,-46.1754,0\H,46,1.09732,43,108.953,40,67.3858,0\C,46,1.45928,43,114.241,40,-170.443,0\H,49,1.09655,46,114.025,43,-58.4055,0\H,49,1.09687,46,119.412,43,67.444,0\H,49,1.09726,46,108.226,43,-175.3,0\S,24,1.58926,23,103.241,21,-0.696596,0\S,14,1.72843,12,109.829,11,-6.54416,0\S,3,1.77833,2,132.077,1,-175.908,0\H,13,2.39372,12,103.561,11,86.5911,0\C,56,1.08868,13,118.374,12,128.66,0\N,57,1.34034,56,105.461,13,-55.7305,0\C,58,1.38578,57,116.359,56,-172.134,0\C,57,1.41139,56,127.163,13,128.546,0\C,60,1.41834,57,117.555,56,167.342,0\H,61,1.08653,60,122.709,57,178.914,0\C,61,1.43826,60,116.849,57,3.58519,0\H,63,1.08618,61,114.272,60,178.079,0\C,59,1.49585,58,116.024,57,-170.517,0\H,65,1.09617,59,109.409,58,-128.937,0\H,65,1.09774,59,118.764,58,-9.6933,0\C,60,1.51359,57,125.063,56,-2.9732,0\C,68,1.39856,60,120.092,57,-155.933,0\H,69,1.0897,68,121.074,60,14.7679,0\N,69,1.30171,68,124.507,60,178.814,0\C,71,1.33102,69,118.146,68,3.51122,0\C,68,1.40539,60,121.524,57,28.1075,0\N,73,1.32402,68,124.77,60,-4.03773,0\C,73,1.38117,68,118.18,60,-179.735,0\N,75,1.34594,73,113.452,68,174.093,0\C,72,1.50462,71,118.116,69,-175.576,0\C,77,1.36181,72,123.229,71,-11.0945,0\C,78,1.40843,77,110.798,72,-165.607,0\C,79,1.34378,78,116.799,77,-15.2404,0\C,79,1.41705,78,112.492,77,161.379,0\H,81,1.0845,79,131.08,78,165.298,0\C,81,1.39493,79,108.071,78,-1.6127,0\H,83,1.08251,81,124.763,79,178.207,0\C,80,1.45622,79,130.895,78,172.285,0\N,85,1.32409,80,119.466,79,-158.89,0\C,86,1.39496,85,114.731,80,169.194,0\H,87,1.08242,86,125.657,85,-173.217,0\C,87,1.33753,86,108.99,85,-2.90739,0\H,89,1.08186,87,127.642,86,179.271,0\C,65,1.56213,59,113.283,58,115.474,0\H,91,1.09674,65,105.534,59,174.472,0\H,91,1.09813,65,115.453,59,61.4259,0\C,91,1.55938,65,113.01,59,-61.6932,0\H,94,1.09611,91,104.447,65,74.295,0\H,94,1.09769,91,110.339,65,-42.0392,0\C,94,1.57254,91,108.873,65,-162.578,0\H,97,1.09649,94,109.033,91,-42.9176,0\H,97,1.0965,94,105.561,91,66.9409,0\C,97,1.53139,94,114.879,91,-174.569,0\H,100,1.09664,97,105.745,94,-72.364,0\H,100,1.09735,97,117.866,94,42.1106,0\C,100,1.52081,97,107.568,94,176.428,0\H,103,1.09629,100,110.869,97,51.7837,0\H,103,1.09685,100,109.556,97,169.139,0\H,103,1.09758,100,115.453,97,-68.6911,0\S,74,1.62155,73,105.386,68,-178.509,0\S,78,1.72761,77,127.813,72,-14.5585,0\S,80,1.73437,79,108.483,78,4.85802,0\S,89,1.74582,87,115.141,86,13.3793,0\\\@

 Total job time:  81.38s(wall), 956.43s(cpu) 
 Fri Oct 12 07:18:46 2018

        *************************************************************
        *                                                           *
        *  Thank you very much for using Q-Chem.  Have a nice day.  *
        *                                                           *
        *************************************************************


