
Running Job 1 of 1 ./8/56.qcin
qchem ./8/56.qcin_9534.0 /tmpu/cab_g/afmv_a/scratch_qchem/qchem9534/ 1
/tmpu/appuserlic/qchem4.4/serial-multicore/exe/qcprog.exe_s ./8/56.qcin_9534.0 /tmpu/cab_g/afmv_a/scratch_qchem/qchem9534/
Check license passed

                  Welcome to Q-Chem
     A Quantum Leap Into The Future Of Chemistry


 Q-Chem 4.4, Q-Chem, Inc., Pleasanton, CA (2016)

 Y. Shao,  Z. Gan,  E. Epifanovsky,  A. T. B. Gilbert,  M. Wormit,  
 J. Kussmann,  A. W. Lange,  A. Behn,  J. Deng,  X. Feng,  D. Ghosh,  
 M. Goldey,  P. R. Horn,  L. D. Jacobson,  I. Kaliman,  F. Rob,  
 R. Z. Khaliullin,  T. Kus,  A. Landau,  J. Liu,  E. I. Proynov,  Y. M. Rhee,  
 R. M. Richard,  M. A. Rohrdanz,  R. P. Steele,  E. J. Sundstrom,  
 H. L. Woodcock III,  P. M. Zimmerman,  D. Zuev,  B. Albrecht,  E. Alguire,  
 B. Austin,  S. A. Baeppler,  G. J. O. Beran,  Y. A. Bernard,  E. Berquist,  
 K. Brandhorst,  K. B. Bravaya,  S. T. Brown,  D. Casanova,  C.-M. Chang,  
 Y. Chen,  S. H. Chien,  K. D. Closser,  M. P. Coons,  D. L. Crittenden,  
 S. Dasgupta,  M. Diedenhofen,  R. A. DiStasio Jr.,  H. Do,  A. D. Dutoi,  
 R. G. Edgar,  P.-T. Fang,  S. Fatehi,  Q. Feng,  L. Fusti-Molnar,  
 A. Ghysels,  A. Golubeva-Zadorozhnaya,  J. Gomes,  A. Gunina,  
 M. W. D. Hanson-Heine,  P. H. P. Harbach,  A. W. Hauser,  J. E. Herr,  
 E. G. Hohenstein,  Z. C. Holden,  K. Hui,  T.-C. Jagau,  H. Ji,  B. Kaduk,  
 K. Khistyaev,  Jaehoon Kim,  Jihan Kim,  R. A. King,  P. Klunzinger,  
 K. Koh,  D. Kosenkov,  T. Kowalczyk,  C. M. Krauter,  A. Kunitsa,  
 K. U. Lao,  A. Laurent,  K. V. Lawler,  J. Lee,  D. Lefrancois,  S. Lehtola,  
 S. V. Levchenko,  C. Y. Lin,  Y.-S. Lin,  F. Liu,  E. Livshits,  
 R. C. Lochan,  A. Luenser,  P. Manohar,  S. F. Manzer,  S.-P. Mao,  Y. Mao,  
 N. Mardirossian,  A. V. Marenich,  L. A. Martinez-Martinez,  S. A. Maurer,  
 N. J. Mayhall,  J.-M. Mewes,  A. F. Morrison,  K. Nanda,  T. S. Nguyen-Beck,  
 C. M. Oana,  R. Olivares-Amaya,  D. P. O'Neill,  J. A. Parkhill,  
 T. M. Perrine,  R. Peverati,  P. A. Pieniazek,  F. Plasser,  A. Prociuk,  
 D. R. Rehn,  E. Rosta,  N. J. Russ,  N. Sergueev,  S. M. Sharada,  
 S. Sharma,  D. W. Small,  A. Sodt,  T. Stauch,  T. Stein,  D. Stuck,  
 Y.-C. Su,  A. J. W. Thom,  T. Tsuchimochi,  L. Vogt,  O. Vydrov,  T. Wang,  
 M. A. Watson,  J. Wenzel,  A. White,  C. F. Williams,  V. Vanovschi,  
 K. Yao,  S. Yeganeh,  S. R. Yost,  Z.-Q. You,  I. Y. Zhang,  X. Zhang,  
 Y. Zhao,  B. R. Brooks,  G. K. L. Chan,  D. M. Chipman,  C. J. Cramer,  
 W. A. Goddard III,  M. S. Gordon,  W. J. Hehre,  A. Klamt,  
 H. F. Schaefer III,  M. W. Schmidt,  C. D. Sherrill,  D. G. Truhlar,  
 A. Warshel,  X. Xu,  A. Aspuru-Guzik,  R. Baer,  A. T. Bell,  N. A. Besley,  
 J.-D. Chai,  A. Dreuw,  B. D. Dunietz,  T. R. Furlani,  S. R. Gwaltney,  
 C.-P. Hsu,  Y. Jung,  J. Kong,  D. S. Lambrecht,  W. Liang,  C. Ochsenfeld,  
 V. A. Rassolov,  L. V. Slipchenko,  J. E. Subotnik,  T. Van Voorhis,  
 J. M. Herbert,  A. I. Krylov,  P. M. W. Gill,  M. Head-Gordon

 Contributors to earlier versions of Q-Chem not listed above: 
 R. D. Adamson,  J. Baker,  E. F. C. Byrd,  A. K. Chakraborty,  C.-L. Cheng,  
 H. Dachsel,  R. J. Doerksen,  G. Hawkins,  A. Heyden,  S. Hirata,  
 G. Kedziora,  F. J. Keil,  C. Kelley,  P. P. Korambath,  W. Kurlancheek,  
 A. M. Lee,  M. S. Lee,  D. Liotard,  I. Lotan,  P. E. Maslen,  N. Nair,  
 D. Neuhauser,  R. Olson,  B. Peters,  J. Ritchie,  N. E. Schultz,  
 N. Shenvi,  A. C. Simmonett,  K. S. Thanthiriwatte,  Q. Wu,  W. Zhang

 Please cite Q-Chem as follows:
 Y. Shao et al., Mol. Phys. 113, 184-215 (2015)
 DOI: 10.1080/00268976.2014.952696

 Q-Chem 4.4.2 for Intel X86 Linux

 Parts of Q-Chem use Armadillo 5.200.1 (Boston Tea Smuggler).
 http://arma.sourceforge.net/

 Q-Chem begins on Fri Oct 12 08:22:32 2018  

Host: 
0

     Scratch files written to /tmpu/cab_g/afmv_a/scratch_qchem/qchem9534//
 Dec716 11556_ 22328  22283 4050   
Processing $rem in /tmpu/appuserlic/qchem4.4/serial-multicore/config/preferences.
 MEM_TOTAL  2000 
FILE_GEOM_ORG=        593

Checking the input file for inconsistencies... 	...done.

--------------------------------------------------------------
User input:
--------------------------------------------------------------
$comment
SP
$end

$rem
MEM_STATIC 5000
MEM_TOTAL 20000
JOBTYPE SP
EXCHANGE B3LYP
BASIS 6-31g(d,p)
$end

$molecule
0 1
C          -3.929000    -13.240000    -12.815000
C          -4.224000    -11.854000    -12.645000
N          -2.697000    -13.662000    -12.294000
C          -3.394000    -10.916000    -12.051000
C          -1.863000    -12.790000    -11.742000
C          -2.127000    -11.395000    -11.643000
C          -1.208000    -10.450000    -10.977000
C          -1.661000     -9.423000    -10.126000
C           0.186000    -10.552000    -11.088000
N          -0.854000     -8.595000     -9.442000
N           0.768000    -11.245000    -12.114000
C           1.069000     -9.754000    -10.287000
C           0.486000     -8.786000     -9.435000
S           2.411000    -10.905000    -11.959000
N           2.357000     -9.906000    -10.668000
C           1.181000     -7.965000     -8.457000
S           0.264000     -6.829000     -7.487000
C           2.309000     -8.290000     -7.723000
C           1.647000     -6.522000     -6.369000
S           3.537000     -9.565000     -7.928000
C           2.519000     -7.566000     -6.553000
C           1.561000     -5.936000     -5.070000
C           4.313000     -9.056000     -6.414000
C           3.691000     -8.006000     -5.835000
N           2.640000     -5.239000     -4.785000
S           0.174000     -5.853000     -4.038000
C           2.407000     -4.672000     -3.560000
C           1.165000     -4.972000     -2.994000
C          -4.857000    -14.333000    -13.374000
H          -5.194000    -11.538000    -13.017000
H          -3.717000     -9.888000    -11.919000
H          -0.915000    -13.148000    -11.343000
H          -2.719000     -9.267000     -9.922000
H           5.237000     -9.546000     -6.139000
H           4.057000     -7.496000     -4.952000
H           3.235000     -4.155000     -3.095000
H           0.789000     -4.809000     -1.994000
H          -4.254000    -15.248000    -13.421000
C          -5.366000    -13.944000    -14.720000
H          -5.576000    -14.546000    -12.574000
H          -4.556000    -14.037000    -15.454000
H          -5.743000    -12.917000    -14.812000
C          -6.382000    -14.963000    -15.199000
H          -5.920000    -15.944000    -15.369000
C          -7.320000    -14.646000    -16.289000
H          -7.103000    -15.037000    -14.376000
H          -7.654000    -13.640000    -16.008000
H          -8.245000    -15.234000    -16.225000
C          -6.638000    -14.429000    -17.673000
H          -5.787000    -13.740000    -17.617000
C          -7.700000    -14.153000    -18.699000
H          -6.216000    -15.393000    -17.984000
H          -8.357000    -13.307000    -18.462000
H          -8.382000    -14.995000    -18.870000
H          -7.136000    -13.947000    -19.616000
C           0.994000    -10.361000     -4.335000
C          -0.263000    -10.153000     -3.788000
N           1.114000    -10.794000     -5.590000
C          -1.372000    -10.437000     -4.570000
C          -0.013000    -11.076000     -6.348000
C          -1.321000    -10.901000     -5.873000
C          -2.516000    -11.204000     -6.775000
C          -2.726000    -12.409000     -7.306000
C          -3.238000    -10.115000     -7.255000
N          -3.735000    -12.641000     -8.210000
N          -3.058000     -8.822000     -6.848000
C          -4.298000    -10.322000     -8.139000
C          -4.605000    -11.609000     -8.620000
S          -4.261000     -8.014000     -7.616000
N          -5.012000     -9.250000     -8.421000
C          -5.646000    -11.836000     -9.518000
S          -6.430000    -10.581000    -10.489000
C          -6.236000    -13.071000     -9.744000
C          -7.393000    -11.802000    -11.265000
S          -6.007000    -14.717000     -9.022000
C          -7.169000    -13.055000    -10.718000
C          -8.188000    -11.516000    -12.478000
C          -7.153000    -15.331000    -10.212000
C          -7.677000    -14.379000    -10.987000
N          -8.712000    -12.444000    -13.187000
S          -8.252000     -9.866000    -13.117000
C          -9.193000    -11.956000    -14.386000
C          -9.181000    -10.557000    -14.452000
C           2.227000    -10.344000     -3.487000
H          -0.395000     -9.900000     -2.740000
H          -2.332000    -10.152000     -4.148000
H           0.187000    -11.530000     -7.318000
H          -2.098000    -13.252000     -7.023000
H          -7.417000    -16.378000    -10.140000
H          -8.471000    -14.594000    -11.692000
H          -9.573000    -12.701000    -15.072000
H          -9.538000     -9.949000    -15.274000
H           3.117000    -10.458000     -4.118000
C           2.265000    -11.366000     -2.325000
H           2.557000     -9.348000     -3.164000
H           2.013000    -12.383000     -2.653000
H           1.478000    -11.209000     -1.577000
C           3.719000    -11.394000     -1.810000
H           4.401000    -11.723000     -2.605000
C           3.928000    -12.440000     -0.737000
H           3.999000    -10.418000     -1.397000
H           4.214000    -13.395000     -1.196000
H           3.017000    -12.580000     -0.143000
C           5.135000    -12.048000      0.151000
H           6.083000    -12.222000     -0.372000
C           5.153000    -12.687000      1.543000
H           5.146000    -10.960000      0.291000
H           4.400000    -12.256000      2.214000
H           6.102000    -12.622000      2.087000
H           4.894000    -13.749000      1.457000
$end

--------------------------------------------------------------
 ----------------------------------------------------------------
             Standard Nuclear Orientation (Angstroms)
    I     Atom           X                Y                Z
 ----------------------------------------------------------------
    1      C      -4.7630038631    -0.6941305961     1.8051861760
    2      C      -4.4608862875    -0.9908003550     0.4422360578
    3      N      -3.6950314362    -0.8352521411     2.7034448274
    4      C      -3.2365087505    -1.4268882256    -0.0397463234
    5      C      -2.5151371984    -1.2757692573     2.2857867641
    6      C      -2.2386939569    -1.6442472588     0.9391891640
    7      C      -0.9031371882    -2.0817907477     0.4853325647
    8      C      -0.3366813279    -1.6530421897    -0.7309903498
    9      C      -0.0738216376    -2.8992049588     1.2663772018
   10      N       0.9039424841    -1.9657482026    -1.1405712411
   11      N      -0.5822448959    -3.6656340052     2.2791660778
   12      C       1.2900685445    -3.1584098071     0.9048382442
   13      C       1.7538275111    -2.6312718493    -0.3239295102
   14      S       0.7192243188    -4.6188235672     2.7656653505
   15      N       1.8484960594    -4.0879948855     1.7118322298
   16      C       3.1200854821    -2.6685392586    -0.8194093754
   17      S       3.4877626161    -1.9407575312    -2.3709996184
   18      C       4.2919418127    -2.6402532801    -0.0827156507
   19      C       5.2695608277    -2.0473862439    -2.1051285014
   20      S       4.6214479582    -2.9380856286     1.6430756438
   21      C       5.4387907659    -2.2279553498    -0.7549685013
   22      C       6.2688952954    -1.3191215606    -2.8186789009
   23      C       6.3252220892    -2.5070801550     1.3884366989
   24      C       6.5973542326    -2.1873456303     0.1045601744
   25      N       7.3806287881    -2.0137565494    -2.9318419403
   26      S       6.0737173872     0.1593821257    -3.6970947670
   27      C       8.2252336360    -1.2479118468    -3.6911360483
   28      C       7.7003387679    -0.0219206091    -4.1086894731
   29      C      -6.0717092863    -0.1129320322     2.3689346524
   30      H      -5.2799019387    -0.8455961127    -0.2558105675
   31      H      -3.0781656500    -1.5843235241    -1.1021391836
   32      H      -1.7038490180    -1.3717100353     3.0059783049
   33      H      -0.8618835414    -0.9802920567    -1.4069236997
   34      H       6.9985385937    -2.6224825659     2.2267851756
   35      H       7.5918644414    -1.9771484283    -0.2702885697
   36      H       9.2431537751    -1.5977403272    -3.7938814845
   37      H       8.1825535601     0.8335576924    -4.5598776489
   38      H      -5.9526843696    -0.0993153606     3.4592055616
   39      C      -7.2329240854    -0.9516023878     1.9562238274
   40      H      -6.0609247986     0.9503049446     2.1010898727
   41      H      -7.2217293280    -1.8899803738     2.5244019973
   42      H      -7.2654026359    -1.2381525467     0.8969051076
   43      C      -8.5250298850    -0.2951620183     2.4029974211
   44      H      -8.6034568048    -0.2625044347     3.4972952327
   45      C      -9.8171282518    -0.6805121882     1.8110345361
   46      H      -8.4613636670     0.7271097719     2.0111390288
   47      H      -9.5695472352    -0.7162328959     0.7433357624
   48      H     -10.5550853047     0.1309242906     1.8605848013
   49      C     -10.2540526451    -2.1413086471     2.1317209566
   50      H      -9.4550972436    -2.8681756003     1.9435914837
   51      C     -11.5964435094    -2.3942638244     1.5066638025
   52      H     -10.4517542067    -2.1939758156     3.2097938956
   53      H     -11.6397601789    -2.2130434065     0.4255454805
   54      H     -12.4036573209    -1.7797520377     1.9239288580
   55      H     -11.7936376624    -3.4511626752     1.7199717614
   56      C       5.1739816928     1.3850495729     0.6354435178
   57      C       4.7661792649     2.3921174323    -0.2259701496
   58      N       4.2699852104     0.6047358536     1.2277397776
   59      C       3.4058569168     2.5752198410    -0.4210537654
   60      C       2.9146943638     0.8142042067     1.0191091705
   61      C       2.4139949258     1.8123749281     0.1705402082
   62      C       0.9081122107     1.9660597453    -0.0347308938
   63      C       0.0688377426     2.2120199301     0.9718514201
   64      C       0.3942181296     1.5699572199    -1.2662424295
   65      N      -1.2942050751     2.2301715637     0.7960509788
   66      N       1.1522330402     1.2153179675    -2.3476962640
   67      C      -0.9823101566     1.6204346714    -1.4910243330
   68      C      -1.8747535021     1.9909261676    -0.4671786775
   69      S       0.0400313207     1.0015505142    -3.5339541664
   70      N      -1.3590886401     1.3682509377    -2.7291460310
   71      C      -3.2537209424     2.0291857347    -0.6636449699
   72      S      -4.1016943187     1.2477043358    -2.0063102209
   73      C      -4.1456875464     2.7182890512     0.1450163910
   74      C      -5.6187265922     1.7475783600    -1.3213831874
   75      S      -3.9490909125     3.7976841285     1.5869931698
   76      C      -5.4375888773     2.5395540940    -0.1991721711
   77      C      -6.9083375131     1.2073959892    -1.8012755492
   78      C      -5.7064678316     3.8493334349     1.7109718512
   79      C      -6.3288179001     3.1894848629     0.7317960477
   80      N      -8.0041877947     1.3857651678    -1.1643001993
   81      S      -6.9360833074     0.0930668727    -3.1769273187
   82      C      -9.0180106741     0.5946094984    -1.6676309812
   83      C      -8.6692529458    -0.0479199038    -2.8622962123
   84      C       6.5891591179     1.2919021626     1.1132284226
   85      H       5.4697951759     3.1072343373    -0.6422266354
   86      H       3.1321561579     3.2942838815    -1.1884805048
   87      H       2.2549032810     0.2012094954     1.6322398344
   88      H       0.4519027151     2.4167416991     1.9700859738
   89      H      -6.1227571137     4.4892284010     2.4779964049
   90      H      -7.4059820435     3.2219647067     0.6206723866
   91      H      -9.9510141683     0.6316838228    -1.1215989545
   92      H      -9.3070667416    -0.6901175790    -3.4569160134
   93      H       6.7191368206     0.3910092978     1.7254006556
   94      C       7.1332648593     2.5296221310     1.8669990920
   95      H       7.3077970647     0.9182668849     0.3721473335
   96      H       6.4576433652     2.8648189817     2.6648434803
   97      H       7.1647952787     3.4381666136     1.2529349620
   98      C       8.4546060221     2.0940169108     2.5336553931
   99      H       8.2728558317     1.2831629932     3.2512017627
  100      C       9.0453219016     3.1825233384     3.4027552187
  101      H       9.1962454293     1.8210199384     1.7740577082
  102      H       8.6569942103     3.0966996743     4.4256618140
  103      H       8.8056584955     4.1756765378     3.0045527899
  104      C      10.5741655041     2.9746742083     3.5387441089
  105      H      10.8008658898     2.1435732732     4.2172624732
  106      C      11.3691013350     4.2265045869     3.9225496954
  107      H      10.9783618684     2.6105339632     2.5861202686
  108      H      11.4459871161     4.9457630962     3.0980699967
  109      H      12.3977551821     4.0554371217     4.2592531036
  110      H      10.8431379545     4.7571970263     4.7250763660
 ----------------------------------------------------------------
 Molecular Point Group                 C1    NOp =  1
 Largest Abelian Subgroup              C1    NOp =  1
 Nuclear Repulsion Energy = 12674.2733685653 hartrees
 There are      270 alpha and      270 beta electrons
 Requested basis set is 6-31G(d,p)
 There are 406 shells and 1262 basis functions

 Total QAlloc Memory Limit  20000 MB
 Mega-Array Size      4888 MB
 MEM_STATIC part      5000 MB
 A cutoff of  1.0D-08 yielded  16750 shell pairs
 There are    176470 function pairs
 
 -------------------------------------------------------
 OpenMP Integral Computing Module                       
 Release: version 1.0, May 2013, Q-Chem Inc. Pittsburgh 
 -------------------------------------------------------
 Integral Job Info:
 Integral job number is                      11
 Integral operator is                         1
 short-range coefficients                     0
 long-range coefficients              100000000
 Omega coefficients                           0
 if combine SR and LR in K                    0
 Integral screening is                        0
 Integral computing path is                   2
 max size of driver memory is            800000
 size of driver memory is                593474
 size of scratch memory is             15166112
 max col of scratch BK array               1296
 max len of scratch array in speh3          155
 max len of scratch index in speh4           18
 max int batch size is                      520
 min int batch size is                       52
 fixed nKL is                                52
 max L of basis functions is                  2
 order of int derivative is                   0
 number of shells is                        406
 number of basis is                        1262
 number of cartesian basis is              1262
 number of contracted shell pairs         16750
 number of primitive shell pairs          50875
 maxK2 (contraction) of shell pair           36
 max number of K2 of shell pair               1
 max number of CS2 of shell pair           1915
 max number of PS2 of shell pair          10056
 mem total for path MDJ                  404552
 -------------------------------------------------------
 Smallest overlap matrix eigenvalue = 3.80E-04

 Scale SEOQF with 1.000000e-02/1.000000e-01/1.000000e-01

 Standard Electronic Orientation quadrupole field applied
 Nucleus-field energy     =    -0.0000000071 hartrees
 Guess from superposition of atomic densities
 Warning:  Energy on first SCF cycle will be non-variational
 A restricted hybrid HF-DFT SCF calculation will be
 performed using Pulay DIIS extrapolation
 Exchange:     0.2000 Hartree-Fock + 0.0800 Slater + 0.7200 B88
 Correlation:  0.1900 VWN1RPA + 0.8100 LYP
 Using SG-1 standard quadrature grid
 SCF converges when DIIS error is below 1.0E-05
 using 16 threads for integral computing 
 -------------------------------------------------------
 OpenMP BLAS3 based DFT computing Module                
 Release: version 1.0, May 2013, Q-Chem Inc. Pittsburgh 
 -------------------------------------------------------
 ---------------------------------------
  Cycle       Energy         DIIS Error
 ---------------------------------------
    1   -5680.5340625455      2.16E-02
    2   -5662.4126528791      2.22E-03
    3   -5660.4114609536      3.75E-03
    4   -5663.2355212272      1.08E-03
    5   -5663.4422515083      4.52E-04
    6   -5663.4614347032      3.32E-04
    7   -5663.4825414814      9.02E-05
    8   -5663.4839675216      3.43E-05
    9   -5663.4841803760      1.40E-05
   10   -5663.4842167165      4.95E-06 Convergence criterion met
 ---------------------------------------
 SCF time:  CPU 1369.36 s  wall 111.35 s
 SCF   energy in the final basis set = -5663.4842167165
 Total energy in the final basis set = -5663.4842167165
 
 --------------------------------------------------------------
 
                    Orbital Energies (a.u.)
 --------------------------------------------------------------
 
 Alpha MOs
 -- Occupied --
-88.986 -88.982 -88.935 -88.932 -88.930 -88.911 -88.909 -88.895
-14.387 -14.386 -14.382 -14.378 -14.349 -14.346 -14.343 -14.341
-14.323 -14.319 -10.276 -10.260 -10.258 -10.258 -10.254 -10.251
-10.249 -10.249 -10.247 -10.242 -10.241 -10.241 -10.233 -10.233
-10.233 -10.230 -10.228 -10.228 -10.228 -10.226 -10.225 -10.224
-10.223 -10.222 -10.216 -10.216 -10.214 -10.213 -10.210 -10.209
-10.205 -10.203 -10.202 -10.199 -10.197 -10.191 -10.190 -10.190
-10.185 -10.180 -10.178 -10.178 -10.178 -10.176 -10.176 -10.175
-10.171 -10.170 -10.170 -10.164  -8.041  -8.037  -7.993  -7.993
 -7.992  -7.970  -7.969  -7.955  -6.006  -6.002  -6.001  -5.999
 -5.996  -5.994  -5.958  -5.957  -5.956  -5.954  -5.954  -5.952
 -5.950  -5.950  -5.949  -5.935  -5.933  -5.931  -5.929  -5.926
 -5.925  -5.919  -5.916  -5.911  -1.039  -1.019  -0.983  -0.978
 -0.952  -0.943  -0.930  -0.921  -0.918  -0.910  -0.904  -0.891
 -0.855  -0.835  -0.830  -0.823  -0.822  -0.814  -0.810  -0.809
 -0.808  -0.802  -0.794  -0.790  -0.782  -0.782  -0.770  -0.764
 -0.752  -0.744  -0.744  -0.737  -0.730  -0.717  -0.714  -0.711
 -0.699  -0.689  -0.672  -0.668  -0.653  -0.648  -0.645  -0.640
 -0.637  -0.627  -0.626  -0.614  -0.611  -0.605  -0.603  -0.597
 -0.596  -0.589  -0.587  -0.581  -0.581  -0.574  -0.570  -0.559
 -0.557  -0.544  -0.537  -0.536  -0.526  -0.521  -0.514  -0.513
 -0.505  -0.502  -0.501  -0.496  -0.488  -0.481  -0.478  -0.477
 -0.473  -0.469  -0.468  -0.466  -0.459  -0.458  -0.452  -0.448
 -0.445  -0.444  -0.440  -0.437  -0.437  -0.433  -0.430  -0.428
 -0.427  -0.426  -0.425  -0.423  -0.419  -0.417  -0.414  -0.413
 -0.411  -0.406  -0.406  -0.402  -0.399  -0.396  -0.395  -0.393
 -0.392  -0.390  -0.389  -0.388  -0.385  -0.384  -0.382  -0.380
 -0.380  -0.375  -0.370  -0.369  -0.367  -0.366  -0.361  -0.359
 -0.354  -0.350  -0.348  -0.347  -0.346  -0.344  -0.341  -0.340
 -0.338  -0.333  -0.330  -0.329  -0.328  -0.322  -0.319  -0.316
 -0.315  -0.313  -0.306  -0.303  -0.303  -0.301  -0.300  -0.297
 -0.294  -0.293  -0.290  -0.287  -0.286  -0.285  -0.278  -0.276
 -0.271  -0.266  -0.263  -0.258  -0.256  -0.253  -0.248  -0.243
 -0.238  -0.235  -0.232  -0.223  -0.199  -0.188
 -- Virtual --
 -0.115  -0.106  -0.077  -0.064  -0.034  -0.032  -0.026  -0.024
 -0.022  -0.013  -0.012  -0.010  -0.007  -0.001   0.000   0.002
  0.002   0.010   0.012   0.029   0.034   0.035   0.037   0.042
  0.044   0.047   0.058   0.069   0.077   0.084   0.087   0.087
  0.096   0.099   0.099   0.101   0.102   0.104   0.106   0.110
  0.113   0.114   0.115   0.119   0.120   0.122   0.123   0.123
  0.126   0.127   0.132   0.135   0.136   0.137   0.140   0.144
  0.145   0.148   0.151   0.154   0.158   0.159   0.160   0.164
  0.165   0.168   0.168   0.175   0.178   0.181   0.183   0.186
  0.188   0.190   0.192   0.194   0.196   0.200   0.202   0.204
  0.207   0.208   0.210   0.215   0.216   0.218   0.219   0.222
  0.225   0.229   0.233   0.240   0.241   0.243   0.244   0.245
  0.252   0.254   0.255   0.257   0.260   0.260   0.263   0.267
  0.270   0.272   0.273   0.275   0.280   0.283   0.285   0.291
  0.294   0.295   0.299   0.300   0.305   0.307   0.309   0.314
  0.316   0.318   0.319   0.321   0.325   0.327   0.329   0.331
  0.334   0.335   0.338   0.340   0.346   0.348   0.350   0.353
  0.357   0.360   0.362   0.365   0.366   0.368   0.373   0.373
  0.377   0.384   0.388   0.392   0.395   0.399   0.401   0.406
  0.409   0.414   0.419   0.420   0.426   0.431   0.434   0.438
  0.449   0.449   0.453   0.456   0.461   0.467   0.471   0.473
  0.476   0.480   0.481   0.484   0.489   0.489   0.492   0.496
  0.498   0.502   0.502   0.504   0.508   0.512   0.513   0.515
  0.518   0.520   0.522   0.524   0.526   0.528   0.533   0.536
  0.539   0.540   0.541   0.545   0.548   0.549   0.550   0.552
  0.556   0.556   0.558   0.560   0.561   0.566   0.567   0.567
  0.572   0.573   0.574   0.577   0.581   0.581   0.584   0.586
  0.589   0.591   0.591   0.593   0.598   0.600   0.602   0.606
  0.607   0.613   0.614   0.618   0.618   0.621   0.623   0.627
  0.629   0.630   0.632   0.636   0.637   0.637   0.641   0.642
  0.646   0.649   0.650   0.652   0.655   0.660   0.661   0.664
  0.668   0.670   0.674   0.678   0.679   0.685   0.685   0.688
  0.690   0.691   0.692   0.697   0.698   0.699   0.704   0.707
  0.711   0.715   0.719   0.723   0.725   0.727   0.729   0.732
  0.737   0.739   0.741   0.743   0.746   0.748   0.753   0.755
  0.757   0.761   0.764   0.767   0.770   0.779   0.780   0.780
  0.782   0.786   0.787   0.788   0.791   0.793   0.797   0.797
  0.800   0.804   0.804   0.804   0.807   0.811   0.813   0.815
  0.818   0.820   0.822   0.823   0.825   0.827   0.828   0.830
  0.832   0.833   0.834   0.837   0.838   0.840   0.845   0.848
  0.849   0.851   0.852   0.854   0.856   0.858   0.860   0.861
  0.864   0.865   0.868   0.869   0.875   0.876   0.880   0.880
  0.883   0.886   0.887   0.892   0.895   0.896   0.898   0.899
  0.902   0.904   0.908   0.911   0.913   0.915   0.917   0.919
  0.919   0.923   0.925   0.927   0.932   0.932   0.936   0.937
  0.940   0.942   0.944   0.945   0.946   0.949   0.954   0.955
  0.958   0.959   0.963   0.964   0.965   0.970   0.971   0.974
  0.976   0.977   0.981   0.983   0.985   0.991   0.992   0.996
  0.998   1.002   1.004   1.008   1.012   1.014   1.016   1.019
  1.020   1.024   1.024   1.027   1.028   1.034   1.035   1.037
  1.041   1.045   1.050   1.051   1.053   1.060   1.064   1.067
  1.073   1.076   1.078   1.079   1.087   1.088   1.091   1.094
  1.099   1.101   1.106   1.111   1.118   1.120   1.127   1.132
  1.137   1.137   1.145   1.147   1.150   1.155   1.160   1.163
  1.167   1.172   1.175   1.180   1.185   1.188   1.194   1.200
  1.202   1.206   1.212   1.223   1.228   1.229   1.237   1.244
  1.248   1.255   1.256   1.259   1.264   1.265   1.273   1.275
  1.278   1.283   1.291   1.297   1.299   1.305   1.311   1.316
  1.318   1.326   1.328   1.332   1.335   1.338   1.339   1.347
  1.348   1.350   1.356   1.364   1.369   1.371   1.375   1.375
  1.378   1.382   1.387   1.390   1.394   1.397   1.402   1.404
  1.412   1.415   1.419   1.421   1.425   1.437   1.438   1.443
  1.445   1.452   1.453   1.463   1.467   1.472   1.476   1.481
  1.486   1.488   1.493   1.501   1.503   1.507   1.512   1.523
  1.528   1.531   1.536   1.542   1.551   1.557   1.564   1.574
  1.577   1.582   1.584   1.585   1.597   1.608   1.613   1.618
  1.619   1.620   1.627   1.628   1.634   1.652   1.655   1.662
  1.670   1.673   1.680   1.685   1.690   1.694   1.698   1.699
  1.702   1.710   1.712   1.714   1.716   1.719   1.723   1.729
  1.730   1.734   1.737   1.747   1.753   1.759   1.763   1.766
  1.768   1.771   1.774   1.776   1.776   1.783   1.788   1.790
  1.798   1.800   1.807   1.812   1.815   1.818   1.821   1.825
  1.828   1.832   1.838   1.843   1.845   1.849   1.852   1.855
  1.859   1.865   1.866   1.872   1.875   1.876   1.880   1.883
  1.890   1.893   1.896   1.900   1.903   1.906   1.907   1.912
  1.916   1.918   1.919   1.924   1.926   1.932   1.934   1.937
  1.941   1.947   1.949   1.954   1.957   1.960   1.961   1.966
  1.970   1.975   1.981   1.985   1.989   1.990   2.003   2.007
  2.009   2.012   2.018   2.019   2.024   2.031   2.033   2.039
  2.044   2.047   2.054   2.055   2.062   2.064   2.065   2.068
  2.073   2.078   2.082   2.086   2.093   2.097   2.100   2.101
  2.108   2.111   2.117   2.121   2.124   2.126   2.135   2.136
  2.137   2.141   2.145   2.150   2.154   2.156   2.164   2.167
  2.172   2.175   2.182   2.187   2.190   2.191   2.192   2.196
  2.200   2.204   2.211   2.213   2.215   2.220   2.221   2.237
  2.241   2.243   2.245   2.250   2.250   2.258   2.262   2.265
  2.267   2.271   2.273   2.276   2.282   2.285   2.287   2.293
  2.298   2.300   2.302   2.308   2.310   2.311   2.315   2.316
  2.320   2.326   2.334   2.336   2.339   2.346   2.348   2.349
  2.352   2.356   2.358   2.358   2.362   2.367   2.372   2.374
  2.376   2.380   2.383   2.388   2.391   2.400   2.406   2.408
  2.411   2.415   2.417   2.419   2.420   2.426   2.428   2.429
  2.433   2.436   2.441   2.444   2.447   2.449   2.453   2.456
  2.458   2.459   2.464   2.468   2.472   2.474   2.475   2.478
  2.481   2.482   2.487   2.491   2.499   2.504   2.506   2.514
  2.515   2.519   2.522   2.525   2.532   2.538   2.542   2.543
  2.546   2.551   2.554   2.557   2.563   2.567   2.572   2.576
  2.587   2.591   2.599   2.605   2.606   2.611   2.618   2.622
  2.629   2.630   2.637   2.641   2.645   2.652   2.658   2.662
  2.664   2.670   2.672   2.676   2.680   2.683   2.688   2.689
  2.691   2.696   2.699   2.704   2.707   2.717   2.719   2.722
  2.725   2.726   2.732   2.732   2.739   2.742   2.752   2.758
  2.762   2.766   2.775   2.779   2.783   2.794   2.798   2.800
  2.801   2.806   2.809   2.816   2.820   2.825   2.832   2.839
  2.852   2.856   2.863   2.866   2.878   2.881   2.884   2.885
  2.888   2.896   2.899   2.902   2.903   2.908   2.912   2.922
  2.923   2.928   2.931   2.954   2.956   2.963   2.965   2.974
  2.976   2.978   2.984   2.989   2.998   3.000   3.011   3.023
  3.039   3.052   3.062   3.067   3.075   3.100   3.109   3.112
  3.159   3.173   3.178   3.197   3.203   3.222   3.230   3.236
  3.241   3.251   3.254   3.270   3.277   3.280   3.284   3.285
  3.292   3.299   3.316   3.319   3.325   3.330   3.339   3.339
  3.356   3.358   3.368   3.373   3.397   3.412   3.413   3.434
  3.434   3.455   3.462   3.470   3.488   3.521   3.538   3.560
  3.571   3.571   3.574   3.582   3.586   3.593   3.603   3.631
  3.644   3.650   3.744   3.744   3.844   3.898   3.907   3.919
  3.946   3.949   3.957   3.960   3.968   3.980   4.000   4.009
  4.033   4.068   4.097   4.104   4.109   4.117   4.121   4.151
  4.155   4.157   4.171   4.177   4.181   4.185   4.212   4.225
  4.231   4.242   4.253   4.268   4.276   4.280   4.292   4.293
  4.307   4.315   4.323   4.363   4.373   4.376   4.399   4.415
  4.431   4.444   4.456   4.470   4.477   4.482   4.496   4.503
  4.518   4.529   4.543   4.558   4.582   4.610   4.667   4.675
  4.708   4.715   4.725   4.733   4.778   4.795   4.810   4.815
 --------------------------------------------------------------
 
          Ground-State Mulliken Net Atomic Charges

     Atom                 Charge (a.u.)
  ----------------------------------------
      1 C                     0.245620
      2 C                    -0.124860
      3 N                    -0.491361
      4 C                    -0.069836
      5 C                     0.127127
      6 C                     0.025917
      7 C                     0.045898
      8 C                     0.059822
      9 C                     0.163659
     10 N                    -0.523923
     11 N                    -0.543075
     12 C                     0.235566
     13 C                     0.302926
     14 S                     0.600262
     15 N                    -0.547356
     16 C                    -0.226584
     17 S                     0.308890
     18 C                    -0.108286
     19 C                    -0.212007
     20 S                     0.275573
     21 C                     0.134837
     22 C                     0.011842
     23 C                    -0.302499
     24 C                    -0.040254
     25 N                    -0.392403
     26 S                     0.306263
     27 C                     0.105445
     28 C                    -0.312558
     29 C                    -0.226055
     30 H                     0.080530
     31 H                     0.108970
     32 H                     0.104478
     33 H                     0.095929
     34 H                     0.129245
     35 H                     0.108805
     36 H                     0.109247
     37 H                     0.133639
     38 H                     0.125845
     39 C                    -0.182122
     40 H                     0.135772
     41 H                     0.105213
     42 H                     0.097671
     43 C                    -0.175681
     44 H                     0.085788
     45 C                    -0.185473
     46 H                     0.091837
     47 H                     0.086464
     48 H                     0.086751
     49 C                    -0.175951
     50 H                     0.100183
     51 C                    -0.310539
     52 H                     0.092643
     53 H                     0.092527
     54 H                     0.104524
     55 H                     0.095637
     56 C                     0.285357
     57 C                    -0.104982
     58 N                    -0.483896
     59 C                    -0.077134
     60 C                     0.065481
     61 C                     0.045827
     62 C                    -0.005245
     63 C                     0.064774
     64 C                     0.281625
     65 N                    -0.548740
     66 N                    -0.531904
     67 C                     0.197297
     68 C                     0.322957
     69 S                     0.601466
     70 N                    -0.596071
     71 C                    -0.218796
     72 S                     0.337875
     73 C                    -0.107463
     74 C                    -0.239973
     75 S                     0.275028
     76 C                     0.171754
     77 C                     0.086763
     78 C                    -0.297874
     79 C                    -0.055503
     80 N                    -0.431528
     81 S                     0.251374
     82 C                     0.117268
     83 C                    -0.312091
     84 C                    -0.240084
     85 H                     0.087242
     86 H                     0.091625
     87 H                     0.101425
     88 H                     0.123227
     89 H                     0.137093
     90 H                     0.122855
     91 H                     0.124330
     92 H                     0.136820
     93 H                     0.120223
     94 C                    -0.182181
     95 H                     0.101422
     96 H                     0.103897
     97 H                     0.092846
     98 C                    -0.170640
     99 H                     0.103760
    100 C                    -0.183623
    101 H                     0.093821
    102 H                     0.097752
    103 H                     0.091156
    104 C                    -0.179159
    105 H                     0.093909
    106 C                    -0.322713
    107 H                     0.088907
    108 H                     0.101968
    109 H                     0.099527
    110 H                     0.100427
  ----------------------------------------
  Sum of atomic charges =     0.000000

 -----------------------------------------------------------------
                    Cartesian Multipole Moments
 -----------------------------------------------------------------
    Charge (ESU x 10^10)
                 0.0000
    Dipole Moment (Debye)
         X      -0.7307      Y       3.2452      Z      -2.3100
       Tot       4.0499
    Quadrupole Moments (Debye-Ang)
        XX    -384.3521     XY      17.8931     YY    -448.2661
        XZ       7.3496     YZ      -5.5980     ZZ    -436.8676
    Octopole Moments (Debye-Ang^2)
       XXX     -76.6448    XXY     108.9283    XYY     -36.4995
       YYY      34.3337    XXZ    -119.7110    XYZ    -125.4918
       YYZ      50.3574    XZZ      41.1533    YZZ      11.5437
       ZZZ     -46.7972
    Hexadecapole Moments (Debye-Ang^3)
      XXXX  -80409.5860   XXXY     222.9250   XXYY  -17026.0837
      XYYY     104.9455   YYYY  -13903.2130   XXXZ     -78.7597
      XXYZ     -35.4250   XYYZ    -112.4205   YYYZ    -154.0018
      XXZZ  -15656.3570   XYZZ     102.6502   YYZZ   -4295.2461
      XZZZ      14.9330   YZZZ    -157.8010   ZZZZ  -12269.0940
 -----------------------------------------------------------------
Archival summary:
1\1\mn246\SP\ProcedureUnspecified\6-31G**\8105042\afmv_a\FriOct1208:24:272018FriOct1208:24:272018\0\\#,ProcedureUnspecified,6-31G**,\\0,1\S\C,1,1.73793\C,2,1.38542,1,111.686\C,3,1.34886,2,114.058,1,1.96121,0\C,4,1.38723,3,113.657,2,2.39623,0\C,5,1.39342,4,124.595,3,176.203,0\C,6,1.40783,5,122.143,4,161.294,0\N,7,1.31852,6,123.511,5,-4.64348,0\C,7,1.39567,6,121.172,5,179.042,0\N,9,1.36744,7,115.387,6,179.057,0\C,9,1.39198,7,119.757,6,3.79544,0\C,11,1.33345,9,119.208,7,-9.18375,0\H,12,1.08863,11,120.358,9,-173.312,0\N,12,1.37445,11,122.009,9,7.28392,0\C,3,1.4434,2,134.356,1,179.201,0\H,15,1.08337,3,124.143,2,6.18106,0\C,15,1.33473,3,114.071,2,-178.68,0\H,17,1.08217,15,129.267,3,-173.82,0\C,2,1.47824,1,121.902,3,172.005,0\N,19,1.28002,2,122.304,1,-167.701,0\C,20,1.38098,19,111.549,2,169.051,0\H,21,1.08168,20,115.443,19,-174.951,0\C,21,1.40061,20,113.01,19,9.1765,0\H,23,1.08296,21,126.422,20,177.879,0\C,11,1.52756,9,117.014,7,-176.695,0\C,25,1.38409,11,126.41,9,-71.5973,0\H,26,1.0867,25,119.082,11,6.88079,0\C,26,1.38638,25,124.765,11,178.939,0\H,28,1.08616,26,119.653,25,173.136,0\C,28,1.38655,26,118.16,25,0.848043,0\N,30,1.33301,28,120.116,26,-1.46893,0\C,31,1.38716,30,120.488,28,1.7982,0\H,32,1.0895,31,114.966,30,173.345,0\C,30,1.49656,28,121.444,26,167.664,0\H,34,1.09693,30,109.958,28,176.054,0\H,34,1.09784,30,115.13,28,74.9011,0\C,34,1.54796,30,115.981,28,-58.2668,0\H,37,1.09705,34,113.561,30,62.6799,0\H,37,1.0979,34,112.438,30,-49.8163,0\C,37,1.54277,34,106.601,30,-167.264,0\H,40,1.09615,37,110.509,34,-63.6172,0\H,40,1.0979,37,110.436,34,61.3738,0\C,40,1.51299,37,112.301,34,175.404,0\H,43,1.09652,40,110.958,37,31.6374,0\H,43,1.0975,40,109.937,37,-89.4985,0\C,43,1.54889,40,109.832,37,155.581,0\H,46,1.09659,43,111.105,40,74.7194,0\H,46,1.09703,43,109.389,40,-37.2419,0\C,46,1.53177,43,115.124,40,-158.143,0\H,49,1.09579,46,115.886,43,-165.653,0\H,49,1.0965,46,109.268,43,-44.0522,0\H,49,1.09682,46,112.579,43,72.7559,0\S,10,1.64009,9,103.292,7,-0.617997,0\S,17,1.7625,15,113.505,3,-1.75145,0\S,23,1.76713,21,111.069,20,-11.6006,0\H,22,2.33246,21,104.048,20,77.8287,0\C,56,1.09661,22,136.28,21,-139.776,0\H,57,1.09794,56,102.695,22,-11.8924,0\C,57,1.47256,56,101.643,22,104.356,0\H,59,1.09665,57,98.6986,56,-68.0964,0\H,59,1.09759,57,110.235,56,177.38,0\C,59,1.51659,57,121.056,56,44.6026,0\H,62,1.09704,59,103.083,57,81.4916,0\H,62,1.09787,59,111.84,57,-32.0403,0\C,62,1.49068,59,109.792,57,-162.176,0\H,65,1.09651,62,119.05,59,52.2328,0\H,65,1.09683,62,111.514,59,-67.859,0\C,65,1.53893,62,110.399,59,174.514,0\N,68,1.40262,65,116.802,62,131.712,0\C,69,1.32689,68,120.589,65,177.164,0\H,70,1.08907,69,118.915,68,-179.795,0\C,70,1.42321,69,123.814,68,0.602094,0\C,72,1.41464,70,118.553,69,-5.54257,0\H,73,1.0856,72,123.508,70,-173.684,0\C,73,1.38621,72,115.514,70,6.33993,0\H,75,1.08588,73,118.995,72,177.491,0\C,72,1.47687,70,122.897,69,-177.523,0\C,77,1.40213,72,122.439,70,-38.7604,0\N,78,1.36808,77,121.276,72,-20.3964,0\C,77,1.40859,72,122.605,70,137.761,0\H,80,1.08872,77,122.019,72,0.580365,0\N,80,1.34339,77,124.319,72,-175.929,0\C,82,1.35356,80,120.688,77,6.36485,0\C,83,1.41521,82,120.081,80,-8.23914,0\N,84,1.35174,83,129.727,82,-163.274,0\C,83,1.45381,82,113.394,80,169.138,0\C,86,1.38447,83,127.849,82,-145.719,0\C,87,1.39182,86,116.519,83,158.509,0\C,88,1.37265,87,114.36,86,6.90241,0\C,89,1.42765,88,118.192,87,-164.697,0\N,90,1.31578,89,111.415,88,-71.4151,0\C,91,1.36982,90,105.872,89,-176.699,0\H,92,1.08125,91,116.888,90,-172.595,0\C,92,1.39747,91,115.12,90,0.133258,0\H,94,1.08072,92,130.662,91,-168.274,0\C,88,1.44316,87,112.468,86,-178.012,0\H,96,1.0834,88,122.434,87,-174.242,0\C,96,1.35079,88,113.434,87,2.3205,0\H,98,1.08143,96,129.542,88,-175.482,0\C,57,1.5581,56,103.483,22,-137.058,0\H,100,1.09638,57,112.451,56,-60.5238,0\H,100,1.09732,57,107.321,56,-176.162,0\C,100,1.50223,57,108.833,56,72.0189,0\H,103,1.09609,100,104.014,57,-176.28,0\H,103,1.09696,100,113.889,57,64.5922,0\H,103,1.09706,100,114.677,57,-55.9608,0\S,85,1.63328,84,108.849,83,164.496,0\S,94,1.68765,92,112.544,91,5.65458,0\S,86,1.75279,83,119.221,82,2.29765,0\S,98,1.7758,96,112.77,88,-1.82635,0\\\@

 Total job time:  114.65s(wall), 1378.79s(cpu) 
 Fri Oct 12 08:24:27 2018

        *************************************************************
        *                                                           *
        *  Thank you very much for using Q-Chem.  Have a nice day.  *
        *                                                           *
        *************************************************************


