
Running Job 1 of 1 ./8/62.qcin
qchem ./8/62.qcin_9819.0 /tmpu/cab_g/afmv_a/scratch_qchem/qchem9819/ 1
/tmpu/appuserlic/qchem4.4/serial-multicore/exe/qcprog.exe_s ./8/62.qcin_9819.0 /tmpu/cab_g/afmv_a/scratch_qchem/qchem9819/
Check license passed

                  Welcome to Q-Chem
     A Quantum Leap Into The Future Of Chemistry


 Q-Chem 4.4, Q-Chem, Inc., Pleasanton, CA (2016)

 Y. Shao,  Z. Gan,  E. Epifanovsky,  A. T. B. Gilbert,  M. Wormit,  
 J. Kussmann,  A. W. Lange,  A. Behn,  J. Deng,  X. Feng,  D. Ghosh,  
 M. Goldey,  P. R. Horn,  L. D. Jacobson,  I. Kaliman,  F. Rob,  
 R. Z. Khaliullin,  T. Kus,  A. Landau,  J. Liu,  E. I. Proynov,  Y. M. Rhee,  
 R. M. Richard,  M. A. Rohrdanz,  R. P. Steele,  E. J. Sundstrom,  
 H. L. Woodcock III,  P. M. Zimmerman,  D. Zuev,  B. Albrecht,  E. Alguire,  
 B. Austin,  S. A. Baeppler,  G. J. O. Beran,  Y. A. Bernard,  E. Berquist,  
 K. Brandhorst,  K. B. Bravaya,  S. T. Brown,  D. Casanova,  C.-M. Chang,  
 Y. Chen,  S. H. Chien,  K. D. Closser,  M. P. Coons,  D. L. Crittenden,  
 S. Dasgupta,  M. Diedenhofen,  R. A. DiStasio Jr.,  H. Do,  A. D. Dutoi,  
 R. G. Edgar,  P.-T. Fang,  S. Fatehi,  Q. Feng,  L. Fusti-Molnar,  
 A. Ghysels,  A. Golubeva-Zadorozhnaya,  J. Gomes,  A. Gunina,  
 M. W. D. Hanson-Heine,  P. H. P. Harbach,  A. W. Hauser,  J. E. Herr,  
 E. G. Hohenstein,  Z. C. Holden,  K. Hui,  T.-C. Jagau,  H. Ji,  B. Kaduk,  
 K. Khistyaev,  Jaehoon Kim,  Jihan Kim,  R. A. King,  P. Klunzinger,  
 K. Koh,  D. Kosenkov,  T. Kowalczyk,  C. M. Krauter,  A. Kunitsa,  
 K. U. Lao,  A. Laurent,  K. V. Lawler,  J. Lee,  D. Lefrancois,  S. Lehtola,  
 S. V. Levchenko,  C. Y. Lin,  Y.-S. Lin,  F. Liu,  E. Livshits,  
 R. C. Lochan,  A. Luenser,  P. Manohar,  S. F. Manzer,  S.-P. Mao,  Y. Mao,  
 N. Mardirossian,  A. V. Marenich,  L. A. Martinez-Martinez,  S. A. Maurer,  
 N. J. Mayhall,  J.-M. Mewes,  A. F. Morrison,  K. Nanda,  T. S. Nguyen-Beck,  
 C. M. Oana,  R. Olivares-Amaya,  D. P. O'Neill,  J. A. Parkhill,  
 T. M. Perrine,  R. Peverati,  P. A. Pieniazek,  F. Plasser,  A. Prociuk,  
 D. R. Rehn,  E. Rosta,  N. J. Russ,  N. Sergueev,  S. M. Sharada,  
 S. Sharma,  D. W. Small,  A. Sodt,  T. Stauch,  T. Stein,  D. Stuck,  
 Y.-C. Su,  A. J. W. Thom,  T. Tsuchimochi,  L. Vogt,  O. Vydrov,  T. Wang,  
 M. A. Watson,  J. Wenzel,  A. White,  C. F. Williams,  V. Vanovschi,  
 K. Yao,  S. Yeganeh,  S. R. Yost,  Z.-Q. You,  I. Y. Zhang,  X. Zhang,  
 Y. Zhao,  B. R. Brooks,  G. K. L. Chan,  D. M. Chipman,  C. J. Cramer,  
 W. A. Goddard III,  M. S. Gordon,  W. J. Hehre,  A. Klamt,  
 H. F. Schaefer III,  M. W. Schmidt,  C. D. Sherrill,  D. G. Truhlar,  
 A. Warshel,  X. Xu,  A. Aspuru-Guzik,  R. Baer,  A. T. Bell,  N. A. Besley,  
 J.-D. Chai,  A. Dreuw,  B. D. Dunietz,  T. R. Furlani,  S. R. Gwaltney,  
 C.-P. Hsu,  Y. Jung,  J. Kong,  D. S. Lambrecht,  W. Liang,  C. Ochsenfeld,  
 V. A. Rassolov,  L. V. Slipchenko,  J. E. Subotnik,  T. Van Voorhis,  
 J. M. Herbert,  A. I. Krylov,  P. M. W. Gill,  M. Head-Gordon

 Contributors to earlier versions of Q-Chem not listed above: 
 R. D. Adamson,  J. Baker,  E. F. C. Byrd,  A. K. Chakraborty,  C.-L. Cheng,  
 H. Dachsel,  R. J. Doerksen,  G. Hawkins,  A. Heyden,  S. Hirata,  
 G. Kedziora,  F. J. Keil,  C. Kelley,  P. P. Korambath,  W. Kurlancheek,  
 A. M. Lee,  M. S. Lee,  D. Liotard,  I. Lotan,  P. E. Maslen,  N. Nair,  
 D. Neuhauser,  R. Olson,  B. Peters,  J. Ritchie,  N. E. Schultz,  
 N. Shenvi,  A. C. Simmonett,  K. S. Thanthiriwatte,  Q. Wu,  W. Zhang

 Please cite Q-Chem as follows:
 Y. Shao et al., Mol. Phys. 113, 184-215 (2015)
 DOI: 10.1080/00268976.2014.952696

 Q-Chem 4.4.2 for Intel X86 Linux

 Parts of Q-Chem use Armadillo 5.200.1 (Boston Tea Smuggler).
 http://arma.sourceforge.net/

 Q-Chem begins on Fri Oct 12 08:34:22 2018  

Host: 
0

     Scratch files written to /tmpu/cab_g/afmv_a/scratch_qchem/qchem9819//
 Dec716 11556_ 22328  22283 4050   
Processing $rem in /tmpu/appuserlic/qchem4.4/serial-multicore/config/preferences.
 MEM_TOTAL  2000 
FILE_GEOM_ORG=        593

Checking the input file for inconsistencies... 	...done.

--------------------------------------------------------------
User input:
--------------------------------------------------------------
$comment
SP
$end

$rem
MEM_STATIC 5000
MEM_TOTAL 20000
JOBTYPE SP
EXCHANGE B3LYP
BASIS 6-31g(d,p)
$end

$molecule
0 1
C          11.736000     29.585000      6.208000
C          11.782000     28.474000      5.328000
N          10.977000     29.637000      7.323000
C          11.080000     27.314000      5.670000
C          10.237000     28.527000      7.630000
C          10.266000     27.284000      6.872000
C           9.385000     26.226000      7.195000
C           8.666000     25.573000      6.177000
C           9.141000     25.773000      8.526000
N           7.688000     24.703000      6.398000
N           9.726000     26.218000      9.661000
C           8.123000     24.856000      8.759000
C           7.410000     24.247000      7.656000
S           8.956000     25.444000     10.880000
N           7.888000     24.573000     10.047000
C           6.406000     23.182000      7.780000
S           5.850000     22.393000      9.290000
C           5.675000     22.579000      6.736000
C           4.928000     21.214000      8.380000
S           5.647000     23.100000      5.050000
C           4.860000     21.546000      7.077000
C           4.198000     20.092000      8.894000
C           4.439000     21.808000      4.779000
C           4.185000     21.075000      5.911000
N           3.149000     19.653000      8.314000
S           4.409000     19.555000     10.580000
C           2.498000     18.724000      9.078000
C           3.000000     18.594000     10.356000
C          12.327000     30.886000      5.760000
H          12.340000     28.479000      4.398000
H          11.008000     26.493000      4.964000
H           9.672000     28.612000      8.557000
H           8.923000     25.788000      5.141000
H           4.004000     21.594000      3.810000
H           3.468000     20.264000      5.860000
H           1.585000     18.241000      8.755000
H           2.577000     18.078000     11.208000
H          12.856000     31.191000      6.673000
C          11.311000     31.953000      5.364000
H          13.141000     30.862000      5.025000
H          10.514000     32.031000      6.114000
H          10.814000     31.511000      4.491000
C          11.879000     33.399000      5.088000
H          12.227000     33.841000      6.030000
C          10.894000     34.369000      4.457000
H          12.784000     33.420000      4.469000
H           9.914000     33.926000      4.674000
H          10.934000     34.250000      3.368000
C          11.225000     35.793000      4.807000
H          11.106000     35.965000      5.884000
C          10.393000     36.914000      4.091000
H          12.269000     36.024000      4.562000
H          10.646000     37.913000      4.470000
H           9.324000     36.761000      4.285000
H          10.645000     36.840000      3.026000
C           7.501000     20.103000     -3.327000
C           8.021000     20.633000     -2.132000
N           6.509000     19.157000     -3.275000
C           7.357000     20.350000     -0.900000
C           5.914000     18.845000     -2.091000
C           6.289000     19.460000     -0.884000
C           5.498000     19.334000      0.391000
C           4.098000     19.450000      0.388000
C           6.082000     18.940000      1.620000
N           3.353000     19.229000      1.482000
N           7.407000     18.828000      1.825000
C           5.291000     18.588000      2.662000
C           3.927000     18.758000      2.590000
S           7.532000     18.356000      3.367000
N           5.931000     18.227000      3.735000
C           2.999000     18.187000      3.540000
S           3.339000     17.099000      4.860000
C           1.613000     18.417000      3.551000
C           1.704000     16.975000      5.363000
S           0.555000     19.439000      2.537000
C           0.923000     17.719000      4.555000
C           1.217000     16.200000      6.457000
C          -0.825000     18.907000      3.477000
C          -0.464000     18.025000      4.484000
N           0.014000     16.250000      6.927000
S           2.417000     15.105000      7.267000
C          -0.048000     15.395000      8.005000
C           1.120000     14.715000      8.388000
C           8.122000     20.291000     -4.647000
H           8.829000     21.357000     -2.181000
H           7.676000     20.769000      0.048000
H           5.144000     18.087000     -1.953000
H           3.565000     19.748000     -0.512000
H          -1.819000     19.229000      3.197000
H          -1.180000     17.593000      5.173000
H          -0.983000     15.381000      8.548000
H           1.292000     13.935000      9.118000
H           7.360000     20.250000     -5.435000
C           9.177000     19.177000     -4.945000
H           8.633000     21.261000     -4.672000
H           8.915000     18.197000     -4.529000
H          10.155000     19.515000     -4.581000
C           9.303000     18.951000     -6.486000
H           8.283000     18.822000     -6.869000
C          10.263000     17.831000     -6.775000
H           9.667000     19.879000     -6.945000
H           9.687000     16.900000     -6.715000
H          11.033000     17.826000     -5.993000
C          11.000000     17.995000     -8.095000
H          11.244000     19.058000     -8.215000
C          10.160000     17.498000     -9.286000
H          11.925000     17.406000     -8.063000
H          10.733000     17.223000    -10.181000
H           9.380000     18.233000     -9.522000
H           9.674000     16.575000     -8.948000
$end

--------------------------------------------------------------
 ----------------------------------------------------------------
             Standard Nuclear Orientation (Angstroms)
    I     Atom           X                Y                Z
 ----------------------------------------------------------------
    1      C       9.4782908325     1.2111268053    -0.9654168728
    2      C       8.3007791357     1.9202088137    -1.3139938503
    3      N       9.5085318145    -0.1036485489    -0.6613424558
    4      C       7.1031954704     1.2114836963    -1.4513622337
    5      C       8.3266779903    -0.7908053329    -0.7319547226
    6      C       7.0644625273    -0.2127420030    -1.1713963131
    7      C       5.8693196335    -0.9659380841    -1.1067192165
    8      C       4.7046973296    -0.3930116699    -0.5634842644
    9      C       5.7589781210    -2.3206738488    -1.5412554735
   10      N       3.5974145693    -1.0736248748    -0.2934554620
   11      N       6.7212795770    -3.0746295795    -2.1191842441
   12      C       4.5975479912    -3.0329551252    -1.2669610390
   13      C       3.4485689831    -2.3758636543    -0.6804995843
   14      S       6.0740266865    -4.5706486821    -2.2638477865
   15      N       4.6234046466    -4.3280234453    -1.6081171316
   16      C       2.1361105089    -2.9980131726    -0.4614111766
   17      S       1.6539831139    -4.6744593154    -0.8723108058
   18      C       1.0012575112    -2.4012661729     0.1250252582
   19      C      -0.0164074548    -4.3337159577    -0.4699250306
   20      S       0.9476120619    -0.8258717442     0.9187982481
   21      C      -0.1383761503    -3.1418470000     0.1442646998
   22      C      -1.1445857781    -5.2064884316    -0.6164237673
   23      C      -0.7612746462    -1.1929698564     1.3020921235
   24      C      -1.1713450890    -2.3984134013     0.7902551455
   25      N      -2.1467194401    -5.1435807924     0.1717974913
   26      S      -1.0239334399    -6.7099554316    -1.5653789786
   27      C      -3.0041145883    -6.1930050393    -0.0129193458
   28      C      -2.5263380506    -7.1676698977    -0.8637695052
   29      C      10.7164435692     1.9857773913    -0.6345388436
   30      H       8.2836286141     2.9914907883    -1.4823678106
   31      H       6.1703481512     1.7436035249    -1.6072640201
   32      H       8.4164297522    -1.8532175642    -0.5105865404
   33      H       4.7031029447     0.6747272538    -0.3501745161
   34      H      -1.4133316079    -0.5068947058     1.8294483660
   35      H      -2.1916240798    -2.7206927132     0.9622371974
   36      H      -3.9099175346    -6.3137930285     0.5668377448
   37      H      -2.9067448067    -8.1645318801    -1.0444512364
   38      H      11.4712165506     1.3974951684    -1.1736833259
   39      C      11.0625992691     2.0442194002     0.8501570051
   40      H      10.8434297816     2.9795054056    -1.0815020807
   41      H      10.9933399138     1.0490365001     1.3068923082
   42      H      10.2168946568     2.5953185975     1.2809416189
   43      C      12.4633656626     2.6674729925     1.2231509332
   44      H      13.2632582616     1.9937010876     0.8914353166
   45      C      12.6731553037     2.9426509515     2.7028642153
   46      H      12.7020425074     3.5966359205     0.6918161827
   47      H      11.9270145297     2.3073427748     3.1962154756
   48      H      12.2766658051     3.9382419143     2.9336817018
   49      C      14.1306731941     2.8986331636     3.0682968815
   50      H      14.5339912675     1.8874997557     2.9318499570
   51      C      14.5118683323     3.3276738426     4.5284802133
   52      H      14.7166517474     3.5640578200     2.4224167366
   53      H      15.5818868094     3.1836521999     4.7284032612
   54      H      13.9665637424     2.7063902752     5.2499063241
   55      H      14.2539384050     4.3910614020     4.6051877823
   56      C      -3.1916062321     7.2467798830     0.3778531291
   57      C      -2.1684047607     6.4205444144    -0.1218654911
   58      N      -4.4182539952     6.7068306006     0.6702125616
   59      C      -2.3476215987     5.0041078100    -0.1019238103
   60      C      -4.6055316933     5.3589261269     0.6340795636
   61      C      -3.5704634954     4.4719677467     0.2910960984
   62      C      -3.6597396361     2.9809798879     0.4812722688
   63      C      -4.1786696728     2.4328094701     1.6660447406
   64      C      -3.3844568814     2.0576082776    -0.5571579283
   65      N      -4.3804874054     1.1156244249     1.8241433160
   66      N      -2.8371238721     2.3921579316    -1.7398231835
   67      C      -3.7328977267     0.7562520490    -0.4142945552
   68      C      -4.2098664301     0.2907280981     0.7900178242
   69      S      -2.7404474259     0.9916941660    -2.5432706965
   70      N      -3.4497015554     0.0006724603    -1.4341717114
   71      C      -4.8313566104    -1.0036963521     0.9571713418
   72      S      -5.2276754760    -2.1769550956    -0.2708918803
   73      C      -5.2431374362    -1.5476492607     2.1854094232
   74      C      -5.9088656414    -3.3040341636     0.8278723042
   75      S      -5.1313246796    -0.9479679229     3.8646724165
   76      C      -5.8522842850    -2.8082481398     2.0798131050
   77      C      -6.4682175888    -4.5726678029     0.4927244440
   78      C      -5.9216330039    -2.4109974565     4.4178282140
   79      C      -6.2234268165    -3.2703966409     3.3725303920
   80      N      -6.8205941423    -5.4788482950     1.3443562189
   81      S      -6.6381790360    -4.9368533954    -1.2774752512
   82      C      -7.2653638266    -6.5701327683     0.6314529110
   83      C      -7.2191441741    -6.5171867103    -0.7715344227
   84      C      -3.1374159484     8.7166030113     0.3695836294
   85      H      -1.2107663507     6.8617632938    -0.3820492264
   86      H      -1.5783421071     4.3109359226    -0.4240228609
   87      H      -5.5497759927     4.8485720205     0.8196850301
   88      H      -4.4186055209     3.0676215489     2.5159490961
   89      H      -6.1660939147    -2.5234099300     5.4655506481
   90      H      -6.7082964791    -4.2282298579     3.5190156772
   91      H      -7.5331394358    -7.4414661883     1.2131266119
   92      H      -7.5970326061    -7.1902074656    -1.5299059649
   93      H      -3.7343769166     9.1237434400     1.1948976749
   94      C      -3.7057702860     9.3009280592    -0.9639689887
   95      H      -2.0944881556     9.0411224352     0.4677404559
   96      H      -4.5351691376     8.7195061763    -1.3836666647
   97      H      -2.8828786390     9.3960845198    -1.6830090330
   98      C      -4.2852522414    10.7318992236    -0.7228151169
   99      H      -4.9543461190    10.6579520471     0.1435423139
  100      C      -4.8979731974    11.2692690674    -1.9858779345
  101      H      -3.4675024234    11.3882715675    -0.3990535051
  102      H      -5.9263080839    10.8906534003    -2.0221344900
  103      H      -4.3383359759    10.8662296728    -2.8395842228
  104      C      -4.8130950522    12.7833073026    -2.0996712679
  105      H      -3.8359837623    13.0962929851    -1.7108287679
  106      C      -5.9480465403    13.4806261339    -1.3271937168
  107      H      -4.8973759912    13.0672086425    -3.1560172115
  108      H      -6.1866786278    14.4982251339    -1.6626426729
  109      H      -5.7343287011    13.4552063477    -0.2510898558
  110      H      -6.8500537181    12.8858893066    -1.5143838806
 ----------------------------------------------------------------
 Molecular Point Group                 C1    NOp =  1
 Largest Abelian Subgroup              C1    NOp =  1
 Nuclear Repulsion Energy = 11226.6835794923 hartrees
 There are      270 alpha and      270 beta electrons
 Requested basis set is 6-31G(d,p)
 There are 406 shells and 1262 basis functions

 Total QAlloc Memory Limit  20000 MB
 Mega-Array Size      4888 MB
 MEM_STATIC part      5000 MB
 A cutoff of  1.0D-08 yielded  13247 shell pairs
 There are    140247 function pairs
 
 -------------------------------------------------------
 OpenMP Integral Computing Module                       
 Release: version 1.0, May 2013, Q-Chem Inc. Pittsburgh 
 -------------------------------------------------------
 Integral Job Info:
 Integral job number is                      11
 Integral operator is                         1
 short-range coefficients                     0
 long-range coefficients              100000000
 Omega coefficients                           0
 if combine SR and LR in K                    0
 Integral screening is                        0
 Integral computing path is                   2
 max size of driver memory is            800000
 size of driver memory is                593474
 size of scratch memory is             15166112
 max col of scratch BK array               1296
 max len of scratch array in speh3          155
 max len of scratch index in speh4           18
 max int batch size is                      520
 min int batch size is                       52
 fixed nKL is                                52
 max L of basis functions is                  2
 order of int derivative is                   0
 number of shells is                        406
 number of basis is                        1262
 number of cartesian basis is              1262
 number of contracted shell pairs         13247
 number of primitive shell pairs          43003
 maxK2 (contraction) of shell pair           36
 max number of K2 of shell pair               1
 max number of CS2 of shell pair           1391
 max number of PS2 of shell pair           8010
 mem total for path MDJ                  295560
 -------------------------------------------------------
 Smallest overlap matrix eigenvalue = 3.87E-04

 Scale SEOQF with 1.000000e-02/1.000000e-02/1.000000e-02

 Standard Electronic Orientation quadrupole field applied
 Nucleus-field energy     =     0.0000001456 hartrees
 Guess from superposition of atomic densities
 Warning:  Energy on first SCF cycle will be non-variational
 A restricted hybrid HF-DFT SCF calculation will be
 performed using Pulay DIIS extrapolation
 Exchange:     0.2000 Hartree-Fock + 0.0800 Slater + 0.7200 B88
 Correlation:  0.1900 VWN1RPA + 0.8100 LYP
 Using SG-1 standard quadrature grid
 SCF converges when DIIS error is below 1.0E-05
 using 16 threads for integral computing 
 -------------------------------------------------------
 OpenMP BLAS3 based DFT computing Module                
 Release: version 1.0, May 2013, Q-Chem Inc. Pittsburgh 
 -------------------------------------------------------
 ---------------------------------------
  Cycle       Energy         DIIS Error
 ---------------------------------------
    1   -5680.7834148748      2.17E-02
    2   -5662.5399040880      2.15E-03
    3   -5660.8534682687      3.50E-03
    4   -5663.3740196317      8.95E-04
    5   -5663.5297496007      3.15E-04
    6   -5663.5413747669      2.06E-04
    7   -5663.5496442180      7.55E-05
    8   -5663.5507969285      2.64E-05
    9   -5663.5509279323      8.55E-06 Convergence criterion met
 ---------------------------------------
 SCF time:  CPU 988.55 s  wall 81.40 s
 SCF   energy in the final basis set = -5663.5509279323
 Total energy in the final basis set = -5663.5509279323
 
 --------------------------------------------------------------
 
                    Orbital Energies (a.u.)
 --------------------------------------------------------------
 
 Alpha MOs
 -- Occupied --
-88.990 -88.987 -88.928 -88.927 -88.924 -88.920 -88.909 -88.905
-14.386 -14.385 -14.384 -14.380 -14.353 -14.349 -14.346 -14.342
-14.332 -14.331 -10.274 -10.266 -10.264 -10.259 -10.253 -10.253
-10.252 -10.246 -10.244 -10.244 -10.240 -10.239 -10.238 -10.237
-10.237 -10.235 -10.231 -10.230 -10.230 -10.230 -10.229 -10.229
-10.228 -10.227 -10.223 -10.223 -10.217 -10.217 -10.216 -10.214
-10.209 -10.208 -10.204 -10.201 -10.201 -10.199 -10.194 -10.190
-10.185 -10.183 -10.181 -10.180 -10.178 -10.176 -10.176 -10.174
-10.172 -10.172 -10.172 -10.170  -8.046  -8.043  -7.988  -7.985
 -7.985  -7.982  -7.968  -7.964  -6.011  -6.008  -6.006  -6.004
 -6.002  -6.000  -5.952  -5.950  -5.948  -5.948  -5.946  -5.946
 -5.945  -5.945  -5.942  -5.942  -5.942  -5.939  -5.933  -5.929
 -5.929  -5.925  -5.925  -5.920  -1.055  -1.042  -0.982  -0.980
 -0.969  -0.954  -0.931  -0.929  -0.921  -0.916  -0.915  -0.905
 -0.849  -0.841  -0.837  -0.835  -0.815  -0.810  -0.810  -0.808
 -0.807  -0.804  -0.798  -0.793  -0.787  -0.784  -0.769  -0.766
 -0.748  -0.746  -0.741  -0.735  -0.725  -0.724  -0.712  -0.712
 -0.694  -0.692  -0.680  -0.674  -0.656  -0.652  -0.651  -0.645
 -0.642  -0.632  -0.631  -0.621  -0.611  -0.610  -0.599  -0.596
 -0.594  -0.590  -0.586  -0.581  -0.578  -0.576  -0.573  -0.566
 -0.556  -0.551  -0.543  -0.539  -0.526  -0.525  -0.516  -0.510
 -0.506  -0.506  -0.503  -0.498  -0.496  -0.487  -0.482  -0.479
 -0.477  -0.472  -0.471  -0.470  -0.465  -0.463  -0.451  -0.451
 -0.447  -0.443  -0.440  -0.439  -0.438  -0.437  -0.433  -0.431
 -0.429  -0.428  -0.426  -0.424  -0.421  -0.420  -0.416  -0.413
 -0.412  -0.411  -0.407  -0.405  -0.401  -0.400  -0.399  -0.397
 -0.396  -0.394  -0.393  -0.388  -0.386  -0.384  -0.382  -0.380
 -0.373  -0.373  -0.372  -0.372  -0.365  -0.364  -0.358  -0.353
 -0.351  -0.351  -0.349  -0.348  -0.346  -0.345  -0.341  -0.340
 -0.339  -0.339  -0.336  -0.333  -0.332  -0.328  -0.322  -0.317
 -0.317  -0.314  -0.313  -0.311  -0.310  -0.305  -0.304  -0.303
 -0.301  -0.299  -0.298  -0.295  -0.290  -0.283  -0.281  -0.279
 -0.275  -0.269  -0.269  -0.263  -0.253  -0.251  -0.250  -0.250
 -0.247  -0.246  -0.234  -0.227  -0.197  -0.191
 -- Virtual --
 -0.115  -0.112  -0.074  -0.070  -0.038  -0.032  -0.029  -0.026
 -0.020  -0.015  -0.012  -0.010  -0.006  -0.003  -0.002   0.002
  0.004   0.006   0.025   0.027   0.035   0.038   0.042   0.046
  0.048   0.051   0.063   0.064   0.076   0.081   0.088   0.094
  0.097   0.098   0.104   0.107   0.108   0.111   0.112   0.113
  0.114   0.117   0.118   0.118   0.119   0.121   0.121   0.125
  0.127   0.129   0.130   0.133   0.137   0.138   0.143   0.146
  0.149   0.150   0.150   0.154   0.155   0.158   0.158   0.164
  0.165   0.168   0.170   0.177   0.180   0.183   0.184   0.184
  0.185   0.188   0.191   0.191   0.192   0.192   0.197   0.199
  0.201   0.202   0.208   0.208   0.211   0.214   0.218   0.223
  0.224   0.226   0.227   0.230   0.234   0.236   0.242   0.243
  0.245   0.249   0.252   0.254   0.258   0.259   0.262   0.264
  0.266   0.270   0.270   0.274   0.275   0.280   0.281   0.283
  0.286   0.288   0.288   0.292   0.298   0.304   0.308   0.308
  0.311   0.315   0.318   0.319   0.322   0.324   0.326   0.328
  0.330   0.335   0.336   0.338   0.339   0.343   0.344   0.348
  0.353   0.356   0.360   0.363   0.368   0.369   0.371   0.375
  0.376   0.379   0.381   0.385   0.388   0.393   0.396   0.400
  0.401   0.404   0.412   0.414   0.423   0.426   0.433   0.436
  0.444   0.449   0.452   0.455   0.463   0.466   0.469   0.473
  0.474   0.479   0.480   0.485   0.488   0.493   0.494   0.498
  0.503   0.505   0.507   0.509   0.511   0.512   0.516   0.517
  0.520   0.524   0.526   0.527   0.529   0.530   0.532   0.534
  0.535   0.536   0.542   0.544   0.547   0.550   0.552   0.553
  0.553   0.554   0.556   0.557   0.559   0.562   0.563   0.565
  0.567   0.570   0.572   0.573   0.575   0.577   0.580   0.582
  0.584   0.585   0.586   0.591   0.593   0.594   0.594   0.596
  0.599   0.601   0.605   0.607   0.607   0.609   0.612   0.615
  0.615   0.622   0.623   0.624   0.625   0.629   0.631   0.633
  0.635   0.637   0.641   0.642   0.643   0.646   0.650   0.650
  0.652   0.652   0.657   0.660   0.660   0.664   0.666   0.670
  0.678   0.680   0.681   0.686   0.687   0.688   0.692   0.695
  0.695   0.701   0.703   0.704   0.709   0.714   0.719   0.721
  0.725   0.726   0.732   0.732   0.734   0.741   0.743   0.747
  0.748   0.750   0.750   0.753   0.755   0.761   0.763   0.765
  0.769   0.776   0.779   0.781   0.785   0.788   0.790   0.793
  0.794   0.796   0.797   0.799   0.800   0.801   0.806   0.809
  0.810   0.813   0.815   0.817   0.819   0.822   0.824   0.825
  0.826   0.828   0.830   0.831   0.832   0.835   0.836   0.839
  0.839   0.840   0.843   0.845   0.847   0.848   0.850   0.852
  0.855   0.857   0.861   0.862   0.865   0.866   0.870   0.870
  0.873   0.877   0.878   0.880   0.884   0.888   0.889   0.890
  0.895   0.897   0.898   0.900   0.903   0.906   0.907   0.915
  0.916   0.917   0.918   0.921   0.922   0.925   0.925   0.929
  0.930   0.933   0.935   0.940   0.941   0.944   0.946   0.948
  0.949   0.953   0.957   0.959   0.960   0.961   0.963   0.964
  0.965   0.968   0.970   0.972   0.975   0.977   0.982   0.984
  0.987   0.988   0.991   0.999   1.000   1.001   1.004   1.007
  1.007   1.012   1.014   1.015   1.018   1.022   1.024   1.024
  1.027   1.032   1.035   1.038   1.040   1.044   1.045   1.049
  1.052   1.053   1.064   1.068   1.072   1.080   1.081   1.084
  1.087   1.090   1.096   1.099   1.103   1.108   1.113   1.115
  1.120   1.123   1.127   1.129   1.134   1.140   1.144   1.148
  1.151   1.159   1.163   1.167   1.168   1.175   1.177   1.191
  1.194   1.195   1.197   1.208   1.210   1.220   1.224   1.227
  1.231   1.236   1.246   1.249   1.252   1.258   1.266   1.269
  1.271   1.273   1.278   1.290   1.291   1.295   1.296   1.301
  1.306   1.310   1.316   1.320   1.322   1.329   1.330   1.335
  1.341   1.344   1.348   1.355   1.356   1.359   1.363   1.366
  1.370   1.376   1.386   1.390   1.392   1.396   1.399   1.402
  1.405   1.407   1.412   1.421   1.423   1.425   1.430   1.441
  1.442   1.445   1.447   1.454   1.458   1.464   1.468   1.469
  1.471   1.480   1.482   1.491   1.498   1.502   1.504   1.520
  1.521   1.525   1.536   1.537   1.551   1.553   1.562   1.564
  1.569   1.577   1.587   1.591   1.591   1.603   1.612   1.614
  1.625   1.629   1.630   1.638   1.646   1.650   1.652   1.661
  1.665   1.665   1.672   1.674   1.678   1.680   1.684   1.687
  1.693   1.695   1.696   1.700   1.702   1.703   1.705   1.715
  1.718   1.722   1.726   1.735   1.740   1.742   1.745   1.753
  1.758   1.760   1.768   1.769   1.774   1.776   1.777   1.786
  1.789   1.790   1.796   1.808   1.810   1.811   1.816   1.820
  1.827   1.829   1.833   1.840   1.841   1.842   1.846   1.851
  1.857   1.864   1.866   1.869   1.872   1.874   1.876   1.880
  1.881   1.882   1.887   1.888   1.891   1.892   1.895   1.898
  1.900   1.903   1.907   1.908   1.912   1.913   1.917   1.925
  1.928   1.935   1.936   1.937   1.939   1.942   1.946   1.951
  1.952   1.957   1.963   1.968   1.976   1.981   1.989   1.994
  2.002   2.005   2.008   2.009   2.010   2.022   2.026   2.029
  2.034   2.037   2.042   2.055   2.058   2.059   2.067   2.073
  2.075   2.079   2.080   2.080   2.086   2.086   2.093   2.094
  2.103   2.107   2.115   2.118   2.121   2.122   2.123   2.124
  2.139   2.144   2.145   2.152   2.153   2.161   2.161   2.164
  2.166   2.167   2.169   2.171   2.173   2.176   2.183   2.192
  2.193   2.198   2.201   2.202   2.205   2.211   2.215   2.218
  2.221   2.227   2.232   2.237   2.240   2.241   2.258   2.259
  2.261   2.262   2.266   2.269   2.277   2.282   2.282   2.284
  2.288   2.291   2.298   2.298   2.301   2.303   2.308   2.311
  2.315   2.319   2.322   2.326   2.327   2.332   2.337   2.340
  2.344   2.348   2.356   2.358   2.362   2.365   2.369   2.369
  2.370   2.375   2.380   2.386   2.390   2.395   2.401   2.405
  2.407   2.407   2.411   2.413   2.420   2.425   2.427   2.428
  2.430   2.433   2.439   2.443   2.443   2.447   2.451   2.453
  2.456   2.459   2.461   2.464   2.465   2.477   2.478   2.479
  2.483   2.488   2.488   2.493   2.497   2.500   2.505   2.507
  2.513   2.515   2.520   2.524   2.530   2.531   2.535   2.536
  2.538   2.542   2.547   2.550   2.559   2.562   2.564   2.568
  2.572   2.580   2.581   2.585   2.593   2.596   2.602   2.604
  2.605   2.616   2.624   2.626   2.632   2.636   2.638   2.644
  2.648   2.655   2.657   2.664   2.668   2.670   2.673   2.681
  2.683   2.688   2.693   2.694   2.698   2.702   2.703   2.707
  2.712   2.712   2.716   2.720   2.725   2.736   2.739   2.741
  2.746   2.751   2.760   2.767   2.770   2.777   2.788   2.793
  2.796   2.803   2.806   2.811   2.816   2.825   2.828   2.836
  2.841   2.846   2.849   2.855   2.862   2.873   2.879   2.880
  2.888   2.894   2.898   2.904   2.905   2.908   2.918   2.923
  2.931   2.932   2.934   2.942   2.943   2.951   2.954   2.975
  2.976   2.984   2.996   2.998   3.003   3.007   3.014   3.017
  3.026   3.030   3.056   3.060   3.083   3.107   3.116   3.123
  3.153   3.156   3.187   3.193   3.203   3.229   3.231   3.239
  3.250   3.254   3.262   3.263   3.272   3.281   3.289   3.293
  3.301   3.305   3.307   3.314   3.316   3.324   3.330   3.346
  3.349   3.349   3.359   3.363   3.390   3.405   3.405   3.410
  3.431   3.445   3.452   3.465   3.487   3.490   3.509   3.556
  3.565   3.567   3.576   3.576   3.584   3.595   3.596   3.606
  3.627   3.642   3.705   3.730   3.848   3.856   3.905   3.911
  3.951   3.953   3.964   3.965   3.975   3.981   3.988   4.004
  4.063   4.076   4.090   4.093   4.110   4.111   4.116   4.120
  4.129   4.135   4.149   4.155   4.161   4.165   4.180   4.181
  4.202   4.210   4.233   4.250   4.251   4.259   4.266   4.271
  4.278   4.290   4.320   4.341   4.358   4.368   4.375   4.384
  4.426   4.429   4.457   4.463   4.470   4.472   4.477   4.493
  4.502   4.505   4.533   4.548   4.571   4.615   4.654   4.662
  4.687   4.704   4.720   4.731   4.761   4.769   4.794   4.800
 --------------------------------------------------------------
 
          Ground-State Mulliken Net Atomic Charges

     Atom                 Charge (a.u.)
  ----------------------------------------
      1 C                     0.258733
      2 C                    -0.109990
      3 N                    -0.473700
      4 C                    -0.083372
      5 C                     0.080980
      6 C                     0.021619
      7 C                     0.017892
      8 C                     0.079385
      9 C                     0.252806
     10 N                    -0.535537
     11 N                    -0.557967
     12 C                     0.181580
     13 C                     0.319167
     14 S                     0.600927
     15 N                    -0.554568
     16 C                    -0.221542
     17 S                     0.327462
     18 C                    -0.139264
     19 C                    -0.255983
     20 S                     0.274973
     21 C                     0.214968
     22 C                     0.070477
     23 C                    -0.319134
     24 C                    -0.062364
     25 N                    -0.416376
     26 S                     0.245817
     27 C                     0.116699
     28 C                    -0.306374
     29 C                    -0.223515
     30 H                     0.094338
     31 H                     0.094979
     32 H                     0.116741
     33 H                     0.108050
     34 H                     0.128940
     35 H                     0.137297
     36 H                     0.126321
     37 H                     0.136931
     38 H                     0.113539
     39 C                    -0.180293
     40 H                     0.092849
     41 H                     0.119464
     42 H                     0.088246
     43 C                    -0.181202
     44 H                     0.097437
     45 C                    -0.165344
     46 H                     0.087147
     47 H                     0.093609
     48 H                     0.087887
     49 C                    -0.184839
     50 H                     0.095940
     51 C                    -0.321802
     52 H                     0.095726
     53 H                     0.100305
     54 H                     0.104916
     55 H                     0.101905
     56 C                     0.266994
     57 C                    -0.118350
     58 N                    -0.497488
     59 C                    -0.063801
     60 C                     0.085965
     61 C                     0.045953
     62 C                    -0.024752
     63 C                     0.058848
     64 C                     0.242172
     65 N                    -0.519322
     66 N                    -0.544742
     67 C                     0.230990
     68 C                     0.320267
     69 S                     0.602116
     70 N                    -0.567430
     71 C                    -0.232145
     72 S                     0.341747
     73 C                    -0.134979
     74 C                    -0.238834
     75 S                     0.280555
     76 C                     0.181619
     77 C                     0.093758
     78 C                    -0.310931
     79 C                    -0.062488
     80 N                    -0.441878
     81 S                     0.243447
     82 C                     0.108546
     83 C                    -0.305478
     84 C                    -0.224501
     85 H                     0.087055
     86 H                     0.111712
     87 H                     0.104636
     88 H                     0.121223
     89 H                     0.134470
     90 H                     0.120658
     91 H                     0.109440
     92 H                     0.140279
     93 H                     0.118072
     94 C                    -0.174872
     95 H                     0.095548
     96 H                     0.116319
     97 H                     0.094861
     98 C                    -0.179089
     99 H                     0.100867
    100 C                    -0.173481
    101 H                     0.085480
    102 H                     0.096452
    103 H                     0.089922
    104 C                    -0.179624
    105 H                     0.092088
    106 C                    -0.316834
    107 H                     0.088984
    108 H                     0.100277
    109 H                     0.105770
    110 H                     0.101038
  ----------------------------------------
  Sum of atomic charges =     0.000000

 -----------------------------------------------------------------
                    Cartesian Multipole Moments
 -----------------------------------------------------------------
    Charge (ESU x 10^10)
                 0.0000
    Dipole Moment (Debye)
         X      -1.7348      Y      -1.0518      Z      -2.2649
       Tot       3.0407
    Quadrupole Moments (Debye-Ang)
        XX    -454.7886     XY      42.8456     YY    -400.3942
        XZ       4.0301     YZ       2.2551     ZZ    -442.1222
    Octopole Moments (Debye-Ang^2)
       XXX    -179.5710    XXY    -121.2072    XYY     -76.9912
       YYY    -310.4574    XXZ     -25.0808    XYZ     -14.5401
       YYZ    -112.6819    XZZ     -74.7565    YZZ     -38.5540
       ZZZ      13.9697
    Hexadecapole Moments (Debye-Ang^3)
      XXXX  -98031.1409   XXXY    2704.2398   XXYY  -25199.8201
      XYYY    2362.6533   YYYY  -61019.3614   XXXZ     543.5821
      XXYZ    -112.6004   XYYZ     245.5555   YYYZ     241.2414
      XXZZ  -17425.6562   XYZZ      71.6704   YYZZ  -12010.2057
      XZZZ    -391.8165   YZZZ    -110.5108   ZZZZ   -7695.4326
 -----------------------------------------------------------------
Archival summary:
1\1\mn246\SP\ProcedureUnspecified\6-31G**\8105042\afmv_a\FriOct1208:35:462018FriOct1208:35:462018\0\\#,ProcedureUnspecified,6-31G**,\\0,1\S\C,1,1.71511\C,2,1.34772,1,109.675\C,3,1.40404,2,114.731,1,1.38046,0\C,4,1.405,3,114.143,2,-1.73184,0\C,3,1.42213,2,135.553,1,178.648,0\H,6,1.08351,3,121.8,2,2.46038,0\C,6,1.38647,3,115.283,2,-177.586,0\H,8,1.08172,6,128.07,3,-175.688,0\C,2,1.4264,1,126.135,3,-179.428,0\N,10,1.29252,2,125.145,1,-170.669,0\C,11,1.3773,10,107.607,2,177.806,0\H,12,1.08133,11,116.104,10,-175.952,0\C,12,1.40475,11,118.455,10,-1.78871,0\H,14,1.08207,12,131.685,11,172.851,0\C,5,1.44559,4,125.013,3,-178.436,0\N,16,1.33378,5,114.151,4,18.0424,0\C,17,1.3419,16,119.768,5,162.185,0\H,18,1.08761,17,116.595,16,-174.646,0\C,16,1.37644,5,123.573,4,-175.284,0\N,20,1.30048,16,124.411,5,19.3762,0\C,20,1.35475,16,120.416,5,-168.049,0\N,22,1.34543,20,115.861,16,-175.24,0\C,18,1.4048,17,122.544,16,6.59808,0\C,24,1.50572,18,120.985,17,-174.081,0\C,25,1.39032,24,117.83,18,-128.535,0\H,26,1.08445,25,117.596,24,-10.8824,0\C,25,1.4056,24,123.392,18,43.9962,0\H,28,1.08927,25,112.599,24,13.8653,0\N,28,1.36133,25,122.003,24,-168.404,0\C,30,1.37174,28,120.471,25,0.491178,0\C,31,1.40688,30,119.662,28,-7.90668,0\H,32,1.08602,31,119.197,30,-177.974,0\C,31,1.47084,30,115.309,28,-176.355,0\H,34,1.09665,31,109.284,30,-160.966,0\H,34,1.09694,31,110.281,30,-40.0531,0\C,34,1.56295,31,111.408,30,79.5813,0\H,37,1.0964,34,113.793,31,-34.3992,0\H,37,1.09692,34,108.598,31,90.1041,0\C,37,1.56257,34,110.215,31,-152.435,0\H,40,1.09715,37,106.637,34,50.152,0\H,40,1.09743,37,108.477,34,-62.6727,0\C,40,1.50317,37,110.418,34,177.033,0\H,43,1.09642,40,106.657,37,-85.3031,0\H,43,1.09747,40,108.33,37,31.9092,0\C,43,1.52068,40,113.332,37,149.487,0\H,46,1.09707,43,108.991,40,-157.823,0\H,46,1.09723,43,107.89,40,-38.8566,0\C,46,1.53983,43,111.851,40,82.814,0\H,49,1.09653,46,105.965,43,40.7982,0\H,49,1.09742,46,109.748,43,-76.0002,0\H,49,1.09772,46,115.26,43,157.387,0\S,23,1.61746,22,104.221,20,2.96813,0\S,8,1.75243,6,112.189,3,0.438396,0\S,14,1.75811,12,109.4,11,2.85289,0\H,16,3.08824,5,96.8416,4,-75.9675,0\C,56,1.0835,16,123.003,5,-67.6328,0\C,57,1.37231,56,123.911,16,47.1714,0\H,58,1.0837,57,118.905,56,3.45305,0\C,58,1.42724,57,114.211,56,179.525,0\C,60,1.34635,58,137.152,57,-178.514,0\C,60,1.35926,58,109.233,57,4.09635,0\C,62,1.40993,60,116.752,58,-178.978,0\C,61,1.43387,60,120.942,58,-1.26982,0\N,64,1.27653,61,121.641,60,24.1731,0\C,65,1.36768,64,111.773,61,170.382,0\H,66,1.08221,65,122.547,64,-179.759,0\C,66,1.3792,65,114.104,64,-8.11337,0\H,68,1.08217,66,129.213,65,-167.907,0\C,63,1.46888,62,127.01,60,-175.707,0\N,70,1.36667,63,117.301,62,0.808661,0\C,71,1.32749,70,121.451,63,173.694,0\H,72,1.08884,71,117.497,70,-171.71,0\C,72,1.40702,71,124.069,70,8.17819,0\C,74,1.41416,72,120.021,71,170.328,0\C,74,1.42699,72,116.113,71,-8.38558,0\N,76,1.35221,74,127.19,72,-178.436,0\C,76,1.38978,74,119.412,72,7.5736,0\N,78,1.3395,76,115.411,74,174.497,0\C,75,1.452,74,123.627,72,36.4461,0\H,80,1.0852,75,119.06,74,-0.942341,0\C,80,1.39834,75,120.069,74,-171.02,0\H,82,1.08457,80,118.153,75,176.961,0\C,82,1.41804,80,118.808,75,-3.16523,0\N,84,1.34982,82,124.128,80,4.88648,0\C,85,1.36892,84,117.257,82,-1.77661,0\H,86,1.08893,85,114.085,84,-177.963,0\C,84,1.49753,82,118.829,80,171.709,0\H,88,1.09699,84,118.312,82,27.244,0\H,88,1.09838,84,100.524,82,136.977,0\C,88,1.52563,84,114.988,82,-104.945,0\H,91,1.09718,88,110.857,84,-46.7992,0\H,91,1.0975,88,103.084,84,64.0548,0\C,91,1.57788,88,116.526,84,-171.411,0\H,94,1.09664,91,114.415,88,-45.1808,0\H,94,1.09719,91,109.462,88,69.0872,0\C,94,1.51963,91,115.104,88,-169.398,0\H,97,1.09621,94,108.636,91,86.7828,0\H,97,1.09715,94,103.834,91,-19.7391,0\C,97,1.50328,94,111.423,91,-153.085,0\H,100,1.09696,97,110.918,94,-53.2612,0\H,100,1.09712,97,110.682,94,65.1324,0\C,100,1.56892,97,116.988,94,-173.114,0\H,103,1.09691,100,105.846,97,64.926,0\H,103,1.09718,100,109.655,97,-56.915,0\H,103,1.09802,100,111.738,97,-175.229,0\S,79,1.61033,78,105.472,76,0.793999,0\S,68,1.72017,66,111.478,65,5.0245,0\S,61,1.75163,60,111.309,58,173.165,0\S,62,1.76489,60,117.032,58,-2.48465,0\\\@

 Total job time:  84.51s(wall), 998.35s(cpu) 
 Fri Oct 12 08:35:46 2018

        *************************************************************
        *                                                           *
        *  Thank you very much for using Q-Chem.  Have a nice day.  *
        *                                                           *
        *************************************************************


