
Running Job 1 of 1 ./8/75.qcin
qchem ./8/75.qcin_10381.0 /tmpu/cab_g/afmv_a/scratch_qchem/qchem10381/ 1
/tmpu/appuserlic/qchem4.4/serial-multicore/exe/qcprog.exe_s ./8/75.qcin_10381.0 /tmpu/cab_g/afmv_a/scratch_qchem/qchem10381/
Check license passed

                  Welcome to Q-Chem
     A Quantum Leap Into The Future Of Chemistry


 Q-Chem 4.4, Q-Chem, Inc., Pleasanton, CA (2016)

 Y. Shao,  Z. Gan,  E. Epifanovsky,  A. T. B. Gilbert,  M. Wormit,  
 J. Kussmann,  A. W. Lange,  A. Behn,  J. Deng,  X. Feng,  D. Ghosh,  
 M. Goldey,  P. R. Horn,  L. D. Jacobson,  I. Kaliman,  F. Rob,  
 R. Z. Khaliullin,  T. Kus,  A. Landau,  J. Liu,  E. I. Proynov,  Y. M. Rhee,  
 R. M. Richard,  M. A. Rohrdanz,  R. P. Steele,  E. J. Sundstrom,  
 H. L. Woodcock III,  P. M. Zimmerman,  D. Zuev,  B. Albrecht,  E. Alguire,  
 B. Austin,  S. A. Baeppler,  G. J. O. Beran,  Y. A. Bernard,  E. Berquist,  
 K. Brandhorst,  K. B. Bravaya,  S. T. Brown,  D. Casanova,  C.-M. Chang,  
 Y. Chen,  S. H. Chien,  K. D. Closser,  M. P. Coons,  D. L. Crittenden,  
 S. Dasgupta,  M. Diedenhofen,  R. A. DiStasio Jr.,  H. Do,  A. D. Dutoi,  
 R. G. Edgar,  P.-T. Fang,  S. Fatehi,  Q. Feng,  L. Fusti-Molnar,  
 A. Ghysels,  A. Golubeva-Zadorozhnaya,  J. Gomes,  A. Gunina,  
 M. W. D. Hanson-Heine,  P. H. P. Harbach,  A. W. Hauser,  J. E. Herr,  
 E. G. Hohenstein,  Z. C. Holden,  K. Hui,  T.-C. Jagau,  H. Ji,  B. Kaduk,  
 K. Khistyaev,  Jaehoon Kim,  Jihan Kim,  R. A. King,  P. Klunzinger,  
 K. Koh,  D. Kosenkov,  T. Kowalczyk,  C. M. Krauter,  A. Kunitsa,  
 K. U. Lao,  A. Laurent,  K. V. Lawler,  J. Lee,  D. Lefrancois,  S. Lehtola,  
 S. V. Levchenko,  C. Y. Lin,  Y.-S. Lin,  F. Liu,  E. Livshits,  
 R. C. Lochan,  A. Luenser,  P. Manohar,  S. F. Manzer,  S.-P. Mao,  Y. Mao,  
 N. Mardirossian,  A. V. Marenich,  L. A. Martinez-Martinez,  S. A. Maurer,  
 N. J. Mayhall,  J.-M. Mewes,  A. F. Morrison,  K. Nanda,  T. S. Nguyen-Beck,  
 C. M. Oana,  R. Olivares-Amaya,  D. P. O'Neill,  J. A. Parkhill,  
 T. M. Perrine,  R. Peverati,  P. A. Pieniazek,  F. Plasser,  A. Prociuk,  
 D. R. Rehn,  E. Rosta,  N. J. Russ,  N. Sergueev,  S. M. Sharada,  
 S. Sharma,  D. W. Small,  A. Sodt,  T. Stauch,  T. Stein,  D. Stuck,  
 Y.-C. Su,  A. J. W. Thom,  T. Tsuchimochi,  L. Vogt,  O. Vydrov,  T. Wang,  
 M. A. Watson,  J. Wenzel,  A. White,  C. F. Williams,  V. Vanovschi,  
 K. Yao,  S. Yeganeh,  S. R. Yost,  Z.-Q. You,  I. Y. Zhang,  X. Zhang,  
 Y. Zhao,  B. R. Brooks,  G. K. L. Chan,  D. M. Chipman,  C. J. Cramer,  
 W. A. Goddard III,  M. S. Gordon,  W. J. Hehre,  A. Klamt,  
 H. F. Schaefer III,  M. W. Schmidt,  C. D. Sherrill,  D. G. Truhlar,  
 A. Warshel,  X. Xu,  A. Aspuru-Guzik,  R. Baer,  A. T. Bell,  N. A. Besley,  
 J.-D. Chai,  A. Dreuw,  B. D. Dunietz,  T. R. Furlani,  S. R. Gwaltney,  
 C.-P. Hsu,  Y. Jung,  J. Kong,  D. S. Lambrecht,  W. Liang,  C. Ochsenfeld,  
 V. A. Rassolov,  L. V. Slipchenko,  J. E. Subotnik,  T. Van Voorhis,  
 J. M. Herbert,  A. I. Krylov,  P. M. W. Gill,  M. Head-Gordon

 Contributors to earlier versions of Q-Chem not listed above: 
 R. D. Adamson,  J. Baker,  E. F. C. Byrd,  A. K. Chakraborty,  C.-L. Cheng,  
 H. Dachsel,  R. J. Doerksen,  G. Hawkins,  A. Heyden,  S. Hirata,  
 G. Kedziora,  F. J. Keil,  C. Kelley,  P. P. Korambath,  W. Kurlancheek,  
 A. M. Lee,  M. S. Lee,  D. Liotard,  I. Lotan,  P. E. Maslen,  N. Nair,  
 D. Neuhauser,  R. Olson,  B. Peters,  J. Ritchie,  N. E. Schultz,  
 N. Shenvi,  A. C. Simmonett,  K. S. Thanthiriwatte,  Q. Wu,  W. Zhang

 Please cite Q-Chem as follows:
 Y. Shao et al., Mol. Phys. 113, 184-215 (2015)
 DOI: 10.1080/00268976.2014.952696

 Q-Chem 4.4.2 for Intel X86 Linux

 Parts of Q-Chem use Armadillo 5.200.1 (Boston Tea Smuggler).
 http://arma.sourceforge.net/

 Q-Chem begins on Fri Oct 12 08:55:11 2018  

Host: 
0

     Scratch files written to /tmpu/cab_g/afmv_a/scratch_qchem/qchem10381//
 Dec716 11556_ 22328  22283 4050   
Processing $rem in /tmpu/appuserlic/qchem4.4/serial-multicore/config/preferences.
 MEM_TOTAL  2000 
FILE_GEOM_ORG=        593

Checking the input file for inconsistencies... 	...done.

--------------------------------------------------------------
User input:
--------------------------------------------------------------
$comment
SP
$end

$rem
MEM_STATIC 5000
MEM_TOTAL 20000
JOBTYPE SP
EXCHANGE B3LYP
BASIS 6-31g(d,p)
$end

$molecule
0 1
C          17.645000      2.851000     12.196000
C          17.693000      2.015000     13.344000
N          18.649000      3.096000     11.335000
C          18.910000      1.290000     13.564000
C          19.861000      2.507000     11.670000
C          20.099000      1.614000     12.771000
C          21.347000      0.840000     12.903000
C          21.396000     -0.394000     13.613000
C          22.657000      1.322000     12.526000
N          22.480000     -1.187000     13.717000
N          22.801000      2.534000     11.934000
C          23.814000      0.532000     12.733000
C          23.684000     -0.758000     13.292000
S          24.387000      2.537000     11.589000
N          24.934000      1.056000     12.134000
C          24.816000     -1.705000     13.429000
S          26.496000     -1.328000     12.998000
C          24.737000     -3.018000     13.910000
C          26.967000     -3.009000     13.422000
S          23.298000     -3.914000     14.306000
C          25.884000     -3.749000     13.851000
C          28.341000     -3.416000     13.328000
C          24.352000     -5.312000     14.627000
C          25.733000     -5.105000     14.339000
N          28.806000     -4.638000     13.668000
S          29.629000     -2.303000     12.941000
C          30.169000     -4.783000     13.594000
C          30.810000     -3.545000     13.333000
C          16.426000      3.699000     11.835000
H          16.820000      1.741000     13.931000
H          19.059000      0.522000     14.316000
H          20.625000      2.794000     10.948000
H          20.488000     -0.830000     14.026000
H          23.883000     -6.240000     14.925000
H          26.573000     -5.783000     14.446000
H          30.649000     -5.734000     13.783000
H          31.872000     -3.339000     13.347000
H          16.210000      3.674000     10.760000
C          16.552000      5.199000     12.217000
H          15.533000      3.404000     12.401000
H          17.388000      5.390000     12.901000
H          15.557000      5.507000     12.559000
C          16.812000      6.173000     10.977000
H          16.979000      7.193000     11.344000
C          15.689000      6.221000      9.910000
H          17.771000      5.837000     10.564000
H          14.750000      6.136000     10.470000
H          15.628000      5.269000      9.368000
C          15.765000      7.451000      8.972000
H          15.959000      8.313000      9.623000
C          14.741000      7.562000      7.872000
H          16.741000      7.424000      8.472000
H          13.772000      7.798000      8.328000
H          14.595000      6.588000      7.386000
H          14.934000      8.394000      7.183000
C          29.147000     -0.330000      9.010000
C          27.766000     -0.141000      9.295000
N          29.689000     -1.526000      8.698000
C          26.909000     -1.264000      9.271000
C          28.885000     -2.554000      8.670000
C          27.477000     -2.520000      9.042000
C          26.743000     -3.767000      9.191000
C          25.867000     -3.904000     10.280000
C          26.773000     -4.865000      8.304000
N          25.153000     -4.994000     10.528000
N          27.719000     -4.887000      7.288000
C          26.040000     -5.969000      8.524000
C          25.188000     -6.044000      9.649000
S          27.604000     -6.441000      6.801000
N          26.277000     -6.969000      7.610000
C          24.184000     -7.079000      9.910000
S          23.390000     -6.964000     11.493000
C          23.496000     -8.003000      9.158000
C          22.310000     -8.356000     11.148000
S          23.638000     -8.390000      7.462000
C          22.485000     -8.638000      9.821000
C          21.195000     -8.757000     11.911000
C          22.346000     -9.626000      7.738000
C          21.903000     -9.627000      9.059000
N          20.028000     -8.681000     11.380000
S          21.175000     -8.839000     13.627000
C          18.983000     -8.535000     12.257000
C          19.471000     -8.334000     13.575000
C          30.123000      0.891000      9.153000
H          27.311000      0.830000      9.465000
H          25.842000     -1.122000      9.410000
H          29.308000     -3.547000      8.521000
H          25.876000     -3.198000     11.108000
H          22.026000    -10.389000      7.040000
H          21.189000    -10.364000      9.408000
H          17.964000     -8.438000     11.906000
H          18.915000     -8.087000     14.469000
H          29.762000      1.620000      9.889000
C          30.331000      1.662000      7.876000
H          31.086000      0.574000      9.571000
H          29.371000      1.957000      7.433000
H          30.877000      1.070000      7.130000
C          31.352000      2.837000      8.049000
H          30.932000      3.624000      8.686000
C          31.722000      3.522000      6.714000
H          32.259000      2.478000      8.550000
H          32.316000      4.399000      6.997000
H          30.884000      3.912000      6.122000
C          32.639000      2.575000      5.871000
H          33.407000      2.144000      6.524000
C          33.419000      3.362000      4.800000
H          32.112000      1.743000      5.389000
H          33.943000      4.267000      5.129000
H          32.745000      3.540000      3.954000
H          34.171000      2.716000      4.332000
$end

--------------------------------------------------------------
 ----------------------------------------------------------------
             Standard Nuclear Orientation (Angstroms)
    I     Atom           X                Y                Z
 ----------------------------------------------------------------
    1      C      -8.2592349250     1.7727744317    -0.0547107244
    2      C      -7.7115550579     2.5834774005    -1.0852016072
    3      N      -7.7014612421     0.6770763259     0.4909046892
    4      C      -6.3911264328     2.2518878933    -1.5342346182
    5      C      -6.4970564044     0.2896395417    -0.0812768599
    6      C      -5.7775220340     0.9907137080    -1.1094107535
    7      C      -4.3916848136     0.6464836112    -1.4767863635
    8      C      -3.5037396944     1.6040608233    -2.0458701431
    9      C      -3.8565603036    -0.6965365930    -1.4989559397
   10      N      -2.2086641629     1.3814243574    -2.3424057592
   11      N      -4.6126063577    -1.7461431655    -1.0904655394
   12      C      -2.5256329829    -0.9463086865    -1.9134970935
   13      C      -1.6988787566     0.1359499323    -2.2858876564
   14      S      -3.5409008324    -2.9628182287    -1.1651586273
   15      N      -2.1254895859    -2.2394294498    -1.6779106902
   16      C      -0.2601947473    -0.0112858791    -2.6107136670
   17      S       0.6015256612    -1.5620222336    -2.6649787250
   18      C       0.6246853219     1.0296849853    -2.9188336479
   19      C       2.1282591318    -0.6849115057    -3.0215452418
   20      S       0.3128943739     2.7404942544    -2.8396436910
   21      C       1.9302572874     0.6795568237    -3.0811392658
   22      C       3.3437030715    -1.4175261247    -3.2413925738
   23      C       2.0203458372     2.9917721537    -3.2753384439
   24      C       2.7993883647     1.8016140016    -3.3731664217
   25      N       4.5310097229    -0.8587032878    -3.5625295421
   26      S       3.3931247309    -3.1610715912    -3.3127277396
   27      C       5.5412558782    -1.7500524288    -3.8255303306
   28      C       5.0604257032    -3.0837997205    -3.8651094244
   29      C      -9.6595809503     1.9887092321     0.5178180272
   30      H      -8.1355126847     3.5343652620    -1.3980053882
   31      H      -5.7902814118     2.8439492882    -2.2168601125
   32      H      -6.1415038073    -0.6273265689     0.3878761031
   33      H      -3.8128469190     2.6409651927    -2.1659161863
   34      H       2.3785579380     4.0098572481    -3.3470031592
   35      H       3.8479538954     1.6775365908    -3.6218592526
   36      H       6.5500001077    -1.4185319642    -4.0330183085
   37      H       5.6020294031    -3.9688322959    -4.1714732159
   38      H      -9.6801585604     1.8803948813     1.6090332045
   39      C     -10.7358367506     1.0149886208    -0.0347592285
   40      H     -10.0789488244     2.9621228345     0.2324646591
   41      H     -10.3952364882     0.4734206196    -0.9257859181
   42      H     -11.6520617114     1.6076615786    -0.1402276419
   43      C     -11.1758461985    -0.1285188484     0.9912321719
   44      H     -11.8645462586    -0.8206261467     0.4915745742
   45      C     -11.8471750884     0.3610394232     2.2995028702
   46      H     -10.2555281388    -0.6956534297     1.1770251634
   47      H     -12.4533211493     1.2279130821     2.0102572785
   48      H     -11.1230992476     0.8881049153     2.9333050032
   49      C     -12.6283374851    -0.7415798788     3.0561639468
   50      H     -13.2081518666    -1.2758567927     2.2927214392
   51      C     -13.2786827030    -0.3720994264     4.3643811661
   52      H     -11.9198088584    -1.5457913253     3.2896936762
   53      H     -14.1348286219     0.2787899647     4.1500212672
   54      H     -12.5992766092     0.2441853717     4.9683583240
   55      H     -13.7089394843    -1.2325131462     4.8923597006
   56      C       1.9750268243    -5.1286191038     0.3880247668
   57      C       0.8999196077    -4.1987714490     0.4483141664
   58      N       3.2555845675    -4.8100785412     0.6712698486
   59      C       1.1800786384    -2.8608085427     0.8054138430
   60      C       3.4998201399    -3.5730232594     1.0089490082
   61      C       2.5146908141    -2.4999324697     1.0083419099
   62      C       2.9518893983    -1.1232516123     1.1803105548
   63      C       2.3755736588    -0.1302120783     0.3717323876
   64      C       3.8778528564    -0.6542896346     2.1373577521
   65      N       2.6989685114     1.1549797763     0.4273890682
   66      N       4.6121459317    -1.5739202090     2.8740729524
   67      C       4.2019227621     0.6463204641     2.2262231974
   68      C       3.5915299228     1.5910034822     1.3705663871
   69      S       5.7460449307    -0.5997663456     3.5302797112
   70      N       5.1929968089     0.8971758842     3.1462279756
   71      C       3.6821683703     3.0493073590     1.4823540187
   72      S       2.9239901543     3.9467401536     0.1521923098
   73      C       3.9937475560     3.9486654090     2.4756805054
   74      C       3.2896860594     5.5362470541     0.9024078243
   75      S       4.5382786193     3.6629665574     4.1091464791
   76      C       3.7421180521     5.2537329524     2.1619986604
   77      C       2.7851396605     6.7876149976     0.4953375582
   78      C       4.5888630453     5.4612603734     4.3007621550
   79      C       4.1728729195     6.1178832156     3.1444362242
   80      N       2.0128696372     7.4286499496     1.2967732707
   81      S       2.6697639785     7.2992872569    -1.1407125483
   82      C       1.1340489458     8.3013231064     0.7063617585
   83      C       1.1782879463     8.1641023490    -0.7060412912
   84      C       1.6882943850    -6.5844859877    -0.1239343375
   85      H      -0.1416108302    -4.4683076779     0.3022642835
   86      H       0.3601756070    -2.1607397300     0.9304605403
   87      H       4.5348073279    -3.2609294625     1.1452500815
   88      H       1.7741926258    -0.3851937196    -0.4985699827
   89      H       5.0163641186     6.0079151494     5.1315355225
   90      H       4.2224666319     7.1978395463     3.0669714740
   91      H       0.4260488894     8.8701133605     1.2947362709
   92      H       0.5432434114     8.6279609449    -1.4482910078
   93      H       0.8356034749    -6.6157633136    -0.8134254112
   94      C       1.3695968967    -7.5676153927     0.9716579608
   95      H       2.5177869640    -6.9520247860    -0.7399207766
   96      H       0.5609210998    -7.1942516360     1.6131538382
   97      H       2.2421505803    -7.7599966879     1.6094161489
   98      C       1.1439668356    -9.0175106535     0.4240360035
   99      H       0.2185824206    -9.0705318552    -0.1611053783
  100      C       1.0014957999   -10.0742369573     1.5426876574
  101      H       1.9602182518    -9.2963201366    -0.2531123538
  102      H       0.7081047181   -10.9973629324     1.0290592827
  103      H       0.2160135252    -9.8882415737     2.2864828667
  104      C       2.3924917542   -10.3223156545     2.2149481836
  105      H       3.1568924578   -10.4159910326     1.4346210165
  106      C       2.4176422388   -11.6685787224     2.9644501550
  107      H       2.7151594559    -9.5276874848     2.8981235829
  108      H       2.0529629020   -12.5484854758     2.4216655876
  109      H       1.9226803874   -11.5257035781     3.9320634346
  110      H       3.4393204632   -11.8998681409     3.2877500323
 ----------------------------------------------------------------
 Molecular Point Group                 C1    NOp =  1
 Largest Abelian Subgroup              C1    NOp =  1
 Nuclear Repulsion Energy = 11854.2729519382 hartrees
 There are      270 alpha and      270 beta electrons
 Requested basis set is 6-31G(d,p)
 There are 406 shells and 1262 basis functions

 Total QAlloc Memory Limit  20000 MB
 Mega-Array Size      4888 MB
 MEM_STATIC part      5000 MB
 A cutoff of  1.0D-08 yielded  13734 shell pairs
 There are    146737 function pairs
 
 -------------------------------------------------------
 OpenMP Integral Computing Module                       
 Release: version 1.0, May 2013, Q-Chem Inc. Pittsburgh 
 -------------------------------------------------------
 Integral Job Info:
 Integral job number is                      11
 Integral operator is                         1
 short-range coefficients                     0
 long-range coefficients              100000000
 Omega coefficients                           0
 if combine SR and LR in K                    0
 Integral screening is                        0
 Integral computing path is                   2
 max size of driver memory is            800000
 size of driver memory is                593474
 size of scratch memory is             15166112
 max col of scratch BK array               1296
 max len of scratch array in speh3          155
 max len of scratch index in speh4           18
 max int batch size is                      520
 min int batch size is                       52
 fixed nKL is                                52
 max L of basis functions is                  2
 order of int derivative is                   0
 number of shells is                        406
 number of basis is                        1262
 number of cartesian basis is              1262
 number of contracted shell pairs         13734
 number of primitive shell pairs          43996
 maxK2 (contraction) of shell pair           36
 max number of K2 of shell pair               1
 max number of CS2 of shell pair           1491
 max number of PS2 of shell pair           8310
 mem total for path MDJ                  316360
 -------------------------------------------------------
 Smallest overlap matrix eigenvalue = 3.71E-04

 Scale SEOQF with 1.000000e-02/1.000000e-02/1.000000e-01

 Standard Electronic Orientation quadrupole field applied
 Nucleus-field energy     =    -0.0000001893 hartrees
 Guess from superposition of atomic densities
 Warning:  Energy on first SCF cycle will be non-variational
 A restricted hybrid HF-DFT SCF calculation will be
 performed using Pulay DIIS extrapolation
 Exchange:     0.2000 Hartree-Fock + 0.0800 Slater + 0.7200 B88
 Correlation:  0.1900 VWN1RPA + 0.8100 LYP
 Using SG-1 standard quadrature grid
 SCF converges when DIIS error is below 1.0E-05
 using 16 threads for integral computing 
 -------------------------------------------------------
 OpenMP BLAS3 based DFT computing Module                
 Release: version 1.0, May 2013, Q-Chem Inc. Pittsburgh 
 -------------------------------------------------------
 ---------------------------------------
  Cycle       Energy         DIIS Error
 ---------------------------------------
    1   -5679.7159788865      2.13E-02
    2   -5662.4826048753      2.15E-03
    3   -5659.6547649838      3.81E-03
    4   -5661.7658548503      2.05E-03
    5   -5663.4302848800      4.88E-04
    6   -5663.4486211525      4.18E-04
    7   -5663.4828122176      1.52E-04
    8   -5663.4868301020      5.63E-05
    9   -5663.4873157825      2.71E-05
   10   -5663.4874543237      8.23E-06 Convergence criterion met
 ---------------------------------------
 SCF time:  CPU 1170.53 s  wall 95.67 s
 SCF   energy in the final basis set = -5663.4874543237
 Total energy in the final basis set = -5663.4874543237
 
 --------------------------------------------------------------
 
                    Orbital Energies (a.u.)
 --------------------------------------------------------------
 
 Alpha MOs
 -- Occupied --
-88.990 -88.989 -88.928 -88.924 -88.922 -88.913 -88.909 -88.906
-14.400 -14.395 -14.388 -14.386 -14.353 -14.343 -14.341 -14.337
-14.336 -14.327 -10.269 -10.266 -10.265 -10.263 -10.259 -10.259
-10.251 -10.249 -10.245 -10.245 -10.244 -10.237 -10.236 -10.236
-10.236 -10.235 -10.233 -10.232 -10.231 -10.231 -10.229 -10.228
-10.227 -10.226 -10.226 -10.226 -10.224 -10.221 -10.220 -10.214
-10.213 -10.208 -10.208 -10.207 -10.203 -10.198 -10.193 -10.189
-10.183 -10.182 -10.182 -10.177 -10.177 -10.177 -10.176 -10.176
-10.174 -10.172 -10.172 -10.168  -8.046  -8.044  -7.986  -7.985
 -7.983  -7.971  -7.968  -7.966  -6.011  -6.009  -6.005  -6.004
 -6.004  -6.002  -5.951  -5.949  -5.947  -5.947  -5.945  -5.944
 -5.943  -5.942  -5.940  -5.935  -5.933  -5.932  -5.930  -5.929
 -5.928  -5.927  -5.925  -5.922  -1.040  -1.036  -0.978  -0.960
 -0.956  -0.954  -0.941  -0.932  -0.915  -0.913  -0.910  -0.899
 -0.840  -0.838  -0.833  -0.829  -0.809  -0.805  -0.803  -0.798
 -0.797  -0.797  -0.796  -0.792  -0.779  -0.778  -0.765  -0.764
 -0.747  -0.747  -0.738  -0.737  -0.723  -0.715  -0.708  -0.708
 -0.691  -0.690  -0.673  -0.670  -0.656  -0.650  -0.646  -0.641
 -0.637  -0.629  -0.625  -0.622  -0.611  -0.608  -0.599  -0.594
 -0.594  -0.590  -0.585  -0.585  -0.582  -0.575  -0.562  -0.558
 -0.553  -0.552  -0.541  -0.540  -0.523  -0.519  -0.507  -0.505
 -0.505  -0.505  -0.498  -0.497  -0.484  -0.481  -0.480  -0.477
 -0.473  -0.471  -0.469  -0.469  -0.459  -0.457  -0.451  -0.450
 -0.447  -0.443  -0.438  -0.434  -0.431  -0.429  -0.428  -0.425
 -0.425  -0.424  -0.420  -0.419  -0.417  -0.416  -0.414  -0.410
 -0.409  -0.409  -0.402  -0.400  -0.398  -0.396  -0.395  -0.394
 -0.393  -0.392  -0.390  -0.388  -0.387  -0.385  -0.383  -0.382
 -0.380  -0.375  -0.375  -0.373  -0.365  -0.365  -0.358  -0.358
 -0.355  -0.351  -0.351  -0.350  -0.344  -0.343  -0.341  -0.341
 -0.338  -0.337  -0.331  -0.328  -0.325  -0.324  -0.320  -0.319
 -0.318  -0.314  -0.306  -0.304  -0.302  -0.299  -0.298  -0.297
 -0.293  -0.293  -0.288  -0.286  -0.284  -0.283  -0.278  -0.276
 -0.272  -0.270  -0.270  -0.263  -0.262  -0.251  -0.247  -0.246
 -0.244  -0.238  -0.231  -0.227  -0.190  -0.188
 -- Virtual --
 -0.118  -0.112  -0.078  -0.074  -0.047  -0.040  -0.034  -0.022
 -0.020  -0.017  -0.016  -0.010  -0.007  -0.003  -0.002  -0.001
  0.005   0.016   0.021   0.025   0.029   0.034   0.035   0.039
  0.045   0.048   0.059   0.062   0.068   0.087   0.090   0.094
  0.095   0.100   0.104   0.106   0.107   0.108   0.109   0.112
  0.114   0.117   0.118   0.121   0.123   0.125   0.126   0.126
  0.127   0.130   0.131   0.134   0.135   0.143   0.145   0.148
  0.151   0.152   0.156   0.157   0.157   0.159   0.160   0.161
  0.166   0.168   0.170   0.171   0.177   0.180   0.180   0.182
  0.186   0.187   0.189   0.191   0.191   0.196   0.199   0.199
  0.202   0.204   0.210   0.212   0.214   0.217   0.219   0.221
  0.222   0.226   0.228   0.233   0.234   0.236   0.238   0.239
  0.245   0.249   0.251   0.251   0.253   0.255   0.259   0.260
  0.262   0.266   0.269   0.270   0.276   0.278   0.279   0.279
  0.284   0.287   0.288   0.290   0.294   0.296   0.299   0.302
  0.305   0.308   0.310   0.313   0.316   0.318   0.321   0.322
  0.327   0.331   0.332   0.334   0.336   0.339   0.340   0.346
  0.348   0.353   0.358   0.360   0.363   0.367   0.368   0.374
  0.379   0.381   0.385   0.390   0.393   0.396   0.399   0.402
  0.405   0.410   0.412   0.416   0.424   0.427   0.433   0.439
  0.444   0.452   0.454   0.457   0.463   0.464   0.469   0.475
  0.477   0.478   0.482   0.488   0.493   0.495   0.498   0.501
  0.502   0.506   0.509   0.510   0.513   0.515   0.516   0.518
  0.520   0.523   0.527   0.529   0.530   0.532   0.533   0.535
  0.535   0.537   0.541   0.543   0.545   0.545   0.550   0.550
  0.551   0.554   0.556   0.559   0.562   0.562   0.564   0.569
  0.570   0.571   0.573   0.577   0.577   0.579   0.580   0.581
  0.584   0.586   0.588   0.591   0.594   0.595   0.596   0.599
  0.600   0.603   0.606   0.608   0.612   0.614   0.615   0.618
  0.619   0.620   0.623   0.624   0.627   0.628   0.631   0.632
  0.634   0.634   0.636   0.637   0.640   0.642   0.646   0.647
  0.651   0.654   0.658   0.660   0.663   0.664   0.666   0.671
  0.673   0.675   0.679   0.683   0.689   0.690   0.693   0.694
  0.700   0.702   0.705   0.711   0.718   0.721   0.722   0.724
  0.726   0.729   0.733   0.737   0.738   0.742   0.744   0.747
  0.748   0.753   0.755   0.760   0.765   0.768   0.769   0.772
  0.774   0.776   0.780   0.780   0.784   0.785   0.790   0.793
  0.796   0.797   0.799   0.802   0.805   0.806   0.807   0.809
  0.814   0.816   0.818   0.819   0.821   0.822   0.824   0.825
  0.826   0.828   0.830   0.831   0.835   0.841   0.842   0.843
  0.846   0.848   0.848   0.849   0.851   0.854   0.855   0.856
  0.857   0.860   0.861   0.862   0.866   0.868   0.874   0.875
  0.877   0.880   0.881   0.883   0.884   0.888   0.890   0.891
  0.896   0.900   0.906   0.907   0.907   0.908   0.911   0.913
  0.915   0.918   0.918   0.919   0.921   0.926   0.926   0.929
  0.931   0.934   0.937   0.940   0.941   0.944   0.946   0.949
  0.952   0.954   0.955   0.958   0.959   0.962   0.964   0.968
  0.971   0.973   0.974   0.977   0.979   0.981   0.984   0.986
  0.991   0.994   0.996   0.999   1.001   1.005   1.009   1.010
  1.013   1.015   1.015   1.021   1.023   1.026   1.028   1.028
  1.033   1.036   1.037   1.040   1.042   1.044   1.049   1.051
  1.053   1.056   1.061   1.062   1.063   1.069   1.073   1.080
  1.085   1.087   1.088   1.096   1.098   1.105   1.112   1.114
  1.117   1.121   1.128   1.131   1.141   1.143   1.147   1.148
  1.152   1.157   1.161   1.170   1.178   1.179   1.181   1.189
  1.199   1.199   1.208   1.211   1.217   1.223   1.230   1.235
  1.240   1.246   1.253   1.256   1.260   1.261   1.267   1.272
  1.276   1.278   1.282   1.282   1.284   1.293   1.298   1.303
  1.306   1.309   1.322   1.326   1.329   1.330   1.331   1.339
  1.342   1.346   1.349   1.351   1.356   1.360   1.362   1.368
  1.370   1.376   1.379   1.386   1.392   1.400   1.401   1.406
  1.409   1.411   1.417   1.424   1.427   1.427   1.431   1.434
  1.441   1.442   1.447   1.451   1.454   1.463   1.464   1.472
  1.475   1.481   1.483   1.495   1.502   1.502   1.512   1.519
  1.523   1.524   1.526   1.531   1.533   1.549   1.556   1.560
  1.567   1.572   1.575   1.590   1.596   1.607   1.612   1.627
  1.630   1.633   1.634   1.638   1.639   1.644   1.651   1.653
  1.655   1.657   1.667   1.671   1.672   1.680   1.681   1.684
  1.684   1.686   1.696   1.702   1.703   1.703   1.707   1.709
  1.719   1.723   1.728   1.734   1.739   1.741   1.744   1.751
  1.753   1.761   1.764   1.767   1.767   1.777   1.779   1.781
  1.788   1.792   1.796   1.799   1.800   1.808   1.810   1.812
  1.816   1.817   1.820   1.825   1.828   1.833   1.837   1.839
  1.840   1.849   1.851   1.852   1.859   1.861   1.865   1.869
  1.870   1.874   1.877   1.882   1.885   1.889   1.892   1.894
  1.896   1.900   1.902   1.903   1.911   1.912   1.916   1.919
  1.920   1.923   1.925   1.929   1.930   1.935   1.940   1.941
  1.945   1.964   1.969   1.970   1.979   1.983   1.986   1.993
  2.001   2.002   2.008   2.010   2.012   2.014   2.017   2.021
  2.022   2.037   2.045   2.052   2.054   2.055   2.063   2.076
  2.076   2.081   2.085   2.088   2.090   2.097   2.097   2.099
  2.104   2.106   2.107   2.109   2.114   2.122   2.123   2.125
  2.127   2.132   2.132   2.138   2.147   2.148   2.150   2.152
  2.161   2.162   2.164   2.166   2.171   2.176   2.180   2.182
  2.185   2.193   2.194   2.201   2.207   2.208   2.210   2.215
  2.215   2.229   2.232   2.239   2.241   2.247   2.248   2.251
  2.256   2.259   2.259   2.263   2.265   2.272   2.278   2.281
  2.284   2.288   2.291   2.295   2.299   2.300   2.301   2.305
  2.308   2.310   2.311   2.318   2.319   2.329   2.329   2.338
  2.338   2.341   2.345   2.351   2.355   2.356   2.358   2.361
  2.369   2.372   2.375   2.376   2.383   2.385   2.387   2.395
  2.396   2.400   2.403   2.407   2.408   2.413   2.419   2.421
  2.423   2.425   2.427   2.429   2.436   2.439   2.441   2.445
  2.447   2.448   2.453   2.460   2.462   2.466   2.469   2.471
  2.473   2.474   2.479   2.485   2.492   2.501   2.503   2.507
  2.510   2.511   2.517   2.520   2.521   2.529   2.532   2.538
  2.540   2.541   2.545   2.549   2.552   2.555   2.558   2.561
  2.564   2.568   2.572   2.575   2.576   2.582   2.593   2.596
  2.597   2.604   2.608   2.617   2.620   2.628   2.633   2.633
  2.638   2.645   2.647   2.653   2.658   2.658   2.664   2.668
  2.671   2.672   2.673   2.687   2.690   2.692   2.695   2.703
  2.707   2.711   2.713   2.715   2.717   2.721   2.728   2.729
  2.745   2.749   2.752   2.764   2.766   2.772   2.776   2.783
  2.795   2.797   2.802   2.807   2.820   2.825   2.826   2.833
  2.837   2.839   2.844   2.846   2.849   2.863   2.868   2.871
  2.878   2.881   2.885   2.888   2.892   2.897   2.898   2.900
  2.907   2.908   2.915   2.916   2.926   2.931   2.939   2.958
  2.962   2.964   2.965   2.975   2.994   2.996   3.003   3.009
  3.026   3.043   3.049   3.059   3.070   3.093   3.094   3.115
  3.138   3.160   3.173   3.186   3.200   3.219   3.226   3.231
  3.246   3.247   3.257   3.263   3.274   3.276   3.283   3.284
  3.294   3.305   3.317   3.318   3.320   3.330   3.334   3.342
  3.352   3.363   3.364   3.377   3.392   3.397   3.418   3.431
  3.441   3.445   3.446   3.486   3.491   3.501   3.521   3.531
  3.537   3.560   3.569   3.572   3.580   3.590   3.601   3.608
  3.618   3.631   3.667   3.734   3.837   3.845   3.909   3.925
  3.945   3.949   3.951   3.960   3.963   3.973   3.979   3.991
  4.036   4.058   4.071   4.078   4.087   4.098   4.110   4.120
  4.127   4.132   4.141   4.149   4.155   4.169   4.186   4.197
  4.199   4.208   4.218   4.246   4.252   4.257   4.264   4.270
  4.282   4.301   4.307   4.331   4.360   4.374   4.381   4.395
  4.424   4.439   4.452   4.454   4.486   4.487   4.493   4.493
  4.495   4.509   4.533   4.549   4.582   4.606   4.650   4.678
  4.688   4.710   4.721   4.731   4.748   4.760   4.774   4.813
 --------------------------------------------------------------
 
          Ground-State Mulliken Net Atomic Charges

     Atom                 Charge (a.u.)
  ----------------------------------------
      1 C                     0.258573
      2 C                    -0.118038
      3 N                    -0.464076
      4 C                    -0.084920
      5 C                     0.065192
      6 C                     0.034988
      7 C                     0.057725
      8 C                     0.049602
      9 C                     0.184776
     10 N                    -0.537089
     11 N                    -0.523976
     12 C                     0.214031
     13 C                     0.323781
     14 S                     0.596478
     15 N                    -0.560198
     16 C                    -0.227655
     17 S                     0.314951
     18 C                    -0.114019
     19 C                    -0.259326
     20 S                     0.303750
     21 C                     0.190047
     22 C                     0.060538
     23 C                    -0.312578
     24 C                    -0.047315
     25 N                    -0.449906
     26 S                     0.274056
     27 C                     0.125799
     28 C                    -0.315017
     29 C                    -0.215576
     30 H                     0.103128
     31 H                     0.101065
     32 H                     0.123329
     33 H                     0.106055
     34 H                     0.132354
     35 H                     0.133374
     36 H                     0.122568
     37 H                     0.135992
     38 H                     0.122636
     39 C                    -0.183636
     40 H                     0.086629
     41 H                     0.101624
     42 H                     0.093944
     43 C                    -0.192004
     44 H                     0.083264
     45 C                    -0.173297
     46 H                     0.114725
     47 H                     0.081332
     48 H                     0.090343
     49 C                    -0.176956
     50 H                     0.091216
     51 C                    -0.318289
     52 H                     0.096465
     53 H                     0.100934
     54 H                     0.107369
     55 H                     0.104013
     56 C                     0.253171
     57 C                    -0.119469
     58 N                    -0.469697
     59 C                    -0.065307
     60 C                     0.112827
     61 C                     0.013167
     62 C                     0.003770
     63 C                     0.081880
     64 C                     0.212599
     65 N                    -0.517934
     66 N                    -0.530788
     67 C                     0.228007
     68 C                     0.295474
     69 S                     0.613348
     70 N                    -0.555834
     71 C                    -0.253935
     72 S                     0.338699
     73 C                    -0.099838
     74 C                    -0.211545
     75 S                     0.271850
     76 C                     0.171546
     77 C                     0.019993
     78 C                    -0.313872
     79 C                    -0.054857
     80 N                    -0.387819
     81 S                     0.237184
     82 C                     0.107558
     83 C                    -0.309212
     84 C                    -0.218204
     85 H                     0.092867
     86 H                     0.104214
     87 H                     0.108517
     88 H                     0.108883
     89 H                     0.121058
     90 H                     0.109951
     91 H                     0.123154
     92 H                     0.134057
     93 H                     0.095741
     94 C                    -0.169221
     95 H                     0.107989
     96 H                     0.089969
     97 H                     0.111061
     98 C                    -0.184902
     99 H                     0.080180
    100 C                    -0.171179
    101 H                     0.094252
    102 H                     0.089237
    103 H                     0.092960
    104 C                    -0.175574
    105 H                     0.094414
    106 C                    -0.325635
    107 H                     0.103068
    108 H                     0.103109
    109 H                     0.101063
    110 H                     0.095225
  ----------------------------------------
  Sum of atomic charges =     0.000000

 -----------------------------------------------------------------
                    Cartesian Multipole Moments
 -----------------------------------------------------------------
    Charge (ESU x 10^10)
                 0.0000
    Dipole Moment (Debye)
         X      -0.2913      Y       1.6402      Z      -1.7716
       Tot       2.4318
    Quadrupole Moments (Debye-Ang)
        XX    -430.0442     XY     -11.0803     YY    -409.9975
        XZ       2.7667     YZ       0.7334     ZZ    -444.7927
    Octopole Moments (Debye-Ang^2)
       XXX     149.5364    XXY      60.2186    XYY     -64.8267
       YYY     248.6395    XXZ     -76.9141    XYZ      79.4124
       YYZ     -84.1606    XZZ      80.4746    YZZ      14.9804
       ZZZ      55.0688
    Hexadecapole Moments (Debye-Ang^3)
      XXXX  -65521.2861   XXXY    -949.3366   XXYY  -18806.3304
      XYYY     -15.7108   YYYY  -46798.0643   XXXZ      81.7572
      XXYZ     205.4633   XYYZ      -7.2280   YYYZ     277.5762
      XXZZ  -13045.0404   XYZZ      44.5471   YYZZ  -10363.7774
      XZZZ     173.7244   YZZZ     245.7464   ZZZZ  -14623.6865
 -----------------------------------------------------------------
Archival summary:
1\1\mn246\SP\ProcedureUnspecified\6-31G**\8105042\afmv_a\FriOct1208:56:502018FriOct1208:56:502018\0\\#,ProcedureUnspecified,6-31G**,\\0,1\S\C,1,1.77491\C,2,1.40056,1,109.628\C,3,1.36142,2,116.166,1,5.07551,0\C,4,1.38005,3,112.75,2,-5.23316,0\C,5,1.43609,4,128.258,3,-175.232,0\N,6,1.35097,5,124.694,4,0.437487,0\C,7,1.37269,6,115.072,5,175.348,0\H,8,1.08191,7,121.599,6,176.136,0\C,8,1.41833,7,111.498,6,-7.48509,0\H,10,1.08189,8,127.406,7,-171.656,0\C,4,1.44903,3,113.583,2,178.904,0\H,12,1.08477,4,122.508,3,174.044,0\C,12,1.42582,4,107.747,3,-5.54939,0\H,14,1.08164,12,126.883,4,-174.198,0\C,2,1.48223,1,124.383,3,179.991,0\N,16,1.34695,2,116.744,1,177.361,0\C,17,1.34712,16,120.493,2,179.188,0\H,18,1.08864,17,113.961,16,177.59,0\C,16,1.41191,2,123.368,1,-3.47717,0\N,20,1.37396,16,126.592,2,-6.3299,0\C,20,1.41619,16,119.493,2,-174.091,0\N,22,1.35652,20,118.39,16,177.165,0\C,18,1.42452,17,125.176,16,-9.46469,0\C,24,1.47445,18,121.902,17,-176.432,0\C,25,1.43746,24,122.332,18,153.678,0\H,26,1.08966,25,123.714,24,9.74287,0\N,26,1.38856,25,126.357,24,-168.163,0\C,28,1.34513,26,114.822,25,-4.47296,0\C,29,1.42095,28,126.804,26,3.37086,0\H,30,1.08709,29,123.877,28,171.239,0\C,30,1.43357,29,116.757,28,4.23447,0\H,32,1.08514,30,125.51,29,171.793,0\C,29,1.5282,28,110.066,26,-172.175,0\H,34,1.09677,29,112.085,28,-45.943,0\H,34,1.09765,29,112.21,28,-170.062,0\C,34,1.553,29,114.402,28,75.0419,0\H,37,1.09629,34,105.93,29,142.291,0\H,37,1.09692,34,112.544,29,13.7389,0\C,37,1.59809,34,114.269,29,-105.504,0\H,40,1.0968,37,109.387,34,174.849,0\H,40,1.09688,37,104.341,34,61.653,0\C,40,1.54981,37,115.797,34,-62.6491,0\H,43,1.09661,40,105.455,37,-36.3674,0\H,43,1.09717,40,110.702,37,68.5181,0\C,43,1.54872,40,113.955,37,-162.636,0\H,46,1.09695,43,107.468,40,-58.649,0\H,46,1.09749,43,105.855,40,44.8659,0\C,46,1.50695,43,117.857,40,-178.045,0\H,49,1.09663,46,108.226,43,-71.2143,0\H,49,1.09736,46,113.244,43,173.211,0\H,49,1.09827,46,110.366,43,43.0723,0\S,23,1.62309,22,101.428,20,-3.77567,0\S,3,1.74079,2,127.393,1,173.168,0\S,6,1.7457,5,122.665,4,172.635,0\H,5,2.56527,4,84.6724,3,74.6053,0\C,56,1.08816,5,137.536,4,85.7896,0\N,57,1.32642,56,113.287,5,-74.0104,0\C,58,1.36981,57,119.747,56,171.747,0\C,57,1.4043,56,121.441,5,94.2048,0\C,60,1.41183,57,115.124,56,-170.113,0\C,61,1.34332,60,121.646,57,1.91861,0\N,62,1.37534,61,113.247,60,175.305,0\N,61,1.3884,60,119.114,57,172.583,0\C,60,1.45464,57,118.544,56,12.5177,0\C,65,1.39736,60,123.274,57,40.901,0\H,66,1.08535,65,122.561,60,10.7378,0\C,66,1.41285,65,118.077,60,-170.476,0\H,68,1.08571,66,117.343,65,-179.466,0\C,68,1.42271,66,118.672,65,-3.56955,0\N,70,1.34964,68,123.631,66,-0.914664,0\C,71,1.30537,70,117.096,68,0.435494,0\H,72,1.08958,71,118.786,70,173.892,0\C,59,1.46539,58,114.18,57,169.697,0\C,74,1.37573,59,136.027,58,-151.767,0\C,75,1.36562,74,114.656,59,170.247,0\C,76,1.36787,75,118.024,74,3.50636,0\C,76,1.37749,75,112.215,74,175.003,0\H,78,1.08387,76,126.044,75,-170.25,0\C,78,1.3933,76,112.931,75,8.46509,0\H,80,1.08248,78,121.122,76,-175.783,0\C,77,1.40932,76,124.595,75,-169.329,0\N,82,1.28438,77,118.567,76,41.1798,0\C,83,1.37203,82,115.726,77,153.945,0\H,84,1.08211,83,121.294,82,-178.512,0\C,84,1.41974,83,110.283,82,-7.27512,0\H,86,1.08138,84,128.542,83,-173.108,0\C,70,1.56967,68,118.814,66,174.934,0\H,88,1.09662,70,110.848,68,-141.737,0\H,88,1.09702,70,111.927,68,-27.3295,0\C,88,1.50613,70,114.006,68,92.8514,0\H,91,1.09767,88,111.038,70,-52.6254,0\H,91,1.09777,88,111.642,70,67.7018,0\C,91,1.5662,88,112.36,70,177.822,0\H,94,1.09615,91,110.674,88,68.8352,0\H,94,1.0966,91,110.123,88,-48.8328,0\C,94,1.54543,91,113.153,88,-172.374,0\H,97,1.09638,94,105.146,91,-172.087,0\H,97,1.09764,94,116.143,91,-55.7995,0\C,97,1.56472,94,109.721,91,72.2272,0\H,100,1.09635,97,109.121,94,44.7558,0\H,100,1.09648,97,114.481,94,-75.7074,0\C,100,1.54104,97,111.221,94,160.222,0\H,103,1.09621,100,107.943,97,79.9781,0\H,103,1.09629,100,117.061,97,-48.886,0\H,103,1.09629,100,110.057,97,-170.84,0\S,64,1.63258,61,100.683,60,-166.85,0\S,82,1.71807,77,124.3,76,-160.403,0\S,75,1.74538,74,129.746,59,-4.29756,0\S,74,1.7747,59,114.812,58,13.4427,0\\\@

 Total job time:  98.84s(wall), 1180.44s(cpu) 
 Fri Oct 12 08:56:50 2018

        *************************************************************
        *                                                           *
        *  Thank you very much for using Q-Chem.  Have a nice day.  *
        *                                                           *
        *************************************************************


