
Running Job 1 of 1 ./8/83.qcin
qchem ./8/83.qcin_10837.0 /tmpu/cab_g/afmv_a/scratch_qchem/qchem10837/ 1
/tmpu/appuserlic/qchem4.4/serial-multicore/exe/qcprog.exe_s ./8/83.qcin_10837.0 /tmpu/cab_g/afmv_a/scratch_qchem/qchem10837/
Check license passed

                  Welcome to Q-Chem
     A Quantum Leap Into The Future Of Chemistry


 Q-Chem 4.4, Q-Chem, Inc., Pleasanton, CA (2016)

 Y. Shao,  Z. Gan,  E. Epifanovsky,  A. T. B. Gilbert,  M. Wormit,  
 J. Kussmann,  A. W. Lange,  A. Behn,  J. Deng,  X. Feng,  D. Ghosh,  
 M. Goldey,  P. R. Horn,  L. D. Jacobson,  I. Kaliman,  F. Rob,  
 R. Z. Khaliullin,  T. Kus,  A. Landau,  J. Liu,  E. I. Proynov,  Y. M. Rhee,  
 R. M. Richard,  M. A. Rohrdanz,  R. P. Steele,  E. J. Sundstrom,  
 H. L. Woodcock III,  P. M. Zimmerman,  D. Zuev,  B. Albrecht,  E. Alguire,  
 B. Austin,  S. A. Baeppler,  G. J. O. Beran,  Y. A. Bernard,  E. Berquist,  
 K. Brandhorst,  K. B. Bravaya,  S. T. Brown,  D. Casanova,  C.-M. Chang,  
 Y. Chen,  S. H. Chien,  K. D. Closser,  M. P. Coons,  D. L. Crittenden,  
 S. Dasgupta,  M. Diedenhofen,  R. A. DiStasio Jr.,  H. Do,  A. D. Dutoi,  
 R. G. Edgar,  P.-T. Fang,  S. Fatehi,  Q. Feng,  L. Fusti-Molnar,  
 A. Ghysels,  A. Golubeva-Zadorozhnaya,  J. Gomes,  A. Gunina,  
 M. W. D. Hanson-Heine,  P. H. P. Harbach,  A. W. Hauser,  J. E. Herr,  
 E. G. Hohenstein,  Z. C. Holden,  K. Hui,  T.-C. Jagau,  H. Ji,  B. Kaduk,  
 K. Khistyaev,  Jaehoon Kim,  Jihan Kim,  R. A. King,  P. Klunzinger,  
 K. Koh,  D. Kosenkov,  T. Kowalczyk,  C. M. Krauter,  A. Kunitsa,  
 K. U. Lao,  A. Laurent,  K. V. Lawler,  J. Lee,  D. Lefrancois,  S. Lehtola,  
 S. V. Levchenko,  C. Y. Lin,  Y.-S. Lin,  F. Liu,  E. Livshits,  
 R. C. Lochan,  A. Luenser,  P. Manohar,  S. F. Manzer,  S.-P. Mao,  Y. Mao,  
 N. Mardirossian,  A. V. Marenich,  L. A. Martinez-Martinez,  S. A. Maurer,  
 N. J. Mayhall,  J.-M. Mewes,  A. F. Morrison,  K. Nanda,  T. S. Nguyen-Beck,  
 C. M. Oana,  R. Olivares-Amaya,  D. P. O'Neill,  J. A. Parkhill,  
 T. M. Perrine,  R. Peverati,  P. A. Pieniazek,  F. Plasser,  A. Prociuk,  
 D. R. Rehn,  E. Rosta,  N. J. Russ,  N. Sergueev,  S. M. Sharada,  
 S. Sharma,  D. W. Small,  A. Sodt,  T. Stauch,  T. Stein,  D. Stuck,  
 Y.-C. Su,  A. J. W. Thom,  T. Tsuchimochi,  L. Vogt,  O. Vydrov,  T. Wang,  
 M. A. Watson,  J. Wenzel,  A. White,  C. F. Williams,  V. Vanovschi,  
 K. Yao,  S. Yeganeh,  S. R. Yost,  Z.-Q. You,  I. Y. Zhang,  X. Zhang,  
 Y. Zhao,  B. R. Brooks,  G. K. L. Chan,  D. M. Chipman,  C. J. Cramer,  
 W. A. Goddard III,  M. S. Gordon,  W. J. Hehre,  A. Klamt,  
 H. F. Schaefer III,  M. W. Schmidt,  C. D. Sherrill,  D. G. Truhlar,  
 A. Warshel,  X. Xu,  A. Aspuru-Guzik,  R. Baer,  A. T. Bell,  N. A. Besley,  
 J.-D. Chai,  A. Dreuw,  B. D. Dunietz,  T. R. Furlani,  S. R. Gwaltney,  
 C.-P. Hsu,  Y. Jung,  J. Kong,  D. S. Lambrecht,  W. Liang,  C. Ochsenfeld,  
 V. A. Rassolov,  L. V. Slipchenko,  J. E. Subotnik,  T. Van Voorhis,  
 J. M. Herbert,  A. I. Krylov,  P. M. W. Gill,  M. Head-Gordon

 Contributors to earlier versions of Q-Chem not listed above: 
 R. D. Adamson,  J. Baker,  E. F. C. Byrd,  A. K. Chakraborty,  C.-L. Cheng,  
 H. Dachsel,  R. J. Doerksen,  G. Hawkins,  A. Heyden,  S. Hirata,  
 G. Kedziora,  F. J. Keil,  C. Kelley,  P. P. Korambath,  W. Kurlancheek,  
 A. M. Lee,  M. S. Lee,  D. Liotard,  I. Lotan,  P. E. Maslen,  N. Nair,  
 D. Neuhauser,  R. Olson,  B. Peters,  J. Ritchie,  N. E. Schultz,  
 N. Shenvi,  A. C. Simmonett,  K. S. Thanthiriwatte,  Q. Wu,  W. Zhang

 Please cite Q-Chem as follows:
 Y. Shao et al., Mol. Phys. 113, 184-215 (2015)
 DOI: 10.1080/00268976.2014.952696

 Q-Chem 4.4.2 for Intel X86 Linux

 Parts of Q-Chem use Armadillo 5.200.1 (Boston Tea Smuggler).
 http://arma.sourceforge.net/

 Q-Chem begins on Fri Oct 12 09:08:58 2018  

Host: 
0

     Scratch files written to /tmpu/cab_g/afmv_a/scratch_qchem/qchem10837//
 Dec716 11556_ 22328  22283 4050   
Processing $rem in /tmpu/appuserlic/qchem4.4/serial-multicore/config/preferences.
 MEM_TOTAL  2000 
FILE_GEOM_ORG=        593

Checking the input file for inconsistencies... 	...done.

--------------------------------------------------------------
User input:
--------------------------------------------------------------
$comment
SP
$end

$rem
MEM_STATIC 5000
MEM_TOTAL 20000
JOBTYPE SP
EXCHANGE B3LYP
BASIS 6-31g(d,p)
$end

$molecule
0 1
C          26.200000     26.098000     -2.199000
C          25.686000     24.819000     -2.498000
N          25.322000     27.086000     -1.913000
C          24.292000     24.627000     -2.521000
C          23.987000     26.928000     -1.825000
C          23.409000     25.667000     -2.015000
C          21.931000     25.418000     -1.831000
C          21.477000     24.189000     -1.317000
C          20.809000     26.246000     -2.139000
N          20.227000     23.723000     -1.029000
N          20.937000     27.456000     -2.674000
C          19.493000     25.796000     -1.948000
C          19.206000     24.545000     -1.341000
S          19.418000     27.966000     -2.824000
N          18.588000     26.694000     -2.361000
C          17.843000     23.995000     -1.257000
S          16.432000     24.491000     -2.227000
C          17.465000     22.890000     -0.495000
C          15.409000     23.201000     -1.612000
S          18.379000     22.081000      0.689000
C          16.167000     22.499000     -0.689000
C          14.009000     22.941000     -2.070000
C          16.959000     21.050000      0.929000
C          15.853000     21.431000      0.145000
N          13.165000     22.364000     -1.209000
S          13.726000     22.617000     -3.768000
C          12.059000     21.931000     -1.907000
C          12.228000     21.893000     -3.265000
C          27.666000     26.378000     -2.014000
H          26.451000     24.075000     -2.700000
H          23.971000     23.652000     -2.876000
H          23.399000     27.795000     -1.528000
H          22.216000     23.395000     -1.220000
H          17.021000     20.212000      1.610000
H          14.875000     20.970000      0.210000
H          11.228000     21.493000     -1.369000
H          11.500000     21.527000     -3.977000
H          27.894000     27.338000     -1.535000
C          28.375000     26.479000     -3.370000
H          28.165000     25.619000     -1.400000
H          27.985000     27.279000     -4.011000
H          28.244000     25.527000     -3.900000
C          29.904000     26.734000     -3.167000
H          29.992000     27.655000     -2.577000
C          30.687000     26.988000     -4.526000
H          30.461000     25.995000     -2.577000
H          30.066000     27.703000     -5.080000
H          30.670000     26.088000     -5.153000
C          32.070000     27.602000     -4.268000
H          32.003000     28.692000     -4.167000
C          32.914000     27.199000     -5.516000
H          32.539000     27.271000     -3.334000
H          32.414000     27.386000     -6.474000
H          33.055000     26.112000     -5.472000
H          33.845000     27.769000     -5.408000
C          14.610000      9.063000      3.582000
C          15.465000      9.402000      4.611000
N          14.063000     10.024000      2.836000
C          15.970000     10.754000      4.727000
C          14.387000     11.325000      2.997000
C          15.365000     11.758000      4.015000
C          15.898000     13.198000      4.075000
C          17.253000     13.506000      4.523000
C          15.105000     14.345000      3.780000
N          17.722000     14.720000      4.482000
N          13.786000     14.247000      3.389000
C          15.661000     15.598000      3.842000
C          16.996000     15.770000      4.127000
S          13.462000     15.788000      2.914000
N          14.856000     16.574000      3.349000
C          17.700000     16.994000      3.836000
S          19.290000     17.059000      3.076000
C          17.380000     18.311000      4.286000
C          19.280000     18.925000      3.184000
S          16.070000     18.603000      5.280000
C          18.189000     19.359000      3.925000
C          20.413000     19.791000      2.921000
C          16.512000     20.348000      5.182000
C          17.724000     20.579000      4.512000
N          21.394000     19.149000      2.287000
S          20.661000     21.500000      3.315000
C          22.438000     20.013000      2.047000
C          22.270000     21.258000      2.641000
C          14.190000      7.701000      3.214000
H          15.856000      8.621000      5.256000
H          16.829000     11.019000      5.337000
H          14.012000     12.037000      2.263000
H          18.068000     12.787000      4.584000
H          15.881000     21.079000      5.668000
H          18.135000     21.575000      4.396000
H          23.371000     19.690000      1.605000
H          22.905000     22.132000      2.708000
H          13.830000      7.787000      2.181000
C          13.069000      7.163000      4.128000
H          14.980000      6.940000      3.188000
H          12.179000      7.797000      4.218000
H          13.457000      7.402000      5.126000
C          12.734000      5.703000      3.911000
H          12.584000      5.565000      2.833000
C          11.503000      5.238000      4.744000
H          13.665000      5.150000      4.089000
H          11.746000      5.231000      5.813000
H          11.447000      4.151000      4.609000
C          10.190000      5.918000      4.353000
H          10.149000      6.983000      4.610000
C           8.967000      5.185000      4.832000
H          10.082000      5.899000      3.263000
H           8.015000      5.567000      4.444000
H           8.929000      5.286000      5.924000
H           8.955000      4.101000      4.661000
$end

--------------------------------------------------------------
 ----------------------------------------------------------------
             Standard Nuclear Orientation (Angstroms)
    I     Atom           X                Y                Z
 ----------------------------------------------------------------
    1      C     -10.1986190254     2.5365982223    -0.4345787291
    2      C      -9.0283789497     2.6421397756    -1.2148589004
    3      N     -10.3860292960     1.4051407357     0.2820141445
    4      C      -8.1240081201     1.5642875209    -1.2461146133
    5      C      -9.5041092696     0.3899358093     0.3626926699
    6      C      -8.2772384195     0.4625755425    -0.3079908518
    7      C      -7.2156129301    -0.6025821482    -0.1711280944
    8      C      -5.8524928567    -0.2532525235    -0.1961376635
    9      C      -7.3391012894    -2.0199426142    -0.0479536867
   10      N      -4.7147422620    -0.9958698748    -0.0671297034
   11      N      -8.5157671427    -2.6379718646    -0.0335900054
   12      C      -6.2090503150    -2.8513375471     0.0030782716
   13      C      -4.8902510184    -2.3270827481     0.0448433397
   14      S      -8.1252516080    -4.1916539006     0.1198073484
   15      N      -6.5395336739    -4.1492712233     0.0494131577
   16      C      -3.6921551222    -3.1783083022    -0.0406334382
   17      S      -3.6166003573    -4.8546784287    -0.6422243929
   18      C      -2.3856317276    -2.7587096760     0.2073315032
   19      C      -1.8618384255    -4.9240918232    -0.5726087083
   20      S      -1.8780349205    -1.2895673377     0.8970410589
   21      C      -1.4360765702    -3.7065390312    -0.0670505599
   22      C      -1.0431815783    -6.0907608722    -1.0265341389
   23      C      -0.2272617433    -1.9153987402     0.7547597418
   24      C      -0.1697344253    -3.2320044296     0.2584805196
   25      N       0.1439225205    -6.2875626330    -0.4446072316
   26      S      -1.1903818606    -6.6260486245    -2.6878794068
   27      C       0.8567960667    -7.1898557074    -1.2032952538
   28      C       0.3520107923    -7.3941497528    -2.4593305916
   29      C     -11.1576051870     3.6756533869    -0.2232025861
   30      H      -8.9398037716     3.5844496225    -1.7475610595
   31      H      -7.3120376351     1.6698567649    -1.9597322044
   32      H      -9.7535931538    -0.4382633455     1.0241198779
   33      H      -5.6139323070     0.7714546172    -0.4772606614
   34      H       0.6060350354    -1.2784377682     1.0188547980
   35      H       0.7426214595    -3.8096259255     0.1736857847
   36      H       1.8246397093    -7.5291183697    -0.8568439160
   37      H       0.8015619734    -8.0167695567    -3.2216509412
   38      H     -11.8667429131     3.5328472164     0.6012700229
   39      C     -12.0647757385     3.8559772118    -1.4463717930
   40      H     -10.6464393113     4.6215906608    -0.0087495109
   41      H     -12.6760478781     2.9741156342    -1.6736327206
   42      H     -11.4315360833     4.0622746489    -2.3186182642
   43      C     -13.0331634862     5.0644748447    -1.2322838636
   44      H     -13.5994422395     4.8532420445    -0.3164268455
   45      C     -14.0997831893     5.2322394431    -2.3979010600
   46      H     -12.5769966569     6.0428008821    -1.0341425292
   47      H     -14.4906791480     4.2216510427    -2.5702188899
   48      H     -13.6006239095     5.4827538510    -3.3420941255
   49      C     -15.2469866774     6.1609889472    -1.9764778578
   50      H     -16.0175544432     5.6081400311    -1.4256844352
   51      C     -15.8045663186     6.7252276653    -3.3192319726
   52      H     -14.9452342451     6.9618375382    -1.2913026949
   53      H     -15.9861461927     5.9612863000    -4.0848397963
   54      H     -15.0297227158     7.3772555068    -3.7409701437
   55      H     -16.7189393679     7.2575388009    -3.0295911923
   56      C      11.1613193096     2.5957032392    -1.7341274658
   57      C      10.7660390995     3.4222393809    -0.7019556962
   58      N      10.4778532938     1.4772369217    -1.9814194023
   59      C       9.4849752868     3.2250847778    -0.0566723707
   60      C       9.3499083135     1.1655141958    -1.3075744175
   61      C       8.8112020650     2.0466242429    -0.2522367167
   62      C       7.4287645522     1.8155519296     0.3776530429
   63      C       6.5945193985     2.9188949929     0.8448383467
   64      C       6.8833530144     0.5230466622     0.6295248120
   65      N       5.3885069789     2.7159708674     1.2918213923
   66      N       7.5545442749    -0.6359167287     0.3000522784
   67      C       5.6330923196     0.4016039068     1.1818733000
   68      C       4.8616390925     1.5099692037     1.4453505992
   69      S       6.3899465673    -1.7744047470     0.5299200916
   70      N       5.1616871309    -0.8717480628     1.1832551262
   71      C       3.4378756195     1.4315119627     1.6579888702
   72      S       2.2694457494     2.5243824640     0.9161460930
   73      C       2.7444386037     0.6517550574     2.6329315730
   74      C       0.8718191751     1.6479875184     1.7949474686
   75      S       3.5603513155    -0.3162571270     3.7222611180
   76      C       1.3760343032     0.7268277860     2.7032149689
   77      C      -0.5019914254     2.1073293019     1.8617573482
   78      C       1.9413369060    -0.8122372541     4.3409606053
   79      C       0.8813517162    -0.0906878676     3.7691189488
   80      N      -0.7508305040     3.0652777087     0.9690676133
   81      S      -1.8270109944     1.5984231014     2.9213603969
   82      C      -2.0668536691     3.4574256114     1.0603641156
   83      C      -2.7412751688     2.8777613176     2.1281796180
   84      C      12.3215917129     2.8011534298    -2.6164120964
   85      H      11.3634194094     4.2968740517    -0.4631713626
   86      H       9.0083273085     3.9783230585     0.5643306866
   87      H       8.7680094570     0.3135727314    -1.6567369328
   88      H       6.7219253462     3.9613692655     0.5586179500
   89      H       1.8816786133    -1.5603529027     5.1190877571
   90      H      -0.1492371383    -0.2573365017     4.0598212804
   91      H      -2.4728423610     4.2733719910     0.4776234462
   92      H      -3.7410862706     3.0058038188     2.5226068972
   93      H      12.1167606861     2.1825761566    -3.4993002023
   94      C      13.6476527354     2.3685041824    -1.9562168272
   95      H      12.4667856887     3.8196430201    -2.9978497241
   96      H      13.6759458522     1.3447018691    -1.5648291387
   97      H      13.5752696275     2.8448640481    -0.9705642698
   98      C      14.8859694095     2.7324747627    -2.7467933457
   99      H      14.7240842157     2.3848702678    -3.7747001017
  100      C      16.1897100578     2.1511935786    -2.1240193040
  101      H      14.8599023041     3.8233468999    -2.8632943601
  102      H      16.4094671054     2.6437425963    -1.1695763748
  103      H      17.0143124228     2.5907905821    -2.6982278152
  104      C      16.2579716603     0.6232633383    -2.1284390856
  105      H      15.5431389794     0.1459186486    -1.4479162826
  106      C      17.6488083931     0.0826852519    -1.9392103472
  107      H      15.9774518681     0.2503129701    -3.1195705951
  108      H      17.7499125010    -0.9997621774    -2.0836316824
  109      H      17.9467800269     0.2948451351    -0.9046524274
  110      H      18.4352849078     0.5479391761    -2.5470215661
 ----------------------------------------------------------------
 Molecular Point Group                 C1    NOp =  1
 Largest Abelian Subgroup              C1    NOp =  1
 Nuclear Repulsion Energy = 10819.0450679948 hartrees
 There are      270 alpha and      270 beta electrons
 Requested basis set is 6-31G(d,p)
 There are 406 shells and 1262 basis functions

 Total QAlloc Memory Limit  20000 MB
 Mega-Array Size      4888 MB
 MEM_STATIC part      5000 MB
 A cutoff of  1.0D-08 yielded  12801 shell pairs
 There are    134710 function pairs
 
 -------------------------------------------------------
 OpenMP Integral Computing Module                       
 Release: version 1.0, May 2013, Q-Chem Inc. Pittsburgh 
 -------------------------------------------------------
 Integral Job Info:
 Integral job number is                      11
 Integral operator is                         1
 short-range coefficients                     0
 long-range coefficients              100000000
 Omega coefficients                           0
 if combine SR and LR in K                    0
 Integral screening is                        0
 Integral computing path is                   2
 max size of driver memory is            800000
 size of driver memory is                593474
 size of scratch memory is             15166112
 max col of scratch BK array               1296
 max len of scratch array in speh3          155
 max len of scratch index in speh4           18
 max int batch size is                      520
 min int batch size is                       52
 fixed nKL is                                52
 max L of basis functions is                  2
 order of int derivative is                   0
 number of shells is                        406
 number of basis is                        1262
 number of cartesian basis is              1262
 number of contracted shell pairs         12801
 number of primitive shell pairs          41948
 maxK2 (contraction) of shell pair           36
 max number of K2 of shell pair               1
 max number of CS2 of shell pair           1308
 max number of PS2 of shell pair           7734
 mem total for path MDJ                  279544
 -------------------------------------------------------
 Smallest overlap matrix eigenvalue = 4.08E-04

 Scale SEOQF with 1.000000e-03/1.000000e-02/1.000000e-01

 Standard Electronic Orientation quadrupole field applied
 Nucleus-field energy     =    -0.0000001201 hartrees
 Guess from superposition of atomic densities
 Warning:  Energy on first SCF cycle will be non-variational
 A restricted hybrid HF-DFT SCF calculation will be
 performed using Pulay DIIS extrapolation
 Exchange:     0.2000 Hartree-Fock + 0.0800 Slater + 0.7200 B88
 Correlation:  0.1900 VWN1RPA + 0.8100 LYP
 Using SG-1 standard quadrature grid
 SCF converges when DIIS error is below 1.0E-05
 using 16 threads for integral computing 
 -------------------------------------------------------
 OpenMP BLAS3 based DFT computing Module                
 Release: version 1.0, May 2013, Q-Chem Inc. Pittsburgh 
 -------------------------------------------------------
 ---------------------------------------
  Cycle       Energy         DIIS Error
 ---------------------------------------
    1   -5680.0666115474      2.15E-02
    2   -5662.4305697420      2.19E-03
    3   -5660.8183723988      3.47E-03
    4   -5663.2285970360      1.07E-03
    5   -5663.4197790414      5.06E-04
    6   -5663.4557163520      2.80E-04
    7   -5663.4697669692      8.77E-05
    8   -5663.4710710759      3.66E-05
    9   -5663.4713014512      1.63E-05
   10   -5663.4713572665      4.19E-06 Convergence criterion met
 ---------------------------------------
 SCF time:  CPU 1033.18 s  wall 85.52 s
 SCF   energy in the final basis set = -5663.4713572665
 Total energy in the final basis set = -5663.4713572665
 
 --------------------------------------------------------------
 
                    Orbital Energies (a.u.)
 --------------------------------------------------------------
 
 Alpha MOs
 -- Occupied --
-88.992 -88.984 -88.932 -88.928 -88.923 -88.921 -88.910 -88.904
-14.391 -14.389 -14.384 -14.376 -14.350 -14.350 -14.342 -14.337
-14.325 -14.321 -10.274 -10.264 -10.262 -10.258 -10.254 -10.253
-10.252 -10.251 -10.242 -10.241 -10.240 -10.238 -10.237 -10.236
-10.235 -10.233 -10.233 -10.232 -10.231 -10.229 -10.228 -10.227
-10.225 -10.225 -10.225 -10.224 -10.223 -10.221 -10.219 -10.218
-10.216 -10.214 -10.214 -10.209 -10.202 -10.201 -10.198 -10.188
-10.186 -10.184 -10.181 -10.181 -10.180 -10.180 -10.180 -10.179
-10.178 -10.177 -10.173 -10.170  -8.047  -8.041  -7.993  -7.988
 -7.980  -7.980  -7.972  -7.965  -6.012  -6.006  -6.006  -6.005
 -6.000  -5.999  -5.957  -5.953  -5.952  -5.950  -5.949  -5.945
 -5.945  -5.944  -5.941  -5.940  -5.937  -5.937  -5.936  -5.933
 -5.929  -5.928  -5.925  -5.921  -1.054  -1.036  -0.971  -0.969
 -0.959  -0.955  -0.938  -0.930  -0.916  -0.915  -0.912  -0.903
 -0.841  -0.838  -0.830  -0.828  -0.814  -0.809  -0.809  -0.806
 -0.802  -0.801  -0.797  -0.789  -0.786  -0.784  -0.766  -0.765
 -0.751  -0.750  -0.746  -0.742  -0.722  -0.717  -0.711  -0.706
 -0.692  -0.690  -0.674  -0.668  -0.655  -0.650  -0.648  -0.641
 -0.638  -0.632  -0.631  -0.622  -0.608  -0.607  -0.599  -0.594
 -0.593  -0.589  -0.588  -0.581  -0.579  -0.578  -0.577  -0.572
 -0.554  -0.547  -0.540  -0.539  -0.531  -0.521  -0.514  -0.513
 -0.507  -0.506  -0.501  -0.499  -0.486  -0.481  -0.478  -0.475
 -0.473  -0.472  -0.470  -0.465  -0.462  -0.458  -0.451  -0.447
 -0.443  -0.439  -0.437  -0.436  -0.435  -0.433  -0.432  -0.429
 -0.428  -0.428  -0.426  -0.420  -0.417  -0.415  -0.411  -0.409
 -0.408  -0.407  -0.404  -0.404  -0.400  -0.399  -0.396  -0.395
 -0.394  -0.393  -0.391  -0.391  -0.389  -0.384  -0.383  -0.382
 -0.378  -0.377  -0.376  -0.374  -0.366  -0.364  -0.361  -0.359
 -0.359  -0.354  -0.351  -0.351  -0.348  -0.347  -0.344  -0.344
 -0.340  -0.338  -0.336  -0.331  -0.331  -0.328  -0.323  -0.321
 -0.317  -0.316  -0.315  -0.312  -0.306  -0.303  -0.301  -0.299
 -0.297  -0.292  -0.291  -0.287  -0.286  -0.283  -0.281  -0.278
 -0.276  -0.269  -0.268  -0.262  -0.255  -0.251  -0.244  -0.243
 -0.241  -0.234  -0.232  -0.229  -0.192  -0.189
 -- Virtual --
 -0.117  -0.105  -0.079  -0.065  -0.042  -0.041  -0.031  -0.029
 -0.023  -0.019  -0.014  -0.010  -0.004  -0.001   0.000   0.004
  0.006   0.009   0.016   0.018   0.021   0.025   0.035   0.040
  0.044   0.052   0.055   0.068   0.068   0.085   0.086   0.091
  0.094   0.095   0.099   0.100   0.103   0.108   0.108   0.111
  0.113   0.116   0.116   0.120   0.123   0.124   0.124   0.125
  0.128   0.129   0.131   0.134   0.136   0.138   0.142   0.145
  0.149   0.152   0.155   0.158   0.158   0.160   0.162   0.162
  0.163   0.168   0.168   0.172   0.173   0.177   0.178   0.181
  0.183   0.185   0.188   0.188   0.189   0.193   0.196   0.198
  0.199   0.200   0.204   0.209   0.213   0.216   0.220   0.223
  0.225   0.228   0.231   0.234   0.235   0.236   0.238   0.240
  0.241   0.246   0.248   0.248   0.252   0.252   0.253   0.258
  0.260   0.262   0.264   0.266   0.267   0.273   0.275   0.277
  0.282   0.283   0.284   0.294   0.294   0.295   0.298   0.308
  0.309   0.310   0.310   0.315   0.316   0.321   0.322   0.324
  0.326   0.329   0.332   0.340   0.341   0.343   0.346   0.348
  0.348   0.352   0.356   0.360   0.363   0.367   0.368   0.370
  0.373   0.380   0.381   0.386   0.389   0.397   0.402   0.404
  0.406   0.410   0.414   0.418   0.423   0.429   0.432   0.437
  0.439   0.443   0.450   0.455   0.460   0.462   0.466   0.473
  0.475   0.479   0.485   0.489   0.490   0.496   0.496   0.506
  0.507   0.509   0.510   0.513   0.514   0.515   0.516   0.517
  0.520   0.521   0.523   0.525   0.527   0.530   0.531   0.533
  0.535   0.537   0.538   0.541   0.542   0.544   0.546   0.549
  0.553   0.554   0.556   0.559   0.561   0.563   0.565   0.565
  0.566   0.567   0.568   0.572   0.574   0.576   0.578   0.581
  0.582   0.587   0.587   0.591   0.592   0.594   0.595   0.596
  0.600   0.603   0.606   0.608   0.609   0.610   0.613   0.615
  0.617   0.619   0.620   0.621   0.623   0.625   0.626   0.630
  0.632   0.634   0.635   0.638   0.640   0.642   0.645   0.647
  0.648   0.654   0.655   0.656   0.664   0.665   0.666   0.669
  0.675   0.677   0.678   0.683   0.686   0.687   0.689   0.693
  0.694   0.694   0.704   0.704   0.709   0.713   0.716   0.723
  0.726   0.727   0.729   0.731   0.737   0.737   0.743   0.744
  0.749   0.755   0.758   0.759   0.762   0.767   0.767   0.767
  0.769   0.776   0.781   0.783   0.787   0.790   0.791   0.792
  0.794   0.795   0.797   0.798   0.803   0.804   0.805   0.807
  0.808   0.810   0.815   0.816   0.819   0.821   0.823   0.825
  0.827   0.828   0.831   0.833   0.834   0.837   0.837   0.839
  0.839   0.840   0.847   0.849   0.851   0.852   0.853   0.854
  0.858   0.860   0.861   0.862   0.865   0.866   0.870   0.871
  0.873   0.878   0.879   0.879   0.884   0.887   0.888   0.891
  0.891   0.894   0.896   0.901   0.902   0.903   0.905   0.908
  0.914   0.917   0.920   0.921   0.922   0.923   0.925   0.927
  0.929   0.931   0.936   0.938   0.940   0.941   0.942   0.946
  0.946   0.950   0.950   0.955   0.956   0.958   0.959   0.961
  0.961   0.963   0.964   0.969   0.972   0.973   0.976   0.977
  0.981   0.985   0.985   0.990   0.992   0.995   0.997   1.001
  1.002   1.004   1.007   1.008   1.009   1.013   1.018   1.021
  1.021   1.022   1.026   1.029   1.033   1.034   1.042   1.044
  1.052   1.056   1.058   1.060   1.060   1.065   1.069   1.071
  1.074   1.078   1.081   1.087   1.091   1.091   1.095   1.098
  1.102   1.109   1.122   1.124   1.132   1.139   1.142   1.144
  1.147   1.154   1.158   1.160   1.161   1.173   1.176   1.178
  1.184   1.191   1.197   1.203   1.204   1.213   1.216   1.223
  1.225   1.234   1.234   1.239   1.256   1.263   1.268   1.270
  1.275   1.279   1.280   1.288   1.295   1.296   1.297   1.302
  1.305   1.310   1.316   1.317   1.322   1.327   1.333   1.334
  1.336   1.342   1.344   1.348   1.356   1.362   1.364   1.370
  1.371   1.374   1.375   1.378   1.384   1.387   1.389   1.391
  1.398   1.399   1.410   1.413   1.419   1.423   1.431   1.433
  1.436   1.442   1.448   1.452   1.458   1.460   1.466   1.469
  1.471   1.481   1.481   1.490   1.497   1.501   1.509   1.510
  1.511   1.525   1.533   1.538   1.546   1.555   1.557   1.562
  1.566   1.575   1.577   1.585   1.586   1.595   1.602   1.607
  1.610   1.614   1.619   1.622   1.628   1.640   1.644   1.651
  1.654   1.656   1.660   1.661   1.664   1.665   1.672   1.676
  1.685   1.688   1.691   1.693   1.697   1.701   1.702   1.706
  1.716   1.716   1.719   1.725   1.729   1.734   1.742   1.746
  1.754   1.767   1.768   1.768   1.769   1.774   1.780   1.784
  1.790   1.791   1.796   1.797   1.801   1.803   1.810   1.813
  1.816   1.818   1.825   1.830   1.832   1.839   1.842   1.846
  1.847   1.854   1.854   1.855   1.858   1.860   1.862   1.867
  1.868   1.870   1.877   1.879   1.889   1.891   1.891   1.894
  1.899   1.902   1.908   1.911   1.914   1.916   1.917   1.922
  1.927   1.929   1.932   1.937   1.941   1.944   1.946   1.950
  1.951   1.955   1.959   1.961   1.968   1.971   1.976   1.980
  1.986   1.988   1.988   1.999   2.009   2.012   2.015   2.026
  2.037   2.041   2.046   2.050   2.057   2.060   2.060   2.063
  2.068   2.081   2.084   2.086   2.089   2.091   2.093   2.094
  2.103   2.107   2.107   2.111   2.117   2.121   2.123   2.125
  2.128   2.130   2.137   2.145   2.148   2.149   2.152   2.154
  2.161   2.168   2.172   2.173   2.178   2.180   2.182   2.185
  2.187   2.194   2.197   2.206   2.215   2.216   2.222   2.226
  2.228   2.228   2.229   2.235   2.241   2.244   2.255   2.256
  2.260   2.260   2.263   2.267   2.274   2.274   2.278   2.281
  2.282   2.287   2.288   2.293   2.295   2.296   2.297   2.302
  2.305   2.311   2.316   2.317   2.323   2.325   2.329   2.338
  2.339   2.343   2.344   2.347   2.349   2.352   2.354   2.359
  2.362   2.368   2.370   2.373   2.376   2.379   2.384   2.388
  2.388   2.400   2.403   2.408   2.412   2.414   2.415   2.418
  2.419   2.429   2.431   2.431   2.434   2.435   2.439   2.446
  2.449   2.449   2.453   2.458   2.460   2.464   2.466   2.472
  2.474   2.476   2.476   2.481   2.484   2.488   2.496   2.497
  2.501   2.505   2.506   2.512   2.512   2.523   2.532   2.535
  2.537   2.539   2.540   2.546   2.552   2.560   2.561   2.566
  2.570   2.574   2.576   2.581   2.584   2.589   2.591   2.593
  2.605   2.609   2.614   2.616   2.632   2.632   2.640   2.645
  2.647   2.650   2.652   2.654   2.658   2.659   2.661   2.665
  2.672   2.676   2.678   2.682   2.689   2.692   2.699   2.704
  2.708   2.714   2.719   2.723   2.727   2.737   2.743   2.744
  2.753   2.755   2.757   2.759   2.761   2.775   2.780   2.784
  2.796   2.798   2.800   2.816   2.825   2.826   2.830   2.841
  2.843   2.844   2.848   2.852   2.854   2.866   2.871   2.879
  2.880   2.892   2.893   2.895   2.897   2.898   2.901   2.902
  2.907   2.910   2.922   2.926   2.930   2.939   2.941   2.942
  2.955   2.959   2.969   2.977   2.981   2.987   3.015   3.016
  3.028   3.031   3.039   3.063   3.066   3.082   3.096   3.111
  3.142   3.160   3.178   3.201   3.202   3.218   3.226   3.230
  3.241   3.250   3.259   3.264   3.267   3.275   3.278   3.285
  3.287   3.287   3.291   3.310   3.317   3.327   3.328   3.345
  3.346   3.352   3.358   3.364   3.387   3.396   3.404   3.417
  3.423   3.435   3.450   3.468   3.483   3.514   3.515   3.544
  3.546   3.557   3.566   3.574   3.578   3.586   3.594   3.614
  3.616   3.654   3.710   3.725   3.844   3.854   3.914   3.923
  3.932   3.936   3.940   3.957   3.975   3.984   3.986   3.987
  4.011   4.023   4.060   4.065   4.081   4.098   4.103   4.112
  4.118   4.135   4.145   4.154   4.173   4.180   4.192   4.199
  4.213   4.220   4.235   4.246   4.252   4.261   4.267   4.270
  4.275   4.297   4.331   4.335   4.366   4.367   4.375   4.386
  4.418   4.435   4.450   4.456   4.457   4.463   4.478   4.483
  4.495   4.513   4.525   4.533   4.562   4.577   4.654   4.660
  4.684   4.688   4.720   4.728   4.765   4.765   4.785   4.787
 --------------------------------------------------------------
 
          Ground-State Mulliken Net Atomic Charges

     Atom                 Charge (a.u.)
  ----------------------------------------
      1 C                     0.284310
      2 C                    -0.113736
      3 N                    -0.495442
      4 C                    -0.088211
      5 C                     0.095369
      6 C                     0.019851
      7 C                     0.068015
      8 C                     0.030933
      9 C                     0.192126
     10 N                    -0.508234
     11 N                    -0.545452
     12 C                     0.196245
     13 C                     0.295654
     14 S                     0.595346
     15 N                    -0.538331
     16 C                    -0.224987
     17 S                     0.308786
     18 C                    -0.116513
     19 C                    -0.251703
     20 S                     0.310011
     21 C                     0.188183
     22 C                     0.034227
     23 C                    -0.325317
     24 C                    -0.076438
     25 N                    -0.401248
     26 S                     0.295981
     27 C                     0.118746
     28 C                    -0.303495
     29 C                    -0.222800
     30 H                     0.088584
     31 H                     0.107127
     32 H                     0.119677
     33 H                     0.097535
     34 H                     0.137708
     35 H                     0.117023
     36 H                     0.115852
     37 H                     0.134165
     38 H                     0.121103
     39 C                    -0.185008
     40 H                     0.106268
     41 H                     0.110290
     42 H                     0.091126
     43 C                    -0.192345
     44 H                     0.092148
     45 C                    -0.174812
     46 H                     0.089326
     47 H                     0.094191
     48 H                     0.091298
     49 C                    -0.178449
     50 H                     0.098336
     51 C                    -0.319085
     52 H                     0.095452
     53 H                     0.106823
     54 H                     0.106898
     55 H                     0.094958
     56 C                     0.280693
     57 C                    -0.126317
     58 N                    -0.478240
     59 C                    -0.093926
     60 C                     0.093286
     61 C                     0.041814
     62 C                     0.002493
     63 C                     0.051014
     64 C                     0.220196
     65 N                    -0.485677
     66 N                    -0.542269
     67 C                     0.236107
     68 C                     0.220373
     69 S                     0.610535
     70 N                    -0.540686
     71 C                    -0.171202
     72 S                     0.340538
     73 C                    -0.135070
     74 C                    -0.251700
     75 S                     0.266491
     76 C                     0.165940
     77 C                     0.064876
     78 C                    -0.287208
     79 C                    -0.095447
     80 N                    -0.436741
     81 S                     0.281277
     82 C                     0.129566
     83 C                    -0.313366
     84 C                    -0.224989
     85 H                     0.087398
     86 H                     0.102697
     87 H                     0.120617
     88 H                     0.118128
     89 H                     0.130283
     90 H                     0.127471
     91 H                     0.116114
     92 H                     0.132936
     93 H                     0.121256
     94 C                    -0.175340
     95 H                     0.097663
     96 H                     0.105813
     97 H                     0.085793
     98 C                    -0.179936
     99 H                     0.096575
    100 C                    -0.178596
    101 H                     0.085787
    102 H                     0.093063
    103 H                     0.089387
    104 C                    -0.167620
    105 H                     0.102938
    106 C                    -0.322752
    107 H                     0.099108
    108 H                     0.099641
    109 H                     0.098589
    110 H                     0.102560
  ----------------------------------------
  Sum of atomic charges =     0.000000

 -----------------------------------------------------------------
                    Cartesian Multipole Moments
 -----------------------------------------------------------------
    Charge (ESU x 10^10)
                 0.0000
    Dipole Moment (Debye)
         X       1.2529      Y      -0.2006      Z      -0.5159
       Tot       1.3698
    Quadrupole Moments (Debye-Ang)
        XX    -426.2218     XY      -8.9993     YY    -413.8545
        XZ       4.9251     YZ       4.2892     ZZ    -436.7417
    Octopole Moments (Debye-Ang^2)
       XXX     386.6145    XXY     294.3503    XYY      48.0674
       YYY    -115.8354    XXZ     -40.3833    XYZ       0.8443
       YYZ    -121.3623    XZZ     -27.8135    YZZ     -73.0252
       ZZZ      24.7807
    Hexadecapole Moments (Debye-Ang^3)
      XXXX -171767.6679   XXXY    1885.9784   XXYY  -31729.5287
      XYYY    -314.8136   YYYY  -28366.8669   XXXZ    -216.4960
      XXYZ    -300.6137   XYYZ    -304.3362   YYYZ     825.0269
      XXZZ  -30769.4945   XYZZ     -36.6991   YYZZ   -6139.2521
      XZZZ     -20.7203   YZZZ      -5.6553   ZZZZ   -8289.0404
 -----------------------------------------------------------------
Archival summary:
1\1\mn246\SP\ProcedureUnspecified\6-31G**\8105042\afmv_a\FriOct1209:10:272018FriOct1209:10:272018\0\\#,ProcedureUnspecified,6-31G**,\\0,1\S\C,1,1.70051\C,2,1.36942,1,118.181\C,3,1.38539,2,117.924,1,-177.144,0\C,3,1.39096,2,110.381,1,1.78779,0\H,5,1.08316,3,124.513,2,-177.247,0\C,2,1.39447,1,127.716,3,-175.048,0\C,5,1.40821,3,111.361,2,0.853744,0\H,8,1.0816,5,127.242,3,175.413,0\C,7,1.47218,2,125.323,1,-10.8549,0\N,10,1.34739,7,117.415,2,-22.1615,0\C,11,1.36477,10,115.904,7,-170.025,0\H,12,1.08902,11,110.719,10,168.712,0\C,12,1.40739,11,132.121,10,-3.63497,0\C,10,1.4198,7,122.733,2,169.111,0\N,15,1.34015,10,125.85,7,-8.71258,0\C,15,1.40387,10,122.012,7,173.55,0\N,17,1.32918,15,115.902,10,177.613,0\C,4,1.49578,3,128.904,2,-176.168,0\N,19,1.33663,4,117.957,3,-29.7409,0\C,20,1.37765,19,108.436,4,165.955,0\H,21,1.08252,20,119.449,19,175.958,0\C,21,1.369,20,114.343,19,-14.8922,0\H,23,1.08207,21,125.383,20,-176.138,0\C,14,1.51008,12,120.28,11,-178.371,0\C,25,1.40011,14,122.414,12,145.362,0\H,26,1.08887,25,122.087,14,-0.378057,0\N,26,1.34719,25,120.388,14,-175.565,0\C,28,1.35234,26,124.855,25,-0.974094,0\C,29,1.41047,28,118.081,26,-3.52087,0\H,30,1.08608,29,113.824,28,179.002,0\C,30,1.40735,29,119.218,28,-1.5799,0\H,32,1.08614,30,114.869,29,-172.866,0\C,29,1.50392,28,118.089,26,169.011,0\H,34,1.09639,29,112.56,28,-128.053,0\H,34,1.09682,29,114.791,28,-7.38643,0\C,34,1.5335,29,110.743,28,109.272,0\H,37,1.0968,34,113.604,29,-60.3041,0\H,37,1.09744,34,108.344,29,59.6334,0\C,37,1.56335,34,110.371,29,178.568,0\H,40,1.09731,37,106.568,34,57.5326,0\H,40,1.09748,37,117.152,34,-57.8466,0\S,16,1.58785,15,105.882,10,-174.406,0\C,40,1.58886,37,113.39,34,174.534,0\H,44,1.097,40,110.492,37,65.0864,0\H,44,1.09717,40,104.9,37,-46.1096,0\C,44,1.53501,40,111.358,37,-164.49,0\H,47,1.0963,44,114.071,40,-32.8105,0\H,47,1.09672,44,110.976,40,84.6973,0\C,47,1.55957,44,104.461,40,-155.237,0\H,50,1.09669,47,114.094,44,-48.0133,0\H,50,1.09696,47,104.255,44,-171.244,0\H,50,1.09699,47,107.068,44,67.977,0\S,23,1.73816,21,112.451,20,8.11497,0\S,4,1.75751,3,106.654,2,2.12424,0\C,9,2.72966,8,143.189,5,148.858,0\C,56,1.37226,9,102.093,8,-161.566,0\C,56,1.38842,9,88.9277,8,86.7637,0\C,57,1.42807,56,119.295,9,-90.9621,0\C,56,1.4315,9,86.7008,8,-51.2185,0\H,60,1.08369,56,128.039,9,76.7481,0\C,60,1.404,56,109.626,9,-96.4775,0\H,62,1.08107,60,127.383,56,175.668,0\C,59,1.44169,57,127.586,56,-178.676,0\N,64,1.32499,59,117.343,57,134.005,0\C,65,1.30209,64,123.362,59,166.44,0\H,66,1.08853,65,110.36,64,-165.288,0\C,64,1.37588,59,122.557,57,-56.8652,0\N,68,1.35781,64,124.098,59,4.58311,0\C,68,1.37222,64,121.108,59,-161.902,0\N,70,1.37922,68,117.722,64,175.143,0\C,70,1.4253,68,120.003,64,-2.97938,0\C,58,1.45011,56,121.606,9,-90.2486,0\N,73,1.33285,58,111.943,56,-174.98,0\C,74,1.37624,73,109.809,58,-179.341,0\H,75,1.08175,74,122.553,73,-175.564,0\C,75,1.38963,74,113.341,73,-6.59108,0\H,77,1.0824,75,132.762,74,-175.657,0\C,72,1.53665,70,123.577,68,179.251,0\C,79,1.37149,72,120.846,70,156.998,0\H,80,1.08637,79,117.499,72,-0.537208,0\C,80,1.44789,79,119.217,72,178.021,0\H,82,1.08576,80,119.899,79,172.721,0\C,82,1.38014,80,120.342,79,-15.1322,0\N,84,1.33388,82,119.608,80,11.7976,0\C,85,1.35037,84,121.941,82,-4.46097,0\H,86,1.08919,85,117.83,84,-171.425,0\C,84,1.47203,82,126.186,80,-169.674,0\H,88,1.09722,84,116.246,82,44.1839,0\H,88,1.09731,84,104.859,82,160.304,0\C,88,1.5432,84,112.443,82,-79.8595,0\H,91,1.09643,88,115.892,84,-53.8372,0\H,91,1.09712,88,101.883,84,47.7189,0\C,91,1.51358,88,114.34,84,172.117,0\H,94,1.0971,91,107.006,88,50.0613,0\H,94,1.09739,91,105.966,88,-58.4852,0\C,94,1.55739,91,112.722,88,174.035,0\H,97,1.09629,94,110.381,91,68.4767,0\H,97,1.09678,94,105.69,91,172.533,0\C,97,1.52946,94,114.147,91,-64.6609,0\H,100,1.0955,97,109.347,94,-47.2347,0\H,100,1.09634,97,113.833,94,68.9068,0\C,100,1.50415,97,113.574,94,-161.889,0\H,103,1.09671,100,115.049,97,171.479,0\H,103,1.09732,100,107.47,97,-69.6645,0\H,103,1.09747,100,116.143,97,46.5214,0\S,71,1.64477,70,101.753,68,-8.38489,0\S,57,1.67015,56,119.042,9,90.8571,0\S,77,1.76117,75,113.4,74,9.59267,0\S,59,1.7635,57,107.688,56,-8.51188,0\\\@

 Total job time:  88.65s(wall), 1042.84s(cpu) 
 Fri Oct 12 09:10:27 2018

        *************************************************************
        *                                                           *
        *  Thank you very much for using Q-Chem.  Have a nice day.  *
        *                                                           *
        *************************************************************


