
Running Job 1 of 1 ./8/85.qcin
qchem ./8/85.qcin_10916.0 /tmpu/cab_g/afmv_a/scratch_qchem/qchem10916/ 1
/tmpu/appuserlic/qchem4.4/serial-multicore/exe/qcprog.exe_s ./8/85.qcin_10916.0 /tmpu/cab_g/afmv_a/scratch_qchem/qchem10916/
Check license passed

                  Welcome to Q-Chem
     A Quantum Leap Into The Future Of Chemistry


 Q-Chem 4.4, Q-Chem, Inc., Pleasanton, CA (2016)

 Y. Shao,  Z. Gan,  E. Epifanovsky,  A. T. B. Gilbert,  M. Wormit,  
 J. Kussmann,  A. W. Lange,  A. Behn,  J. Deng,  X. Feng,  D. Ghosh,  
 M. Goldey,  P. R. Horn,  L. D. Jacobson,  I. Kaliman,  F. Rob,  
 R. Z. Khaliullin,  T. Kus,  A. Landau,  J. Liu,  E. I. Proynov,  Y. M. Rhee,  
 R. M. Richard,  M. A. Rohrdanz,  R. P. Steele,  E. J. Sundstrom,  
 H. L. Woodcock III,  P. M. Zimmerman,  D. Zuev,  B. Albrecht,  E. Alguire,  
 B. Austin,  S. A. Baeppler,  G. J. O. Beran,  Y. A. Bernard,  E. Berquist,  
 K. Brandhorst,  K. B. Bravaya,  S. T. Brown,  D. Casanova,  C.-M. Chang,  
 Y. Chen,  S. H. Chien,  K. D. Closser,  M. P. Coons,  D. L. Crittenden,  
 S. Dasgupta,  M. Diedenhofen,  R. A. DiStasio Jr.,  H. Do,  A. D. Dutoi,  
 R. G. Edgar,  P.-T. Fang,  S. Fatehi,  Q. Feng,  L. Fusti-Molnar,  
 A. Ghysels,  A. Golubeva-Zadorozhnaya,  J. Gomes,  A. Gunina,  
 M. W. D. Hanson-Heine,  P. H. P. Harbach,  A. W. Hauser,  J. E. Herr,  
 E. G. Hohenstein,  Z. C. Holden,  K. Hui,  T.-C. Jagau,  H. Ji,  B. Kaduk,  
 K. Khistyaev,  Jaehoon Kim,  Jihan Kim,  R. A. King,  P. Klunzinger,  
 K. Koh,  D. Kosenkov,  T. Kowalczyk,  C. M. Krauter,  A. Kunitsa,  
 K. U. Lao,  A. Laurent,  K. V. Lawler,  J. Lee,  D. Lefrancois,  S. Lehtola,  
 S. V. Levchenko,  C. Y. Lin,  Y.-S. Lin,  F. Liu,  E. Livshits,  
 R. C. Lochan,  A. Luenser,  P. Manohar,  S. F. Manzer,  S.-P. Mao,  Y. Mao,  
 N. Mardirossian,  A. V. Marenich,  L. A. Martinez-Martinez,  S. A. Maurer,  
 N. J. Mayhall,  J.-M. Mewes,  A. F. Morrison,  K. Nanda,  T. S. Nguyen-Beck,  
 C. M. Oana,  R. Olivares-Amaya,  D. P. O'Neill,  J. A. Parkhill,  
 T. M. Perrine,  R. Peverati,  P. A. Pieniazek,  F. Plasser,  A. Prociuk,  
 D. R. Rehn,  E. Rosta,  N. J. Russ,  N. Sergueev,  S. M. Sharada,  
 S. Sharma,  D. W. Small,  A. Sodt,  T. Stauch,  T. Stein,  D. Stuck,  
 Y.-C. Su,  A. J. W. Thom,  T. Tsuchimochi,  L. Vogt,  O. Vydrov,  T. Wang,  
 M. A. Watson,  J. Wenzel,  A. White,  C. F. Williams,  V. Vanovschi,  
 K. Yao,  S. Yeganeh,  S. R. Yost,  Z.-Q. You,  I. Y. Zhang,  X. Zhang,  
 Y. Zhao,  B. R. Brooks,  G. K. L. Chan,  D. M. Chipman,  C. J. Cramer,  
 W. A. Goddard III,  M. S. Gordon,  W. J. Hehre,  A. Klamt,  
 H. F. Schaefer III,  M. W. Schmidt,  C. D. Sherrill,  D. G. Truhlar,  
 A. Warshel,  X. Xu,  A. Aspuru-Guzik,  R. Baer,  A. T. Bell,  N. A. Besley,  
 J.-D. Chai,  A. Dreuw,  B. D. Dunietz,  T. R. Furlani,  S. R. Gwaltney,  
 C.-P. Hsu,  Y. Jung,  J. Kong,  D. S. Lambrecht,  W. Liang,  C. Ochsenfeld,  
 V. A. Rassolov,  L. V. Slipchenko,  J. E. Subotnik,  T. Van Voorhis,  
 J. M. Herbert,  A. I. Krylov,  P. M. W. Gill,  M. Head-Gordon

 Contributors to earlier versions of Q-Chem not listed above: 
 R. D. Adamson,  J. Baker,  E. F. C. Byrd,  A. K. Chakraborty,  C.-L. Cheng,  
 H. Dachsel,  R. J. Doerksen,  G. Hawkins,  A. Heyden,  S. Hirata,  
 G. Kedziora,  F. J. Keil,  C. Kelley,  P. P. Korambath,  W. Kurlancheek,  
 A. M. Lee,  M. S. Lee,  D. Liotard,  I. Lotan,  P. E. Maslen,  N. Nair,  
 D. Neuhauser,  R. Olson,  B. Peters,  J. Ritchie,  N. E. Schultz,  
 N. Shenvi,  A. C. Simmonett,  K. S. Thanthiriwatte,  Q. Wu,  W. Zhang

 Please cite Q-Chem as follows:
 Y. Shao et al., Mol. Phys. 113, 184-215 (2015)
 DOI: 10.1080/00268976.2014.952696

 Q-Chem 4.4.2 for Intel X86 Linux

 Parts of Q-Chem use Armadillo 5.200.1 (Boston Tea Smuggler).
 http://arma.sourceforge.net/

 Q-Chem begins on Fri Oct 12 09:11:59 2018  

Host: 
0

     Scratch files written to /tmpu/cab_g/afmv_a/scratch_qchem/qchem10916//
 Dec716 11556_ 22328  22283 4050   
Processing $rem in /tmpu/appuserlic/qchem4.4/serial-multicore/config/preferences.
 MEM_TOTAL  2000 
FILE_GEOM_ORG=        593

Checking the input file for inconsistencies... 	...done.

--------------------------------------------------------------
User input:
--------------------------------------------------------------
$comment
SP
$end

$rem
MEM_STATIC 5000
MEM_TOTAL 20000
JOBTYPE SP
EXCHANGE B3LYP
BASIS 6-31g(d,p)
$end

$molecule
0 1
C          10.259000     -2.606000      3.818000
C          11.579000     -2.937000      4.006000
N           9.780000     -1.310000      3.648000
C          12.498000     -1.897000      3.968000
C          10.673000     -0.337000      3.667000
C          12.101000     -0.566000      3.784000
C          13.124000      0.484000      3.651000
C          14.274000      0.470000      4.478000
C          13.047000      1.604000      2.812000
N          15.246000      1.389000      4.517000
N          11.998000      1.870000      2.010000
C          14.069000      2.534000      2.714000
C          15.167000      2.447000      3.602000
S          12.345000      3.133000      1.025000
N          13.762000      3.504000      1.763000
C          16.147000      3.503000      3.761000
S          16.378000      4.816000      2.557000
C          16.786000      3.858000      4.971000
C          17.449000      5.718000      3.582000
S          16.583000      3.210000      6.593000
C          17.546000      5.040000      4.747000
C          18.057000      6.981000      3.299000
C          17.821000      4.535000      7.067000
C          18.234000      5.303000      5.994000
N          17.853000      7.444000      2.073000
S          18.900000      7.962000      4.425000
C          18.514000      8.700000      1.944000
C          19.254000      9.013000      3.014000
C           9.206000     -3.648000      3.878000
H          11.879000     -3.964000      4.189000
H          13.568000     -2.062000      4.044000
H          10.391000      0.714000      3.635000
H          14.346000     -0.337000      5.207000
H          18.073000      4.680000      8.108000
H          18.983000      6.075000      6.128000
H          18.528000      9.348000      1.079000
H          19.852000      9.884000      3.250000
H           8.570000     -3.580000      2.987000
C           8.423000     -3.562000      5.190000
H           9.665000     -4.645000      3.865000
H           7.954000     -2.576000      5.294000
H           8.996000     -3.843000      6.082000
C           7.265000     -4.609000      5.056000
H           6.587000     -4.159000      4.320000
C           6.616000     -4.847000      6.453000
H           7.659000     -5.550000      4.654000
H           5.623000     -5.259000      6.236000
H           6.342000     -3.945000      7.014000
C           7.268000     -5.971000      7.338000
H           6.821000     -6.906000      6.977000
C           7.059000     -5.756000      8.825000
H           8.344000     -6.058000      7.147000
H           5.981000     -5.669000      9.009000
H           7.470000     -4.893000      9.363000
H           7.482000     -6.619000      9.354000
C          14.610000      9.063000      3.582000
C          15.465000      9.402000      4.611000
N          14.063000     10.024000      2.836000
C          15.970000     10.754000      4.727000
C          14.387000     11.325000      2.997000
C          15.365000     11.758000      4.015000
C          15.898000     13.198000      4.075000
C          17.253000     13.506000      4.523000
C          15.105000     14.345000      3.780000
N          17.722000     14.720000      4.482000
N          13.786000     14.247000      3.389000
C          15.661000     15.598000      3.842000
C          16.996000     15.770000      4.127000
S          13.462000     15.788000      2.914000
N          14.856000     16.574000      3.349000
C          17.700000     16.994000      3.836000
S          19.290000     17.059000      3.076000
C          17.380000     18.311000      4.286000
C          19.280000     18.925000      3.184000
S          16.070000     18.603000      5.280000
C          18.189000     19.359000      3.925000
C          20.413000     19.791000      2.921000
C          16.512000     20.348000      5.182000
C          17.724000     20.579000      4.512000
N          21.394000     19.149000      2.287000
S          20.661000     21.500000      3.315000
C          22.438000     20.013000      2.047000
C          22.270000     21.258000      2.641000
C          14.190000      7.701000      3.214000
H          15.856000      8.621000      5.256000
H          16.829000     11.019000      5.337000
H          14.012000     12.037000      2.263000
H          18.068000     12.787000      4.584000
H          15.881000     21.079000      5.668000
H          18.135000     21.575000      4.396000
H          23.371000     19.690000      1.605000
H          22.905000     22.132000      2.708000
H          13.830000      7.787000      2.181000
C          13.069000      7.163000      4.128000
H          14.980000      6.940000      3.188000
H          12.179000      7.797000      4.218000
H          13.457000      7.402000      5.126000
C          12.734000      5.703000      3.911000
H          12.584000      5.565000      2.833000
C          11.503000      5.238000      4.744000
H          13.665000      5.150000      4.089000
H          11.746000      5.231000      5.813000
H          11.447000      4.151000      4.609000
C          10.190000      5.918000      4.353000
H          10.149000      6.983000      4.610000
C           8.967000      5.185000      4.832000
H          10.082000      5.899000      3.263000
H           8.015000      5.567000      4.444000
H           8.929000      5.286000      5.924000
H           8.955000      4.101000      4.661000
$end

--------------------------------------------------------------
 ----------------------------------------------------------------
             Standard Nuclear Orientation (Angstroms)
    I     Atom           X                Y                Z
 ----------------------------------------------------------------
    1      C      11.7477309108    -0.3920968735    -0.8424147315
    2      C      11.5837807364     0.9332899387    -0.5202732434
    3      N      10.7088282696    -1.2974201263    -1.0399700655
    4      C      10.2796386165     1.4030207699    -0.4417157649
    5      C       9.4796091762    -0.8323113264    -0.9086946875
    6      C       9.1774911436     0.5619191836    -0.6438173962
    7      C       7.8208032229     1.1329662371    -0.6484161678
    8      C       7.4598427917     2.1248163163     0.2963409372
    9      C       6.7615005398     0.7265009872    -1.4711638972
   10      N       6.2530701909     2.6810486048     0.4549963222
   11      N       6.8527888003    -0.2672383114    -2.3758791342
   12      C       5.5186372557     1.3376435059    -1.4431696357
   13      C       5.2478915783     2.3026687125    -0.4446005952
   14      S       5.4976649691    -0.3207810821    -3.2959745497
   15      N       4.6764891627     0.7842200188    -2.4044495291
   16      C       3.9175516539     2.8046064232    -0.1634045420
   17      S       2.5461530586     2.6456871042    -1.3127332778
   18      C       3.4215494754     3.1521628851     1.1139491070
   19      C       1.3738080042     3.2081385896    -0.1635921203
   20      S       4.1879677067     3.0527997605     2.6934196083
   21      C       2.0331723232     3.4397428472     0.9930911392
   22      C      -0.0376176981     3.3307468562    -0.3579286837
   23      C       2.5309414380     3.6648265316     3.3200232919
   24      C       1.6068285138     3.8631188274     2.3108565719
   25      N      -0.4615028151     3.0851771723    -1.5904374820
   26      S      -1.1945126915     3.6438143020     0.8686391899
   27      C      -1.8772203942     3.2450744665    -1.6261389036
   28      C      -2.3788498198     3.7145382010    -0.4779051638
   29      C      13.1038831885    -0.9870570793    -0.9134524209
   30      H      12.4387869538     1.5726228902    -0.3242228793
   31      H      10.0464897262     2.4463702246    -0.2547277701
   32      H       8.6041164162    -1.4778814889    -0.9522904722
   33      H       8.2239916479     2.4214012038     1.0146639356
   34      H       2.3620122699     3.7476629213     4.3843592674
   35      H       0.6233668468     4.2585275914     2.5375635609
   36      H      -2.5325699734     3.0993184775    -2.4732499476
   37      H      -3.3935078102     3.9243009689    -0.1642018904
   38      H      13.2234221014    -1.5175360355    -1.8659772371
   39      C      13.3827623737    -1.8648002348     0.3086860135
   40      H      13.8620636147    -0.1935387895    -0.8947397223
   41      H      12.6435112550    -2.6719629418     0.3791781982
   42      H      13.4842222456    -1.3140936912     1.2517566350
   43      C      14.7711232630    -2.5369955361     0.0334833286
   44      H      14.5596200703    -3.2616496976    -0.7627721239
   45      C      15.3068859612    -3.1791780901     1.3487832559
   46      H      15.4793861865    -1.7881081095    -0.3404849233
   47      H      16.0402865919    -3.9253429364     1.0197794003
   48      H      14.5998816160    -3.8174735213     1.8929567562
   49      C      16.1625034811    -2.2437506774     2.2786215297
   50      H      17.1745547808    -2.2786432368     1.8556680144
   51      C      16.1216336546    -2.6545098937     3.7383069490
   52      H      15.8398453414    -1.1988226579     2.2021809718
   53      H      16.4446331862    -3.7006371536     3.8075749708
   54      H      15.1994700816    -2.6427917367     4.3321175498
   55      H      16.7985458892    -1.9940780429     4.2943272698
   56      C      -0.6980283860    -0.6514536144    -0.4085165801
   57      C      -1.2680888073    -0.0814208621     0.7116980322
   58      N      -1.4327891211    -1.4425550611    -1.1917988811
   59      C      -2.7024445111    -0.1239726998     0.9045660077
   60      C      -2.7511597894    -1.6378610293    -0.9744228021
   61      C      -3.4540974989    -0.9877356206     0.1496379300
   62      C      -4.9835660877    -1.0316563468     0.2913623306
   63      C      -5.7396690028     0.0661934709     0.8868681322
   64      C      -5.7762935512    -2.1607821912    -0.0666055397
   65      N      -7.0413596491     0.0558483536     0.9174040109
   66      N      -5.2253203651    -3.3081111062    -0.5979349188
   67      C      -7.1402717882    -2.1146276864     0.0763004807
   68      C      -7.7717438769    -0.9699547580     0.5052537277
   69      S      -6.5654416213    -4.1321419690    -1.0778621588
   70      N      -7.7807088513    -3.1733675280    -0.4827704592
   71      C      -9.1824255013    -0.7434339627     0.3125397325
   72      S      -9.8656318632     0.7736285204    -0.2719904118
   73      C     -10.2644560740    -1.5670649214     0.7486943879
   74      C     -11.5900386939     0.0659157261    -0.1331247107
   75      S     -10.0022469925    -2.9786333189     1.6019944856
   76      C     -11.5538114627    -1.1720041140     0.4945376645
   77      C     -12.8231251657     0.8186527832    -0.2584190680
   78      C     -11.7906993895    -3.2045561552     1.5822487062
   79      C     -12.4851435597    -2.1066730246     1.0497030027
   80      N     -12.6199492857     2.0216416072    -0.7950925731
   81      S     -14.4799512014     0.3808892413     0.1895893791
   82      C     -13.8174015337     2.6906723987    -0.9070653995
   83      C     -14.8800248661     2.0207954961    -0.3127745710
   84      C       0.7005826969    -0.5031914275    -0.8429971466
   85      H      -0.6492493075     0.5083873943     1.3810491315
   86      H      -3.2284761606     0.5159890823     1.6073786578
   87      H      -3.3166650094    -2.1791471715    -1.7317458233
   88      H      -5.3657118368     1.0795018362     1.0220317174
   89      H     -12.2126051033    -4.1029494810     2.0107379134
   90      H     -13.5672369897    -2.0832608264     0.9956782152
   91      H     -13.8824759177     3.7137424311    -1.2524275764
   92      H     -15.9203701439     2.2793706366    -0.1630728694
   93      H       0.6947255032    -0.7718732593    -1.9068865988
   94      C       1.6606471314    -1.4263247231    -0.0635215536
   95      H       1.1178652926     0.5105752035    -0.7977262593
   96      H       1.4014546370    -2.4916629407    -0.0580687648
   97      H       1.3523159869    -1.2484001954     0.9742374587
   98      C       3.1276806005    -1.1773281853    -0.3405188906
   99      H       3.2508044178    -1.1649798528    -1.4306179889
  100      C       4.0555725145    -2.2215960988     0.3479548713
  101      H       3.3115187348    -0.1288563128    -0.0737525640
  102      H       4.0327375760    -2.0936064017     1.4365118073
  103      H       5.0786605674    -1.8598111051     0.1887931470
  104      C       3.8813658592    -3.6504067856    -0.1691544618
  105      H       2.9209191281    -4.1051157253     0.1005432523
  106      C       5.0357197489    -4.5555123526     0.1635766756
  107      H       3.8779012211    -3.6420050672    -1.2646189329
  108      H       5.0067916332    -5.5408065222    -0.3171837257
  109      H       5.0164046360    -4.7293733251     1.2468625514
  110      H       6.0379535404    -4.1507982325    -0.0266203493
 ----------------------------------------------------------------
 Molecular Point Group                 C1    NOp =  1
 Largest Abelian Subgroup              C1    NOp =  1
 Nuclear Repulsion Energy = 11046.5402890484 hartrees
 There are      270 alpha and      270 beta electrons
 Requested basis set is 6-31G(d,p)
 There are 406 shells and 1262 basis functions

 Total QAlloc Memory Limit  20000 MB
 Mega-Array Size      4888 MB
 MEM_STATIC part      5000 MB
 A cutoff of  1.0D-08 yielded  14427 shell pairs
 There are    148212 function pairs
 
 -------------------------------------------------------
 OpenMP Integral Computing Module                       
 Release: version 1.0, May 2013, Q-Chem Inc. Pittsburgh 
 -------------------------------------------------------
 Integral Job Info:
 Integral job number is                      11
 Integral operator is                         1
 short-range coefficients                     0
 long-range coefficients              100000000
 Omega coefficients                           0
 if combine SR and LR in K                    0
 Integral screening is                        0
 Integral computing path is                   2
 max size of driver memory is            800000
 size of driver memory is                593474
 size of scratch memory is             15166112
 max col of scratch BK array               1296
 max len of scratch array in speh3          155
 max len of scratch index in speh4           18
 max int batch size is                      520
 min int batch size is                       52
 fixed nKL is                                52
 max L of basis functions is                  2
 order of int derivative is                   0
 number of shells is                        406
 number of basis is                        1262
 number of cartesian basis is              1262
 number of contracted shell pairs         14427
 number of primitive shell pairs          45533
 maxK2 (contraction) of shell pair           36
 max number of K2 of shell pair               1
 max number of CS2 of shell pair           1453
 max number of PS2 of shell pair           8460
 mem total for path MDJ                  308456
 -------------------------------------------------------
 Smallest overlap matrix eigenvalue = 3.98E-04

 Scale SEOQF with 1.000000e-03/1.000000e-02/1.000000e-01

 Standard Electronic Orientation quadrupole field applied
 Nucleus-field energy     =    -0.0000000741 hartrees
 Guess from superposition of atomic densities
 Warning:  Energy on first SCF cycle will be non-variational
 A restricted hybrid HF-DFT SCF calculation will be
 performed using Pulay DIIS extrapolation
 Exchange:     0.2000 Hartree-Fock + 0.0800 Slater + 0.7200 B88
 Correlation:  0.1900 VWN1RPA + 0.8100 LYP
 Using SG-1 standard quadrature grid
 SCF converges when DIIS error is below 1.0E-05
 using 16 threads for integral computing 
 -------------------------------------------------------
 OpenMP BLAS3 based DFT computing Module                
 Release: version 1.0, May 2013, Q-Chem Inc. Pittsburgh 
 -------------------------------------------------------
 ---------------------------------------
  Cycle       Energy         DIIS Error
 ---------------------------------------
    1   -5679.8896989907      2.14E-02
    2   -5662.4217113079      2.17E-03
    3   -5661.0204109549      3.31E-03
    4   -5663.2562778125      9.57E-04
    5   -5663.4027034944      5.10E-04
    6   -5663.4417990686      2.60E-04
    7   -5663.4537797779      8.59E-05
    8   -5663.4550663388      3.48E-05
    9   -5663.4553046524      1.34E-05
   10   -5663.4553423700      4.74E-06 Convergence criterion met
 ---------------------------------------
 SCF time:  CPU 1135.60 s  wall 92.70 s
 SCF   energy in the final basis set = -5663.4553423700
 Total energy in the final basis set = -5663.4553423700
 
 --------------------------------------------------------------
 
                    Orbital Energies (a.u.)
 --------------------------------------------------------------
 
 Alpha MOs
 -- Occupied --
-88.995 -88.991 -88.930 -88.929 -88.923 -88.922 -88.920 -88.909
-14.390 -14.388 -14.382 -14.372 -14.356 -14.348 -14.342 -14.338
-14.332 -14.321 -10.271 -10.266 -10.266 -10.257 -10.256 -10.251
-10.251 -10.250 -10.244 -10.241 -10.240 -10.239 -10.239 -10.238
-10.238 -10.237 -10.236 -10.234 -10.234 -10.231 -10.230 -10.229
-10.228 -10.228 -10.226 -10.224 -10.223 -10.219 -10.218 -10.214
-10.213 -10.212 -10.212 -10.211 -10.208 -10.208 -10.197 -10.196
-10.182 -10.181 -10.179 -10.177 -10.176 -10.176 -10.175 -10.172
-10.170 -10.168 -10.168 -10.166  -8.049  -8.046  -7.991  -7.990
 -7.981  -7.979  -7.978  -7.971  -6.015  -6.010  -6.009  -6.007
 -6.005  -6.004  -5.955  -5.954  -5.952  -5.950  -5.948  -5.946
 -5.945  -5.944  -5.942  -5.942  -5.940  -5.939  -5.938  -5.936
 -5.935  -5.934  -5.932  -5.927  -1.035  -1.028  -0.970  -0.967
 -0.960  -0.952  -0.936  -0.934  -0.914  -0.911  -0.902  -0.887
 -0.840  -0.837  -0.832  -0.828  -0.815  -0.812  -0.809  -0.806
 -0.803  -0.802  -0.801  -0.794  -0.786  -0.780  -0.770  -0.763
 -0.754  -0.746  -0.744  -0.742  -0.722  -0.721  -0.716  -0.706
 -0.696  -0.687  -0.681  -0.673  -0.655  -0.651  -0.646  -0.644
 -0.636  -0.635  -0.627  -0.623  -0.609  -0.603  -0.600  -0.596
 -0.594  -0.593  -0.587  -0.584  -0.577  -0.575  -0.567  -0.565
 -0.549  -0.546  -0.542  -0.539  -0.530  -0.524  -0.517  -0.514
 -0.507  -0.504  -0.501  -0.499  -0.492  -0.478  -0.477  -0.473
 -0.471  -0.471  -0.467  -0.463  -0.459  -0.453  -0.451  -0.450
 -0.449  -0.442  -0.441  -0.438  -0.437  -0.436  -0.434  -0.429
 -0.428  -0.427  -0.420  -0.419  -0.417  -0.415  -0.415  -0.412
 -0.410  -0.409  -0.407  -0.404  -0.401  -0.400  -0.398  -0.395
 -0.393  -0.391  -0.390  -0.389  -0.389  -0.386  -0.381  -0.380
 -0.378  -0.377  -0.375  -0.371  -0.368  -0.363  -0.359  -0.359
 -0.356  -0.353  -0.350  -0.347  -0.344  -0.342  -0.340  -0.339
 -0.337  -0.334  -0.332  -0.330  -0.329  -0.328  -0.324  -0.320
 -0.312  -0.308  -0.308  -0.304  -0.302  -0.300  -0.297  -0.296
 -0.294  -0.291  -0.290  -0.288  -0.287  -0.286  -0.283  -0.283
 -0.282  -0.268  -0.265  -0.262  -0.258  -0.254  -0.252  -0.243
 -0.240  -0.238  -0.232  -0.229  -0.199  -0.188
 -- Virtual --
 -0.119  -0.116  -0.078  -0.075  -0.039  -0.039  -0.028  -0.027
 -0.022  -0.022  -0.014  -0.013  -0.012  -0.004  -0.003  -0.001
  0.001   0.007   0.009   0.011   0.017   0.022   0.027   0.035
  0.047   0.052   0.054   0.058   0.068   0.070   0.084   0.086
  0.090   0.093   0.096   0.100   0.103   0.105   0.109   0.111
  0.112   0.114   0.116   0.117   0.122   0.123   0.124   0.126
  0.130   0.130   0.132   0.136   0.136   0.138   0.143   0.147
  0.149   0.150   0.152   0.155   0.157   0.158   0.161   0.162
  0.163   0.164   0.167   0.170   0.175   0.177   0.181   0.185
  0.187   0.187   0.189   0.192   0.194   0.196   0.197   0.197
  0.200   0.205   0.209   0.212   0.217   0.219   0.219   0.221
  0.225   0.226   0.232   0.235   0.236   0.239   0.240   0.242
  0.246   0.248   0.250   0.251   0.254   0.257   0.262   0.264
  0.265   0.267   0.270   0.276   0.278   0.280   0.280   0.282
  0.284   0.289   0.293   0.296   0.298   0.300   0.303   0.307
  0.313   0.315   0.317   0.322   0.325   0.326   0.330   0.331
  0.335   0.338   0.340   0.342   0.345   0.346   0.348   0.349
  0.352   0.357   0.359   0.363   0.364   0.367   0.368   0.373
  0.377   0.381   0.381   0.387   0.389   0.390   0.393   0.396
  0.404   0.410   0.412   0.418   0.419   0.425   0.434   0.438
  0.443   0.446   0.451   0.452   0.456   0.457   0.468   0.474
  0.479   0.481   0.482   0.483   0.489   0.491   0.492   0.495
  0.499   0.504   0.507   0.508   0.511   0.515   0.518   0.519
  0.521   0.523   0.528   0.530   0.531   0.533   0.535   0.537
  0.539   0.540   0.543   0.543   0.545   0.547   0.549   0.551
  0.554   0.556   0.559   0.560   0.562   0.563   0.564   0.567
  0.568   0.568   0.572   0.574   0.576   0.580   0.582   0.583
  0.587   0.587   0.590   0.592   0.593   0.596   0.598   0.600
  0.601   0.604   0.604   0.608   0.612   0.614   0.615   0.618
  0.621   0.623   0.623   0.625   0.627   0.628   0.630   0.633
  0.635   0.639   0.641   0.641   0.644   0.645   0.650   0.651
  0.654   0.656   0.658   0.664   0.666   0.667   0.671   0.676
  0.678   0.680   0.684   0.688   0.691   0.692   0.696   0.698
  0.700   0.702   0.710   0.715   0.720   0.721   0.726   0.728
  0.729   0.733   0.735   0.736   0.739   0.742   0.747   0.749
  0.754   0.756   0.759   0.763   0.766   0.767   0.771   0.772
  0.775   0.779   0.781   0.783   0.786   0.790   0.791   0.793
  0.795   0.797   0.800   0.802   0.803   0.806   0.809   0.811
  0.812   0.814   0.817   0.821   0.823   0.826   0.827   0.828
  0.829   0.831   0.833   0.835   0.837   0.838   0.839   0.840
  0.842   0.843   0.846   0.849   0.851   0.854   0.856   0.858
  0.860   0.862   0.864   0.867   0.867   0.870   0.871   0.874
  0.877   0.878   0.879   0.882   0.886   0.889   0.891   0.894
  0.895   0.897   0.898   0.901   0.902   0.904   0.906   0.909
  0.910   0.917   0.918   0.919   0.920   0.923   0.927   0.928
  0.930   0.931   0.933   0.938   0.941   0.944   0.947   0.949
  0.949   0.954   0.956   0.958   0.960   0.960   0.963   0.966
  0.971   0.972   0.976   0.979   0.980   0.982   0.982   0.986
  0.990   0.991   0.994   0.998   1.001   1.002   1.003   1.005
  1.007   1.009   1.011   1.012   1.014   1.017   1.025   1.026
  1.027   1.030   1.034   1.035   1.041   1.043   1.048   1.049
  1.055   1.061   1.062   1.066   1.070   1.072   1.075   1.076
  1.081   1.084   1.090   1.092   1.099   1.112   1.114   1.119
  1.125   1.129   1.133   1.135   1.140   1.146   1.149   1.153
  1.157   1.161   1.165   1.169   1.173   1.175   1.184   1.185
  1.199   1.204   1.208   1.210   1.215   1.218   1.222   1.232
  1.234   1.238   1.245   1.249   1.253   1.263   1.267   1.270
  1.278   1.282   1.286   1.291   1.295   1.299   1.301   1.303
  1.304   1.310   1.311   1.318   1.320   1.325   1.336   1.340
  1.348   1.350   1.354   1.364   1.365   1.366   1.370   1.372
  1.377   1.378   1.382   1.386   1.390   1.392   1.394   1.398
  1.400   1.401   1.407   1.412   1.414   1.420   1.425   1.429
  1.432   1.441   1.448   1.451   1.457   1.459   1.463   1.466
  1.472   1.474   1.480   1.482   1.489   1.496   1.506   1.508
  1.510   1.514   1.530   1.531   1.540   1.550   1.560   1.565
  1.569   1.579   1.592   1.597   1.603   1.605   1.611   1.613
  1.617   1.620   1.623   1.627   1.629   1.641   1.643   1.653
  1.655   1.661   1.668   1.668   1.671   1.675   1.677   1.683
  1.685   1.690   1.695   1.699   1.701   1.704   1.711   1.714
  1.720   1.725   1.728   1.733   1.736   1.740   1.741   1.746
  1.762   1.763   1.768   1.771   1.773   1.775   1.782   1.784
  1.792   1.799   1.801   1.808   1.810   1.812   1.815   1.818
  1.825   1.827   1.832   1.837   1.838   1.844   1.845   1.848
  1.854   1.855   1.856   1.859   1.864   1.866   1.867   1.872
  1.878   1.878   1.882   1.884   1.890   1.892   1.897   1.900
  1.901   1.905   1.911   1.913   1.916   1.919   1.925   1.929
  1.930   1.933   1.935   1.941   1.941   1.942   1.949   1.950
  1.958   1.960   1.966   1.971   1.979   1.984   1.990   1.995
  1.996   2.001   2.002   2.007   2.010   2.019   2.021   2.032
  2.034   2.043   2.045   2.052   2.063   2.064   2.066   2.068
  2.077   2.080   2.082   2.084   2.088   2.088   2.095   2.097
  2.099   2.100   2.113   2.115   2.119   2.122   2.123   2.129
  2.131   2.132   2.136   2.140   2.143   2.144   2.147   2.152
  2.156   2.162   2.165   2.166   2.171   2.174   2.183   2.187
  2.189   2.195   2.200   2.202   2.207   2.208   2.211   2.222
  2.226   2.228   2.234   2.238   2.243   2.248   2.256   2.257
  2.259   2.262   2.265   2.267   2.268   2.277   2.280   2.285
  2.289   2.291   2.294   2.294   2.297   2.298   2.302   2.304
  2.309   2.314   2.317   2.320   2.326   2.328   2.330   2.336
  2.345   2.347   2.348   2.349   2.354   2.358   2.360   2.363
  2.364   2.370   2.374   2.375   2.380   2.381   2.383   2.386
  2.391   2.396   2.398   2.402   2.403   2.410   2.416   2.420
  2.425   2.429   2.433   2.434   2.437   2.438   2.445   2.447
  2.447   2.452   2.458   2.459   2.462   2.465   2.470   2.473
  2.475   2.478   2.479   2.484   2.490   2.495   2.500   2.504
  2.507   2.512   2.518   2.521   2.521   2.526   2.530   2.538
  2.540   2.546   2.549   2.552   2.555   2.559   2.562   2.569
  2.573   2.577   2.579   2.585   2.595   2.596   2.600   2.603
  2.605   2.612   2.620   2.625   2.626   2.634   2.646   2.652
  2.654   2.658   2.659   2.660   2.662   2.665   2.668   2.672
  2.677   2.683   2.685   2.690   2.691   2.698   2.701   2.707
  2.708   2.710   2.720   2.728   2.731   2.735   2.751   2.755
  2.757   2.763   2.770   2.772   2.778   2.783   2.785   2.801
  2.805   2.805   2.809   2.812   2.820   2.824   2.831   2.839
  2.840   2.842   2.845   2.854   2.858   2.865   2.871   2.877
  2.880   2.885   2.888   2.892   2.893   2.901   2.907   2.911
  2.915   2.920   2.929   2.930   2.935   2.939   2.941   2.948
  2.958   2.960   2.971   2.985   2.988   2.993   3.019   3.020
  3.037   3.038   3.044   3.061   3.064   3.082   3.083   3.089
  3.152   3.168   3.183   3.185   3.202   3.203   3.226   3.229
  3.238   3.261   3.262   3.266   3.272   3.277   3.280   3.282
  3.288   3.290   3.302   3.309   3.326   3.334   3.341   3.348
  3.357   3.366   3.376   3.377   3.402   3.414   3.427   3.427
  3.454   3.459   3.478   3.490   3.497   3.527   3.544   3.545
  3.557   3.558   3.560   3.573   3.582   3.586   3.593   3.593
  3.614   3.648   3.731   3.751   3.845   3.872   3.920   3.922
  3.930   3.930   3.937   3.957   3.957   3.986   3.993   4.011
  4.016   4.032   4.062   4.084   4.094   4.114   4.120   4.132
  4.136   4.136   4.144   4.148   4.150   4.154   4.181   4.189
  4.209   4.212   4.241   4.245   4.264   4.264   4.265   4.285
  4.286   4.293   4.317   4.347   4.377   4.379   4.382   4.400
  4.435   4.437   4.449   4.450   4.459   4.469   4.491   4.505
  4.507   4.508   4.530   4.533   4.586   4.606   4.668   4.681
  4.692   4.699   4.708   4.723   4.758   4.777   4.802   4.817
 --------------------------------------------------------------
 
          Ground-State Mulliken Net Atomic Charges

     Atom                 Charge (a.u.)
  ----------------------------------------
      1 C                     0.259464
      2 C                    -0.108594
      3 N                    -0.491142
      4 C                    -0.082919
      5 C                     0.125419
      6 C                     0.028603
      7 C                     0.047627
      8 C                     0.059358
      9 C                     0.227195
     10 N                    -0.512734
     11 N                    -0.579231
     12 C                     0.240600
     13 C                     0.251703
     14 S                     0.631817
     15 N                    -0.577218
     16 C                    -0.224467
     17 S                     0.356091
     18 C                    -0.113223
     19 C                    -0.198257
     20 S                     0.275850
     21 C                     0.121846
     22 C                     0.082128
     23 C                    -0.297718
     24 C                    -0.086057
     25 N                    -0.455760
     26 S                     0.253441
     27 C                     0.130200
     28 C                    -0.292694
     29 C                    -0.224408
     30 H                     0.095389
     31 H                     0.094594
     32 H                     0.113694
     33 H                     0.109529
     34 H                     0.129134
     35 H                     0.117409
     36 H                     0.128477
     37 H                     0.129893
     38 H                     0.115883
     39 C                    -0.168966
     40 H                     0.090291
     41 H                     0.121117
     42 H                     0.096458
     43 C                    -0.183308
     44 H                     0.097456
     45 C                    -0.190917
     46 H                     0.088667
     47 H                     0.087922
     48 H                     0.093932
     49 C                    -0.172610
     50 H                     0.101306
     51 C                    -0.319792
     52 H                     0.089179
     53 H                     0.101449
     54 H                     0.107146
     55 H                     0.097821
     56 C                     0.287009
     57 C                    -0.126187
     58 N                    -0.479372
     59 C                    -0.092802
     60 C                     0.092279
     61 C                     0.038718
     62 C                     0.003923
     63 C                     0.050584
     64 C                     0.218957
     65 N                    -0.486452
     66 N                    -0.540665
     67 C                     0.235883
     68 C                     0.218729
     69 S                     0.610865
     70 N                    -0.539974
     71 C                    -0.170240
     72 S                     0.335319
     73 C                    -0.138659
     74 C                    -0.249296
     75 S                     0.267662
     76 C                     0.188159
     77 C                     0.065050
     78 C                    -0.289844
     79 C                    -0.096585
     80 N                    -0.436227
     81 S                     0.268168
     82 C                     0.126515
     83 C                    -0.316368
     84 C                    -0.226233
     85 H                     0.090385
     86 H                     0.097461
     87 H                     0.118582
     88 H                     0.110251
     89 H                     0.127225
     90 H                     0.120434
     91 H                     0.117113
     92 H                     0.131134
     93 H                     0.118013
     94 C                    -0.179795
     95 H                     0.114890
     96 H                     0.099935
     97 H                     0.082055
     98 C                    -0.182586
     99 H                     0.099784
    100 C                    -0.182796
    101 H                     0.094552
    102 H                     0.093252
    103 H                     0.084017
    104 C                    -0.165880
    105 H                     0.103091
    106 C                    -0.323289
    107 H                     0.095058
    108 H                     0.098472
    109 H                     0.098147
    110 H                     0.103506
  ----------------------------------------
  Sum of atomic charges =     0.000000

 -----------------------------------------------------------------
                    Cartesian Multipole Moments
 -----------------------------------------------------------------
    Charge (ESU x 10^10)
                 0.0000
    Dipole Moment (Debye)
         X      -1.6536      Y       0.5351      Z       2.4211
       Tot       2.9804
    Quadrupole Moments (Debye-Ang)
        XX    -361.0816     XY      15.6917     YY    -439.8060
        XZ      -2.3899     YZ       3.7556     ZZ    -440.9767
    Octopole Moments (Debye-Ang^2)
       XXX    -665.6207    XXY      79.6664    XYY    -188.1868
       YYY     -73.1465    XXZ     114.1443    XYZ      41.7096
       YYZ      17.6702    XZZ      38.4778    YZZ       2.4198
       ZZZ      -4.9660
    Hexadecapole Moments (Debye-Ang^3)
      XXXX -161944.3534   XXXY    1561.1459   XXYY  -32966.1620
      XYYY      14.6449   YYYY  -15162.0866   XXXZ   -1021.3272
      XXYZ    -799.1055   XYYZ     -43.5358   YYYZ      24.6727
      XXZZ  -33522.9580   XYZZ     114.1574   YYZZ   -3323.8929
      XZZZ       3.9021   YZZZ     213.1511   ZZZZ   -5094.9314
 -----------------------------------------------------------------
Archival summary:
1\1\mn246\SP\ProcedureUnspecified\6-31G**\8105042\afmv_a\FriOct1209:13:352018FriOct1209:13:352018\0\\#,ProcedureUnspecified,6-31G**,\\0,1\S\C,1,1.7353\C,2,1.35141,1,107.021\C,3,1.42299,2,120.937,1,3.17878,0\C,4,1.41366,3,108.377,2,-7.82757,0\C,2,1.43001,1,127.2,3,176.44,0\N,6,1.3263,2,115.205,1,5.83108,0\C,7,1.42517,6,108.662,2,-179.943,0\H,8,1.08089,7,127.358,6,178.693,0\C,8,1.33808,7,112.971,6,-6.0305,0\H,10,1.08256,8,131.914,7,178.303,0\C,3,1.44828,2,133.255,1,177.201,0\H,12,1.08395,3,124.335,2,12.2825,0\C,12,1.38265,3,115.178,2,-164.358,0\H,14,1.08084,12,127.105,3,168.694,0\C,5,1.44942,4,125.625,3,172.846,0\N,16,1.40101,5,116.131,4,26.7975,0\C,17,1.33823,16,117.297,5,-173.472,0\H,18,1.0899,17,116.168,16,179.161,0\C,16,1.41482,5,123.283,4,-144.459,0\C,20,1.38528,16,119.135,5,167.541,0\N,21,1.34698,20,113.569,16,-173.558,0\N,20,1.39268,16,129.978,5,-6.80692,0\C,21,1.40152,20,122.569,16,7.63235,0\C,24,1.47198,21,125.87,20,178.222,0\C,25,1.40108,24,119.511,21,-143.204,0\H,26,1.08531,25,115.657,24,-2.5488,0\C,26,1.38838,25,121.846,24,175.442,0\H,28,1.08546,26,122.033,25,177.436,0\C,28,1.37379,26,116.858,25,-1.71994,0\N,30,1.39211,28,124.864,26,2.69713,0\C,31,1.32081,30,116.835,28,-0.220479,0\H,32,1.08865,31,122.387,30,174.23,0\C,30,1.48262,28,120.5,26,178.393,0\H,34,1.09681,30,109.596,28,129.201,0\H,34,1.09766,30,109.931,28,12.0977,0\C,34,1.5303,30,111.014,28,-104.828,0\H,37,1.09679,34,114.554,30,68.7969,0\H,37,1.0968,34,110.524,30,-59.0203,0\C,37,1.56689,34,105.502,30,-174.378,0\H,40,1.0965,37,109.83,34,-45.3483,0\H,40,1.09721,37,103.886,34,71.2934,0\C,40,1.55867,37,109.457,34,-166.601,0\H,43,1.09676,40,104.893,37,-159.133,0\H,43,1.097,40,115.9,37,-49.2135,0\C,43,1.57217,40,116.169,37,88.3874,0\H,46,1.09628,43,111.451,40,-31.2678,0\H,46,1.09743,43,104.775,40,82.877,0\C,46,1.51693,43,113.163,40,-153.874,0\H,49,1.09687,46,122.731,43,63.6169,0\H,49,1.09705,46,108.122,43,-55.7206,0\H,49,1.09706,46,107.943,43,-176.023,0\S,22,1.63884,21,110.191,20,-6.84281,0\S,6,1.7149,2,125.753,1,-169.363,0\S,4,1.75841,3,120.862,2,164.087,0\H,23,2.6039,20,111.741,16,82.2379,0\C,56,1.0971,23,116.198,20,-21.204,0\H,57,1.09739,56,102.239,23,-22.591,0\C,57,1.51358,56,107.006,23,-133.732,0\H,59,1.09643,57,112.947,56,-85.3349,0\H,59,1.09712,57,114.76,56,167.289,0\C,59,1.5432,57,114.34,56,50.0613,0\H,62,1.09722,59,107.173,57,43.1826,0\H,62,1.09731,59,110.278,57,-71.2429,0\C,62,1.47203,59,112.443,57,172.117,0\N,65,1.33388,62,114.191,59,98.7382,0\C,66,1.35037,65,121.941,62,176.841,0\H,67,1.08919,66,117.83,65,-171.425,0\C,65,1.38014,62,126.186,59,-79.8595,0\H,69,1.08576,65,119.296,62,2.52005,0\C,69,1.44789,65,120.342,62,-169.674,0\H,71,1.08637,69,123.267,65,163.339,0\C,71,1.37149,69,119.217,65,-15.1322,0\C,73,1.53665,71,120.846,69,178.021,0\C,74,1.4253,73,123.577,71,156.998,0\C,75,1.37222,74,120.003,73,179.251,0\N,76,1.35781,75,113.561,74,-170.791,0\C,76,1.37588,75,121.108,74,-2.97938,0\N,78,1.32499,76,119.215,75,7.03291,0\C,79,1.30209,78,123.362,76,-3.0669,0\H,80,1.08853,79,110.36,78,-165.288,0\N,75,1.37922,74,122.247,73,1.21654,0\C,78,1.44169,76,122.557,75,-161.902,0\C,83,1.42807,78,127.586,76,-56.8652,0\C,84,1.37226,83,119.295,78,-178.676,0\C,85,1.38842,84,111.403,83,2.6742,0\C,85,1.4315,84,110.579,83,178.031,0\H,87,1.08369,85,128.039,84,178.432,0\C,87,1.404,85,109.626,84,5.20615,0\H,89,1.08107,87,127.383,85,175.668,0\C,86,1.45011,85,121.606,84,167.176,0\N,91,1.33285,86,111.943,85,-174.98,0\C,92,1.37624,91,109.809,86,-179.341,0\H,93,1.08175,92,122.553,91,-175.564,0\C,93,1.38963,92,113.341,91,-6.59108,0\H,95,1.0824,93,132.762,92,-175.657,0\C,57,1.55739,56,112.329,23,102.053,0\H,97,1.09629,57,110.381,56,-170.54,0\H,97,1.09678,57,105.69,56,-66.4838,0\C,97,1.52946,57,114.147,56,56.3219,0\H,100,1.0955,97,109.347,57,-47.2347,0\H,100,1.09634,97,113.833,57,68.9068,0\C,100,1.50415,97,113.574,57,-161.889,0\H,103,1.09671,100,115.049,97,171.479,0\H,103,1.09732,100,107.47,97,-69.6645,0\H,103,1.09747,100,116.143,97,46.5214,0\S,82,1.64477,75,101.753,74,169.692,0\S,84,1.67015,83,121.637,78,-0.543811,0\S,95,1.76117,93,113.4,92,9.59267,0\S,83,1.7635,78,123.956,76,134.451,0\\\@

 Total job time:  95.87s(wall), 1145.44s(cpu) 
 Fri Oct 12 09:13:35 2018

        *************************************************************
        *                                                           *
        *  Thank you very much for using Q-Chem.  Have a nice day.  *
        *                                                           *
        *************************************************************


