
Running Job 1 of 1 ./8/98.qcin
qchem ./8/98.qcin_11557.0 /tmpu/cab_g/afmv_a/scratch_qchem/qchem11557/ 1
/tmpu/appuserlic/qchem4.4/serial-multicore/exe/qcprog.exe_s ./8/98.qcin_11557.0 /tmpu/cab_g/afmv_a/scratch_qchem/qchem11557/
Check license passed

                  Welcome to Q-Chem
     A Quantum Leap Into The Future Of Chemistry


 Q-Chem 4.4, Q-Chem, Inc., Pleasanton, CA (2016)

 Y. Shao,  Z. Gan,  E. Epifanovsky,  A. T. B. Gilbert,  M. Wormit,  
 J. Kussmann,  A. W. Lange,  A. Behn,  J. Deng,  X. Feng,  D. Ghosh,  
 M. Goldey,  P. R. Horn,  L. D. Jacobson,  I. Kaliman,  F. Rob,  
 R. Z. Khaliullin,  T. Kus,  A. Landau,  J. Liu,  E. I. Proynov,  Y. M. Rhee,  
 R. M. Richard,  M. A. Rohrdanz,  R. P. Steele,  E. J. Sundstrom,  
 H. L. Woodcock III,  P. M. Zimmerman,  D. Zuev,  B. Albrecht,  E. Alguire,  
 B. Austin,  S. A. Baeppler,  G. J. O. Beran,  Y. A. Bernard,  E. Berquist,  
 K. Brandhorst,  K. B. Bravaya,  S. T. Brown,  D. Casanova,  C.-M. Chang,  
 Y. Chen,  S. H. Chien,  K. D. Closser,  M. P. Coons,  D. L. Crittenden,  
 S. Dasgupta,  M. Diedenhofen,  R. A. DiStasio Jr.,  H. Do,  A. D. Dutoi,  
 R. G. Edgar,  P.-T. Fang,  S. Fatehi,  Q. Feng,  L. Fusti-Molnar,  
 A. Ghysels,  A. Golubeva-Zadorozhnaya,  J. Gomes,  A. Gunina,  
 M. W. D. Hanson-Heine,  P. H. P. Harbach,  A. W. Hauser,  J. E. Herr,  
 E. G. Hohenstein,  Z. C. Holden,  K. Hui,  T.-C. Jagau,  H. Ji,  B. Kaduk,  
 K. Khistyaev,  Jaehoon Kim,  Jihan Kim,  R. A. King,  P. Klunzinger,  
 K. Koh,  D. Kosenkov,  T. Kowalczyk,  C. M. Krauter,  A. Kunitsa,  
 K. U. Lao,  A. Laurent,  K. V. Lawler,  J. Lee,  D. Lefrancois,  S. Lehtola,  
 S. V. Levchenko,  C. Y. Lin,  Y.-S. Lin,  F. Liu,  E. Livshits,  
 R. C. Lochan,  A. Luenser,  P. Manohar,  S. F. Manzer,  S.-P. Mao,  Y. Mao,  
 N. Mardirossian,  A. V. Marenich,  L. A. Martinez-Martinez,  S. A. Maurer,  
 N. J. Mayhall,  J.-M. Mewes,  A. F. Morrison,  K. Nanda,  T. S. Nguyen-Beck,  
 C. M. Oana,  R. Olivares-Amaya,  D. P. O'Neill,  J. A. Parkhill,  
 T. M. Perrine,  R. Peverati,  P. A. Pieniazek,  F. Plasser,  A. Prociuk,  
 D. R. Rehn,  E. Rosta,  N. J. Russ,  N. Sergueev,  S. M. Sharada,  
 S. Sharma,  D. W. Small,  A. Sodt,  T. Stauch,  T. Stein,  D. Stuck,  
 Y.-C. Su,  A. J. W. Thom,  T. Tsuchimochi,  L. Vogt,  O. Vydrov,  T. Wang,  
 M. A. Watson,  J. Wenzel,  A. White,  C. F. Williams,  V. Vanovschi,  
 K. Yao,  S. Yeganeh,  S. R. Yost,  Z.-Q. You,  I. Y. Zhang,  X. Zhang,  
 Y. Zhao,  B. R. Brooks,  G. K. L. Chan,  D. M. Chipman,  C. J. Cramer,  
 W. A. Goddard III,  M. S. Gordon,  W. J. Hehre,  A. Klamt,  
 H. F. Schaefer III,  M. W. Schmidt,  C. D. Sherrill,  D. G. Truhlar,  
 A. Warshel,  X. Xu,  A. Aspuru-Guzik,  R. Baer,  A. T. Bell,  N. A. Besley,  
 J.-D. Chai,  A. Dreuw,  B. D. Dunietz,  T. R. Furlani,  S. R. Gwaltney,  
 C.-P. Hsu,  Y. Jung,  J. Kong,  D. S. Lambrecht,  W. Liang,  C. Ochsenfeld,  
 V. A. Rassolov,  L. V. Slipchenko,  J. E. Subotnik,  T. Van Voorhis,  
 J. M. Herbert,  A. I. Krylov,  P. M. W. Gill,  M. Head-Gordon

 Contributors to earlier versions of Q-Chem not listed above: 
 R. D. Adamson,  J. Baker,  E. F. C. Byrd,  A. K. Chakraborty,  C.-L. Cheng,  
 H. Dachsel,  R. J. Doerksen,  G. Hawkins,  A. Heyden,  S. Hirata,  
 G. Kedziora,  F. J. Keil,  C. Kelley,  P. P. Korambath,  W. Kurlancheek,  
 A. M. Lee,  M. S. Lee,  D. Liotard,  I. Lotan,  P. E. Maslen,  N. Nair,  
 D. Neuhauser,  R. Olson,  B. Peters,  J. Ritchie,  N. E. Schultz,  
 N. Shenvi,  A. C. Simmonett,  K. S. Thanthiriwatte,  Q. Wu,  W. Zhang

 Please cite Q-Chem as follows:
 Y. Shao et al., Mol. Phys. 113, 184-215 (2015)
 DOI: 10.1080/00268976.2014.952696

 Q-Chem 4.4.2 for Intel X86 Linux

 Parts of Q-Chem use Armadillo 5.200.1 (Boston Tea Smuggler).
 http://arma.sourceforge.net/

 Q-Chem begins on Fri Oct 12 09:33:07 2018  

Host: 
0

     Scratch files written to /tmpu/cab_g/afmv_a/scratch_qchem/qchem11557//
 Dec716 11556_ 22328  22283 4050   
Processing $rem in /tmpu/appuserlic/qchem4.4/serial-multicore/config/preferences.
 MEM_TOTAL  2000 
FILE_GEOM_ORG=        593

Checking the input file for inconsistencies... 	...done.

--------------------------------------------------------------
User input:
--------------------------------------------------------------
$comment
SP
$end

$rem
MEM_STATIC 5000
MEM_TOTAL 20000
JOBTYPE SP
EXCHANGE B3LYP
BASIS 6-31g(d,p)
$end

$molecule
0 1
C          -3.007000     -9.849000      0.738000
C          -2.560000     -9.543000     -0.515000
N          -3.744000     -8.994000      1.499000
C          -2.940000     -8.368000     -1.116000
C          -4.132000     -7.860000      0.912000
C          -3.762000     -7.496000     -0.449000
C          -4.409000     -6.350000     -1.154000
C          -5.838000     -6.132000     -1.156000
C          -3.692000     -5.240000     -1.661000
N          -6.451000     -5.107000     -1.712000
N          -2.356000     -5.254000     -1.821000
C          -4.388000     -4.197000     -2.310000
C          -5.784000     -4.152000     -2.365000
S          -2.113000     -3.829000     -2.605000
N          -3.663000     -3.365000     -3.019000
C          -6.478000     -3.107000     -3.154000
S          -5.759000     -1.826000     -4.153000
C          -7.828000     -2.909000     -3.133000
C          -7.300000     -1.063000     -4.466000
S          -9.046000     -3.805000     -2.209000
C          -8.257000     -1.763000     -3.793000
C          -7.491000      0.175000     -5.186000
C         -10.208000     -2.586000     -2.722000
C          -9.676000     -1.586000     -3.526000
N          -8.759000      0.507000     -5.442000
S          -6.232000      1.294000     -5.696000
C          -8.789000      1.789000     -6.015000
C          -7.541000      2.423000     -6.098000
C          -2.768000    -11.184000      1.413000
H          -1.960000    -10.235000     -1.098000
H          -2.792000     -8.266000     -2.186000
H          -4.879000     -7.334000      1.506000
H          -6.478000     -6.848000     -0.643000
H         -11.217000     -2.514000     -2.338000
H         -10.209000     -0.685000     -3.807000
H          -9.739000      2.157000     -6.379000
H          -7.310000      3.400000     -6.502000
H          -1.841000    -11.592000      0.993000
C          -3.910000    -12.251000      1.398000
H          -2.597000    -11.036000      2.488000
H          -3.851000    -12.751000      0.423000
H          -4.753000    -11.557000      1.502000
C          -3.876000    -13.291000      2.541000
H          -3.085000    -14.017000      2.315000
C          -5.268000    -14.109000      2.568000
H          -3.599000    -12.842000      3.503000
H          -5.013000    -14.981000      3.183000
H          -5.565000    -14.486000      1.580000
C          -6.205000    -13.212000      3.342000
H          -5.865000    -13.076000      4.375000
C          -7.617000    -13.709000      3.462000
H          -6.099000    -12.187000      2.965000
H          -8.291000    -12.935000      3.849000
H          -7.664000    -14.506000      4.215000
H          -8.048000    -14.143000      2.551000
C         -21.925000      0.864000    -13.102000
C         -21.351000     -0.341000    -13.591000
N         -21.184000      1.819000    -12.534000
C         -19.975000     -0.562000    -13.350000
C         -19.896000      1.593000    -12.301000
C         -19.219000      0.397000    -12.675000
C         -17.828000      0.244000    -12.280000
C         -17.000000     -0.442000    -13.166000
C         -17.215000      0.629000    -11.060000
N         -15.708000     -0.808000    -12.897000
N         -17.895000      1.442000    -10.170000
C         -15.926000      0.290000    -10.751000
C         -15.170000     -0.562000    -11.683000
S         -16.675000      1.826000     -9.109000
N         -15.451000      0.847000     -9.609000
C         -13.741000     -0.917000    -11.419000
S         -12.907000     -0.863000     -9.814000
C         -12.947000     -1.679000    -12.227000
C         -11.394000     -1.471000    -10.452000
S         -13.178000     -2.135000    -13.883000
C         -11.658000     -1.934000    -11.727000
C         -10.099000     -1.468000     -9.825000
C         -11.575000     -2.899000    -13.883000
C         -10.909000     -2.725000    -12.690000
N          -9.206000     -2.364000    -10.213000
S          -9.749000     -0.551000     -8.438000
C          -8.038000     -2.150000     -9.574000
C          -8.060000     -1.221000     -8.629000
C         -23.361000      1.279000    -13.336000
H         -22.001000     -1.160000    -13.883000
H         -19.476000     -1.518000    -13.475000
H         -19.381000      2.413000    -11.805000
H         -17.378000     -0.886000    -14.086000
H         -11.184000     -3.476000    -14.709000
H          -9.875000     -3.012000    -12.539000
H          -7.147000     -2.647000     -9.935000
H          -7.169000     -0.842000     -8.147000
H         -23.431000      2.230000    -13.878000
C         -24.173000      1.260000    -12.043000
H         -23.719000      0.544000    -14.067000
H         -23.857000      2.089000    -11.397000
H         -23.903000      0.349000    -11.494000
C         -25.684000      1.251000    -12.230000
H         -26.049000      0.480000    -12.919000
C         -26.127000      2.647000    -12.699000
H         -26.133000      1.075000    -11.244000
H         -25.580000      2.924000    -13.609000
H         -25.794000      3.372000    -11.945000
C         -27.691000      2.648000    -12.874000
H         -27.878000      2.260000    -13.883000
C         -28.201000      4.021000    -12.765000
H         -28.174000      2.018000    -12.117000
H         -27.813000      4.675000    -13.556000
H         -28.067000      4.525000    -11.801000
H         -29.274000      4.012000    -12.994000
$end

--------------------------------------------------------------
 ----------------------------------------------------------------
             Standard Nuclear Orientation (Angstroms)
    I     Atom           X                Y                Z
 ----------------------------------------------------------------
    1      C      12.9244951445    -2.2883559334    -0.7682888039
    2      C      12.4402763666    -1.3132080957    -1.5917406057
    3      N      12.4579031339    -2.5027408557     0.4925228397
    4      C      11.3580944782    -0.5596911341    -1.2079170151
    5      C      11.3940937618    -1.7866488797     0.8621049032
    6      C      10.7708164836    -0.7819064966     0.0113786381
    7      C       9.4477990859    -0.1808024078     0.3537948174
    8      C       8.3127667728    -0.9668585484     0.7820311912
    9      C       9.2464197721     1.2073341616     0.5429012338
   10      N       7.1452617110    -0.4803596890     1.1505156420
   11      N      10.1421293706     2.1289233855     0.1440659074
   12      C       7.9598382487     1.6875707001     0.8708445990
   13      C       6.8896592721     0.8303363969     1.1423815347
   14      S       9.3146244169     3.5218375217     0.4257674531
   15      N       7.7655684504     2.9772032315     0.7307118784
   16      C       5.5268687520     1.3672970125     1.3674532911
   17      S       4.9878334220     3.0587308866     1.3010050955
   18      C       4.4703589311     0.6106516281     1.7838902737
   19      C       3.3801854845     2.6764296233     1.8703317618
   20      S       4.4476342863    -1.1245709886     2.1425015688
   21      C       3.3316173073     1.3361426625     2.1153827670
   22      C       2.3455916095     3.6400617277     2.1679114674
   23      C       2.8236178559    -0.8848886232     2.7785023528
   24      C       2.3681388864     0.4258007153     2.7146872568
   25      N       1.1429552230     3.1314426970     2.4481906200
   26      S       2.5356602672     5.3877450570     2.2504880144
   27      C       0.2891653651     4.1717356966     2.8501686713
   28      C       0.9012993820     5.4300645758     2.9409947525
   29      C      14.0086516338    -3.2668054986    -1.1710445054
   30      H      12.8385553823    -1.1501403061    -2.5885032262
   31      H      10.8377971958     0.0168602565    -1.9656024590
   32      H      10.9612285640    -2.1581230120     1.7906282952
   33      H       8.4148405791    -2.0495937370     0.8339007338
   34      H       2.2668467640    -1.6424638477     3.3140457503
   35      H       1.4602064333     0.7769457874     3.1913494001
   36      H      -0.7545264898     3.9352222693     3.0088781877
   37      H       0.4543949672     6.3753360381     3.2200006780
   38      H      14.6211967221    -2.7683603533    -1.9316586993
   39      C      13.5949958975    -4.7014585927    -1.6331456105
   40      H      14.6643279233    -3.4743423611    -0.3144307919
   41      H      13.3045924828    -4.6131675391    -2.6876485960
   42      H      12.7550503536    -4.8361067492    -0.9407134064
   43      C      14.6670320497    -5.8012304410    -1.4586595939
   44      H      15.4148426121    -5.6741690927    -2.2514191896
   45      C      13.9929840590    -7.2518868544    -1.6795040563
   46      H      15.2168150680    -5.6993208979    -0.5146643196
   47      H      14.8691098171    -7.8939761354    -1.8336436398
   48      H      13.3852378257    -7.3096720519    -2.5926236470
   49      C      13.3701910714    -7.5739069289    -0.3415631136
   50      H      14.1313514617    -7.6631431419     0.4419270003
   51      C      12.6030557102    -8.8636127071    -0.2839840955
   52      H      12.8272490884    -6.6889807471     0.0135560999
   53      H      12.0099153929    -8.9454254487     0.6350437818
   54      H      13.3036362060    -9.7064134087    -0.2265302328
   55      H      11.9624991207    -9.0755844248    -1.1493124994
   56      C     -12.8438271112    -2.2370239178    -0.3259923485
   57      C     -12.2059968278    -2.4626581512    -1.5761458279
   58      N     -12.3748824675    -1.3501647747     0.5556548494
   59      C     -10.9773271297    -1.8054163939    -1.8184308780
   60      C     -11.2130009480    -0.7503330545     0.3221120434
   61      C     -10.4402691965    -0.9475457158    -0.8579785491
   62      C      -9.1435023020    -0.2956093057    -0.9456685633
   63      C      -8.7471155375     0.1367883199    -2.2094271740
   64      C      -8.1803041110    -0.1167521978     0.0803204131
   65      N      -7.5060569132     0.6337582206    -2.5067071917
   66      N      -8.5174023395    -0.3713938257     1.3982701184
   67      C      -6.9303729505     0.3804606777    -0.1694283616
   68      C      -6.5449702833     0.6752626429    -1.5588960961
   69      S      -7.1967944725     0.2630452564     2.1825270359
   70      N      -6.1804058258     0.6121895683     0.9368668220
   71      C      -5.2108153787     1.2704593278    -1.8806624660
   72      S      -3.7409273129     1.2277857515    -0.8260985561
   73      C      -4.7658275691     1.6008967916    -3.1283567121
   74      C      -2.7384498684     2.0608320751    -1.9952648386
   75      S      -5.6601517621     1.7925852798    -4.6004547935
   76      C      -3.4449194067     2.0792093932    -3.1828056024
   77      C      -1.4475128088     2.6626661088    -1.7916959217
   78      C      -4.1785688681     2.3355425351    -5.4149574315
   79      C      -3.1062715926     2.4213301949    -4.5547830129
   80      N      -0.6453992293     2.8075195269    -2.8340203880
   81      S      -0.7997698096     2.9538051682    -0.2480557256
   82      C       0.4740375317     3.4600935301    -2.4607249173
   83      C       0.6019702827     3.6879913445    -1.1613997857
   84      C     -14.1908417904    -2.8091345784     0.0578277213
   85      H     -12.5116664587    -3.3080860053    -2.1847038123
   86      H     -10.2950030009    -2.0577044124    -2.6242512916
   87      H     -10.8945455633    -0.0709056022     1.1098972330
   88      H      -9.3497847060    -0.0437739342    -3.0985880962
   89      H      -4.1130857528     2.5318115734    -6.4757479038
   90      H      -2.1507205060     2.8477747873    -4.8365508791
   91      H       1.1285328275     3.8541211396    -3.2272685564
   92      H       1.3658823303     4.3289945582    -0.7425928331
   93      H     -14.9233464245    -2.0232845780     0.2790555175
   94      C     -14.0676208618    -3.8494567854     1.1687283957
   95      H     -14.5576971074    -3.2400341504    -0.8815831234
   96      H     -13.8161015827    -3.3515491463     2.1138416350
   97      H     -13.2010176934    -4.4817815107     0.9376734448
   98      C     -15.2726631724    -4.7657720716     1.3312409369
   99      H     -15.6070580762    -5.2409997900     0.4013346706
  100      C     -16.4176488501    -3.9597368808     1.9671191241
  101      H     -14.9889519510    -5.5540058969     2.0404435734
  102      H     -16.6286489685    -3.0710982680     1.3589757481
  103      H     -16.0524301734    -3.5605261621     2.9222505917
  104      C     -17.6589314525    -4.9086212485     2.1556873013
  105      H     -18.1932531986    -4.8939411891     1.1976274036
  106      C     -18.5263326072    -4.3846207571     3.2187718331
  107      H     -17.3426694323    -5.9273269782     2.4115289924
  108      H     -18.9404818868    -3.3988641577     2.9723873755
  109      H     -18.1023128255    -4.3405223226     4.2284898892
  110      H     -19.4338331128    -4.9998382165     3.2612136741
 ----------------------------------------------------------------
 Molecular Point Group                 C1    NOp =  1
 Largest Abelian Subgroup              C1    NOp =  1
 Nuclear Repulsion Energy = 10368.2986275711 hartrees
 There are      270 alpha and      270 beta electrons
 Requested basis set is 6-31G(d,p)
 There are 406 shells and 1262 basis functions

 Total QAlloc Memory Limit  20000 MB
 Mega-Array Size      4888 MB
 MEM_STATIC part      5000 MB
 A cutoff of  1.0D-08 yielded  12583 shell pairs
 There are    132229 function pairs
 
 -------------------------------------------------------
 OpenMP Integral Computing Module                       
 Release: version 1.0, May 2013, Q-Chem Inc. Pittsburgh 
 -------------------------------------------------------
 Integral Job Info:
 Integral job number is                      11
 Integral operator is                         1
 short-range coefficients                     0
 long-range coefficients              100000000
 Omega coefficients                           0
 if combine SR and LR in K                    0
 Integral screening is                        0
 Integral computing path is                   2
 max size of driver memory is            800000
 size of driver memory is                593474
 size of scratch memory is             15166112
 max col of scratch BK array               1296
 max len of scratch array in speh3          155
 max len of scratch index in speh4           18
 max int batch size is                      520
 min int batch size is                       52
 fixed nKL is                                52
 max L of basis functions is                  2
 order of int derivative is                   0
 number of shells is                        406
 number of basis is                        1262
 number of cartesian basis is              1262
 number of contracted shell pairs         12583
 number of primitive shell pairs          41444
 maxK2 (contraction) of shell pair           36
 max number of K2 of shell pair               1
 max number of CS2 of shell pair           1272
 max number of PS2 of shell pair           7602
 mem total for path MDJ                  278920
 -------------------------------------------------------
 Smallest overlap matrix eigenvalue = 4.18E-04

 Scale SEOQF with 1.000000e-03/1.000000e-02/1.000000e-02

 Standard Electronic Orientation quadrupole field applied
 Nucleus-field energy     =     0.0000000315 hartrees
 Guess from superposition of atomic densities
 Warning:  Energy on first SCF cycle will be non-variational
 A restricted hybrid HF-DFT SCF calculation will be
 performed using Pulay DIIS extrapolation
 Exchange:     0.2000 Hartree-Fock + 0.0800 Slater + 0.7200 B88
 Correlation:  0.1900 VWN1RPA + 0.8100 LYP
 Using SG-1 standard quadrature grid
 SCF converges when DIIS error is below 1.0E-05
 using 16 threads for integral computing 
 -------------------------------------------------------
 OpenMP BLAS3 based DFT computing Module                
 Release: version 1.0, May 2013, Q-Chem Inc. Pittsburgh 
 -------------------------------------------------------
 ---------------------------------------
  Cycle       Energy         DIIS Error
 ---------------------------------------
    1   -5680.3721707997      2.16E-02
    2   -5662.4966978894      2.16E-03
    3   -5660.9427019154      3.41E-03
    4   -5663.3632297021      8.45E-04
    5   -5663.4878418656      3.66E-04
    6   -5663.4994623525      2.66E-04
    7   -5663.5128520293      7.27E-05
    8   -5663.5138104316      2.49E-05
    9   -5663.5139316672      8.71E-06 Convergence criterion met
 ---------------------------------------
 SCF time:  CPU 933.44 s  wall 77.11 s
 SCF   energy in the final basis set = -5663.5139316672
 Total energy in the final basis set = -5663.5139316672
 
 --------------------------------------------------------------
 
                    Orbital Energies (a.u.)
 --------------------------------------------------------------
 
 Alpha MOs
 -- Occupied --
-88.986 -88.985 -88.938 -88.927 -88.924 -88.920 -88.911 -88.904
-14.395 -14.392 -14.392 -14.388 -14.353 -14.351 -14.349 -14.334
-14.333 -14.321 -10.280 -10.269 -10.264 -10.263 -10.259 -10.257
-10.256 -10.254 -10.245 -10.245 -10.243 -10.242 -10.242 -10.242
-10.238 -10.235 -10.235 -10.229 -10.228 -10.228 -10.227 -10.224
-10.222 -10.221 -10.220 -10.219 -10.219 -10.218 -10.217 -10.213
-10.209 -10.209 -10.209 -10.205 -10.203 -10.197 -10.195 -10.191
-10.183 -10.182 -10.181 -10.181 -10.180 -10.174 -10.174 -10.173
-10.172 -10.172 -10.167 -10.164  -8.042  -8.041  -7.998  -7.986
 -7.984  -7.979  -7.970  -7.964  -6.007  -6.006  -6.001  -6.000
 -5.999  -5.998  -5.962  -5.959  -5.955  -5.951  -5.948  -5.946
 -5.945  -5.943  -5.943  -5.941  -5.940  -5.936  -5.934  -5.931
 -5.929  -5.926  -5.925  -5.920  -1.047  -1.032  -0.974  -0.969
 -0.967  -0.949  -0.945  -0.940  -0.925  -0.915  -0.909  -0.901
 -0.843  -0.839  -0.836  -0.836  -0.811  -0.808  -0.807  -0.807
 -0.803  -0.803  -0.798  -0.794  -0.787  -0.783  -0.770  -0.768
 -0.752  -0.750  -0.739  -0.739  -0.727  -0.718  -0.709  -0.709
 -0.694  -0.692  -0.678  -0.670  -0.657  -0.652  -0.646  -0.644
 -0.638  -0.635  -0.632  -0.623  -0.615  -0.612  -0.601  -0.596
 -0.591  -0.586  -0.585  -0.582  -0.580  -0.575  -0.568  -0.566
 -0.556  -0.546  -0.543  -0.538  -0.524  -0.519  -0.513  -0.509
 -0.507  -0.503  -0.500  -0.498  -0.494  -0.484  -0.482  -0.478
 -0.475  -0.469  -0.468  -0.468  -0.462  -0.459  -0.454  -0.449
 -0.445  -0.443  -0.441  -0.435  -0.435  -0.432  -0.430  -0.427
 -0.427  -0.426  -0.423  -0.422  -0.420  -0.417  -0.416  -0.413
 -0.412  -0.410  -0.410  -0.405  -0.404  -0.399  -0.398  -0.397
 -0.396  -0.393  -0.392  -0.389  -0.388  -0.387  -0.385  -0.383
 -0.381  -0.374  -0.373  -0.372  -0.368  -0.364  -0.361  -0.355
 -0.354  -0.354  -0.349  -0.349  -0.347  -0.345  -0.345  -0.338
 -0.337  -0.337  -0.336  -0.333  -0.330  -0.328  -0.327  -0.324
 -0.323  -0.317  -0.315  -0.309  -0.303  -0.300  -0.299  -0.296
 -0.295  -0.294  -0.294  -0.292  -0.286  -0.285  -0.285  -0.276
 -0.274  -0.270  -0.266  -0.264  -0.256  -0.255  -0.251  -0.250
 -0.244  -0.242  -0.236  -0.230  -0.199  -0.193
 -- Virtual --
 -0.120  -0.112  -0.079  -0.075  -0.038  -0.037  -0.029  -0.025
 -0.024  -0.017  -0.015  -0.013  -0.008  -0.005  -0.002   0.001
  0.006   0.011   0.021   0.029   0.031   0.032   0.038   0.042
  0.044   0.052   0.052   0.058   0.073   0.079   0.091   0.094
  0.095   0.099   0.100   0.102   0.103   0.105   0.107   0.111
  0.112   0.112   0.115   0.117   0.120   0.120   0.122   0.126
  0.127   0.129   0.130   0.133   0.134   0.138   0.143   0.147
  0.149   0.152   0.156   0.156   0.158   0.159   0.162   0.164
  0.165   0.168   0.175   0.176   0.176   0.178   0.181   0.182
  0.185   0.189   0.191   0.192   0.194   0.195   0.197   0.199
  0.202   0.202   0.203   0.204   0.213   0.217   0.218   0.222
  0.227   0.229   0.231   0.233   0.235   0.241   0.242   0.243
  0.247   0.252   0.253   0.254   0.256   0.259   0.260   0.262
  0.266   0.269   0.270   0.272   0.274   0.276   0.280   0.281
  0.283   0.285   0.288   0.290   0.295   0.296   0.297   0.305
  0.310   0.312   0.314   0.318   0.321   0.322   0.323   0.325
  0.326   0.329   0.332   0.335   0.338   0.339   0.340   0.346
  0.347   0.353   0.357   0.359   0.362   0.365   0.367   0.370
  0.372   0.374   0.381   0.383   0.389   0.391   0.395   0.400
  0.405   0.408   0.410   0.417   0.420   0.421   0.432   0.433
  0.445   0.446   0.448   0.450   0.460   0.466   0.468   0.471
  0.472   0.473   0.479   0.484   0.490   0.492   0.498   0.499
  0.502   0.506   0.507   0.509   0.509   0.511   0.512   0.515
  0.516   0.516   0.518   0.522   0.526   0.528   0.530   0.533
  0.535   0.536   0.543   0.544   0.547   0.548   0.552   0.552
  0.555   0.556   0.558   0.558   0.560   0.562   0.564   0.566
  0.567   0.571   0.571   0.574   0.575   0.576   0.579   0.580
  0.585   0.586   0.587   0.591   0.593   0.595   0.596   0.597
  0.600   0.603   0.605   0.606   0.607   0.608   0.611   0.614
  0.616   0.617   0.618   0.620   0.624   0.625   0.627   0.629
  0.630   0.635   0.638   0.638   0.639   0.642   0.646   0.648
  0.650   0.651   0.656   0.662   0.663   0.667   0.669   0.671
  0.675   0.680   0.682   0.684   0.686   0.691   0.692   0.697
  0.699   0.702   0.704   0.707   0.711   0.713   0.714   0.717
  0.717   0.721   0.726   0.732   0.734   0.737   0.741   0.747
  0.748   0.749   0.758   0.760   0.760   0.762   0.765   0.768
  0.769   0.773   0.777   0.783   0.787   0.789   0.790   0.794
  0.795   0.797   0.797   0.800   0.801   0.805   0.805   0.807
  0.810   0.812   0.814   0.815   0.817   0.820   0.822   0.823
  0.824   0.827   0.828   0.831   0.832   0.835   0.836   0.836
  0.838   0.840   0.840   0.843   0.843   0.846   0.847   0.850
  0.850   0.855   0.856   0.858   0.859   0.866   0.866   0.867
  0.868   0.873   0.875   0.876   0.879   0.880   0.887   0.888
  0.889   0.892   0.893   0.894   0.896   0.900   0.901   0.909
  0.910   0.914   0.915   0.918   0.919   0.922   0.924   0.925
  0.928   0.931   0.935   0.936   0.937   0.938   0.939   0.944
  0.945   0.949   0.950   0.952   0.954   0.956   0.963   0.964
  0.967   0.968   0.972   0.973   0.977   0.979   0.981   0.983
  0.987   0.991   0.994   0.995   0.997   0.997   1.001   1.004
  1.008   1.011   1.012   1.016   1.019   1.020   1.020   1.022
  1.025   1.027   1.029   1.033   1.035   1.041   1.045   1.046
  1.053   1.059   1.063   1.068   1.072   1.079   1.081   1.084
  1.085   1.091   1.094   1.099   1.100   1.102   1.104   1.113
  1.114   1.119   1.125   1.128   1.132   1.138   1.148   1.154
  1.155   1.164   1.166   1.168   1.173   1.174   1.177   1.187
  1.195   1.196   1.207   1.208   1.211   1.213   1.220   1.231
  1.232   1.233   1.237   1.247   1.249   1.250   1.261   1.264
  1.270   1.272   1.281   1.284   1.288   1.291   1.298   1.301
  1.305   1.308   1.317   1.319   1.320   1.323   1.330   1.334
  1.338   1.340   1.341   1.349   1.350   1.352   1.361   1.363
  1.370   1.373   1.377   1.378   1.386   1.388   1.400   1.401
  1.413   1.415   1.419   1.422   1.426   1.428   1.430   1.438
  1.439   1.447   1.452   1.456   1.463   1.472   1.472   1.479
  1.485   1.488   1.493   1.500   1.504   1.515   1.517   1.519
  1.523   1.523   1.528   1.533   1.548   1.551   1.553   1.559
  1.570   1.579   1.582   1.583   1.591   1.594   1.599   1.608
  1.617   1.619   1.625   1.631   1.634   1.642   1.648   1.653
  1.658   1.663   1.663   1.668   1.669   1.681   1.685   1.687
  1.687   1.690   1.691   1.694   1.696   1.699   1.704   1.705
  1.708   1.709   1.720   1.725   1.729   1.735   1.744   1.748
  1.750   1.755   1.762   1.765   1.768   1.771   1.771   1.777
  1.785   1.786   1.790   1.791   1.800   1.802   1.805   1.811
  1.814   1.816   1.822   1.827   1.831   1.838   1.839   1.843
  1.848   1.850   1.852   1.860   1.865   1.866   1.868   1.872
  1.873   1.880   1.884   1.886   1.890   1.892   1.895   1.901
  1.903   1.905   1.907   1.907   1.911   1.918   1.921   1.922
  1.926   1.934   1.942   1.953   1.954   1.956   1.961   1.964
  1.972   1.973   1.978   1.981   1.982   1.984   1.991   2.000
  2.006   2.015   2.016   2.018   2.022   2.028   2.030   2.040
  2.042   2.045   2.051   2.054   2.054   2.056   2.065   2.070
  2.071   2.077   2.083   2.089   2.095   2.096   2.100   2.102
  2.105   2.114   2.118   2.118   2.120   2.124   2.128   2.130
  2.131   2.134   2.141   2.144   2.148   2.153   2.154   2.155
  2.157   2.172   2.173   2.174   2.181   2.183   2.186   2.188
  2.192   2.193   2.196   2.200   2.203   2.204   2.211   2.215
  2.216   2.221   2.231   2.233   2.234   2.240   2.241   2.246
  2.251   2.254   2.261   2.266   2.269   2.273   2.275   2.280
  2.283   2.284   2.292   2.295   2.300   2.302   2.303   2.306
  2.315   2.316   2.321   2.322   2.327   2.329   2.331   2.332
  2.334   2.341   2.344   2.345   2.349   2.350   2.354   2.357
  2.359   2.369   2.373   2.377   2.382   2.388   2.389   2.392
  2.396   2.402   2.404   2.406   2.413   2.419   2.421   2.422
  2.423   2.428   2.430   2.432   2.436   2.436   2.440   2.444
  2.447   2.451   2.452   2.456   2.457   2.459   2.466   2.476
  2.480   2.483   2.485   2.487   2.499   2.500   2.502   2.508
  2.514   2.517   2.518   2.520   2.524   2.529   2.532   2.534
  2.546   2.546   2.548   2.555   2.557   2.560   2.561   2.563
  2.569   2.577   2.582   2.584   2.585   2.596   2.600   2.602
  2.604   2.607   2.610   2.615   2.619   2.635   2.641   2.641
  2.652   2.657   2.658   2.665   2.669   2.672   2.677   2.679
  2.682   2.684   2.686   2.690   2.692   2.699   2.702   2.705
  2.715   2.717   2.721   2.725   2.728   2.732   2.742   2.744
  2.752   2.757   2.757   2.764   2.781   2.785   2.788   2.789
  2.797   2.802   2.805   2.806   2.816   2.822   2.829   2.839
  2.844   2.847   2.852   2.859   2.859   2.868   2.871   2.874
  2.878   2.882   2.887   2.887   2.890   2.902   2.909   2.913
  2.915   2.927   2.931   2.938   2.944   2.949   2.952   2.961
  2.962   2.963   2.964   2.978   2.982   2.999   3.005   3.019
  3.039   3.046   3.050   3.066   3.072   3.078   3.096   3.131
  3.181   3.187   3.190   3.191   3.202   3.215   3.231   3.235
  3.242   3.254   3.262   3.263   3.264   3.271   3.276   3.278
  3.284   3.286   3.291   3.293   3.299   3.310   3.322   3.330
  3.334   3.350   3.355   3.386   3.392   3.400   3.417   3.445
  3.447   3.464   3.474   3.491   3.501   3.508   3.536   3.540
  3.547   3.552   3.557   3.567   3.573   3.584   3.586   3.595
  3.604   3.617   3.738   3.753   3.824   3.836   3.902   3.909
  3.945   3.954   3.958   3.960   3.964   3.966   3.984   3.986
  4.039   4.061   4.067   4.088   4.096   4.104   4.105   4.116
  4.120   4.131   4.141   4.147   4.151   4.163   4.169   4.173
  4.197   4.204   4.233   4.249   4.253   4.261   4.264   4.269
  4.280   4.281   4.322   4.326   4.364   4.372   4.377   4.396
  4.439   4.439   4.441   4.455   4.463   4.478   4.488   4.491
  4.501   4.519   4.535   4.542   4.595   4.606   4.664   4.687
  4.696   4.698   4.709   4.712   4.755   4.764   4.781   4.805
 --------------------------------------------------------------
 
          Ground-State Mulliken Net Atomic Charges

     Atom                 Charge (a.u.)
  ----------------------------------------
      1 C                     0.262628
      2 C                    -0.108146
      3 N                    -0.466568
      4 C                    -0.047679
      5 C                     0.073442
      6 C                     0.023453
      7 C                    -0.042716
      8 C                     0.072027
      9 C                     0.242925
     10 N                    -0.526476
     11 N                    -0.513415
     12 C                     0.215847
     13 C                     0.325156
     14 S                     0.576318
     15 N                    -0.564273
     16 C                    -0.214279
     17 S                     0.319438
     18 C                    -0.124646
     19 C                    -0.247206
     20 S                     0.294417
     21 C                     0.178178
     22 C                     0.058886
     23 C                    -0.307143
     24 C                    -0.057541
     25 N                    -0.435777
     26 S                     0.271890
     27 C                     0.115478
     28 C                    -0.305881
     29 C                    -0.230815
     30 H                     0.091979
     31 H                     0.105269
     32 H                     0.105705
     33 H                     0.114134
     34 H                     0.126379
     35 H                     0.119605
     36 H                     0.128071
     37 H                     0.138763
     38 H                     0.085786
     39 C                    -0.167926
     40 H                     0.114224
     41 H                     0.092733
     42 H                     0.115226
     43 C                    -0.196021
     44 H                     0.084785
     45 C                    -0.171492
     46 H                     0.097607
     47 H                     0.091671
     48 H                     0.096487
     49 C                    -0.165367
     50 H                     0.095924
     51 C                    -0.321894
     52 H                     0.101231
     53 H                     0.098287
     54 H                     0.100243
     55 H                     0.098946
     56 C                     0.256571
     57 C                    -0.138744
     58 N                    -0.468021
     59 C                    -0.079547
     60 C                     0.088000
     61 C                     0.039330
     62 C                     0.038377
     63 C                     0.037526
     64 C                     0.213353
     65 N                    -0.520756
     66 N                    -0.543513
     67 C                     0.208501
     68 C                     0.306976
     69 S                     0.595139
     70 N                    -0.548326
     71 C                    -0.216518
     72 S                     0.303346
     73 C                    -0.124599
     74 C                    -0.230988
     75 S                     0.282714
     76 C                     0.153916
     77 C                     0.050610
     78 C                    -0.312728
     79 C                    -0.045906
     80 N                    -0.430066
     81 S                     0.279471
     82 C                     0.145900
     83 C                    -0.307587
     84 C                    -0.206184
     85 H                     0.096424
     86 H                     0.102627
     87 H                     0.116180
     88 H                     0.114503
     89 H                     0.126718
     90 H                     0.121423
     91 H                     0.112621
     92 H                     0.126479
     93 H                     0.119193
     94 C                    -0.177621
     95 H                     0.084692
     96 H                     0.114909
     97 H                     0.083218
     98 C                    -0.174925
     99 H                     0.088926
    100 C                    -0.174522
    101 H                     0.090086
    102 H                     0.093268
    103 H                     0.092019
    104 C                    -0.169191
    105 H                     0.095679
    106 C                    -0.313347
    107 H                     0.094414
    108 H                     0.099332
    109 H                     0.103077
    110 H                     0.089690
  ----------------------------------------
  Sum of atomic charges =     0.000000

 -----------------------------------------------------------------
                    Cartesian Multipole Moments
 -----------------------------------------------------------------
    Charge (ESU x 10^10)
                 0.0000
    Dipole Moment (Debye)
         X       1.9302      Y       1.8274      Z      -0.6254
       Tot       2.7306
    Quadrupole Moments (Debye-Ang)
        XX    -441.3601     XY      18.6094     YY    -420.0394
        XZ     -12.1139     YZ      10.0148     ZZ    -432.9477
    Octopole Moments (Debye-Ang^2)
       XXX     143.2945    XXY    -197.0499    XYY      11.0876
       YYY     135.8424    XXZ    -429.7706    XYZ     -30.0487
       YYZ      40.4619    XZZ      12.9014    YZZ      30.9941
       ZZZ     -48.2727
    Hexadecapole Moments (Debye-Ang^3)
      XXXX -222561.6416   XXXY    1705.9349   XXYY  -40531.4909
      XYYY     491.4024   YYYY  -26421.2069   XXXZ    -502.9273
      XXYZ    1243.0712   XYYZ     -83.1179   YYYZ     380.0642
      XXZZ  -38538.6764   XYZZ     -76.0526   YYZZ   -6114.0786
      XZZZ     -94.5054   YZZZ    -200.0472   ZZZZ  -10667.6606
 -----------------------------------------------------------------
Archival summary:
1\1\mn246\SP\ProcedureUnspecified\6-31G**\8105042\afmv_a\FriOct1209:34:282018FriOct1209:34:282018\0\\#,ProcedureUnspecified,6-31G**,\\0,1\S\C,1,1.75096\C,2,1.38192,1,106.705\C,3,1.4059,2,116.264,1,-6.81871,0\C,4,1.36526,3,115.085,2,-4.61063,0\C,2,1.43881,1,128.186,3,-178.081,0\N,6,1.32318,2,118.57,1,-155.772,0\C,7,1.34846,6,109.764,2,-176.244,0\H,8,1.08223,7,118.827,6,166.409,0\C,8,1.32535,7,115.769,6,-6.56715,0\H,10,1.08159,8,123.346,7,170.216,0\C,3,1.45398,2,134.022,1,168.801,0\H,12,1.08366,3,122.91,2,6.5899,0\C,12,1.37735,3,113.161,2,177.566,0\H,14,1.08078,12,123.675,3,178.637,0\C,5,1.49592,4,125.702,3,176.678,0\N,16,1.35047,5,119.734,4,11.3148,0\C,17,1.36952,16,120.247,5,177.565,0\H,18,1.08923,17,112.604,16,167.36,0\C,18,1.39326,17,124.564,16,-3.06303,0\C,20,1.41859,18,115.07,17,-3.60022,0\C,21,1.36818,20,122.283,18,3.20861,0\N,22,1.35648,21,114.727,20,-173.772,0\N,21,1.384,20,120.01,18,-172.833,0\C,20,1.45407,18,116.588,17,172.459,0\C,25,1.39529,20,125.269,18,-37.0786,0\H,26,1.08562,25,114.325,20,-6.67143,0\C,26,1.41432,25,120.144,20,-175.116,0\H,28,1.0856,26,120.695,25,164.543,0\C,28,1.42149,26,117.821,25,1.21811,0\N,30,1.33556,28,121.899,26,-5.69971,0\C,31,1.32827,30,119.402,28,6.50423,0\H,32,1.08795,31,114.252,30,177.976,0\C,30,1.51297,28,124.234,26,-176.836,0\H,34,1.0967,30,103.243,28,9.16522,0\H,34,1.09684,30,112.013,28,119.713,0\C,34,1.52694,30,111.737,28,-111.956,0\H,37,1.09737,34,107.646,30,42.6679,0\H,37,1.09746,34,109.629,30,-71.2285,0\C,37,1.52255,34,115.076,30,162.485,0\H,40,1.09653,37,114.31,34,-50.8819,0\H,40,1.09762,37,107.252,34,-171.069,0\C,40,1.53786,37,108.54,34,72.9971,0\H,43,1.09729,40,109.784,37,-55.7597,0\H,43,1.09774,40,107.618,37,57.4977,0\C,43,1.57376,40,108.709,37,179.209,0\H,46,1.09692,43,111.13,40,-35.3483,0\H,46,1.09708,43,105.75,40,85.0584,0\C,46,1.46871,43,109.72,40,-156.516,0\H,49,1.09602,46,116.917,43,63.71,0\H,49,1.0972,46,108.447,43,-174.136,0\H,49,1.09724,46,112.39,43,-62.6847,0\S,23,1.64518,22,103.868,21,3.69268,0\S,6,1.69916,2,122.836,1,13.5412,0\S,4,1.7331,3,114.476,2,-174.111,0\C,11,3.1473,10,116.629,8,150.922,0\N,56,1.33551,11,89.8354,10,29.352,0\C,57,1.40455,56,108.989,11,84.7969,0\H,58,1.08186,57,117.807,56,-173.489,0\C,58,1.40227,57,114.697,56,3.79358,0\H,60,1.08218,58,128.335,57,-179.536,0\C,56,1.44483,11,100.278,10,-86.7905,0\C,62,1.36337,56,126.38,11,109.504,0\C,63,1.39031,62,116.165,56,177.844,0\C,64,1.3646,63,114.68,62,-5.60229,0\C,63,1.45471,62,135.466,56,1.04982,0\H,66,1.08391,63,122.224,62,6.31973,0\C,66,1.38904,63,113.094,62,177.661,0\H,68,1.082,66,120.976,63,-172,0\C,65,1.48195,64,123.877,63,-171.308,0\N,70,1.33541,65,122.054,64,-9.6481,0\C,71,1.3174,70,122.031,65,-171.048,0\H,72,1.08877,71,115.913,70,-179.593,0\C,70,1.39781,65,120.753,64,172.302,0\N,74,1.31169,70,120.685,65,4.09632,0\C,74,1.4119,70,122.289,65,174.659,0\N,76,1.34562,74,116.261,70,-172.071,0\C,76,1.41536,74,119.622,70,-6.17082,0\C,78,1.49297,76,123.477,74,179.728,0\C,79,1.37148,78,121.207,76,68.1941,0\H,80,1.08499,79,120.106,78,3.38416,0\C,80,1.3734,79,119.8,78,167.919,0\H,82,1.0857,80,117.595,79,-176.264,0\C,82,1.36508,80,120.189,79,-0.543627,0\N,84,1.36137,82,123.339,80,5.46247,0\C,85,1.33457,84,116.435,82,-6.22842,0\H,86,1.08973,85,111.696,84,-168.184,0\C,84,1.51492,82,123.701,80,-172.874,0\H,88,1.09645,84,106.895,82,-27.4679,0\H,88,1.09853,84,109.99,82,-143.365,0\C,88,1.56297,84,118.819,82,99.1576,0\H,91,1.09686,88,97.3948,84,36.4798,0\H,91,1.09732,88,106.279,84,-81.728,0\C,91,1.54571,88,115.859,84,155.187,0\H,94,1.09717,91,112.245,88,-40.0703,0\H,94,1.09719,91,107.984,88,75.9545,0\C,94,1.61478,91,109.526,88,-168.05,0\H,97,1.0971,94,102.219,91,-163.603,0\H,97,1.0984,94,113.074,91,-48.7991,0\C,97,1.51051,94,104.033,91,82.7535,0\H,100,1.09599,97,111.359,94,63.5219,0\H,100,1.09726,97,108.587,94,-45.9353,0\C,100,1.50172,97,115.32,94,-177.083,0\H,103,1.09687,100,111.865,97,168.383,0\H,103,1.09729,100,115.714,97,42.3182,0\H,103,1.09746,100,109.599,97,-76.6536,0\S,77,1.64448,76,101.209,74,-7.36228,0\S,62,1.7478,56,125.44,11,-78.0309,0\S,56,1.75993,11,81.931,10,147.429,0\S,68,1.7605,66,114.479,63,-0.659761,0\\\@

 Total job time:  80.23s(wall), 943.31s(cpu) 
 Fri Oct 12 09:34:28 2018

        *************************************************************
        *                                                           *
        *  Thank you very much for using Q-Chem.  Have a nice day.  *
        *                                                           *
        *************************************************************


