
Running Job 1 of 1 C306_1/C306_315.qcin
qchem C306_1/C306_315.qcin_31400.0 /tmpu/cab_g/afmv_a/scratch_qchem/qchem31400/ 1
/tmpu/appuserlic/qchem4.4/serial-multicore/exe/qcprog.exe_s C306_1/C306_315.qcin_31400.0 /tmpu/cab_g/afmv_a/scratch_qchem/qchem31400/
Check license passed

                  Welcome to Q-Chem
     A Quantum Leap Into The Future Of Chemistry


 Q-Chem 4.4, Q-Chem, Inc., Pleasanton, CA (2016)

 Y. Shao,  Z. Gan,  E. Epifanovsky,  A. T. B. Gilbert,  M. Wormit,  
 J. Kussmann,  A. W. Lange,  A. Behn,  J. Deng,  X. Feng,  D. Ghosh,  
 M. Goldey,  P. R. Horn,  L. D. Jacobson,  I. Kaliman,  F. Rob,  
 R. Z. Khaliullin,  T. Kus,  A. Landau,  J. Liu,  E. I. Proynov,  Y. M. Rhee,  
 R. M. Richard,  M. A. Rohrdanz,  R. P. Steele,  E. J. Sundstrom,  
 H. L. Woodcock III,  P. M. Zimmerman,  D. Zuev,  B. Albrecht,  E. Alguire,  
 B. Austin,  S. A. Baeppler,  G. J. O. Beran,  Y. A. Bernard,  E. Berquist,  
 K. Brandhorst,  K. B. Bravaya,  S. T. Brown,  D. Casanova,  C.-M. Chang,  
 Y. Chen,  S. H. Chien,  K. D. Closser,  M. P. Coons,  D. L. Crittenden,  
 S. Dasgupta,  M. Diedenhofen,  R. A. DiStasio Jr.,  H. Do,  A. D. Dutoi,  
 R. G. Edgar,  P.-T. Fang,  S. Fatehi,  Q. Feng,  L. Fusti-Molnar,  
 A. Ghysels,  A. Golubeva-Zadorozhnaya,  J. Gomes,  A. Gunina,  
 M. W. D. Hanson-Heine,  P. H. P. Harbach,  A. W. Hauser,  J. E. Herr,  
 E. G. Hohenstein,  Z. C. Holden,  K. Hui,  T.-C. Jagau,  H. Ji,  B. Kaduk,  
 K. Khistyaev,  Jaehoon Kim,  Jihan Kim,  R. A. King,  P. Klunzinger,  
 K. Koh,  D. Kosenkov,  T. Kowalczyk,  C. M. Krauter,  A. Kunitsa,  
 K. U. Lao,  A. Laurent,  K. V. Lawler,  J. Lee,  D. Lefrancois,  S. Lehtola,  
 S. V. Levchenko,  C. Y. Lin,  Y.-S. Lin,  F. Liu,  E. Livshits,  
 R. C. Lochan,  A. Luenser,  P. Manohar,  S. F. Manzer,  S.-P. Mao,  Y. Mao,  
 N. Mardirossian,  A. V. Marenich,  L. A. Martinez-Martinez,  S. A. Maurer,  
 N. J. Mayhall,  J.-M. Mewes,  A. F. Morrison,  K. Nanda,  T. S. Nguyen-Beck,  
 C. M. Oana,  R. Olivares-Amaya,  D. P. O'Neill,  J. A. Parkhill,  
 T. M. Perrine,  R. Peverati,  P. A. Pieniazek,  F. Plasser,  A. Prociuk,  
 D. R. Rehn,  E. Rosta,  N. J. Russ,  N. Sergueev,  S. M. Sharada,  
 S. Sharma,  D. W. Small,  A. Sodt,  T. Stauch,  T. Stein,  D. Stuck,  
 Y.-C. Su,  A. J. W. Thom,  T. Tsuchimochi,  L. Vogt,  O. Vydrov,  T. Wang,  
 M. A. Watson,  J. Wenzel,  A. White,  C. F. Williams,  V. Vanovschi,  
 K. Yao,  S. Yeganeh,  S. R. Yost,  Z.-Q. You,  I. Y. Zhang,  X. Zhang,  
 Y. Zhao,  B. R. Brooks,  G. K. L. Chan,  D. M. Chipman,  C. J. Cramer,  
 W. A. Goddard III,  M. S. Gordon,  W. J. Hehre,  A. Klamt,  
 H. F. Schaefer III,  M. W. Schmidt,  C. D. Sherrill,  D. G. Truhlar,  
 A. Warshel,  X. Xu,  A. Aspuru-Guzik,  R. Baer,  A. T. Bell,  N. A. Besley,  
 J.-D. Chai,  A. Dreuw,  B. D. Dunietz,  T. R. Furlani,  S. R. Gwaltney,  
 C.-P. Hsu,  Y. Jung,  J. Kong,  D. S. Lambrecht,  W. Liang,  C. Ochsenfeld,  
 V. A. Rassolov,  L. V. Slipchenko,  J. E. Subotnik,  T. Van Voorhis,  
 J. M. Herbert,  A. I. Krylov,  P. M. W. Gill,  M. Head-Gordon

 Contributors to earlier versions of Q-Chem not listed above: 
 R. D. Adamson,  J. Baker,  E. F. C. Byrd,  A. K. Chakraborty,  C.-L. Cheng,  
 H. Dachsel,  R. J. Doerksen,  G. Hawkins,  A. Heyden,  S. Hirata,  
 G. Kedziora,  F. J. Keil,  C. Kelley,  P. P. Korambath,  W. Kurlancheek,  
 A. M. Lee,  M. S. Lee,  D. Liotard,  I. Lotan,  P. E. Maslen,  N. Nair,  
 D. Neuhauser,  R. Olson,  B. Peters,  J. Ritchie,  N. E. Schultz,  
 N. Shenvi,  A. C. Simmonett,  K. S. Thanthiriwatte,  Q. Wu,  W. Zhang

 Please cite Q-Chem as follows:
 Y. Shao et al., Mol. Phys. 113, 184-215 (2015)
 DOI: 10.1080/00268976.2014.952696

 Q-Chem 4.4.2 for Intel X86 Linux

 Parts of Q-Chem use Armadillo 5.200.1 (Boston Tea Smuggler).
 http://arma.sourceforge.net/

 Q-Chem begins on Wed Jun  7 03:53:57 2017  

Host: 
0

     Scratch files written to /tmpu/cab_g/afmv_a/scratch_qchem/qchem31400//
 Dec716 11556_ 22328  22283 4050   
Processing $rem in /tmpu/appuserlic/qchem4.4/serial-multicore/config/preferences.
 MEM_TOTAL  2000 
FILE_GEOM_ORG=        593

Checking the input file for inconsistencies... 	...done.

--------------------------------------------------------------
User input:
--------------------------------------------------------------
$comment
OPTIMIZATION
$end

$rem
JOBTYPE OPT
EXCHANGE omegaB97X-D
BASIS cc-pVTZ
$end

$molecule
0 1
C          0.00000        0.00000        0.00000
C          1.38599        0.00000        0.00000
C         -0.68515       -1.20581        0.00000
C          2.08055       -1.19709        0.02226
C          0.00742       -2.40411        0.01179
C          1.40063       -2.41271        0.04151
C          2.15950       -3.67324        0.15696
C          3.28495       -3.89012       -0.58998
C          1.80423       -4.73522        1.03395
N          4.05256       -5.00565       -0.55828
N          0.76004       -4.77508        1.86438
C          2.60263       -5.92407        1.07321
C          3.75559       -6.00488        0.22670
S          0.83517       -6.20398        2.60383
N          2.14893       -6.83592        1.93374
C          4.65993       -7.15428        0.18826
N          4.50379       -8.27723        0.81634
S          6.09985       -7.05762       -0.78290
C          5.53420       -9.12322        0.56301
C          6.50895       -8.65502       -0.27545
C          7.68423       -9.35804       -0.74155
S          9.16190       -8.54343       -1.13222
C          7.85023      -10.70005       -0.94672
C          9.96305       -9.98557       -1.57873
S          6.80581      -12.08882       -0.80159
C          9.14172      -11.06806       -1.42705
C          8.09449      -13.12385       -1.38317
C          9.24112      -12.48540       -1.66413
H         -0.54342        0.93472        0.00000
H          1.93260        0.93382       -0.01501
H         -1.76734       -1.21268        0.00047
H          3.16263       -1.19509        0.00785
H         -0.53593       -3.33924        0.01382
H          3.63178       -3.11287       -1.25900
H          5.55426      -10.09611        1.03164
H         10.97811       -9.96135       -1.93412
H          7.89050      -14.17705       -1.48827
H         10.12087      -12.98277       -2.04115
$end

$opt
CONSTRAINT
tors 4 6 7 8 -45.00000
tors 10 13 16 18 4.63242
tors 18 20 21 22 32.71647
ENDCONSTRAINT
$end
--------------------------------------------------------------
 ----------------------------------------------------------------
             Standard Nuclear Orientation (Angstroms)
    I     Atom           X                Y                Z
 ----------------------------------------------------------------
    1      C       8.0172796813     1.5123254647     0.4450578255
    2      C       7.1116452530     2.3474168717    -0.1900932622
    3      C       7.5694838288     0.3428070669     1.0409721401
    4      C       5.7720599397     2.0037016859    -0.2475791642
    5      C       6.2287642313     0.0022963490     0.9936592359
    6      C       5.3163854197     0.8216859856     0.3317250472
    7      C       3.9013366836     0.4309551180     0.1796897757
    8      C       2.8953007240     1.3412837118     0.3551534472
    9      C       3.4734629450    -0.8819920408    -0.1612260135
   10      N       1.5699379282     1.0881104742     0.2370265912
   11      N       4.2479839796    -1.9456447788    -0.3854927756
   12      C       2.0746397893    -1.1663530294    -0.2828024803
   13      C       1.1370723987    -0.1049604795    -0.0663782655
   14      S       3.2462095603    -3.1617027309    -0.7199133182
   15      N       1.8201605621    -2.4362767811    -0.5995989152
   16      C      -0.3130757631    -0.2624191810    -0.1790986955
   17      N      -0.9528602567    -1.3709082654    -0.3835703070
   18      S      -1.3246384603     1.1447094607    -0.0287843478
   19      C      -2.2915849427    -1.1560400316    -0.4407349333
   20      C      -2.7038065597     0.1385355529    -0.2779118124
   21      C      -4.0622307905     0.6353295304    -0.2524410125
   22      S      -4.4801188995     2.2295060145    -0.7850684581
   23      C      -5.1974329346    -0.0056521125     0.1612015802
   24      C      -6.1401076218     2.0273872429    -0.4321297575
   25      S      -5.5250572480    -1.5780190967     0.8400847384
   26      C      -6.3850857692     0.7784117045     0.0672901091
   27      C      -7.2210858478    -1.1643061654     0.9902417860
   28      C      -7.5373947670     0.0657640805     0.5564294548
   29      H       9.0665252584     1.7714806377     0.4755388022
   30      H       7.4457723562     3.2701773553    -0.6460535163
   31      H       8.2715760664    -0.3137807221     1.5381055016
   32      H       5.0643778484     2.6640409511    -0.7315697497
   33      H       5.8896298938    -0.9129214776     1.4595623281
   34      H       3.1477465087     2.3679135875     0.5881740382
   35      H      -2.9584530402    -1.9855694281    -0.6243087700
   36      H      -6.8375191116     2.8294286675    -0.5982087484
   37      H      -7.8853653404    -1.8963194044     1.4200993714
   38      H      -8.5369205588     0.4696229833     0.5928607329
 ----------------------------------------------------------------
 Molecular Point Group                 C1    NOp =  1
 Largest Abelian Subgroup              C1    NOp =  1
 Nuclear Repulsion Energy =  2866.8906164480 hartrees
 There are      111 alpha and      111 beta electrons
 Requested basis set is cc-pVTZ
 There are 348 shells and 996 basis functions

 Total QAlloc Memory Limit   2000 MB
 Mega-Array Size        61 MB
 MEM_STATIC part        62 MB
 A cutoff of  1.0D-11 yielded  28550 shell pairs
 There are    225976 function pairs (    295235 Cartesian)
 
 -------------------------------------------------------
 OpenMP Integral Computing Module                       
 Release: version 1.0, May 2013, Q-Chem Inc. Pittsburgh 
 -------------------------------------------------------
 Integral Job Info:
 Integral job number is                      11
 Integral operator is                         1
 short-range coefficients              22203600
 long-range coefficients              100000000
 Omega coefficients                         200
 if combine SR and LR in K                    1
 Integral screening is                        0
 Integral computing path is                   2
 max size of driver memory is            800000
 size of driver memory is                776718
 size of scratch memory is             26248924
 max col of scratch BK array              10000
 max len of scratch array in speh3          662
 max len of scratch index in speh4           32
 max int batch size is                      520
 min int batch size is                       52
 fixed nKL is                                52
 max L of basis functions is                  3
 order of int derivative is                   0
 number of shells is                        348
 number of basis is                        1146
 number of cartesian basis is              1146
 number of contracted shell pairs         28550
 number of primitive shell pairs          90697
 maxK2 (contraction) of shell pair          121
 max number of K2 of shell pair               1
 max number of CS2 of shell pair           3869
 max number of PS2 of shell pair          11487
 mem total for path MDJ                  789404
 -------------------------------------------------------
 Smallest overlap matrix eigenvalue = 3.10E-05

 Scale SEOQF with 1.000000e-02/1.000000e-01/1.000000e-01

 Standard Electronic Orientation quadrupole field applied
 Nucleus-field energy     =     0.0000000517 hartrees
 Guess from superposition of atomic densities
 Warning:  Energy on first SCF cycle will be non-variational
 Long-range K will be added via erf
 Coulomb attenuation parameter = 0.2 bohr**(-1)
 A restricted hybrid HF-DFT SCF calculation will be
 performed using Pulay DIIS extrapolation
 Exchange:     0.2220 Hartree-Fock + 1.0000 wB97X-D + LR-HF
 Correlation:  1.0000 wB97X-D
 Using SG-2 standard quadrature grid
 Dispersion:   Grimme D
 SCF converges when DIIS error is below 1.0E-08
 using 16 threads for integral computing 
 using 16 threads for integral computing 
 K construction time:  CPU 65.59 s  wall 4.39 s
 -------------------------------------------------------
 OpenMP BLAS3 based DFT computing Module                
 Release: version 1.0, May 2013, Q-Chem Inc. Pittsburgh 
 -------------------------------------------------------
 ---------------------------------------
  Cycle       Energy         DIIS Error
 ---------------------------------------
    1   -2589.7314899762      1.84E-02
 K construction time:  CPU 1005.50 s  wall 65.76 s
    2   -2579.6119070161      1.37E-03
 K construction time:  CPU 958.36 s  wall 62.71 s
    3   -2579.6449361156      1.38E-03
 K construction time:  CPU 911.57 s  wall 59.55 s
    4   -2579.8547341735      2.20E-04
 K construction time:  CPU 841.48 s  wall 54.96 s
    5   -2579.8595038519      1.22E-04
 K construction time:  CPU 802.39 s  wall 52.47 s
    6   -2579.8613023519      3.54E-05
 K construction time:  CPU 746.64 s  wall 48.86 s
    7   -2579.8614670176      1.47E-05
 K construction time:  CPU 702.97 s  wall 45.90 s
    8   -2579.8615053037      5.69E-06
 K construction time:  CPU 671.95 s  wall 44.02 s
    9   -2579.8615147664      3.83E-06
 K construction time:  CPU 635.22 s  wall 41.61 s
   10   -2579.8615180379      1.16E-06
 K construction time:  CPU 578.44 s  wall 37.85 s
   11   -2579.8615184365      6.41E-07
 K construction time:  CPU 532.66 s  wall 34.81 s
   12   -2579.8615185441      1.96E-07
 K construction time:  CPU 476.33 s  wall 31.04 s
   13   -2579.8615185561      9.63E-08
 K construction time:  CPU 406.77 s  wall 26.56 s
   14   -2579.8615185597      3.48E-08
 K construction time:  CPU 362.42 s  wall 23.59 s
   15   -2579.8615185639      1.44E-08
 K construction time:  CPU 995.46 s  wall 65.16 s
   16   -2579.8615185563      4.75E-09 Convergence criterion met
 ---------------------------------------
 SCF time:  CPU 14383.52 s  wall 963.34 s
 SCF   energy in the final basis set = -2579.8615185563
 Total energy in the final basis set = -2579.8615185563
 
 --------------------------------------------------------------
 
                    Orbital Energies (a.u.)
 --------------------------------------------------------------
 
 Alpha MOs
 -- Occupied --
-89.149 -89.090 -89.086 -89.078 -14.485 -14.482 -14.454 -14.443
-10.365 -10.362 -10.358 -10.356 -10.343 -10.342 -10.335 -10.332
-10.330 -10.327 -10.324 -10.322 -10.313 -10.312 -10.305 -10.298
-10.296 -10.296 -10.295 -10.294  -8.159  -8.105  -8.101  -8.093
 -6.109  -6.104  -6.103  -6.054  -6.051  -6.050  -6.048  -6.047
 -6.044  -6.043  -6.039  -6.035  -1.146  -1.086  -1.065  -1.023
 -1.010  -0.975  -0.958  -0.925  -0.919  -0.899  -0.876  -0.860
 -0.855  -0.832  -0.828  -0.802  -0.775  -0.745  -0.734  -0.713
 -0.705  -0.693  -0.691  -0.660  -0.651  -0.637  -0.627  -0.614
 -0.606  -0.598  -0.572  -0.564  -0.556  -0.548  -0.542  -0.531
 -0.530  -0.524  -0.514  -0.513  -0.507  -0.503  -0.498  -0.487
 -0.477  -0.475  -0.470  -0.455  -0.449  -0.439  -0.435  -0.434
 -0.430  -0.423  -0.421  -0.399  -0.393  -0.373  -0.369  -0.362
 -0.359  -0.353  -0.339  -0.338  -0.324  -0.305  -0.272
 -- Virtual --
 -0.050   0.001   0.027   0.042   0.053   0.057   0.067   0.071
  0.083   0.089   0.106   0.115   0.118   0.125   0.131   0.137
  0.140   0.144   0.149   0.156   0.161   0.164   0.171   0.178
  0.189   0.192   0.198   0.201   0.218   0.221   0.234   0.238
  0.242   0.250   0.259   0.268   0.275   0.282   0.288   0.291
  0.298   0.303   0.304   0.308   0.312   0.315   0.322   0.325
  0.328   0.331   0.337   0.339   0.346   0.348   0.352   0.354
  0.358   0.363   0.370   0.371   0.379   0.382   0.386   0.387
  0.389   0.391   0.396   0.399   0.404   0.405   0.408   0.411
  0.414   0.418   0.421   0.427   0.430   0.434   0.436   0.441
  0.441   0.445   0.449   0.452   0.453   0.460   0.464   0.466
  0.468   0.469   0.471   0.471   0.479   0.479   0.486   0.490
  0.494   0.496   0.500   0.503   0.505   0.509   0.514   0.517
  0.522   0.526   0.529   0.530   0.532   0.544   0.548   0.554
  0.555   0.560   0.563   0.565   0.565   0.570   0.572   0.580
  0.581   0.591   0.595   0.602   0.607   0.617   0.621   0.625
  0.630   0.634   0.639   0.640   0.649   0.653   0.658   0.666
  0.670   0.675   0.680   0.681   0.695   0.698   0.707   0.714
  0.718   0.725   0.727   0.730   0.736   0.740   0.747   0.753
  0.756   0.763   0.769   0.770   0.770   0.777   0.778   0.781
  0.783   0.792   0.794   0.800   0.804   0.813   0.817   0.820
  0.826   0.834   0.837   0.843   0.847   0.850   0.854   0.858
  0.865   0.868   0.877   0.878   0.882   0.886   0.891   0.896
  0.901   0.903   0.908   0.916   0.925   0.927   0.929   0.934
  0.943   0.945   0.952   0.958   0.960   0.963   0.968   0.973
  0.975   0.982   0.989   0.991   0.994   1.004   1.017   1.019
  1.023   1.033   1.036   1.040   1.045   1.050   1.053   1.058
  1.065   1.069   1.076   1.081   1.083   1.090   1.099   1.104
  1.113   1.114   1.117   1.130   1.131   1.137   1.146   1.154
  1.159   1.165   1.165   1.178   1.180   1.191   1.194   1.203
  1.208   1.217   1.223   1.227   1.237   1.239   1.245   1.252
  1.255   1.261   1.270   1.273   1.275   1.288   1.294   1.297
  1.313   1.316   1.331   1.340   1.347   1.350   1.360   1.365
  1.369   1.372   1.382   1.386   1.389   1.398   1.403   1.407
  1.417   1.421   1.422   1.432   1.435   1.447   1.449   1.453
  1.461   1.462   1.472   1.476   1.481   1.486   1.488   1.490
  1.494   1.498   1.513   1.517   1.520   1.539   1.542   1.550
  1.558   1.565   1.572   1.576   1.583   1.590   1.605   1.608
  1.614   1.618   1.625   1.628   1.635   1.644   1.651   1.652
  1.660   1.664   1.669   1.675   1.675   1.685   1.692   1.695
  1.703   1.705   1.712   1.717   1.729   1.734   1.740   1.748
  1.754   1.760   1.769   1.774   1.776   1.784   1.790   1.801
  1.825   1.831   1.837   1.845   1.850   1.875   1.881   1.887
  1.889   1.901   1.904   1.912   1.931   1.932   1.936   1.939
  1.952   1.960   1.969   1.973   1.976   1.982   1.999   2.006
  2.013   2.022   2.024   2.032   2.033   2.039   2.043   2.065
  2.076   2.082   2.086   2.090   2.101   2.107   2.116   2.123
  2.131   2.139   2.149   2.158   2.165   2.170   2.173   2.181
  2.190   2.201   2.205   2.211   2.215   2.229   2.240   2.244
  2.251   2.256   2.261   2.267   2.276   2.283   2.291   2.302
  2.315   2.323   2.331   2.337   2.338   2.351   2.352   2.360
  2.367   2.375   2.391   2.393   2.398   2.406   2.418   2.420
  2.435   2.443   2.449   2.453   2.456   2.465   2.470   2.477
  2.481   2.489   2.491   2.495   2.502   2.507   2.509   2.524
  2.529   2.535   2.541   2.555   2.560   2.563   2.578   2.583
  2.590   2.597   2.600   2.602   2.613   2.620   2.637   2.640
  2.645   2.656   2.661   2.671   2.672   2.680   2.695   2.713
  2.716   2.720   2.734   2.739   2.749   2.753   2.763   2.765
  2.775   2.780   2.781   2.787   2.789   2.801   2.805   2.807
  2.818   2.823   2.829   2.833   2.839   2.841   2.846   2.855
  2.858   2.873   2.886   2.895   2.898   2.904   2.908   2.913
  2.930   2.931   2.934   2.944   2.960   2.963   2.968   2.975
  2.976   2.986   2.994   2.996   2.999   3.008   3.009   3.016
  3.024   3.025   3.033   3.037   3.042   3.046   3.058   3.063
  3.067   3.072   3.075   3.078   3.081   3.084   3.092   3.094
  3.102   3.106   3.111   3.117   3.118   3.124   3.128   3.133
  3.137   3.147   3.149   3.151   3.152   3.163   3.165   3.170
  3.176   3.179   3.181   3.187   3.189   3.194   3.199   3.205
  3.212   3.216   3.218   3.221   3.229   3.233   3.235   3.239
  3.253   3.257   3.259   3.264   3.270   3.275   3.282   3.283
  3.287   3.291   3.296   3.299   3.303   3.307   3.311   3.319
  3.322   3.327   3.332   3.334   3.341   3.349   3.354   3.356
  3.368   3.369   3.378   3.383   3.391   3.397   3.401   3.406
  3.419   3.421   3.425   3.429   3.435   3.446   3.452   3.458
  3.460   3.464   3.467   3.470   3.473   3.478   3.482   3.494
  3.501   3.504   3.509   3.516   3.529   3.533   3.538   3.548
  3.549   3.563   3.568   3.568   3.574   3.580   3.589   3.593
  3.598   3.608   3.613   3.623   3.632   3.650   3.665   3.672
  3.688   3.693   3.700   3.708   3.713   3.725   3.733   3.736
  3.744   3.750   3.766   3.768   3.772   3.781   3.785   3.794
  3.797   3.810   3.816   3.827   3.841   3.847   3.852   3.857
  3.858   3.861   3.864   3.868   3.874   3.879   3.882   3.887
  3.889   3.900   3.910   3.919   3.925   3.937   3.944   3.949
  3.956   3.964   3.965   3.971   3.978   3.979   3.986   3.992
  4.002   4.016   4.018   4.027   4.034   4.040   4.053   4.065
  4.078   4.081   4.082   4.096   4.104   4.127   4.131   4.138
  4.144   4.152   4.161   4.166   4.169   4.177   4.184   4.192
  4.196   4.207   4.213   4.222   4.232   4.241   4.252   4.257
  4.265   4.273   4.283   4.290   4.299   4.317   4.323   4.326
  4.331   4.346   4.347   4.357   4.368   4.377   4.379   4.390
  4.391   4.399   4.407   4.411   4.418   4.427   4.432   4.436
  4.444   4.452   4.456   4.465   4.483   4.499   4.510   4.520
  4.529   4.538   4.552   4.565   4.567   4.585   4.591   4.596
  4.606   4.621   4.625   4.634   4.649   4.662   4.673   4.680
  4.685   4.717   4.722   4.738   4.748   4.751   4.778   4.781
  4.792   4.810   4.818   4.826   4.832   4.841   4.845   4.854
  4.861   4.863   4.881   4.889   4.898   4.912   4.922   4.934
  4.949   4.954   4.963   4.967   4.988   4.997   5.007   5.013
  5.029   5.045   5.050   5.066   5.073   5.083   5.084   5.094
  5.100   5.109   5.113   5.122   5.124   5.132   5.139   5.169
  5.187   5.192   5.217   5.244   5.247   5.251   5.267   5.272
  5.278   5.306   5.327   5.340   5.346   5.368   5.383   5.392
  5.401   5.431   5.450   5.468   5.501   5.517   5.522   5.538
  5.567   5.590   5.595   5.627   5.643   5.662   5.673   5.692
  5.728   5.733   5.767   5.795   5.818   5.824   5.838   5.866
  5.881   5.964   6.000   6.018   6.034   6.044   6.048   6.108
  6.142   6.156   6.171   6.189   6.214   6.235   6.252   6.303
  6.369   6.485   6.523   6.857   6.984   8.027   8.556   9.436
 10.116  10.713  11.134  11.144  11.687  12.025  12.324  12.627
 12.749  12.885  12.942  12.970  13.167  13.395  13.513  13.774
 13.820  13.948  14.132  14.679  15.707
 --------------------------------------------------------------
 
          Ground-State Mulliken Net Atomic Charges

     Atom                 Charge (a.u.)
  ----------------------------------------
      1 C                    -0.124754
      2 C                    -0.110662
      3 C                    -0.108555
      4 C                    -0.146002
      5 C                    -0.123293
      6 C                     0.118791
      7 C                     0.018770
      8 C                    -0.109993
      9 C                     0.035923
     10 N                    -0.173544
     11 N                    -0.282457
     12 C                    -0.010753
     13 C                     0.107787
     14 S                     0.412578
     15 N                    -0.222584
     16 C                    -0.008411
     17 N                    -0.137416
     18 S                     0.120317
     19 C                    -0.144925
     20 C                    -0.018694
     21 C                     0.006465
     22 S                     0.132392
     23 C                    -0.049416
     24 C                    -0.219926
     25 S                     0.056408
     26 C                     0.042457
     27 C                    -0.145430
     28 C                    -0.173016
     29 H                     0.118471
     30 H                     0.115152
     31 H                     0.115529
     32 H                     0.124695
     33 H                     0.114250
     34 H                     0.133397
     35 H                     0.145244
     36 H                     0.130336
     37 H                     0.132840
     38 H                     0.128030
  ----------------------------------------
  Sum of atomic charges =     0.000000

 -----------------------------------------------------------------
                    Cartesian Multipole Moments
 -----------------------------------------------------------------
    Charge (ESU x 10^10)
                 0.0000
    Dipole Moment (Debye)
         X      -0.7290      Y       0.9280      Z       0.2456
       Tot       1.2054
    Quadrupole Moments (Debye-Ang)
        XX    -139.9398     XY      -0.8179     YY    -176.2818
        XZ      -0.8932     YZ      -5.0206     ZZ    -188.2075
    Octopole Moments (Debye-Ang^2)
       XXX    -151.9130    XXY      44.7061    XYY       4.3856
       YYY      -8.0517    XXZ      49.7445    XYZ       2.7403
       YYZ     -10.3603    XZZ       5.7700    YZZ     -13.8307
       ZZZ      -6.6457
    Hexadecapole Moments (Debye-Ang^3)
      XXXX  -21193.2892   XXXY     129.9454   XXYY   -4202.3397
      XYYY     -91.2241   YYYY   -2813.6351   XXXZ     -85.2468
      XXYZ    -259.0303   XYYZ     -61.2007   YYYZ     -25.5633
      XXZZ   -4401.2375   XYZZ     -33.3090   YYZZ    -584.6244
      XZZZ     -23.7339   YZZZ      -0.3217   ZZZZ    -573.4772
 -----------------------------------------------------------------
 Calculating analytic gradient of the SCF energy
 K construction time:  CPU 2101.36 s  wall 133.20 s
 Gradient of SCF Energy
            1           2           3           4           5           6
    1   0.0004868   0.0002212  -0.0007224   0.0005498  -0.0002922  -0.0011562
    2   0.0002102  -0.0017579  -0.0002661  -0.0016251   0.0016658   0.0039003
    3   0.0002218  -0.0006078  -0.0007322  -0.0030513   0.0012651   0.0046895
            7           8           9          10          11          12
    1   0.0007687   0.0000829  -0.0004241   0.0003501   0.0011174   0.0001861
    2  -0.0047817   0.0005334   0.0002975  -0.0010877   0.0006125   0.0002011
    3  -0.0041505   0.0032331  -0.0037377   0.0009540   0.0008310  -0.0001808
           13          14          15          16          17          18
    1  -0.0004065   0.0002440  -0.0007200  -0.0003951   0.0008834  -0.0004410
    2   0.0001336   0.0002704   0.0001320  -0.0008144   0.0003015   0.0006438
    3   0.0004499   0.0000912   0.0006074  -0.0002704   0.0001799  -0.0001049
           19          20          21          22          23          24
    1   0.0005081  -0.0006174  -0.0008617   0.0005551   0.0004154  -0.0003818
    2   0.0003226  -0.0003537  -0.0009589   0.0005076   0.0012423   0.0010210
    3  -0.0001786  -0.0005716   0.0011435  -0.0006311  -0.0005548  -0.0005888
           25          26          27          28          29          30
    1   0.0005446   0.0000399  -0.0014443   0.0006792  -0.0001735  -0.0004867
    2  -0.0012908  -0.0003549   0.0007402   0.0002963   0.0000055   0.0006593
    3   0.0003780   0.0001225  -0.0004175  -0.0009214  -0.0000912  -0.0001981
           31          32          33          34          35          36
    1   0.0006709  -0.0012561  -0.0000092   0.0012706  -0.0003671  -0.0000255
    2  -0.0006375   0.0012025  -0.0003633   0.0002745   0.0001144  -0.0004211
    3  -0.0005225   0.0028106   0.0013291  -0.0026055   0.0000700   0.0005772
           37          38
    1   0.0006086  -0.0000020
    2  -0.0001588  -0.0004165
    3   0.0006973   0.0004655
 Max gradient component =       4.782E-03
 RMS gradient           =       1.238E-03
 Gradient time:  CPU 2521.78 s  wall 161.49 s
 Geometry Optimization Parameters
   NAtoms,    NIC,     NZ,  NCons,   NDum,   NFix, NCnnct, MaxDiis
       38     289       0       3       0       0       0       0


** CONSTRAINED OPTIMIZATION IN DELOCALIZED INTERNAL COORDINATES **
   Searching for a Minimum

   Optimization Cycle:   1

                       Coordinates (Angstroms)
     ATOM                X               Y               Z
      1  C         8.0172796813    1.5123254647    0.4450578255
      2  C         7.1116452530    2.3474168717   -0.1900932622
      3  C         7.5694838288    0.3428070669    1.0409721401
      4  C         5.7720599397    2.0037016859   -0.2475791642
      5  C         6.2287642313    0.0022963490    0.9936592359
      6  C         5.3163854197    0.8216859856    0.3317250472
      7  C         3.9013366836    0.4309551180    0.1796897757
      8  C         2.8953007240    1.3412837118    0.3551534472
      9  C         3.4734629450   -0.8819920408   -0.1612260135
     10  N         1.5699379282    1.0881104742    0.2370265912
     11  N         4.2479839796   -1.9456447788   -0.3854927756
     12  C         2.0746397893   -1.1663530294   -0.2828024803
     13  C         1.1370723987   -0.1049604795   -0.0663782655
     14  S         3.2462095603   -3.1617027309   -0.7199133182
     15  N         1.8201605621   -2.4362767811   -0.5995989152
     16  C        -0.3130757631   -0.2624191810   -0.1790986955
     17  N        -0.9528602567   -1.3709082654   -0.3835703070
     18  S        -1.3246384603    1.1447094607   -0.0287843478
     19  C        -2.2915849427   -1.1560400316   -0.4407349333
     20  C        -2.7038065597    0.1385355529   -0.2779118124
     21  C        -4.0622307905    0.6353295304   -0.2524410125
     22  S        -4.4801188995    2.2295060145   -0.7850684581
     23  C        -5.1974329346   -0.0056521125    0.1612015802
     24  C        -6.1401076218    2.0273872429   -0.4321297575
     25  S        -5.5250572480   -1.5780190967    0.8400847384
     26  C        -6.3850857692    0.7784117045    0.0672901091
     27  C        -7.2210858478   -1.1643061654    0.9902417860
     28  C        -7.5373947670    0.0657640805    0.5564294548
     29  H         9.0665252584    1.7714806377    0.4755388022
     30  H         7.4457723562    3.2701773553   -0.6460535163
     31  H         8.2715760664   -0.3137807221    1.5381055016
     32  H         5.0643778484    2.6640409511   -0.7315697497
     33  H         5.8896298938   -0.9129214776    1.4595623281
     34  H         3.1477465087    2.3679135875    0.5881740382
     35  H        -2.9584530402   -1.9855694281   -0.6243087700
     36  H        -6.8375191116    2.8294286675   -0.5982087484
     37  H        -7.8853653404   -1.8963194044    1.4200993714
     38  H        -8.5369205588    0.4696229833    0.5928607329
   Point Group: c1    Number of degrees of freedom:   108


   Energy is  -2579.861518556

              Constraints and their Current Values
                                        Value     Constraint
   Dihedral:        4   6   7   8      -45.000      -45.000
   Dihedral:       10  13  16  18        4.689        4.632
   Dihedral:       18  20  21  22       32.692       32.716

 Attempting to Generate Delocalized Internal Coordinates

   Using Lagrange Multiplier Algorithm


111 Hessian modes will be used to form the next step
  Hessian Eigenvalues:
    -0.977753   -0.977753   -0.977753    0.045000    0.045000    0.045000
     0.045000    0.045000    0.045000    0.045000    0.045000    0.045000
     0.045000    0.045000    0.045000    0.045001    0.045001    0.045001
     0.045001    0.045001    0.045002    0.045002    0.045003    0.045003
     0.045004    0.045005    0.045005    0.045007    0.045008    0.045008
     0.045012    0.045021    0.045031    0.045040    0.045052    0.159964
     0.159978    0.159978    0.159981    0.159982    0.159991    0.159991
     0.159994    0.160000    0.160000    0.219984    0.219994    0.225219
     0.233057    0.234605    0.234757    0.237025    0.247518    0.249693
     0.249750    0.249778    0.249982    0.249986    0.249988    0.249992
     0.249995    0.249997    0.249999    0.249999    0.250000    0.296271
     0.304575    0.308347    0.315685    0.324173    0.337615    0.350485
     0.356835    0.357284    0.357325    0.357370    0.358104    0.358490
     0.359870    0.361582    0.362481    0.365129    0.365888    0.369128
     0.381387    0.386884    0.389561    0.393563    0.413661    0.429805
     0.432305    0.470765    0.472699    0.474104    0.479083    0.480434
     0.482728    0.483543    0.486793    0.496412    0.509553    0.519716
     0.527473    0.543235    0.556250    0.579540    0.638658    0.653871
     1.022753    1.022753    1.022753

 Minimum Search - Taking P-RFO Step
 Searching for Lamda that Maximizes Along the Constraint modes Only
 Value Taken    Lamda =   0.00000204
 Searching for Lamda that Minimizes Along All other modes
 Value Taken    Lamda =  -0.00115248
 Step Taken.  Stepsize is  0.140062

                             Maximum     Tolerance    Cnvgd?
         Gradient            0.004457       0.000300      NO
         Displacement        0.044477       0.001200      NO
         Energy change     *********       0.000001      NO


 New Cartesian Coordinates Obtained by Inverse Iteration

 Displacement from previous Coordinates is:  0.507539
 ----------------------------------------------------------------
             Standard Nuclear Orientation (Angstroms)
    I     Atom           X                Y                Z
 ----------------------------------------------------------------
    1      C       8.0334830289     1.4851496767     0.4798802415
    2      C       7.1578140821     2.3226595480    -0.1927570609
    3      C       7.5564178654     0.3237214054     1.0678253774
    4      C       5.8159747836     1.9933321911    -0.2870033014
    5      C       6.2154440106    -0.0060483559     0.9762793446
    6      C       5.3276954052     0.8237097938     0.2946270099
    7      C       3.9032046282     0.4597380430     0.1536255599
    8      C       2.8987523629     1.3737871679     0.3288807153
    9      C       3.4664800694    -0.8560415539    -0.1693922008
   10      N       1.5716305501     1.1234371922     0.2186342449
   11      N       4.2328496327    -1.9262081513    -0.3935870482
   12      C       2.0673259368    -1.1357422207    -0.2899132876
   13      C       1.1350378442    -0.0703546448    -0.0777245895
   14      S       3.2268394745    -3.1406968902    -0.7201138002
   15      N       1.8063110318    -2.4059277820    -0.6014397879
   16      C      -0.3152052868    -0.2325548511    -0.1759733107
   17      N      -0.9512509478    -1.3452842813    -0.3720354228
   18      S      -1.3326766111     1.1681686962    -0.0181994548
   19      C      -2.2909689006    -1.1388076805    -0.4208909554
   20      C      -2.7080273589     0.1542994610    -0.2593171983
   21      C      -4.0702670197     0.6405569356    -0.2318615435
   22      S      -4.5035538486     2.2278647640    -0.7689042830
   23      C      -5.2016104135    -0.0117246732     0.1787802600
   24      C      -6.1622465883     2.0090451421    -0.4239251765
   25      S      -5.5192591136    -1.5867041497     0.8527734783
   26      C      -6.3974402381     0.7592124217     0.0765255040
   27      C      -7.2207769495    -1.1939268586     0.9875643738
   28      C      -7.5466632180     0.0344647676     0.5557591269
   29      H       9.0839757152     1.7342994652     0.5426329922
   30      H       7.5211495306     3.2322143575    -0.6511935271
   31      H       8.2331995354    -0.3332797775     1.5966166746
   32      H       5.1387643012     2.6502319924    -0.8161947574
   33      H       5.8509475001    -0.9127343644     1.4366401342
   34      H       3.1453152648     2.3960222540     0.5862812369
   35      H      -2.9523383199    -1.9734275553    -0.6001532401
   36      H      -6.8659412488     2.8037504389    -0.6019286605
   37      H      -7.8852123580    -1.9351148594     1.4011216931
   38      H      -8.5505611883     0.4289377072     0.5779688414
 ----------------------------------------------------------------
 Molecular Point Group                 C1    NOp =  1
 Largest Abelian Subgroup              C1    NOp =  1
 Nuclear Repulsion Energy =  2866.6676530263 hartrees
 There are      111 alpha and      111 beta electrons
 Applying Cartesian multipole field
    Component          Value
    ---------          -----
     (2,0,0)        1.00000E-12
     (0,2,0)        2.00000E-11
     (0,0,2)       -3.00000E-11
 Nucleus-field energy     =     0.0000000514 hartrees
 Requested basis set is cc-pVTZ
 There are 348 shells and 996 basis functions
 A cutoff of  1.0D-11 yielded  28551 shell pairs
 There are    226017 function pairs (    295319 Cartesian)
 Smallest overlap matrix eigenvalue = 3.10E-05
 Guess MOs from SCF MO coefficient file
 Reading MOs from coefficient file
 Reading MOs from coefficient file
 Long-range K will be added via erf
 Coulomb attenuation parameter = 0.2 bohr**(-1)
 A restricted hybrid HF-DFT SCF calculation will be
 performed using Pulay DIIS extrapolation
 Exchange:     0.2220 Hartree-Fock + 1.0000 wB97X-D + LR-HF
 Correlation:  1.0000 wB97X-D
 Using SG-2 standard quadrature grid
 Dispersion:   Grimme D
 SCF converges when DIIS error is below 1.0E-08
 Geometry optimization detected.  Setting ReadMinima to 0
 Setting SaveMinima to 0
 using 16 threads for integral computing 
 using 16 threads for integral computing 
 K construction time:  CPU 998.08 s  wall 65.27 s
 -------------------------------------------------------
 OpenMP BLAS3 based DFT computing Module                
 Release: version 1.0, May 2013, Q-Chem Inc. Pittsburgh 
 -------------------------------------------------------
 ---------------------------------------
  Cycle       Energy         DIIS Error
 ---------------------------------------
    1   -2579.8600756862      2.52E-04
 K construction time:  CPU 997.11 s  wall 65.23 s
    2   -2579.8620879677      2.56E-05
 K construction time:  CPU 731.79 s  wall 47.92 s
    3   -2579.8622381742      1.63E-05
 K construction time:  CPU 691.48 s  wall 45.37 s
    4   -2579.8622661862      9.37E-06
 K construction time:  CPU 654.54 s  wall 42.92 s
    5   -2579.8622774520      3.87E-06
 K construction time:  CPU 599.23 s  wall 39.14 s
    6   -2579.8622793169      1.34E-06
 K construction time:  CPU 539.74 s  wall 35.43 s
    7   -2579.8622795626      4.87E-07
 K construction time:  CPU 496.12 s  wall 32.44 s
    8   -2579.8622795986      2.16E-07
 K construction time:  CPU 450.54 s  wall 29.44 s
    9   -2579.8622796060      7.49E-08
 K construction time:  CPU 378.25 s  wall 24.65 s
   10   -2579.8622796056      2.00E-08
 K construction time:  CPU 341.47 s  wall 22.37 s
   11   -2579.8622796070      1.15E-08
 K construction time:  CPU 290.05 s  wall 18.85 s
   12   -2579.8622796070      4.79E-09 Convergence criterion met
 ---------------------------------------
 SCF time:  CPU 9768.85 s  wall 655.77 s
 SCF   energy in the final basis set = -2579.8622796070
 Total energy in the final basis set = -2579.8622796070
 
 --------------------------------------------------------------
 
                    Orbital Energies (a.u.)
 --------------------------------------------------------------
 
 Alpha MOs
 -- Occupied --
-89.149 -89.090 -89.086 -89.078 -14.485 -14.481 -14.454 -14.443
-10.364 -10.362 -10.357 -10.355 -10.343 -10.342 -10.335 -10.332
-10.330 -10.327 -10.325 -10.322 -10.313 -10.312 -10.305 -10.298
-10.295 -10.295 -10.295 -10.294  -8.159  -8.105  -8.102  -8.093
 -6.109  -6.104  -6.103  -6.054  -6.051  -6.050  -6.048  -6.047
 -6.045  -6.043  -6.039  -6.035  -1.145  -1.086  -1.064  -1.023
 -1.009  -0.974  -0.958  -0.925  -0.919  -0.899  -0.876  -0.860
 -0.855  -0.833  -0.828  -0.802  -0.775  -0.745  -0.734  -0.712
 -0.705  -0.693  -0.691  -0.660  -0.651  -0.637  -0.626  -0.614
 -0.606  -0.598  -0.571  -0.564  -0.556  -0.548  -0.541  -0.531
 -0.530  -0.524  -0.514  -0.513  -0.507  -0.503  -0.498  -0.487
 -0.477  -0.476  -0.469  -0.455  -0.449  -0.439  -0.435  -0.434
 -0.430  -0.423  -0.421  -0.398  -0.393  -0.373  -0.369  -0.362
 -0.359  -0.353  -0.339  -0.338  -0.324  -0.305  -0.272
 -- Virtual --
 -0.050   0.001   0.027   0.042   0.053   0.057   0.067   0.072
  0.083   0.089   0.107   0.114   0.118   0.125   0.131   0.138
  0.140   0.144   0.149   0.156   0.160   0.164   0.171   0.178
  0.190   0.192   0.197   0.200   0.218   0.221   0.234   0.238
  0.242   0.249   0.259   0.268   0.275   0.282   0.288   0.291
  0.298   0.303   0.304   0.308   0.312   0.315   0.322   0.326
  0.328   0.331   0.337   0.340   0.346   0.348   0.352   0.354
  0.358   0.363   0.370   0.371   0.379   0.382   0.386   0.387
  0.389   0.391   0.396   0.399   0.405   0.406   0.408   0.411
  0.414   0.418   0.421   0.428   0.430   0.433   0.436   0.441
  0.441   0.445   0.449   0.453   0.453   0.461   0.464   0.466
  0.468   0.469   0.471   0.472   0.479   0.479   0.485   0.489
  0.494   0.496   0.500   0.503   0.505   0.509   0.513   0.517
  0.522   0.526   0.528   0.530   0.532   0.544   0.547   0.554
  0.556   0.559   0.563   0.564   0.565   0.571   0.572   0.580
  0.582   0.591   0.595   0.602   0.607   0.617   0.620   0.625
  0.631   0.634   0.638   0.640   0.649   0.654   0.658   0.666
  0.670   0.676   0.680   0.681   0.695   0.699   0.707   0.714
  0.718   0.726   0.728   0.730   0.737   0.741   0.746   0.753
  0.756   0.762   0.769   0.770   0.771   0.777   0.778   0.781
  0.783   0.793   0.795   0.800   0.804   0.813   0.816   0.820
  0.826   0.834   0.837   0.843   0.847   0.850   0.855   0.858
  0.866   0.867   0.876   0.879   0.882   0.886   0.891   0.896
  0.902   0.904   0.908   0.915   0.924   0.927   0.930   0.934
  0.942   0.945   0.953   0.958   0.959   0.963   0.967   0.972
  0.976   0.981   0.988   0.990   0.994   1.004   1.017   1.018
  1.023   1.033   1.038   1.040   1.046   1.050   1.055   1.058
  1.064   1.072   1.075   1.082   1.082   1.092   1.099   1.105
  1.110   1.116   1.118   1.128   1.131   1.138   1.146   1.154
  1.160   1.166   1.166   1.177   1.180   1.194   1.199   1.203
  1.209   1.216   1.223   1.226   1.238   1.240   1.245   1.252
  1.254   1.261   1.271   1.275   1.276   1.287   1.294   1.298
  1.314   1.316   1.330   1.340   1.347   1.351   1.360   1.365
  1.368   1.370   1.381   1.385   1.389   1.398   1.403   1.407
  1.418   1.421   1.422   1.435   1.435   1.447   1.448   1.454
  1.461   1.464   1.472   1.477   1.481   1.487   1.488   1.490
  1.492   1.497   1.514   1.517   1.520   1.539   1.540   1.549
  1.558   1.564   1.573   1.576   1.584   1.590   1.605   1.607
  1.614   1.618   1.626   1.627   1.635   1.643   1.651   1.653
  1.660   1.663   1.668   1.673   1.676   1.685   1.692   1.695
  1.703   1.705   1.711   1.715   1.728   1.734   1.740   1.747
  1.754   1.759   1.769   1.774   1.777   1.785   1.790   1.801
  1.825   1.832   1.836   1.844   1.850   1.875   1.881   1.887
  1.889   1.902   1.905   1.912   1.930   1.932   1.936   1.939
  1.951   1.959   1.968   1.975   1.976   1.982   1.999   2.005
  2.014   2.023   2.025   2.031   2.035   2.040   2.043   2.065
  2.074   2.082   2.085   2.091   2.101   2.109   2.116   2.123
  2.133   2.140   2.149   2.159   2.164   2.170   2.173   2.181
  2.192   2.202   2.206   2.211   2.216   2.230   2.240   2.244
  2.250   2.257   2.263   2.269   2.275   2.283   2.291   2.301
  2.318   2.325   2.333   2.337   2.339   2.350   2.352   2.359
  2.367   2.375   2.390   2.394   2.398   2.407   2.420   2.422
  2.434   2.443   2.449   2.452   2.456   2.465   2.468   2.477
  2.481   2.488   2.492   2.495   2.503   2.507   2.508   2.526
  2.528   2.535   2.541   2.556   2.559   2.563   2.575   2.583
  2.591   2.597   2.601   2.603   2.612   2.621   2.637   2.639
  2.646   2.655   2.661   2.671   2.673   2.681   2.696   2.713
  2.716   2.720   2.734   2.738   2.750   2.753   2.762   2.768
  2.775   2.779   2.782   2.787   2.788   2.801   2.805   2.807
  2.815   2.824   2.830   2.833   2.838   2.841   2.849   2.852
  2.858   2.873   2.887   2.895   2.898   2.904   2.908   2.913
  2.929   2.932   2.934   2.944   2.960   2.964   2.968   2.975
  2.976   2.986   2.994   2.997   3.000   3.007   3.011   3.016
  3.022   3.024   3.034   3.038   3.040   3.046   3.058   3.062
  3.067   3.072   3.076   3.078   3.080   3.085   3.091   3.093
  3.103   3.106   3.111   3.115   3.118   3.124   3.128   3.133
  3.138   3.147   3.150   3.151   3.153   3.161   3.165   3.169
  3.177   3.179   3.182   3.187   3.189   3.192   3.199   3.206
  3.211   3.217   3.217   3.221   3.228   3.233   3.234   3.239
  3.252   3.257   3.258   3.264   3.270   3.275   3.282   3.284
  3.286   3.291   3.295   3.298   3.303   3.307   3.310   3.320
  3.324   3.327   3.332   3.333   3.342   3.348   3.355   3.355
  3.367   3.369   3.378   3.383   3.391   3.396   3.400   3.406
  3.418   3.420   3.425   3.431   3.435   3.446   3.452   3.457
  3.460   3.464   3.467   3.471   3.474   3.477   3.482   3.495
  3.499   3.503   3.510   3.516   3.530   3.532   3.538   3.549
  3.550   3.562   3.568   3.569   3.574   3.581   3.589   3.594
  3.599   3.608   3.617   3.623   3.633   3.648   3.664   3.672
  3.688   3.691   3.699   3.706   3.714   3.724   3.734   3.735
  3.745   3.751   3.768   3.769   3.775   3.781   3.786   3.795
  3.798   3.810   3.816   3.829   3.840   3.847   3.853   3.856
  3.858   3.862   3.864   3.867   3.877   3.882   3.883   3.888
  3.890   3.901   3.909   3.920   3.927   3.938   3.945   3.946
  3.956   3.963   3.966   3.972   3.976   3.978   3.985   3.991
  4.000   4.015   4.017   4.027   4.031   4.039   4.053   4.065
  4.077   4.080   4.081   4.096   4.100   4.127   4.130   4.137
  4.142   4.152   4.160   4.166   4.169   4.176   4.184   4.192
  4.194   4.210   4.214   4.223   4.232   4.241   4.252   4.257
  4.267   4.273   4.281   4.287   4.301   4.316   4.323   4.325
  4.333   4.347   4.347   4.356   4.367   4.376   4.381   4.389
  4.392   4.398   4.406   4.411   4.420   4.427   4.430   4.435
  4.444   4.449   4.456   4.466   4.486   4.501   4.511   4.522
  4.526   4.537   4.552   4.564   4.570   4.581   4.592   4.600
  4.608   4.620   4.626   4.635   4.647   4.661   4.672   4.681
  4.684   4.717   4.723   4.738   4.748   4.750   4.778   4.780
  4.793   4.809   4.819   4.827   4.831   4.842   4.844   4.855
  4.861   4.866   4.882   4.890   4.898   4.912   4.922   4.933
  4.950   4.951   4.959   4.968   4.989   4.997   5.007   5.012
  5.030   5.043   5.050   5.066   5.073   5.081   5.085   5.095
  5.099   5.109   5.113   5.122   5.123   5.131   5.139   5.170
  5.187   5.192   5.216   5.244   5.246   5.252   5.266   5.271
  5.279   5.305   5.327   5.339   5.347   5.368   5.381   5.393
  5.399   5.431   5.448   5.466   5.503   5.517   5.524   5.538
  5.566   5.592   5.596   5.627   5.640   5.664   5.674   5.693
  5.730   5.737   5.769   5.798   5.820   5.827   5.837   5.868
  5.881   5.966   5.998   6.016   6.033   6.044   6.048   6.111
  6.141   6.155   6.174   6.193   6.215   6.237   6.251   6.304
  6.368   6.484   6.518   6.855   6.985   8.026   8.561   9.439
 10.113  10.716  11.133  11.143  11.683  12.019  12.324  12.623
 12.750  12.867  12.938  12.960  13.149  13.400  13.479  13.783
 13.820  13.947  14.129  14.662  15.703
 --------------------------------------------------------------
 
          Ground-State Mulliken Net Atomic Charges

     Atom                 Charge (a.u.)
  ----------------------------------------
      1 C                    -0.124132
      2 C                    -0.110108
      3 C                    -0.109880
      4 C                    -0.146429
      5 C                    -0.121486
      6 C                     0.120395
      7 C                     0.015889
      8 C                    -0.109183
      9 C                     0.034792
     10 N                    -0.174230
     11 N                    -0.283621
     12 C                    -0.011884
     13 C                     0.109525
     14 S                     0.413136
     15 N                    -0.222782
     16 C                    -0.009090
     17 N                    -0.137102
     18 S                     0.120860
     19 C                    -0.145310
     20 C                    -0.017690
     21 C                     0.004977
     22 S                     0.133016
     23 C                    -0.050199
     24 C                    -0.219840
     25 S                     0.057081
     26 C                     0.042648
     27 C                    -0.145917
     28 C                    -0.172670
     29 H                     0.118121
     30 H                     0.114985
     31 H                     0.115236
     32 H                     0.125605
     33 H                     0.114028
     34 H                     0.134770
     35 H                     0.145449
     36 H                     0.130059
     37 H                     0.132952
     38 H                     0.128031
  ----------------------------------------
  Sum of atomic charges =     0.000000

 -----------------------------------------------------------------
                    Cartesian Multipole Moments
 -----------------------------------------------------------------
    Charge (ESU x 10^10)
                 0.0000
    Dipole Moment (Debye)
         X      -0.7743      Y       0.8722      Z       0.2370
       Tot       1.1902
    Quadrupole Moments (Debye-Ang)
        XX    -139.8358     XY      -0.5277     YY    -176.3393
        XZ      -0.4495     YZ      -5.0387     ZZ    -188.0751
    Octopole Moments (Debye-Ang^2)
       XXX    -153.8486    XXY      43.5626    XYY       4.3653
       YYY     -13.0262    XXZ      48.8962    XYZ       2.7457
       YYZ     -10.6842    XZZ       7.9286    YZZ     -14.4263
       ZZZ      -7.6899
    Hexadecapole Moments (Debye-Ang^3)
      XXXX  -21233.7557   XXXY     139.1660   XXYY   -4209.4415
      XYYY    -105.5215   YYYY   -2793.2231   XXXZ     -32.4504
      XXYZ    -260.7988   XYYZ     -56.5107   YYYZ     -22.0355
      XXZZ   -4407.0109   XYZZ     -37.8734   YYZZ    -579.8339
      XZZZ      -5.3870   YZZZ       3.0660   ZZZZ    -573.1907
 -----------------------------------------------------------------
 Calculating analytic gradient of the SCF energy
 K construction time:  CPU 2095.81 s  wall 132.91 s
 Gradient of SCF Energy
            1           2           3           4           5           6
    1   0.0000517   0.0002109  -0.0000826   0.0009917  -0.0001128  -0.0005668
    2  -0.0000217  -0.0002522   0.0000878  -0.0008162   0.0002911   0.0012280
    3   0.0000914  -0.0003375   0.0000266  -0.0025029  -0.0003102   0.0037445
            7           8           9          10          11          12
    1   0.0004973  -0.0012120   0.0001461   0.0004143  -0.0002195   0.0000290
    2  -0.0028644   0.0003600   0.0013058  -0.0000172   0.0003567   0.0007120
    3  -0.0025364   0.0009507  -0.0011285   0.0011400   0.0003944  -0.0002693
           13          14          15          16          17          18
    1   0.0001137   0.0000396   0.0000277  -0.0001266   0.0002993   0.0000940
    2  -0.0000240  -0.0012391   0.0000668  -0.0004826   0.0001733   0.0004088
    3  -0.0001715  -0.0002432   0.0004332  -0.0001670   0.0003548   0.0002695
           19          20          21          22          23          24
    1  -0.0001177   0.0000575  -0.0001204   0.0002141   0.0002165  -0.0000713
    2   0.0000332  -0.0003499  -0.0003810   0.0000222   0.0005657   0.0000189
    3  -0.0001031  -0.0009095   0.0006914  -0.0004162  -0.0001497  -0.0000320
           25          26          27          28          29          30
    1   0.0002892  -0.0000703  -0.0007133   0.0001943   0.0000179  -0.0000518
    2  -0.0002752  -0.0001234   0.0002460   0.0000730  -0.0000747   0.0000900
    3   0.0001232  -0.0002530  -0.0002865  -0.0001531  -0.0002361   0.0000230
           31          32          33          34          35          36
    1   0.0001654  -0.0001125  -0.0002275  -0.0002125  -0.0000940  -0.0001115
    2  -0.0001859   0.0008585   0.0003100   0.0000580   0.0000278  -0.0000660
    3  -0.0004187   0.0015488   0.0006603  -0.0006241   0.0000021   0.0002216
           37          38
    1   0.0002285  -0.0000760
    2  -0.0000065  -0.0001134
    3   0.0003713   0.0002018
 Max gradient component =       3.745E-03
 RMS gradient           =       7.108E-04
 Gradient time:  CPU 2514.95 s  wall 161.11 s
 Geometry Optimization Parameters
   NAtoms,    NIC,     NZ,  NCons,   NDum,   NFix, NCnnct, MaxDiis
       38     289       0       3       0       0       0       0

 Cartesian Hessian Update
 Hessian Updated using BFGS Update


** CONSTRAINED OPTIMIZATION IN DELOCALIZED INTERNAL COORDINATES **
   Searching for a Minimum

   Optimization Cycle:   2

                       Coordinates (Angstroms)
     ATOM                X               Y               Z
      1  C         8.0334830289    1.4851496767    0.4798802415
      2  C         7.1578140821    2.3226595480   -0.1927570609
      3  C         7.5564178654    0.3237214054    1.0678253774
      4  C         5.8159747836    1.9933321911   -0.2870033014
      5  C         6.2154440106   -0.0060483559    0.9762793446
      6  C         5.3276954052    0.8237097938    0.2946270099
      7  C         3.9032046282    0.4597380430    0.1536255599
      8  C         2.8987523629    1.3737871679    0.3288807153
      9  C         3.4664800694   -0.8560415539   -0.1693922008
     10  N         1.5716305501    1.1234371922    0.2186342449
     11  N         4.2328496327   -1.9262081513   -0.3935870482
     12  C         2.0673259368   -1.1357422207   -0.2899132876
     13  C         1.1350378442   -0.0703546448   -0.0777245895
     14  S         3.2268394745   -3.1406968902   -0.7201138002
     15  N         1.8063110318   -2.4059277820   -0.6014397879
     16  C        -0.3152052868   -0.2325548511   -0.1759733107
     17  N        -0.9512509478   -1.3452842813   -0.3720354228
     18  S        -1.3326766111    1.1681686962   -0.0181994548
     19  C        -2.2909689006   -1.1388076805   -0.4208909554
     20  C        -2.7080273589    0.1542994610   -0.2593171983
     21  C        -4.0702670197    0.6405569356   -0.2318615435
     22  S        -4.5035538486    2.2278647640   -0.7689042830
     23  C        -5.2016104135   -0.0117246732    0.1787802600
     24  C        -6.1622465883    2.0090451421   -0.4239251765
     25  S        -5.5192591136   -1.5867041497    0.8527734783
     26  C        -6.3974402381    0.7592124217    0.0765255040
     27  C        -7.2207769495   -1.1939268586    0.9875643738
     28  C        -7.5466632180    0.0344647676    0.5557591269
     29  H         9.0839757152    1.7342994652    0.5426329922
     30  H         7.5211495306    3.2322143575   -0.6511935271
     31  H         8.2331995354   -0.3332797775    1.5966166746
     32  H         5.1387643012    2.6502319924   -0.8161947574
     33  H         5.8509475001   -0.9127343644    1.4366401342
     34  H         3.1453152648    2.3960222540    0.5862812369
     35  H        -2.9523383199   -1.9734275553   -0.6001532401
     36  H        -6.8659412488    2.8037504389   -0.6019286605
     37  H        -7.8852123580   -1.9351148594    1.4011216931
     38  H        -8.5505611883    0.4289377072    0.5779688414
   Point Group: c1    Number of degrees of freedom:   108


   Energy is  -2579.862279607

              Constraints and their Current Values
                                        Value     Constraint
   Dihedral:        4   6   7   8      -45.000      -45.000
   Dihedral:       10  13  16  18        4.632        4.632
   Dihedral:       18  20  21  22       32.716       32.716
 Hessian Updated using BFGS Update

 98 Hessian modes will be used to form the next step
  Hessian Eigenvalues:
     0.022882    0.045000    0.045000    0.045000    0.045000    0.045000
     0.045001    0.045001    0.045001    0.045002    0.045002    0.045002
     0.045003    0.045004    0.045004    0.045005    0.045007    0.045007
     0.045008    0.045009    0.045021    0.045031    0.045038    0.045043
     0.047081    0.159226    0.159973    0.159978    0.159981    0.159983
     0.159991    0.159994    0.159998    0.160000    0.162706    0.219964
     0.219994    0.225218    0.233139    0.234693    0.235055    0.237033
     0.247475    0.248529    0.249747    0.249767    0.249848    0.249983
     0.249989    0.249992    0.249993    0.249997    0.249999    0.250000
     0.295056    0.296898    0.304627    0.308493    0.315703    0.324630
     0.337390    0.353622    0.356829    0.357266    0.357342    0.357725
     0.358467    0.358837    0.359868    0.361614    0.362481    0.365151
     0.365934    0.375006    0.381542    0.386888    0.389561    0.395128
     0.413562    0.430741    0.435847    0.472194    0.473172    0.474482
     0.479543    0.480443    0.482815    0.483825    0.486990    0.504865
     0.509448    0.519684    0.528954    0.543230    0.556328    0.580965
     0.639045    0.653765

 Minimum Search - Taking Simple RFO Step
 Searching for Lamda that Minimizes Along All modes
 Value Taken    Lamda =  -0.00051364
 Step Taken.  Stepsize is  0.144632

                             Maximum     Tolerance    Cnvgd?
         Gradient           0.001439      0.000300      NO
         Displacement       0.054759      0.001200      NO
         Energy change     -0.000761      0.000001      NO


 New Cartesian Coordinates Obtained by Inverse Iteration

 Displacement from previous Coordinates is:  0.480774
 ----------------------------------------------------------------
             Standard Nuclear Orientation (Angstroms)
    I     Atom           X                Y                Z
 ----------------------------------------------------------------
    1      C       8.0188159443     1.5109254041     0.5387638226
    2      C       7.1589397196     2.3225918021    -0.1843947167
    3      C       7.5391051980     0.3463994846     1.1183742644
    4      C       5.8267438892     1.9712012354    -0.3258880681
    5      C       6.2096423597    -0.0088616993     0.9734116508
    6      C       5.3339651679     0.8055998046     0.2576853116
    7      C       3.9093665240     0.4489777053     0.1158750774
    8      C       2.9095958816     1.3664293079     0.2877540093
    9      C       3.4671242031    -0.8700424896    -0.1939174587
   10      N       1.5808334340     1.1205114242     0.1794293113
   11      N       4.2300500656    -1.9429124941    -0.4168593953
   12      C       2.0663638249    -1.1442216454    -0.3172426033
   13      C       1.1389019390    -0.0729343000    -0.1101866659
   14      S       3.2179537349    -3.1516732296    -0.7406748259
   15      N       1.7996760370    -2.4133313559    -0.6269321152
   16      C      -0.3128894971    -0.2304914229    -0.1914305590
   17      N      -0.9550002016    -1.3414003873    -0.3803699739
   18      S      -1.3246865821     1.1725929928    -0.0242037886
   19      C      -2.2941709336    -1.1307879168    -0.4143423060
   20      C      -2.7058754029     0.1638049013    -0.2490452195
   21      C      -4.0673028057     0.6514341642    -0.2095749058
   22      S      -4.5055052626     2.2369817299    -0.7454951736
   23      C      -5.1971705943    -0.0049502981     0.2012833792
   24      C      -6.1626626329     2.0140097443    -0.4000238376
   25      S      -5.5128661443    -1.5836431973     0.8652748244
   26      C      -6.3949591494     0.7630482579     0.0988731233
   27      C      -7.2155595662    -1.1983725088     0.9939248134
   28      C      -7.5437677520     0.0322486275     0.5696341297
   29      H       9.0607073382     1.7808690510     0.6453385886
   30      H       7.5291424473     3.2276188727    -0.6455870591
   31      H       8.2018109034    -0.2892629991     1.6888571280
   32      H       5.1654761265     2.5988919814    -0.9085135505
   33      H       5.8416688071    -0.9162227949     1.4282495394
   34      H       3.1592488248     2.3846914721     0.5588795119
   35      H      -2.9585460769    -1.9643343844    -0.5865801660
   36      H      -6.8672819325     2.8067458698    -0.5841230606
   37      H      -7.8833118736    -1.9458549030     1.3904321900
   38      H      -8.5489630179     0.4237489644     0.5832529767
 ----------------------------------------------------------------
 Molecular Point Group                 C1    NOp =  1
 Largest Abelian Subgroup              C1    NOp =  1
 Nuclear Repulsion Energy =  2866.5457457905 hartrees
 There are      111 alpha and      111 beta electrons
 Applying Cartesian multipole field
    Component          Value
    ---------          -----
     (2,0,0)        1.00000E-12
     (0,2,0)        2.00000E-11
     (0,0,2)       -3.00000E-11
 Nucleus-field energy     =     0.0000000513 hartrees
 Requested basis set is cc-pVTZ
 There are 348 shells and 996 basis functions
 A cutoff of  1.0D-11 yielded  28539 shell pairs
 There are    225963 function pairs (    295236 Cartesian)
 Smallest overlap matrix eigenvalue = 3.10E-05
 Guess MOs from SCF MO coefficient file
 Reading MOs from coefficient file
 Reading MOs from coefficient file
 Long-range K will be added via erf
 Coulomb attenuation parameter = 0.2 bohr**(-1)
 A restricted hybrid HF-DFT SCF calculation will be
 performed using Pulay DIIS extrapolation
 Exchange:     0.2220 Hartree-Fock + 1.0000 wB97X-D + LR-HF
 Correlation:  1.0000 wB97X-D
 Using SG-2 standard quadrature grid
 Dispersion:   Grimme D
 SCF converges when DIIS error is below 1.0E-08
 Geometry optimization detected.  Setting ReadMinima to 0
 Setting SaveMinima to 0
 using 16 threads for integral computing 
 using 16 threads for integral computing 
 K construction time:  CPU 997.03 s  wall 65.30 s
 -------------------------------------------------------
 OpenMP BLAS3 based DFT computing Module                
 Release: version 1.0, May 2013, Q-Chem Inc. Pittsburgh 
 -------------------------------------------------------
 ---------------------------------------
  Cycle       Energy         DIIS Error
 ---------------------------------------
    1   -2579.8627067142      2.79E-04
 K construction time:  CPU 998.25 s  wall 65.23 s
    2   -2579.8622433470      3.01E-05
 K construction time:  CPU 726.04 s  wall 47.52 s
    3   -2579.8625183781      1.66E-05
 K construction time:  CPU 685.21 s  wall 44.88 s
    4   -2579.8625517146      1.14E-05
 K construction time:  CPU 662.45 s  wall 43.49 s
    5   -2579.8625686197      5.03E-06
 K construction time:  CPU 609.42 s  wall 39.89 s
    6   -2579.8625719317      1.70E-06
 K construction time:  CPU 536.23 s  wall 35.19 s
    7   -2579.8625722895      5.16E-07
 K construction time:  CPU 489.04 s  wall 32.03 s
    8   -2579.8625723252      2.14E-07
 K construction time:  CPU 450.15 s  wall 29.39 s
    9   -2579.8625723335      7.37E-08
 K construction time:  CPU 369.61 s  wall 24.16 s
   10   -2579.8625723339      2.20E-08
 K construction time:  CPU 344.69 s  wall 22.44 s
   11   -2579.8625723346      1.00E-08
 K construction time:  CPU 293.05 s  wall 19.01 s
   12   -2579.8625723373      5.02E-09 Convergence criterion met
 ---------------------------------------
 SCF time:  CPU 9774.59 s  wall 654.66 s
 SCF   energy in the final basis set = -2579.8625723373
 Total energy in the final basis set = -2579.8625723373
 
 --------------------------------------------------------------
 
                    Orbital Energies (a.u.)
 --------------------------------------------------------------
 
 Alpha MOs
 -- Occupied --
-89.149 -89.090 -89.086 -89.078 -14.485 -14.481 -14.454 -14.443
-10.365 -10.362 -10.357 -10.355 -10.343 -10.342 -10.335 -10.333
-10.330 -10.327 -10.325 -10.322 -10.313 -10.312 -10.305 -10.298
-10.296 -10.295 -10.295 -10.294  -8.159  -8.105  -8.102  -8.093
 -6.109  -6.103  -6.103  -6.054  -6.051  -6.050  -6.048  -6.047
 -6.045  -6.043  -6.039  -6.035  -1.146  -1.086  -1.064  -1.023
 -1.010  -0.974  -0.959  -0.925  -0.919  -0.899  -0.876  -0.860
 -0.855  -0.833  -0.828  -0.802  -0.775  -0.745  -0.734  -0.712
 -0.705  -0.693  -0.691  -0.660  -0.651  -0.637  -0.626  -0.615
 -0.606  -0.598  -0.572  -0.564  -0.556  -0.548  -0.541  -0.531
 -0.530  -0.524  -0.514  -0.514  -0.507  -0.503  -0.498  -0.486
 -0.477  -0.475  -0.469  -0.455  -0.449  -0.439  -0.435  -0.434
 -0.430  -0.423  -0.421  -0.399  -0.393  -0.373  -0.368  -0.362
 -0.359  -0.353  -0.339  -0.338  -0.324  -0.306  -0.272
 -- Virtual --
 -0.050   0.001   0.027   0.042   0.053   0.057   0.067   0.072
  0.084   0.089   0.107   0.114   0.118   0.125   0.131   0.138
  0.140   0.144   0.149   0.156   0.160   0.164   0.170   0.178
  0.190   0.192   0.196   0.199   0.219   0.221   0.234   0.238
  0.242   0.249   0.259   0.267   0.274   0.282   0.287   0.290
  0.297   0.303   0.304   0.308   0.312   0.316   0.322   0.326
  0.328   0.331   0.336   0.340   0.346   0.349   0.352   0.354
  0.357   0.363   0.370   0.371   0.379   0.382   0.387   0.387
  0.389   0.391   0.396   0.399   0.405   0.406   0.408   0.411
  0.414   0.418   0.421   0.428   0.430   0.434   0.437   0.441
  0.441   0.445   0.449   0.453   0.454   0.462   0.464   0.466
  0.468   0.469   0.471   0.474   0.478   0.480   0.485   0.488
  0.493   0.496   0.500   0.503   0.505   0.509   0.512   0.518
  0.522   0.526   0.528   0.530   0.532   0.543   0.545   0.554
  0.556   0.559   0.563   0.564   0.566   0.571   0.573   0.580
  0.582   0.592   0.595   0.603   0.608   0.616   0.620   0.626
  0.630   0.633   0.638   0.642   0.649   0.654   0.658   0.665
  0.670   0.677   0.679   0.682   0.693   0.700   0.707   0.715
  0.718   0.726   0.727   0.731   0.737   0.741   0.745   0.753
  0.754   0.762   0.769   0.769   0.771   0.775   0.778   0.781
  0.784   0.794   0.797   0.799   0.803   0.812   0.817   0.820
  0.825   0.834   0.837   0.843   0.847   0.851   0.855   0.858
  0.866   0.866   0.875   0.879   0.882   0.886   0.892   0.897
  0.902   0.905   0.908   0.915   0.923   0.927   0.930   0.934
  0.942   0.945   0.953   0.957   0.959   0.963   0.967   0.971
  0.978   0.980   0.987   0.989   0.995   1.005   1.015   1.018
  1.023   1.033   1.038   1.042   1.047   1.049   1.056   1.059
  1.063   1.073   1.076   1.082   1.083   1.093   1.100   1.105
  1.110   1.117   1.119   1.127   1.131   1.137   1.146   1.154
  1.160   1.166   1.168   1.176   1.181   1.194   1.202   1.203
  1.210   1.216   1.223   1.226   1.237   1.242   1.245   1.252
  1.255   1.261   1.271   1.275   1.277   1.287   1.295   1.299
  1.314   1.318   1.328   1.339   1.348   1.351   1.360   1.364
  1.368   1.369   1.382   1.385   1.389   1.397   1.404   1.408
  1.418   1.421   1.422   1.435   1.437   1.446   1.448   1.454
  1.460   1.463   1.472   1.476   1.481   1.486   1.488   1.489
  1.491   1.497   1.515   1.516   1.520   1.539   1.541   1.549
  1.559   1.564   1.573   1.576   1.584   1.591   1.604   1.606
  1.614   1.618   1.626   1.627   1.636   1.643   1.651   1.653
  1.660   1.664   1.667   1.673   1.677   1.685   1.692   1.694
  1.703   1.706   1.711   1.716   1.728   1.734   1.740   1.747
  1.753   1.760   1.769   1.774   1.778   1.785   1.790   1.801
  1.824   1.832   1.835   1.843   1.850   1.876   1.881   1.887
  1.890   1.903   1.906   1.912   1.930   1.932   1.936   1.939
  1.950   1.958   1.968   1.975   1.978   1.982   1.999   2.006
  2.014   2.023   2.025   2.030   2.037   2.041   2.043   2.065
  2.073   2.080   2.085   2.091   2.102   2.107   2.116   2.123
  2.133   2.141   2.149   2.159   2.163   2.170   2.172   2.181
  2.193   2.202   2.207   2.212   2.217   2.231   2.240   2.245
  2.250   2.258   2.263   2.271   2.275   2.282   2.291   2.301
  2.319   2.327   2.334   2.337   2.338   2.349   2.352   2.358
  2.367   2.375   2.391   2.394   2.399   2.408   2.420   2.423
  2.434   2.442   2.449   2.452   2.456   2.466   2.468   2.478
  2.482   2.489   2.492   2.497   2.503   2.506   2.508   2.526
  2.530   2.535   2.542   2.557   2.558   2.562   2.572   2.583
  2.591   2.595   2.602   2.607   2.611   2.622   2.637   2.639
  2.646   2.654   2.661   2.671   2.675   2.680   2.696   2.713
  2.715   2.721   2.732   2.739   2.751   2.753   2.762   2.772
  2.776   2.778   2.783   2.784   2.786   2.801   2.806   2.807
  2.815   2.825   2.828   2.833   2.837   2.840   2.848   2.852
  2.859   2.874   2.887   2.894   2.898   2.903   2.909   2.913
  2.929   2.932   2.934   2.945   2.960   2.964   2.968   2.975
  2.976   2.986   2.994   2.997   3.001   3.006   3.013   3.017
  3.020   3.023   3.034   3.039   3.041   3.046   3.058   3.062
  3.067   3.072   3.076   3.079   3.080   3.086   3.091   3.092
  3.104   3.107   3.110   3.114   3.118   3.123   3.129   3.132
  3.138   3.147   3.149   3.151   3.154   3.159   3.165   3.168
  3.177   3.179   3.183   3.187   3.189   3.192   3.199   3.207
  3.211   3.217   3.217   3.221   3.228   3.233   3.234   3.239
  3.252   3.257   3.259   3.264   3.270   3.276   3.282   3.284
  3.284   3.291   3.295   3.299   3.303   3.306   3.310   3.320
  3.327   3.328   3.331   3.334   3.343   3.348   3.355   3.356
  3.366   3.368   3.378   3.384   3.389   3.397   3.399   3.406
  3.417   3.421   3.426   3.432   3.435   3.446   3.453   3.457
  3.460   3.463   3.468   3.474   3.475   3.478   3.483   3.495
  3.498   3.503   3.510   3.516   3.530   3.532   3.538   3.550
  3.550   3.563   3.568   3.569   3.574   3.580   3.589   3.595
  3.600   3.609   3.618   3.623   3.634   3.644   3.663   3.673
  3.687   3.689   3.699   3.706   3.716   3.722   3.734   3.734
  3.745   3.752   3.769   3.769   3.777   3.780   3.786   3.794
  3.798   3.810   3.814   3.831   3.839   3.846   3.853   3.855
  3.858   3.861   3.864   3.866   3.878   3.883   3.886   3.888
  3.891   3.901   3.908   3.921   3.931   3.939   3.945   3.947
  3.955   3.964   3.966   3.972   3.975   3.979   3.985   3.992
  3.997   4.014   4.017   4.028   4.029   4.039   4.053   4.066
  4.077   4.079   4.082   4.096   4.098   4.127   4.130   4.137
  4.142   4.152   4.161   4.166   4.170   4.176   4.185   4.191
  4.195   4.211   4.215   4.224   4.234   4.241   4.253   4.257
  4.269   4.273   4.279   4.287   4.302   4.315   4.323   4.325
  4.334   4.346   4.347   4.355   4.365   4.376   4.384   4.387
  4.393   4.397   4.405   4.411   4.421   4.427   4.430   4.434
  4.444   4.449   4.456   4.468   4.488   4.501   4.512   4.521
  4.525   4.536   4.553   4.563   4.571   4.580   4.593   4.601
  4.608   4.619   4.627   4.635   4.646   4.660   4.672   4.682
  4.685   4.718   4.724   4.738   4.748   4.749   4.779   4.779
  4.792   4.810   4.819   4.828   4.830   4.842   4.843   4.854
  4.860   4.867   4.882   4.891   4.899   4.911   4.922   4.932
  4.947   4.953   4.956   4.968   4.990   4.996   5.006   5.011
  5.028   5.042   5.051   5.067   5.073   5.080   5.087   5.094
  5.098   5.110   5.114   5.121   5.124   5.130   5.141   5.170
  5.187   5.192   5.215   5.244   5.246   5.252   5.266   5.270
  5.278   5.303   5.326   5.338   5.348   5.368   5.381   5.393
  5.399   5.430   5.446   5.466   5.506   5.518   5.524   5.540
  5.566   5.592   5.596   5.628   5.638   5.665   5.675   5.694
  5.730   5.739   5.768   5.797   5.821   5.830   5.838   5.869
  5.880   5.966   5.999   6.018   6.031   6.044   6.048   6.114
  6.142   6.155   6.177   6.192   6.214   6.237   6.250   6.305
  6.367   6.485   6.517   6.854   6.986   8.032   8.567   9.441
 10.112  10.715  11.128  11.147  11.681  12.015  12.307  12.618
 12.733  12.858  12.928  12.955  13.158  13.400  13.474  13.790
 13.840  13.946  14.129  14.662  15.705
 --------------------------------------------------------------
 
          Ground-State Mulliken Net Atomic Charges

     Atom                 Charge (a.u.)
  ----------------------------------------
      1 C                    -0.124134
      2 C                    -0.109522
      3 C                    -0.109884
      4 C                    -0.149624
      5 C                    -0.120350
      6 C                     0.122457
      7 C                     0.015696
      8 C                    -0.110551
      9 C                     0.033993
     10 N                    -0.174271
     11 N                    -0.282605
     12 C                    -0.013674
     13 C                     0.109494
     14 S                     0.412591
     15 N                    -0.222147
     16 C                    -0.008758
     17 N                    -0.137374
     18 S                     0.121253
     19 C                    -0.145610
     20 C                    -0.016769
     21 C                     0.004393
     22 S                     0.133750
     23 C                    -0.051418
     24 C                    -0.220233
     25 S                     0.057900
     26 C                     0.042903
     27 C                    -0.146474
     28 C                    -0.172202
     29 H                     0.117979
     30 H                     0.115092
     31 H                     0.114913
     32 H                     0.126985
     33 H                     0.114069
     34 H                     0.135599
     35 H                     0.145650
     36 H                     0.129938
     37 H                     0.132969
     38 H                     0.127974
  ----------------------------------------
  Sum of atomic charges =     0.000000

 -----------------------------------------------------------------
                    Cartesian Multipole Moments
 -----------------------------------------------------------------
    Charge (ESU x 10^10)
                 0.0000
    Dipole Moment (Debye)
         X      -0.7884      Y       0.8794      Z       0.2597
       Tot       1.2093
    Quadrupole Moments (Debye-Ang)
        XX    -139.8971     XY      -0.1819     YY    -176.4899
        XZ       0.0730     YZ      -5.0433     ZZ    -187.8631
    Octopole Moments (Debye-Ang^2)
       XXX    -157.7715    XXY      45.9239    XYY       3.4120
       YYY     -13.5367    XXZ      51.9278    XYZ       2.9285
       YYZ     -10.2596    XZZ      10.1780    YZZ     -13.9958
       ZZZ      -6.6446
    Hexadecapole Moments (Debye-Ang^3)
      XXXX  -21240.3712   XXXY     176.9588   XXYY   -4204.6345
      XYYY    -101.3404   YYYY   -2806.7440   XXXZ      38.9095
      XXYZ    -256.7952   XYYZ     -49.7585   YYYZ     -28.3637
      XXZZ   -4391.6054   XYZZ     -35.0809   YYZZ    -582.8550
      XZZZ      18.6918   YZZZ      -3.6453   ZZZZ    -582.2534
 -----------------------------------------------------------------
 Calculating analytic gradient of the SCF energy
 K construction time:  CPU 2104.62 s  wall 133.49 s
 Gradient of SCF Energy
            1           2           3           4           5           6
    1  -0.0000878  -0.0003399   0.0002515   0.0003126   0.0003157  -0.0005593
    2  -0.0002582   0.0003778   0.0001835  -0.0007464  -0.0007229   0.0005702
    3   0.0000950  -0.0001004   0.0002999  -0.0009688  -0.0008811   0.0020223
            7           8           9          10          11          12
    1   0.0002976  -0.0002167   0.0005608   0.0000970   0.0003018  -0.0001248
    2   0.0008769  -0.0005484  -0.0004100   0.0001426  -0.0002417  -0.0003952
    3  -0.0013284  -0.0002464   0.0003685   0.0008727  -0.0000925  -0.0005801
           13          14          15          16          17          18
    1   0.0000197  -0.0003105  -0.0003347   0.0000925  -0.0001035   0.0000999
    2  -0.0001564   0.0010136  -0.0002297  -0.0000176   0.0000090  -0.0001251
    3  -0.0009764   0.0002610   0.0001519   0.0006245   0.0002356   0.0001278
           19          20          21          22          23          24
    1  -0.0001889   0.0000412   0.0001704  -0.0002095  -0.0000747   0.0001474
    2   0.0001283   0.0000457   0.0001850  -0.0002179  -0.0001616  -0.0002271
    3  -0.0000602  -0.0009821   0.0006621  -0.0004178   0.0002474   0.0003168
           25          26          27          28          29          30
    1   0.0000070  -0.0000812   0.0001317  -0.0000849   0.0001200   0.0000507
    2   0.0002188  -0.0000291  -0.0001230  -0.0000102  -0.0001023  -0.0001445
    3  -0.0000139  -0.0004478  -0.0000348   0.0003075  -0.0002223   0.0000991
           31          32          33          34          35          36
    1  -0.0001579   0.0001334  -0.0000419  -0.0002920   0.0001433  -0.0000297
    2   0.0001140   0.0002470   0.0005061  -0.0000068  -0.0000152   0.0001059
    3  -0.0000332   0.0001394   0.0001657   0.0005575  -0.0000386  -0.0000966
           37          38
    1  -0.0000534  -0.0000030
    2   0.0000717   0.0000931
    3   0.0000311  -0.0000644
 Max gradient component =       2.022E-03
 RMS gradient           =       4.154E-04
 Gradient time:  CPU 2527.98 s  wall 162.06 s
 Geometry Optimization Parameters
   NAtoms,    NIC,     NZ,  NCons,   NDum,   NFix, NCnnct, MaxDiis
       38     289       0       3       0       0       0       0

 Cartesian Hessian Update
 Hessian Updated using BFGS Update


** CONSTRAINED OPTIMIZATION IN DELOCALIZED INTERNAL COORDINATES **
   Searching for a Minimum

   Optimization Cycle:   3

                       Coordinates (Angstroms)
     ATOM                X               Y               Z
      1  C         8.0188159443    1.5109254041    0.5387638226
      2  C         7.1589397196    2.3225918021   -0.1843947167
      3  C         7.5391051980    0.3463994846    1.1183742644
      4  C         5.8267438892    1.9712012354   -0.3258880681
      5  C         6.2096423597   -0.0088616993    0.9734116508
      6  C         5.3339651679    0.8055998046    0.2576853116
      7  C         3.9093665240    0.4489777053    0.1158750774
      8  C         2.9095958816    1.3664293079    0.2877540093
      9  C         3.4671242031   -0.8700424896   -0.1939174587
     10  N         1.5808334340    1.1205114242    0.1794293113
     11  N         4.2300500656   -1.9429124941   -0.4168593953
     12  C         2.0663638249   -1.1442216454   -0.3172426033
     13  C         1.1389019390   -0.0729343000   -0.1101866659
     14  S         3.2179537349   -3.1516732296   -0.7406748259
     15  N         1.7996760370   -2.4133313559   -0.6269321152
     16  C        -0.3128894971   -0.2304914229   -0.1914305590
     17  N        -0.9550002016   -1.3414003873   -0.3803699739
     18  S        -1.3246865821    1.1725929928   -0.0242037886
     19  C        -2.2941709336   -1.1307879168   -0.4143423060
     20  C        -2.7058754029    0.1638049013   -0.2490452195
     21  C        -4.0673028057    0.6514341642   -0.2095749058
     22  S        -4.5055052626    2.2369817299   -0.7454951736
     23  C        -5.1971705943   -0.0049502981    0.2012833792
     24  C        -6.1626626329    2.0140097443   -0.4000238376
     25  S        -5.5128661443   -1.5836431973    0.8652748244
     26  C        -6.3949591494    0.7630482579    0.0988731233
     27  C        -7.2155595662   -1.1983725088    0.9939248134
     28  C        -7.5437677520    0.0322486275    0.5696341297
     29  H         9.0607073382    1.7808690510    0.6453385886
     30  H         7.5291424473    3.2276188727   -0.6455870591
     31  H         8.2018109034   -0.2892629991    1.6888571280
     32  H         5.1654761265    2.5988919814   -0.9085135505
     33  H         5.8416688071   -0.9162227949    1.4282495394
     34  H         3.1592488248    2.3846914721    0.5588795119
     35  H        -2.9585460769   -1.9643343844   -0.5865801660
     36  H        -6.8672819325    2.8067458698   -0.5841230606
     37  H        -7.8833118736   -1.9458549030    1.3904321900
     38  H        -8.5489630179    0.4237489644    0.5832529767
   Point Group: c1    Number of degrees of freedom:   108


   Energy is  -2579.862572337

              Constraints and their Current Values
                                        Value     Constraint
   Dihedral:        4   6   7   8      -45.000      -45.000
   Dihedral:       10  13  16  18        4.632        4.632
   Dihedral:       18  20  21  22       32.716       32.716
 Hessian Updated using BFGS Update

100 Hessian modes will be used to form the next step
  Hessian Eigenvalues:
     0.018608    0.045000    0.045000    0.045000    0.045000    0.045000
     0.045000    0.045000    0.045000    0.045001    0.045001    0.045001
[...]
     32  H         5.1821180089    2.5786422443   -0.9439090095
     33  H         5.8282296768   -0.9165407655    1.4309435189
     34  H         3.1717414741    2.3859858280    0.5052128449
     35  H        -2.9618347035   -1.9626072202   -0.5695730904
     36  H        -6.8684188237    2.8068381772   -0.5714306061
     37  H        -7.8774943353   -1.9502690541    1.3954488210
     38  H        -8.5465295809    0.4197131017    0.5939638356
   Point Group: c1    Number of degrees of freedom:   108


   Energy is  -2579.862621754

              Constraints and their Current Values
                                        Value     Constraint
   Dihedral:        4   6   7   8      -45.000      -45.000
   Dihedral:       10  13  16  18        4.632        4.632
   Dihedral:       18  20  21  22       32.716       32.716
 Hessian Updated using BFGS Update

102 Hessian modes will be used to form the next step
  Hessian Eigenvalues:
     0.013453    0.021042    0.038612    0.045000    0.045000    0.045000
     0.045000    0.045000    0.045000    0.045000    0.045000    0.045001
     0.045001    0.045001    0.045002    0.045002    0.045004    0.045004
     0.045005    0.045007    0.045007    0.045008    0.045020    0.045025
     0.045037    0.045038    0.045080    0.045602    0.047601    0.157914
     0.159841    0.159960    0.159984    0.159989    0.159991    0.159995
     0.160076    0.160202    0.162541    0.219948    0.220432    0.225228
     0.232589    0.234707    0.235492    0.237046    0.243664    0.247566
     0.248437    0.249667    0.249840    0.249930    0.249965    0.249993
     0.249997    0.251226    0.254055    0.280966    0.296335    0.304294
     0.308338    0.315495    0.324130    0.337261    0.346848    0.354045
     0.356885    0.357352    0.357421    0.358005    0.358479    0.359589
     0.360143    0.361651    0.362486    0.365282    0.366082    0.381570
     0.387574    0.389596    0.394290    0.411424    0.430578    0.434998
     0.436513    0.473113    0.474716    0.476642    0.479552    0.480973
     0.483444    0.484743    0.487392    0.504813    0.509589    0.521915
     0.530337    0.543256    0.556743    0.637424    0.653959    0.665019

 Minimum Search - Taking Simple RFO Step
 Searching for Lamda that Minimizes Along All modes
 Value Taken    Lamda =   0.00000000
 Step Taken.  Stepsize is  0.003995

                             Maximum     Tolerance    Cnvgd?
         Gradient           0.000032      0.000300     YES
         Displacement       0.001443      0.001200      NO
         Energy change     -0.000001      0.000001     YES

 Final energy is   -2579.86262175437     


 ******************************
 **  OPTIMIZATION CONVERGED  **
 ******************************

                       Coordinates (Angstroms)
     ATOM                X               Y               Z
      1  C         8.0090971747    1.5213843402    0.5775560437
      2  C         7.1619073977    2.3213744464   -0.1726062281
      3  C         7.5237676254    0.3562502749    1.1520211368
      4  C         5.8349143297    1.9613916538   -0.3408772986
      5  C         6.1993531448   -0.0066583262    0.9825254903
      6  C         5.3361276274    0.7976375709    0.2407151075
      7  C         3.9123181319    0.4417400849    0.0877839888
      8  C         2.9163742401    1.3650134894    0.2507880194
      9  C         3.4662705963   -0.8762524135   -0.2170238079
     10  N         1.5866608973    1.1222133611    0.1443667728
     11  N         4.2269941074   -1.9514779649   -0.4355719461
     12  C         2.0654483547   -1.1472342775   -0.3378168332
     13  C         1.1410042879   -0.0721190496   -0.1346808906
     14  S         3.2130969655   -3.1600114403   -0.7569711766
     15  N         1.7967054311   -2.4166234461   -0.6451144293
     16  C        -0.3115061752   -0.2290410639   -0.2036048510
     17  N        -0.9554804230   -1.3403367436   -0.3836682626
     18  S        -1.3210084475    1.1758618878   -0.0366636542
     19  C        -2.2947182006   -1.1290351786   -0.4078437053
     20  C        -2.7042859736    0.1668731134   -0.2461687327
     21  C        -4.0647476220    0.6559870054   -0.1969452383
     22  S        -4.5053527597    2.2402912342   -0.7351827113
     23  C        -5.1934395531   -0.0016590732    0.2144361145
     24  C        -6.1621822485    2.0155949026   -0.3881025111
     25  S        -5.5074311720   -1.5827486894    0.8746261320
     26  C        -6.3921136401    0.7649662056    0.1131374820
     27  C        -7.2108371031   -1.2000285489    1.0023062963
     28  C        -7.5403078788    0.0309789450    0.5802591125
     29  H         9.0452803811    1.8008257219    0.7107254051
     30  H         7.5361689000    3.2257044961   -0.6324297905
     31  H         8.1787228324   -0.2726000581    1.7392768538
     32  H         5.1821180089    2.5786422443   -0.9439090095
     33  H         5.8282296768   -0.9165407655    1.4309435189
     34  H         3.1717414741    2.3859858280    0.5052128449
     35  H        -2.9618347035   -1.9626072202   -0.5695730904
     36  H        -6.8684188237    2.8068381772   -0.5714306061
     37  H        -7.8774943353   -1.9502690541    1.3954488210
     38  H        -8.5465295809    0.4197131017    0.5939638356

Z-matrix Print:
$molecule
0 1
S 
C  1 1.724937
C  2 1.368672 1 109.160698
H  3 1.079835 2 124.313782 1 179.236401 0
N  3 1.356020 2 116.166155 1 0.557750 0
C  5 1.296959 3 111.059559 2 -0.088807 0
C  2 1.446552 1 123.524078 3 -177.769673 0
C  7 1.369554 2 128.531237 1 149.387510 0
C  8 1.426463 7 114.401456 2 178.859196 0
C  9 1.366815 8 112.112611 7 -0.304079 0
H  10 1.076311 9 128.662659 8 179.819771 0
C  9 1.440587 8 111.894895 7 179.013411 0
H  12 1.078788 9 124.328779 8 -179.950194 0
C  12 1.342406 9 111.934856 8 -0.093117 0
H  14 1.077893 12 126.951612 9 179.810769 0
C  6 1.462587 5 126.269171 3 179.475135 0
N  16 1.304955 6 116.578962 5 175.458446 0
C  17 1.355882 16 121.037263 6 -178.989023 0
H  18 1.082741 17 114.746227 16 178.810080 0
C  18 1.367812 17 125.721760 16 -0.052597 0
C  20 1.424419 18 114.964674 17 0.106781 0
N  21 1.335131 20 126.996692 18 -179.301949 0
C  21 1.431896 20 119.967378 18 -0.341744 0
N  23 1.333418 21 113.376504 20 -179.045874 0
C  20 1.475562 18 121.832240 17 179.200918 0
C  25 1.393327 20 120.239706 18 45.000041 0
H  26 1.082030 25 119.545941 20 2.833021 0
C  26 1.385212 25 120.616387 20 -178.277139 0
H  28 1.081352 26 119.817292 25 -179.803285 0
C  28 1.385806 26 120.091205 25 -0.116471 0
H  30 1.081433 28 120.214959 26 179.962462 0
C  30 1.386756 28 119.690101 26 -0.352609 0
H  32 1.081336 30 120.106335 28 179.955200 0
C  32 1.383656 30 120.305561 28 0.203169 0
H  34 1.080138 32 119.931446 30 -179.871854 0
S  24 1.603528 23 106.223593 21 -0.124913 0
S  10 1.707641 9 110.986809 8 -0.288291 0
S  8 1.741920 7 134.286909 2 -2.513517 0
$end

 
 --------------------------------------------------------------
 
                    Orbital Energies (a.u.)
 --------------------------------------------------------------
 
 Alpha MOs
 -- Occupied --
-89.149 -89.090 -89.086 -89.078 -14.485 -14.481 -14.454 -14.443
-10.365 -10.362 -10.357 -10.355 -10.343 -10.342 -10.335 -10.333
-10.330 -10.327 -10.324 -10.322 -10.313 -10.312 -10.305 -10.298
-10.296 -10.295 -10.295 -10.294  -8.159  -8.105  -8.102  -8.093
 -6.109  -6.104  -6.103  -6.054  -6.051  -6.050  -6.048  -6.047
 -6.045  -6.043  -6.039  -6.035  -1.146  -1.086  -1.064  -1.023
 -1.010  -0.974  -0.959  -0.925  -0.920  -0.899  -0.877  -0.860
 -0.855  -0.833  -0.828  -0.802  -0.775  -0.744  -0.734  -0.712
 -0.705  -0.693  -0.691  -0.660  -0.651  -0.637  -0.626  -0.614
 -0.606  -0.598  -0.571  -0.564  -0.556  -0.548  -0.542  -0.531
 -0.530  -0.524  -0.514  -0.514  -0.507  -0.503  -0.498  -0.486
 -0.477  -0.476  -0.469  -0.455  -0.449  -0.440  -0.435  -0.434
 -0.430  -0.423  -0.421  -0.399  -0.393  -0.373  -0.368  -0.362
 -0.359  -0.353  -0.339  -0.338  -0.324  -0.306  -0.272
 -- Virtual --
 -0.050   0.001   0.027   0.043   0.053   0.057   0.067   0.072
  0.083   0.089   0.107   0.115   0.118   0.125   0.131   0.138
  0.140   0.144   0.149   0.156   0.160   0.164   0.170   0.178
  0.190   0.192   0.196   0.199   0.219   0.221   0.234   0.238
  0.242   0.249   0.259   0.268   0.274   0.282   0.287   0.290
  0.297   0.303   0.304   0.309   0.312   0.315   0.322   0.326
  0.328   0.331   0.336   0.340   0.346   0.349   0.352   0.355
  0.357   0.363   0.370   0.371   0.379   0.382   0.387   0.387
  0.389   0.391   0.396   0.399   0.405   0.406   0.408   0.411
  0.414   0.418   0.421   0.428   0.430   0.433   0.437   0.441
  0.441   0.445   0.448   0.453   0.454   0.462   0.464   0.465
  0.468   0.469   0.471   0.474   0.478   0.480   0.485   0.487
  0.493   0.496   0.500   0.503   0.505   0.509   0.512   0.518
  0.522   0.526   0.528   0.530   0.532   0.543   0.546   0.553
  0.556   0.559   0.563   0.564   0.566   0.571   0.573   0.580
  0.582   0.592   0.595   0.603   0.607   0.616   0.621   0.626
  0.630   0.633   0.638   0.642   0.649   0.653   0.658   0.665
  0.671   0.677   0.679   0.682   0.692   0.701   0.707   0.715
  0.718   0.727   0.727   0.731   0.737   0.741   0.745   0.753
  0.753   0.762   0.768   0.769   0.770   0.775   0.778   0.781
  0.784   0.795   0.797   0.800   0.803   0.813   0.817   0.820
  0.825   0.834   0.838   0.843   0.847   0.851   0.855   0.858
  0.865   0.866   0.875   0.879   0.882   0.886   0.892   0.897
  0.902   0.906   0.908   0.916   0.923   0.926   0.930   0.934
  0.942   0.945   0.953   0.956   0.959   0.963   0.967   0.971
  0.978   0.980   0.986   0.989   0.995   1.005   1.014   1.017
  1.023   1.033   1.037   1.042   1.047   1.049   1.056   1.059
  1.063   1.073   1.078   1.082   1.083   1.093   1.100   1.105
  1.110   1.116   1.119   1.127   1.132   1.137   1.146   1.155
  1.159   1.166   1.168   1.176   1.181   1.194   1.202   1.202
  1.210   1.216   1.223   1.226   1.237   1.241   1.245   1.252
  1.256   1.260   1.271   1.276   1.277   1.287   1.295   1.299
  1.314   1.319   1.328   1.338   1.348   1.351   1.359   1.364
  1.368   1.369   1.382   1.385   1.389   1.397   1.403   1.408
  1.418   1.420   1.422   1.435   1.437   1.446   1.448   1.453
  1.460   1.463   1.472   1.475   1.481   1.485   1.488   1.489
  1.491   1.496   1.516   1.516   1.520   1.538   1.542   1.550
  1.560   1.564   1.573   1.576   1.584   1.591   1.604   1.606
  1.614   1.618   1.626   1.627   1.636   1.644   1.651   1.653
  1.660   1.664   1.667   1.672   1.678   1.684   1.692   1.694
  1.702   1.706   1.711   1.716   1.727   1.734   1.741   1.747
  1.753   1.761   1.769   1.774   1.778   1.785   1.790   1.801
  1.824   1.832   1.836   1.843   1.850   1.876   1.881   1.887
  1.889   1.902   1.906   1.912   1.930   1.932   1.936   1.939
  1.950   1.958   1.968   1.975   1.978   1.983   1.999   2.006
  2.014   2.023   2.025   2.030   2.037   2.041   2.043   2.065
  2.072   2.081   2.085   2.091   2.102   2.107   2.115   2.123
  2.133   2.142   2.149   2.158   2.163   2.170   2.172   2.182
  2.191   2.202   2.207   2.212   2.217   2.230   2.240   2.245
  2.250   2.258   2.262   2.271   2.275   2.282   2.290   2.301
  2.318   2.327   2.334   2.336   2.338   2.349   2.353   2.358
  2.367   2.374   2.392   2.394   2.399   2.408   2.420   2.424
  2.434   2.442   2.449   2.451   2.456   2.466   2.468   2.478
  2.483   2.489   2.493   2.497   2.503   2.505   2.508   2.526
  2.530   2.535   2.542   2.556   2.559   2.562   2.572   2.583
  2.591   2.594   2.602   2.608   2.610   2.622   2.637   2.639
  2.645   2.654   2.660   2.672   2.675   2.680   2.695   2.713
  2.715   2.721   2.732   2.740   2.750   2.753   2.762   2.772
  2.776   2.777   2.783   2.784   2.786   2.801   2.806   2.806
  2.815   2.825   2.829   2.834   2.837   2.840   2.849   2.852
  2.860   2.874   2.888   2.894   2.898   2.902   2.910   2.914
  2.928   2.933   2.935   2.945   2.960   2.963   2.969   2.975
  2.977   2.986   2.994   2.997   3.001   3.007   3.013   3.017
  3.020   3.023   3.032   3.040   3.041   3.046   3.058   3.062
  3.067   3.072   3.075   3.079   3.080   3.086   3.091   3.093
  3.103   3.106   3.110   3.114   3.118   3.123   3.129   3.131
  3.137   3.147   3.149   3.151   3.154   3.159   3.165   3.168
  3.177   3.179   3.183   3.186   3.189   3.192   3.199   3.207
  3.210   3.216   3.217   3.221   3.227   3.233   3.234   3.239
  3.252   3.256   3.259   3.265   3.270   3.276   3.282   3.284
  3.284   3.291   3.295   3.299   3.303   3.307   3.310   3.320
  3.327   3.328   3.331   3.333   3.343   3.347   3.355   3.356
  3.366   3.369   3.378   3.384   3.389   3.397   3.399   3.405
  3.416   3.421   3.426   3.431   3.435   3.446   3.453   3.456
  3.460   3.463   3.468   3.474   3.476   3.478   3.483   3.495
  3.498   3.503   3.511   3.516   3.530   3.533   3.538   3.549
  3.550   3.563   3.568   3.569   3.574   3.579   3.589   3.594
  3.600   3.608   3.616   3.623   3.635   3.643   3.664   3.673
  3.686   3.689   3.700   3.707   3.717   3.721   3.734   3.735
  3.746   3.752   3.768   3.770   3.777   3.780   3.787   3.793
  3.798   3.810   3.814   3.833   3.839   3.845   3.854   3.855
  3.858   3.861   3.864   3.866   3.877   3.883   3.886   3.888
  3.891   3.900   3.908   3.920   3.931   3.939   3.946   3.947
  3.955   3.964   3.967   3.972   3.975   3.979   3.986   3.992
  3.996   4.013   4.018   4.028   4.030   4.040   4.053   4.067
  4.077   4.079   4.083   4.096   4.098   4.128   4.130   4.137
  4.142   4.152   4.161   4.166   4.170   4.177   4.185   4.191
  4.196   4.210   4.216   4.224   4.235   4.241   4.253   4.257
  4.268   4.273   4.279   4.288   4.302   4.316   4.323   4.326
  4.334   4.346   4.348   4.356   4.365   4.376   4.383   4.387
  4.392   4.397   4.405   4.411   4.421   4.426   4.430   4.434
  4.444   4.450   4.456   4.468   4.488   4.500   4.512   4.521
  4.526   4.537   4.553   4.563   4.570   4.580   4.592   4.601
  4.607   4.618   4.627   4.635   4.646   4.660   4.672   4.682
  4.684   4.718   4.724   4.738   4.749   4.750   4.779   4.779
  4.791   4.811   4.819   4.829   4.830   4.842   4.843   4.853
  4.860   4.867   4.882   4.891   4.899   4.910   4.922   4.933
  4.947   4.953   4.957   4.968   4.990   4.996   5.006   5.011
  5.028   5.043   5.051   5.067   5.073   5.080   5.087   5.094
  5.097   5.110   5.115   5.120   5.123   5.130   5.141   5.170
  5.187   5.192   5.215   5.243   5.246   5.252   5.266   5.271
  5.278   5.303   5.326   5.338   5.348   5.368   5.381   5.393
  5.399   5.431   5.446   5.465   5.507   5.519   5.524   5.540
  5.566   5.592   5.597   5.628   5.637   5.665   5.675   5.694
  5.730   5.739   5.768   5.796   5.819   5.830   5.838   5.870
  5.881   5.966   5.998   6.019   6.031   6.043   6.049   6.114
  6.143   6.155   6.177   6.191   6.214   6.237   6.251   6.304
  6.368   6.487   6.517   6.855   6.985   8.035   8.568   9.437
 10.112  10.715  11.124  11.147  11.684  12.013  12.305  12.618
 12.736  12.857  12.923  12.956  13.163  13.399  13.469  13.793
 13.842  13.947  14.135  14.668  15.706
 --------------------------------------------------------------
 
          Ground-State Mulliken Net Atomic Charges

     Atom                 Charge (a.u.)
  ----------------------------------------
      1 C                    -0.124423
      2 C                    -0.108852
      3 C                    -0.109245
      4 C                    -0.151316
      5 C                    -0.120431
      6 C                     0.123285
      7 C                     0.015671
      8 C                    -0.109356
      9 C                     0.033875
     10 N                    -0.174271
     11 N                    -0.282498
     12 C                    -0.013788
     13 C                     0.109020
     14 S                     0.412817
     15 N                    -0.222486
     16 C                    -0.008457
     17 N                    -0.137239
     18 S                     0.121182
     19 C                    -0.146111
     20 C                    -0.016010
     21 C                     0.005043
     22 S                     0.133828
     23 C                    -0.052394
     24 C                    -0.220518
     25 S                     0.057579
     26 C                     0.043420
     27 C                    -0.146542
     28 C                    -0.172214
     29 H                     0.117971
     30 H                     0.115042
     31 H                     0.114613
     32 H                     0.126946
     33 H                     0.113832
     34 H                     0.135417
     35 H                     0.145594
     36 H                     0.129996
     37 H                     0.132981
     38 H                     0.128040
  ----------------------------------------
  Sum of atomic charges =     0.000000

 -----------------------------------------------------------------
                    Cartesian Multipole Moments
 -----------------------------------------------------------------
    Charge (ESU x 10^10)
                 0.0000
    Dipole Moment (Debye)
         X      -0.8023      Y       0.8782      Z       0.2759
       Tot       1.2211
    Quadrupole Moments (Debye-Ang)
        XX    -139.9829     XY      -0.0312     YY    -176.4726
        XZ       0.2131     YZ      -5.0468     ZZ    -187.7840
    Octopole Moments (Debye-Ang^2)
       XXX    -160.4032    XXY      47.1505    XYY       3.4081
       YYY     -13.8539    XXZ      54.4796    XYZ       3.1628
       YYZ      -9.8119    XZZ      10.9872    YZZ     -13.9300
       ZZZ      -5.2790
    Hexadecapole Moments (Debye-Ang^3)
      XXXX  -21239.7732   XXXY     192.9011   XXYY   -4198.6542
      XYYY     -99.9784   YYYY   -2812.8019   XXXZ      70.5577
      XXYZ    -254.2007   XYYZ     -46.4961   YYYZ     -31.9511
      XXZZ   -4381.7290   XYZZ     -34.1353   YYZZ    -585.5208
      XZZZ      31.4594   YZZZ      -7.8366   ZZZZ    -591.0709
 -----------------------------------------------------------------
Archival summary:
1\1\mn456\OPT\ProcedureUnspecified\BasisUnspecified\442010\afmv_a\WedJun705:23:352017WedJun705:23:352017\0\\#,OPT,ProcedureUnspecified,BasisUnspecified,\\0,1\S\C,1,1.72494\C,2,1.36867,1,109.161\H,3,1.07983,2,124.314,1,179.236,0\N,3,1.35602,2,116.166,1,0.55775,0\C,5,1.29696,3,111.06,2,-0.0888071,0\C,2,1.44655,1,123.524,3,-177.77,0\C,7,1.36955,2,128.531,1,149.388,0\C,8,1.42646,7,114.401,2,178.859,0\C,9,1.36681,8,112.113,7,-0.304079,0\H,10,1.07631,9,128.663,8,179.82,0\C,9,1.44059,8,111.895,7,179.013,0\H,12,1.07879,9,124.329,8,-179.95,0\C,12,1.34241,9,111.935,8,-0.0931172,0\H,14,1.07789,12,126.952,9,179.811,0\C,6,1.46259,5,126.269,3,179.475,0\N,16,1.30495,6,116.579,5,175.458,0\C,17,1.35588,16,121.037,6,-178.989,0\H,18,1.08274,17,114.746,16,178.81,0\C,18,1.36781,17,125.722,16,-0.0525966,0\C,20,1.42442,18,114.965,17,0.106781,0\N,21,1.33513,20,126.997,18,-179.302,0\C,21,1.4319,20,119.967,18,-0.341744,0\N,23,1.33342,21,113.377,20,-179.046,0\C,20,1.47556,18,121.832,17,179.201,0\C,25,1.39333,20,120.24,18,45,0\H,26,1.08203,25,119.546,20,2.83302,0\C,26,1.38521,25,120.616,20,-178.277,0\H,28,1.08135,26,119.817,25,-179.803,0\C,28,1.38581,26,120.091,25,-0.116471,0\H,30,1.08143,28,120.215,26,179.962,0\C,30,1.38676,28,119.69,26,-0.352609,0\H,32,1.08134,30,120.106,28,179.955,0\C,32,1.38366,30,120.306,28,0.203169,0\H,34,1.08014,32,119.931,30,-179.872,0\S,24,1.60353,23,106.224,21,-0.124913,0\S,10,1.70764,9,110.987,8,-0.288291,0\S,8,1.74192,7,134.287,2,-2.51352,0\\\@

 Total job time:  5377.74s(wall), 80764.11s(cpu) 
 Wed Jun  7 05:23:35 2017

        *************************************************************
        *                                                           *
        *  Thank you very much for using Q-Chem.  Have a nice day.  *
        *                                                           *
        *************************************************************


