
Running Job 1 of 1 C306_1/C306_225.qcin
qchem C306_1/C306_225.qcin_26764.0 /tmpu/cab_g/afmv_a/scratch_qchem/qchem26764/ 1
/tmpu/appuserlic/qchem4.4/serial-multicore/exe/qcprog.exe_s C306_1/C306_225.qcin_26764.0 /tmpu/cab_g/afmv_a/scratch_qchem/qchem26764/
Check license passed

                  Welcome to Q-Chem
     A Quantum Leap Into The Future Of Chemistry


 Q-Chem 4.4, Q-Chem, Inc., Pleasanton, CA (2016)

 Y. Shao,  Z. Gan,  E. Epifanovsky,  A. T. B. Gilbert,  M. Wormit,  
 J. Kussmann,  A. W. Lange,  A. Behn,  J. Deng,  X. Feng,  D. Ghosh,  
 M. Goldey,  P. R. Horn,  L. D. Jacobson,  I. Kaliman,  F. Rob,  
 R. Z. Khaliullin,  T. Kus,  A. Landau,  J. Liu,  E. I. Proynov,  Y. M. Rhee,  
 R. M. Richard,  M. A. Rohrdanz,  R. P. Steele,  E. J. Sundstrom,  
 H. L. Woodcock III,  P. M. Zimmerman,  D. Zuev,  B. Albrecht,  E. Alguire,  
 B. Austin,  S. A. Baeppler,  G. J. O. Beran,  Y. A. Bernard,  E. Berquist,  
 K. Brandhorst,  K. B. Bravaya,  S. T. Brown,  D. Casanova,  C.-M. Chang,  
 Y. Chen,  S. H. Chien,  K. D. Closser,  M. P. Coons,  D. L. Crittenden,  
 S. Dasgupta,  M. Diedenhofen,  R. A. DiStasio Jr.,  H. Do,  A. D. Dutoi,  
 R. G. Edgar,  P.-T. Fang,  S. Fatehi,  Q. Feng,  L. Fusti-Molnar,  
 A. Ghysels,  A. Golubeva-Zadorozhnaya,  J. Gomes,  A. Gunina,  
 M. W. D. Hanson-Heine,  P. H. P. Harbach,  A. W. Hauser,  J. E. Herr,  
 E. G. Hohenstein,  Z. C. Holden,  K. Hui,  T.-C. Jagau,  H. Ji,  B. Kaduk,  
 K. Khistyaev,  Jaehoon Kim,  Jihan Kim,  R. A. King,  P. Klunzinger,  
 K. Koh,  D. Kosenkov,  T. Kowalczyk,  C. M. Krauter,  A. Kunitsa,  
 K. U. Lao,  A. Laurent,  K. V. Lawler,  J. Lee,  D. Lefrancois,  S. Lehtola,  
 S. V. Levchenko,  C. Y. Lin,  Y.-S. Lin,  F. Liu,  E. Livshits,  
 R. C. Lochan,  A. Luenser,  P. Manohar,  S. F. Manzer,  S.-P. Mao,  Y. Mao,  
 N. Mardirossian,  A. V. Marenich,  L. A. Martinez-Martinez,  S. A. Maurer,  
 N. J. Mayhall,  J.-M. Mewes,  A. F. Morrison,  K. Nanda,  T. S. Nguyen-Beck,  
 C. M. Oana,  R. Olivares-Amaya,  D. P. O'Neill,  J. A. Parkhill,  
 T. M. Perrine,  R. Peverati,  P. A. Pieniazek,  F. Plasser,  A. Prociuk,  
 D. R. Rehn,  E. Rosta,  N. J. Russ,  N. Sergueev,  S. M. Sharada,  
 S. Sharma,  D. W. Small,  A. Sodt,  T. Stauch,  T. Stein,  D. Stuck,  
 Y.-C. Su,  A. J. W. Thom,  T. Tsuchimochi,  L. Vogt,  O. Vydrov,  T. Wang,  
 M. A. Watson,  J. Wenzel,  A. White,  C. F. Williams,  V. Vanovschi,  
 K. Yao,  S. Yeganeh,  S. R. Yost,  Z.-Q. You,  I. Y. Zhang,  X. Zhang,  
 Y. Zhao,  B. R. Brooks,  G. K. L. Chan,  D. M. Chipman,  C. J. Cramer,  
 W. A. Goddard III,  M. S. Gordon,  W. J. Hehre,  A. Klamt,  
 H. F. Schaefer III,  M. W. Schmidt,  C. D. Sherrill,  D. G. Truhlar,  
 A. Warshel,  X. Xu,  A. Aspuru-Guzik,  R. Baer,  A. T. Bell,  N. A. Besley,  
 J.-D. Chai,  A. Dreuw,  B. D. Dunietz,  T. R. Furlani,  S. R. Gwaltney,  
 C.-P. Hsu,  Y. Jung,  J. Kong,  D. S. Lambrecht,  W. Liang,  C. Ochsenfeld,  
 V. A. Rassolov,  L. V. Slipchenko,  J. E. Subotnik,  T. Van Voorhis,  
 J. M. Herbert,  A. I. Krylov,  P. M. W. Gill,  M. Head-Gordon

 Contributors to earlier versions of Q-Chem not listed above: 
 R. D. Adamson,  J. Baker,  E. F. C. Byrd,  A. K. Chakraborty,  C.-L. Cheng,  
 H. Dachsel,  R. J. Doerksen,  G. Hawkins,  A. Heyden,  S. Hirata,  
 G. Kedziora,  F. J. Keil,  C. Kelley,  P. P. Korambath,  W. Kurlancheek,  
 A. M. Lee,  M. S. Lee,  D. Liotard,  I. Lotan,  P. E. Maslen,  N. Nair,  
 D. Neuhauser,  R. Olson,  B. Peters,  J. Ritchie,  N. E. Schultz,  
 N. Shenvi,  A. C. Simmonett,  K. S. Thanthiriwatte,  Q. Wu,  W. Zhang

 Please cite Q-Chem as follows:
 Y. Shao et al., Mol. Phys. 113, 184-215 (2015)
 DOI: 10.1080/00268976.2014.952696

 Q-Chem 4.4.2 for Intel X86 Linux

 Parts of Q-Chem use Armadillo 5.200.1 (Boston Tea Smuggler).
 http://arma.sourceforge.net/

 Q-Chem begins on Mon Jun  5 23:47:02 2017  

Host: 
0

     Scratch files written to /tmpu/cab_g/afmv_a/scratch_qchem/qchem26764//
 Dec716 11556_ 22328  22283 4050   
Processing $rem in /tmpu/appuserlic/qchem4.4/serial-multicore/config/preferences.
 MEM_TOTAL  2000 
FILE_GEOM_ORG=        593

Checking the input file for inconsistencies... 	...done.

--------------------------------------------------------------
User input:
--------------------------------------------------------------
$comment
OPTIMIZATION
$end

$rem
JOBTYPE OPT
EXCHANGE omegaB97X-D
BASIS cc-pVTZ
$end

$molecule
0 1
C          0.00000        0.00000        0.00000
C          1.38599        0.00000        0.00000
C         -0.68515       -1.20581        0.00000
C          2.08055       -1.19709        0.02226
C          0.00742       -2.40411        0.01179
C          1.40063       -2.41271        0.04151
C          2.15950       -3.67324        0.15696
C          1.86735       -4.74792       -0.63758
C          3.23320       -3.87177        1.06849
N          2.50129       -5.94467       -0.61399
N          3.71418       -2.98907        1.94657
C          3.90851       -5.13455        1.10967
C          3.48546       -6.16875        0.21308
S          4.91110       -3.73948        2.72015
N          4.88727       -5.18000        2.01398
C          4.10506       -7.49233        0.14463
N          5.03081       -7.94972        0.92800
S          3.58235       -8.60130       -1.08938
C          5.38204       -9.21332        0.57936
C          4.72091       -9.75123       -0.49113
C          4.86856      -11.08069       -1.04205
S          4.61583      -11.42577       -2.72037
C          5.21335      -12.23734       -0.39869
C          4.94886      -13.09206       -2.53725
S          5.56827      -12.64511        1.25912
C          5.25807      -13.38891       -1.23892
C          5.76247      -14.32710        0.80810
C          5.58391      -14.58033       -0.49778
H         -0.54342        0.93472        0.00000
H          1.93260        0.93382       -0.01501
H         -1.76734       -1.21268        0.00047
H          3.16263       -1.19509        0.00785
H         -0.53593       -3.33924        0.01382
H          1.08018       -4.65969       -1.37553
H          6.15761       -9.72376        1.13115
H          4.89066      -13.75858       -3.37962
H          5.99468      -15.03687        1.58539
H          5.65886      -15.56701       -0.92712
$end

$opt
CONSTRAINT
tors 4 6 7 8 -135.00000
tors 10 13 16 18 4.63242
tors 18 20 21 22 32.71647
ENDCONSTRAINT
$end
--------------------------------------------------------------
 ----------------------------------------------------------------
             Standard Nuclear Orientation (Angstroms)
    I     Atom           X                Y                Z
 ----------------------------------------------------------------
    1      C      -8.0235771672    -1.4861715874     0.4643903695
    2      C      -7.5926068713    -0.6652042574    -0.5657773486
    3      C      -7.0977481804    -2.0189813464     1.3489030752
    4      C      -6.2483574604    -0.3620674125    -0.6962960976
    5      C      -5.7518641443    -1.7255139112     1.2140397185
    6      C      -5.3136786717    -0.8774357092     0.1987820185
    7      C      -3.8993987059    -0.4684476886     0.0953932491
    8      C      -2.8909393757    -1.3893272359     0.1764683690
    9      C      -3.4747130044     0.8747488962    -0.1010699319
   10      N      -1.5660018125    -1.1209994218     0.0916885837
   11      N      -4.2519943163     1.9539932623    -0.2132790989
   12      C      -2.0764127185     1.1746790810    -0.1856329932
   13      C      -1.1360646668     0.0990099939    -0.0802948359
   14      S      -3.2531161471     3.2018715494    -0.4112711556
   15      N      -1.8250649768     2.4719918504    -0.3634455554
   16      C       0.3139664070     0.2719684892    -0.1694510066
   17      N       0.9507321789     1.3978992595    -0.2512830517
   18      S       1.3297358634    -1.1401310462    -0.1665876759
   19      C       2.2903842113     1.1943984701    -0.3255607963
   20      C       2.7064072165    -0.1089416839    -0.3006974273
   21      C       4.0664169425    -0.6015424396    -0.3229527904
   22      S       4.4917790982    -2.1281926972    -1.0216062877
   23      C       5.1978294405    -0.0052036210     0.1617298159
   24      C       6.1497032187    -1.9601169740    -0.6421297520
   25      S       5.5174774056     1.4863182705     1.0065766665
   26      C       6.3885059369    -0.7711369852    -0.0107096196
   27      C       7.2143259480     1.0639672378     1.1185930486
   28      C       7.5364941073    -0.1115792291     0.5567835950
   29      H      -9.0753854465    -1.7096301657     0.5774053339
   30      H      -8.3030307249    -0.2550868167    -1.2715600472
   31      H      -7.4278138004    -2.6603459631     2.1556810674
   32      H      -5.9122477311     0.2675842032    -1.5097319385
   33      H      -5.0378124997    -2.1442064888     1.9101203421
   34      H      -3.1407641347    -2.4357647246     0.2970814544
   35      H       2.9551212942     2.0408044217    -0.4163991047
   36      H       6.8504794025    -2.7376463957    -0.8902912033
   37      H       7.8744522583     1.7476590688     1.6271925136
   38      H       8.5372495771    -0.5140315346     0.5538867227
 ----------------------------------------------------------------
 Molecular Point Group                 C1    NOp =  1
 Largest Abelian Subgroup              C1    NOp =  1
 Nuclear Repulsion Energy =  2866.8776327033 hartrees
 There are      111 alpha and      111 beta electrons
 Requested basis set is cc-pVTZ
 There are 348 shells and 996 basis functions

 Total QAlloc Memory Limit   2000 MB
 Mega-Array Size        61 MB
 MEM_STATIC part        62 MB
 A cutoff of  1.0D-11 yielded  28564 shell pairs
 There are    226204 function pairs (    295562 Cartesian)
 
 -------------------------------------------------------
 OpenMP Integral Computing Module                       
 Release: version 1.0, May 2013, Q-Chem Inc. Pittsburgh 
 -------------------------------------------------------
 Integral Job Info:
 Integral job number is                      11
 Integral operator is                         1
 short-range coefficients              22203600
 long-range coefficients              100000000
 Omega coefficients                         200
 if combine SR and LR in K                    1
 Integral screening is                        0
 Integral computing path is                   2
 max size of driver memory is            800000
 size of driver memory is                776718
 size of scratch memory is             26248924
 max col of scratch BK array              10000
 max len of scratch array in speh3          662
 max len of scratch index in speh4           32
 max int batch size is                      520
 min int batch size is                       52
 fixed nKL is                                52
 max L of basis functions is                  3
 order of int derivative is                   0
 number of shells is                        348
 number of basis is                        1146
 number of cartesian basis is              1146
 number of contracted shell pairs         28564
 number of primitive shell pairs          90710
 maxK2 (contraction) of shell pair          121
 max number of K2 of shell pair               1
 max number of CS2 of shell pair           3871
 max number of PS2 of shell pair          11515
 mem total for path MDJ                  791476
 -------------------------------------------------------
 Smallest overlap matrix eigenvalue = 3.11E-05

 Scale SEOQF with 1.000000e-02/1.000000e-01/1.000000e-01

 Standard Electronic Orientation quadrupole field applied
 Nucleus-field energy     =     0.0000000473 hartrees
 Guess from superposition of atomic densities
 Warning:  Energy on first SCF cycle will be non-variational
 Long-range K will be added via erf
 Coulomb attenuation parameter = 0.2 bohr**(-1)
 A restricted hybrid HF-DFT SCF calculation will be
 performed using Pulay DIIS extrapolation
 Exchange:     0.2220 Hartree-Fock + 1.0000 wB97X-D + LR-HF
 Correlation:  1.0000 wB97X-D
 Using SG-2 standard quadrature grid
 Dispersion:   Grimme D
 SCF converges when DIIS error is below 1.0E-08
 using 16 threads for integral computing 
 using 16 threads for integral computing 
 K construction time:  CPU 66.83 s  wall 4.37 s
 -------------------------------------------------------
 OpenMP BLAS3 based DFT computing Module                
 Release: version 1.0, May 2013, Q-Chem Inc. Pittsburgh 
 -------------------------------------------------------
 ---------------------------------------
  Cycle       Energy         DIIS Error
 ---------------------------------------
    1   -2589.7710799024      1.84E-02
 K construction time:  CPU 1007.53 s  wall 66.11 s
    2   -2579.6145421217      1.36E-03
 K construction time:  CPU 962.61 s  wall 63.07 s
    3   -2579.6495996615      1.37E-03
 K construction time:  CPU 916.73 s  wall 59.96 s
    4   -2579.8550143912      2.16E-04
 K construction time:  CPU 843.53 s  wall 55.38 s
    5   -2579.8595866536      1.19E-04
 K construction time:  CPU 807.97 s  wall 52.70 s
    6   -2579.8612978665      3.49E-05
 K construction time:  CPU 748.04 s  wall 49.07 s
    7   -2579.8614575584      1.44E-05
 K construction time:  CPU 705.63 s  wall 46.20 s
    8   -2579.8614944028      5.62E-06
 K construction time:  CPU 676.71 s  wall 44.37 s
    9   -2579.8615035637      3.80E-06
 K construction time:  CPU 639.32 s  wall 41.86 s
   10   -2579.8615068064      1.12E-06
 K construction time:  CPU 578.89 s  wall 37.95 s
   11   -2579.8615071960      6.34E-07
 K construction time:  CPU 531.12 s  wall 34.76 s
   12   -2579.8615072999      1.92E-07
 K construction time:  CPU 474.13 s  wall 31.09 s
   13   -2579.8615073118      9.50E-08
 K construction time:  CPU 406.72 s  wall 26.58 s
   14   -2579.8615073152      3.41E-08
 K construction time:  CPU 360.40 s  wall 23.55 s
   15   -2579.8615073194      1.41E-08
 K construction time:  CPU 995.33 s  wall 65.21 s
   16   -2579.8615073119      4.71E-09 Convergence criterion met
 ---------------------------------------
 SCF time:  CPU 14420.58 s  wall 966.87 s
 SCF   energy in the final basis set = -2579.8615073119
 Total energy in the final basis set = -2579.8615073119
 
 --------------------------------------------------------------
 
                    Orbital Energies (a.u.)
 --------------------------------------------------------------
 
 Alpha MOs
 -- Occupied --
-89.149 -89.090 -89.086 -89.078 -14.485 -14.482 -14.453 -14.443
-10.365 -10.362 -10.358 -10.356 -10.343 -10.342 -10.335 -10.332
-10.330 -10.327 -10.324 -10.322 -10.313 -10.311 -10.305 -10.298
-10.296 -10.295 -10.295 -10.294  -8.159  -8.105  -8.101  -8.093
 -6.109  -6.104  -6.103  -6.054  -6.051  -6.050  -6.048  -6.047
 -6.044  -6.043  -6.039  -6.035  -1.146  -1.086  -1.064  -1.023
 -1.010  -0.975  -0.958  -0.925  -0.919  -0.898  -0.876  -0.860
 -0.855  -0.832  -0.828  -0.802  -0.775  -0.744  -0.734  -0.712
 -0.705  -0.693  -0.691  -0.660  -0.651  -0.637  -0.627  -0.614
 -0.606  -0.598  -0.572  -0.563  -0.556  -0.548  -0.542  -0.531
 -0.530  -0.524  -0.514  -0.513  -0.507  -0.504  -0.498  -0.486
 -0.477  -0.475  -0.469  -0.455  -0.449  -0.439  -0.436  -0.433
 -0.430  -0.423  -0.421  -0.399  -0.393  -0.375  -0.367  -0.362
 -0.358  -0.353  -0.339  -0.337  -0.324  -0.306  -0.272
 -- Virtual --
 -0.050   0.001   0.027   0.043   0.053   0.057   0.067   0.072
  0.084   0.089   0.107   0.114   0.118   0.125   0.131   0.137
  0.140   0.144   0.149   0.155   0.160   0.164   0.170   0.179
  0.188   0.192   0.196   0.202   0.218   0.220   0.235   0.236
  0.242   0.250   0.259   0.267   0.275   0.282   0.288   0.291
  0.298   0.302   0.304   0.308   0.312   0.315   0.323   0.325
  0.328   0.331   0.336   0.339   0.345   0.347   0.351   0.356
  0.360   0.362   0.370   0.372   0.377   0.384   0.386   0.387
  0.388   0.392   0.396   0.397   0.403   0.406   0.407   0.412
  0.414   0.418   0.422   0.428   0.429   0.433   0.434   0.441
  0.443   0.447   0.449   0.452   0.453   0.459   0.463   0.465
  0.467   0.469   0.470   0.472   0.479   0.479   0.486   0.490
  0.492   0.495   0.501   0.503   0.506   0.508   0.514   0.517
  0.522   0.526   0.527   0.530   0.533   0.544   0.548   0.554
  0.555   0.558   0.562   0.563   0.566   0.569   0.576   0.578
  0.580   0.594   0.596   0.600   0.608   0.618   0.619   0.625
  0.629   0.632   0.635   0.645   0.650   0.654   0.660   0.664
  0.668   0.672   0.678   0.689   0.692   0.698   0.704   0.714
  0.719   0.725   0.728   0.729   0.736   0.740   0.747   0.753
  0.757   0.763   0.766   0.769   0.773   0.775   0.779   0.783
  0.786   0.792   0.797   0.801   0.803   0.810   0.816   0.820
  0.825   0.834   0.837   0.839   0.847   0.851   0.854   0.862
  0.863   0.868   0.875   0.878   0.882   0.887   0.890   0.897
  0.899   0.910   0.911   0.914   0.921   0.926   0.928   0.934
  0.943   0.944   0.952   0.958   0.961   0.962   0.967   0.972
  0.978   0.980   0.985   0.991   0.996   1.006   1.014   1.017
  1.024   1.032   1.035   1.041   1.049   1.052   1.054   1.058
  1.064   1.068   1.076   1.081   1.089   1.090   1.095   1.103
  1.108   1.115   1.124   1.128   1.132   1.143   1.143   1.151
  1.160   1.163   1.171   1.177   1.182   1.189   1.202   1.208
  1.210   1.217   1.220   1.225   1.237   1.243   1.250   1.253
  1.255   1.263   1.269   1.277   1.278   1.288   1.292   1.303
  1.311   1.319   1.331   1.335   1.346   1.353   1.359   1.364
  1.367   1.372   1.381   1.381   1.390   1.396   1.404   1.409
  1.415   1.421   1.423   1.434   1.436   1.445   1.451   1.452
  1.461   1.463   1.467   1.477   1.481   1.484   1.489   1.490
  1.493   1.498   1.514   1.516   1.522   1.537   1.539   1.550
  1.561   1.563   1.572   1.577   1.585   1.590   1.605   1.609
  1.613   1.619   1.623   1.626   1.638   1.645   1.652   1.654
  1.658   1.665   1.668   1.672   1.676   1.686   1.690   1.694
  1.705   1.706   1.711   1.714   1.727   1.735   1.739   1.748
  1.753   1.757   1.769   1.775   1.777   1.786   1.795   1.801
  1.822   1.832   1.838   1.842   1.855   1.875   1.882   1.885
  1.889   1.901   1.905   1.910   1.929   1.933   1.936   1.939
  1.950   1.959   1.968   1.975   1.980   1.987   1.995   2.004
  2.014   2.022   2.024   2.032   2.033   2.041   2.044   2.065
  2.073   2.082   2.085   2.091   2.101   2.108   2.115   2.125
  2.131   2.135   2.148   2.157   2.165   2.169   2.175   2.181
  2.192   2.201   2.206   2.211   2.214   2.235   2.239   2.242
  2.250   2.256   2.265   2.268   2.275   2.286   2.294   2.300
  2.321   2.325   2.331   2.335   2.338   2.346   2.352   2.358
  2.367   2.377   2.390   2.390   2.398   2.409   2.417   2.423
  2.437   2.443   2.449   2.455   2.456   2.461   2.469   2.477
  2.482   2.488   2.491   2.498   2.502   2.507   2.509   2.526
  2.532   2.535   2.541   2.552   2.559   2.568   2.575   2.584
  2.590   2.597   2.599   2.607   2.614   2.619   2.629   2.640
  2.649   2.654   2.665   2.669   2.676   2.681   2.693   2.711
  2.714   2.723   2.731   2.737   2.752   2.758   2.763   2.769
  2.774   2.781   2.782   2.786   2.790   2.803   2.805   2.809
  2.814   2.824   2.830   2.831   2.836   2.842   2.848   2.854
  2.859   2.873   2.885   2.896   2.899   2.902   2.908   2.913
  2.923   2.931   2.940   2.946   2.958   2.963   2.969   2.974
  2.976   2.986   2.994   2.996   2.997   3.008   3.013   3.018
  3.023   3.024   3.034   3.038   3.040   3.050   3.052   3.060
  3.064   3.072   3.074   3.078   3.082   3.086   3.095   3.099
  3.102   3.105   3.110   3.116   3.118   3.124   3.128   3.134
  3.137   3.144   3.149   3.151   3.155   3.162   3.166   3.169
  3.174   3.179   3.182   3.188   3.190   3.193   3.199   3.203
  3.212   3.215   3.217   3.223   3.228   3.231   3.236   3.239
  3.251   3.257   3.259   3.264   3.266   3.277   3.284   3.287
  3.288   3.290   3.291   3.300   3.304   3.308   3.312   3.318
  3.320   3.328   3.332   3.337   3.343   3.348   3.354   3.360
  3.369   3.371   3.376   3.381   3.390   3.394   3.398   3.407
  3.415   3.418   3.429   3.433   3.438   3.448   3.449   3.459
  3.462   3.462   3.466   3.470   3.474   3.478   3.484   3.492
  3.501   3.505   3.509   3.518   3.531   3.532   3.540   3.547
  3.548   3.559   3.565   3.569   3.572   3.583   3.584   3.596
  3.604   3.609   3.616   3.623   3.635   3.650   3.664   3.670
  3.688   3.694   3.701   3.704   3.714   3.721   3.731   3.739
  3.744   3.752   3.764   3.768   3.778   3.781   3.785   3.793
  3.800   3.807   3.812   3.828   3.841   3.846   3.854   3.857
  3.858   3.863   3.864   3.867   3.878   3.880   3.884   3.888
  3.892   3.902   3.906   3.921   3.933   3.937   3.946   3.947
  3.955   3.965   3.968   3.971   3.974   3.980   3.986   3.995
  4.001   4.011   4.013   4.025   4.032   4.038   4.054   4.070
  4.074   4.080   4.080   4.092   4.104   4.126   4.134   4.138
  4.145   4.152   4.158   4.165   4.169   4.174   4.184   4.190
  4.196   4.209   4.215   4.224   4.228   4.242   4.252   4.258
  4.267   4.274   4.282   4.290   4.298   4.319   4.321   4.326
  4.329   4.345   4.347   4.355   4.366   4.377   4.384   4.387
  4.392   4.397   4.403   4.409   4.422   4.429   4.431   4.435
  4.443   4.448   4.455   4.467   4.481   4.499   4.509   4.522
  4.529   4.542   4.552   4.562   4.573   4.585   4.592   4.601
  4.606   4.621   4.625   4.634   4.646   4.661   4.669   4.681
  4.683   4.718   4.722   4.732   4.747   4.750   4.779   4.781
  4.794   4.810   4.819   4.829   4.829   4.843   4.845   4.855
  4.862   4.865   4.881   4.889   4.898   4.909   4.918   4.936
  4.950   4.954   4.957   4.967   4.990   5.000   5.004   5.010
  5.029   5.045   5.050   5.067   5.073   5.080   5.088   5.091
  5.096   5.110   5.113   5.121   5.126   5.129   5.139   5.167
  5.187   5.194   5.215   5.244   5.247   5.251   5.266   5.272
  5.276   5.305   5.327   5.340   5.350   5.368   5.380   5.393
  5.397   5.429   5.446   5.467   5.500   5.519   5.521   5.537
  5.567   5.592   5.595   5.626   5.643   5.663   5.673   5.692
  5.728   5.735   5.767   5.795   5.818   5.824   5.837   5.867
  5.880   5.964   6.000   6.020   6.034   6.042   6.048   6.106
  6.141   6.156   6.172   6.188   6.214   6.235   6.252   6.302
  6.367   6.487   6.519   6.858   6.979   8.027   8.559   9.427
 10.111  10.703  11.131  11.142  11.687  12.019  12.310  12.625
 12.770  12.874  12.929  12.967  13.163  13.395  13.494  13.761
 13.812  13.948  14.131  14.680  15.707
 --------------------------------------------------------------
 
          Ground-State Mulliken Net Atomic Charges

     Atom                 Charge (a.u.)
  ----------------------------------------
      1 C                    -0.124171
      2 C                    -0.109366
      3 C                    -0.108428
      4 C                    -0.122261
      5 C                    -0.146808
      6 C                     0.115536
      7 C                     0.019797
      8 C                    -0.109368
      9 C                     0.031434
     10 N                    -0.173795
     11 N                    -0.279147
     12 C                    -0.013391
     13 C                     0.107648
     14 S                     0.411954
     15 N                    -0.222539
     16 C                    -0.008005
     17 N                    -0.137611
     18 S                     0.120028
     19 C                    -0.145817
     20 C                    -0.018232
     21 C                     0.005436
     22 S                     0.132943
     23 C                    -0.048948
     24 C                    -0.219554
     25 S                     0.056153
     26 C                     0.042613
     27 C                    -0.144952
     28 C                    -0.173031
     29 H                     0.117962
     30 H                     0.115385
     31 H                     0.115061
     32 H                     0.114170
     33 H                     0.126922
     34 H                     0.135845
     35 H                     0.146106
     36 H                     0.130000
     37 H                     0.132484
     38 H                     0.127950
  ----------------------------------------
  Sum of atomic charges =     0.000000

 -----------------------------------------------------------------
                    Cartesian Multipole Moments
 -----------------------------------------------------------------
    Charge (ESU x 10^10)
                 0.0000
    Dipole Moment (Debye)
         X       0.7316      Y      -0.9390      Z       0.1608
       Tot       1.2011
    Quadrupole Moments (Debye-Ang)
        XX    -139.8894     XY      -0.8261     YY    -179.9057
        XZ       2.5344     YZ      -1.1050     ZZ    -184.6349
    Octopole Moments (Debye-Ang^2)
       XXX     150.3565    XXY     -50.1718    XYY      11.3795
       YYY      20.6611    XXZ      23.3761    XYZ      50.8051
       YYZ       5.4239    XZZ     -20.1754    YZZ       4.3898
       ZZZ      -0.8688
    Hexadecapole Moments (Debye-Ang^3)
      XXXX  -21193.1264   XXXY     126.2029   XXYY   -4361.5599
      XYYY    -170.7033   YYYY   -2735.3098   XXXZ     323.2449
      XXYZ      -7.8731   XYYZ     -58.4408   YYYZ      -4.3272
      XXZZ   -4259.3379   XYZZ      28.7929   YYZZ    -561.4311
      XZZZ       7.9371   YZZZ     -14.6618   ZZZZ    -674.3917
 -----------------------------------------------------------------
 Calculating analytic gradient of the SCF energy
 K construction time:  CPU 2092.86 s  wall 132.76 s
 Gradient of SCF Energy
            1           2           3           4           5           6
    1  -0.0006847  -0.0005208   0.0017322   0.0008452  -0.0015366   0.0019555
    2   0.0000256   0.0000195   0.0016055   0.0003805  -0.0003528  -0.0072178
    3  -0.0003116   0.0014007   0.0000645   0.0015839   0.0010462  -0.0004369
            7           8           9          10          11          12
    1  -0.0016401   0.0001365   0.0008369  -0.0007684  -0.0010258  -0.0002514
    2   0.0085539  -0.0010522   0.0005003   0.0006387  -0.0006656  -0.0002527
    3   0.0001274   0.0005471   0.0001475  -0.0003485   0.0000337  -0.0001011
           13          14          15          16          17          18
    1   0.0005846  -0.0002763   0.0006780   0.0003896  -0.0009306   0.0004098
    2   0.0000448  -0.0003870  -0.0001652   0.0007106  -0.0002917  -0.0005142
    3   0.0001334  -0.0002142   0.0002855   0.0001739   0.0001256  -0.0001782
           19          20          21          22          23          24
    1  -0.0006835   0.0006740   0.0008329  -0.0005057  -0.0003017   0.0003866
    2  -0.0001484   0.0004903   0.0009524  -0.0006341  -0.0012803  -0.0008849
    3  -0.0001616  -0.0005525   0.0012737  -0.0007013  -0.0006526  -0.0005454
           25          26          27          28          29          30
    1  -0.0005554  -0.0001796   0.0012327  -0.0005686   0.0000694  -0.0000504
    2   0.0013563   0.0002326  -0.0007465  -0.0001466   0.0001344   0.0005284
    3   0.0003447   0.0003358  -0.0003342  -0.0009124  -0.0002811  -0.0004408
           31          32          33          34          35          36
    1  -0.0004654   0.0012061  -0.0003001  -0.0007872   0.0004864   0.0000438
    2   0.0001011  -0.0010020  -0.0014444   0.0003121  -0.0003038   0.0003931
    3   0.0005899  -0.0018970  -0.0011654  -0.0004201   0.0000023   0.0004495
           37          38
    1  -0.0004702   0.0000024
    2   0.0001481   0.0003621
    3   0.0005082   0.0004813
 Max gradient component =       8.554E-03
 RMS gradient           =       1.271E-03
 Gradient time:  CPU 2514.94 s  wall 161.04 s
 Geometry Optimization Parameters
   NAtoms,    NIC,     NZ,  NCons,   NDum,   NFix, NCnnct, MaxDiis
       38     289       0       3       0       0       0       0


** CONSTRAINED OPTIMIZATION IN DELOCALIZED INTERNAL COORDINATES **
   Searching for a Minimum

   Optimization Cycle:   1

                       Coordinates (Angstroms)
     ATOM                X               Y               Z
      1  C        -8.0235771672   -1.4861715874    0.4643903695
      2  C        -7.5926068713   -0.6652042574   -0.5657773486
      3  C        -7.0977481804   -2.0189813464    1.3489030752
      4  C        -6.2483574604   -0.3620674125   -0.6962960976
      5  C        -5.7518641443   -1.7255139112    1.2140397185
      6  C        -5.3136786717   -0.8774357092    0.1987820185
      7  C        -3.8993987059   -0.4684476886    0.0953932491
      8  C        -2.8909393757   -1.3893272359    0.1764683690
      9  C        -3.4747130044    0.8747488962   -0.1010699319
     10  N        -1.5660018125   -1.1209994218    0.0916885837
     11  N        -4.2519943163    1.9539932623   -0.2132790989
     12  C        -2.0764127185    1.1746790810   -0.1856329932
     13  C        -1.1360646668    0.0990099939   -0.0802948359
     14  S        -3.2531161471    3.2018715494   -0.4112711556
     15  N        -1.8250649768    2.4719918504   -0.3634455554
     16  C         0.3139664070    0.2719684892   -0.1694510066
     17  N         0.9507321789    1.3978992595   -0.2512830517
     18  S         1.3297358634   -1.1401310462   -0.1665876759
     19  C         2.2903842113    1.1943984701   -0.3255607963
     20  C         2.7064072165   -0.1089416839   -0.3006974273
     21  C         4.0664169425   -0.6015424396   -0.3229527904
     22  S         4.4917790982   -2.1281926972   -1.0216062877
     23  C         5.1978294405   -0.0052036210    0.1617298159
     24  C         6.1497032187   -1.9601169740   -0.6421297520
     25  S         5.5174774056    1.4863182705    1.0065766665
     26  C         6.3885059369   -0.7711369852   -0.0107096196
     27  C         7.2143259480    1.0639672378    1.1185930486
     28  C         7.5364941073   -0.1115792291    0.5567835950
     29  H        -9.0753854465   -1.7096301657    0.5774053339
     30  H        -8.3030307249   -0.2550868167   -1.2715600472
     31  H        -7.4278138004   -2.6603459631    2.1556810674
     32  H        -5.9122477311    0.2675842032   -1.5097319385
     33  H        -5.0378124997   -2.1442064888    1.9101203421
     34  H        -3.1407641347   -2.4357647246    0.2970814544
     35  H         2.9551212942    2.0408044217   -0.4163991047
     36  H         6.8504794025   -2.7376463957   -0.8902912033
     37  H         7.8744522583    1.7476590688    1.6271925136
     38  H         8.5372495771   -0.5140315346    0.5538867227
   Point Group: c1    Number of degrees of freedom:   108


   Energy is  -2579.861507312

              Constraints and their Current Values
                                        Value     Constraint
   Dihedral:        4   6   7   8     -134.999     -135.000
   Dihedral:       10  13  16  18        4.689        4.632
   Dihedral:       18  20  21  22       32.691       32.716

 Attempting to Generate Delocalized Internal Coordinates

   Using Lagrange Multiplier Algorithm


111 Hessian modes will be used to form the next step
  Hessian Eigenvalues:
    -0.977753   -0.977753   -0.977753    0.045000    0.045000    0.045000
     0.045000    0.045000    0.045000    0.045000    0.045000    0.045000
     0.045000    0.045000    0.045000    0.045001    0.045001    0.045001
     0.045001    0.045001    0.045002    0.045002    0.045003    0.045003
     0.045004    0.045005    0.045005    0.045007    0.045008    0.045008
     0.045012    0.045021    0.045031    0.045040    0.045052    0.159964
     0.159978    0.159978    0.159981    0.159982    0.159991    0.159991
     0.159994    0.160000    0.160000    0.219984    0.219994    0.225219
     0.233057    0.234605    0.234757    0.237025    0.247519    0.249693
     0.249750    0.249778    0.249982    0.249986    0.249988    0.249992
     0.249995    0.249997    0.249999    0.249999    0.250000    0.296269
     0.304570    0.308359    0.315688    0.324172    0.337619    0.350485
     0.356837    0.357284    0.357325    0.357370    0.358104    0.358490
     0.359871    0.361578    0.362489    0.365136    0.365877    0.369127
     0.381386    0.386880    0.389560    0.393567    0.413660    0.429805
     0.432305    0.470765    0.472712    0.474104    0.479081    0.480434
     0.482725    0.483543    0.486779    0.496419    0.509550    0.519730
     0.527467    0.543224    0.556259    0.579550    0.638656    0.653864
     1.022753    1.022753    1.022753

 Minimum Search - Taking P-RFO Step
 Searching for Lamda that Maximizes Along the Constraint modes Only
 Value Taken    Lamda =   0.00000088
 Searching for Lamda that Minimizes Along All other modes
 Value Taken    Lamda =  -0.00095692
 Step Taken.  Stepsize is  0.118583

                             Maximum     Tolerance    Cnvgd?
         Gradient            0.003780       0.000300      NO
         Displacement        0.043153       0.001200      NO
         Energy change     *********       0.000001      NO


 New Cartesian Coordinates Obtained by Inverse Iteration

 Displacement from previous Coordinates is:  0.318393
 ----------------------------------------------------------------
             Standard Nuclear Orientation (Angstroms)
    I     Atom           X                Y                Z
 ----------------------------------------------------------------
    1      C      -8.0217290099    -1.5145009833     0.4586170936
    2      C      -7.6118165300    -0.6689575717    -0.5611242384
    3      C      -7.0847029175    -2.0337658162     1.3379901402
    4      C      -6.2756127115    -0.3317568234    -0.6910649892
    5      C      -5.7468804928    -1.7022215556     1.2059183655
    6      C      -5.3268350770    -0.8424022508     0.1942394739
    7      C      -3.9053242323    -0.4599484754     0.0854050528
    8      C      -2.9015098246    -1.3867498831     0.1702137654
    9      C      -3.4704857150     0.8808551205    -0.1120611849
   10      N      -1.5740391667    -1.1262001051     0.0921926757
   11      N      -4.2370890413     1.9682348044    -0.2242231496
   12      C      -2.0706869686     1.1722428324    -0.1939549602
   13      C      -1.1380295393     0.0915251890    -0.0817705550
   14      S      -3.2305080665     3.2102373422    -0.4198201015
   15      N      -1.8096912335     2.4677527539    -0.3726571028
   16      C       0.3125930408     0.2613901866    -0.1610062110
   17      N       0.9511851184     1.3868005033    -0.2430568071
   18      S       1.3270157967    -1.1503627956    -0.1434268792
   19      C       2.2906455526     1.1834652685    -0.3099661384
   20      C       2.7046862727    -0.1204071066    -0.2798159287
   21      C       4.0653435199    -0.6111400859    -0.3028011893
   22      S       4.4922580399    -2.1363783958    -1.0001251415
   23      C       5.1989039364    -0.0098900030     0.1742226202
   24      C       6.1515834522    -1.9617303219    -0.6339689187
   25      S       5.5222836086     1.4834272661     1.0114860790
   26      C       6.3916327506    -0.7713508139    -0.0068087994
   27      C       7.2219166767     1.0711771771     1.1060405594
   28      C       7.5431444370    -0.1062353945     0.5473525042
   29      H      -9.0675636141    -1.7657369754     0.5704899429
   30      H      -8.3350407641    -0.2682144437    -1.2580477588
   31      H      -7.3962032268    -2.6925894088     2.1370195970
   32      H      -5.9615180327     0.3211436644    -1.4924834831
   33      H      -5.0210970610    -2.1045808174     1.9003965216
   34      H      -3.1519222452    -2.4322039313     0.3000131865
   35      H       2.9529521333     2.0313747028    -0.4034349481
   36      H       6.8517179065    -2.7378457902    -0.8904759628
   37      H       7.8878393002     1.7607173776     1.5988001466
   38      H       8.5450518782    -0.5059857224     0.5303849486
 ----------------------------------------------------------------
 Molecular Point Group                 C1    NOp =  1
 Largest Abelian Subgroup              C1    NOp =  1
 Nuclear Repulsion Energy =  2866.5531730646 hartrees
 There are      111 alpha and      111 beta electrons
 Applying Cartesian multipole field
    Component          Value
    ---------          -----
     (2,0,0)        1.00000E-12
     (0,2,0)        2.00000E-11
     (0,0,2)       -3.00000E-11
 Nucleus-field energy     =     0.0000000476 hartrees
 Requested basis set is cc-pVTZ
 There are 348 shells and 996 basis functions
 A cutoff of  1.0D-11 yielded  28547 shell pairs
 There are    225999 function pairs (    295283 Cartesian)
 Smallest overlap matrix eigenvalue = 3.11E-05
 Guess MOs from SCF MO coefficient file
 Reading MOs from coefficient file
 Reading MOs from coefficient file
 Long-range K will be added via erf
 Coulomb attenuation parameter = 0.2 bohr**(-1)
 A restricted hybrid HF-DFT SCF calculation will be
 performed using Pulay DIIS extrapolation
 Exchange:     0.2220 Hartree-Fock + 1.0000 wB97X-D + LR-HF
 Correlation:  1.0000 wB97X-D
 Using SG-2 standard quadrature grid
 Dispersion:   Grimme D
 SCF converges when DIIS error is below 1.0E-08
 Geometry optimization detected.  Setting ReadMinima to 0
 Setting SaveMinima to 0
 using 16 threads for integral computing 
 using 16 threads for integral computing 
 K construction time:  CPU 996.11 s  wall 65.01 s
 -------------------------------------------------------
 OpenMP BLAS3 based DFT computing Module                
 Release: version 1.0, May 2013, Q-Chem Inc. Pittsburgh 
 -------------------------------------------------------
 ---------------------------------------
  Cycle       Energy         DIIS Error
 ---------------------------------------
    1   -2579.8624660420      1.99E-04
 K construction time:  CPU 996.20 s  wall 65.26 s
    2   -2579.8620376646      2.15E-05
 K construction time:  CPU 718.96 s  wall 47.11 s
    3   -2579.8621262783      1.82E-05
 K construction time:  CPU 673.28 s  wall 44.04 s
    4   -2579.8621592335      8.77E-06
 K construction time:  CPU 637.46 s  wall 41.82 s
    5   -2579.8621691090      3.34E-06
 K construction time:  CPU 588.72 s  wall 38.43 s
    6   -2579.8621707176      9.97E-07
 K construction time:  CPU 525.09 s  wall 34.40 s
    7   -2579.8621708905      2.92E-07
 K construction time:  CPU 474.95 s  wall 31.01 s
    8   -2579.8621709101      1.45E-07
 K construction time:  CPU 432.27 s  wall 28.27 s
    9   -2579.8621709147      4.70E-08
 K construction time:  CPU 362.78 s  wall 23.74 s
   10   -2579.8621709151      2.14E-08
 K construction time:  CPU 340.62 s  wall 22.16 s
   11   -2579.8621709153      8.99E-09 Convergence criterion met
 ---------------------------------------
 SCF time:  CPU 9173.94 s  wall 615.03 s
 SCF   energy in the final basis set = -2579.8621709153
 Total energy in the final basis set = -2579.8621709153
 
 --------------------------------------------------------------
 
                    Orbital Energies (a.u.)
 --------------------------------------------------------------
 
 Alpha MOs
 -- Occupied --
-89.149 -89.090 -89.086 -89.078 -14.485 -14.481 -14.454 -14.443
-10.365 -10.362 -10.357 -10.355 -10.343 -10.342 -10.335 -10.332
-10.330 -10.327 -10.325 -10.322 -10.313 -10.312 -10.305 -10.298
-10.296 -10.295 -10.295 -10.294  -8.159  -8.105  -8.101  -8.093
 -6.109  -6.104  -6.103  -6.054  -6.050  -6.050  -6.048  -6.047
 -6.044  -6.043  -6.039  -6.035  -1.145  -1.086  -1.064  -1.023
 -1.009  -0.974  -0.958  -0.925  -0.919  -0.899  -0.876  -0.860
 -0.855  -0.833  -0.828  -0.802  -0.775  -0.744  -0.734  -0.712
 -0.705  -0.693  -0.691  -0.660  -0.651  -0.637  -0.626  -0.614
 -0.606  -0.598  -0.571  -0.564  -0.556  -0.548  -0.542  -0.531
 -0.530  -0.524  -0.514  -0.513  -0.507  -0.504  -0.498  -0.486
 -0.478  -0.475  -0.469  -0.455  -0.449  -0.439  -0.436  -0.433
 -0.430  -0.423  -0.421  -0.399  -0.393  -0.374  -0.368  -0.362
 -0.358  -0.353  -0.339  -0.338  -0.324  -0.306  -0.272
 -- Virtual --
 -0.050   0.001   0.027   0.042   0.053   0.057   0.067   0.072
  0.083   0.089   0.107   0.113   0.118   0.125   0.131   0.138
  0.140   0.144   0.149   0.155   0.160   0.164   0.170   0.179
  0.189   0.192   0.195   0.201   0.218   0.220   0.235   0.237
  0.242   0.250   0.259   0.267   0.275   0.282   0.287   0.291
  0.298   0.303   0.304   0.308   0.312   0.315   0.322   0.325
  0.329   0.331   0.336   0.340   0.345   0.348   0.351   0.356
  0.359   0.362   0.370   0.372   0.377   0.385   0.386   0.387
  0.388   0.392   0.396   0.397   0.403   0.407   0.408   0.412
  0.414   0.418   0.422   0.429   0.429   0.434   0.434   0.441
  0.443   0.446   0.449   0.453   0.454   0.459   0.464   0.466
  0.467   0.469   0.470   0.472   0.478   0.480   0.486   0.489
  0.492   0.495   0.501   0.503   0.505   0.509   0.513   0.518
  0.522   0.526   0.527   0.530   0.533   0.544   0.548   0.554
  0.555   0.557   0.562   0.563   0.566   0.569   0.576   0.579
  0.580   0.594   0.596   0.602   0.607   0.617   0.619   0.626
  0.629   0.632   0.636   0.645   0.651   0.653   0.660   0.665
  0.668   0.673   0.679   0.689   0.693   0.697   0.705   0.715
  0.720   0.725   0.728   0.729   0.737   0.741   0.746   0.753
  0.757   0.762   0.766   0.768   0.773   0.774   0.778   0.783
  0.787   0.793   0.795   0.802   0.804   0.812   0.816   0.820
  0.826   0.834   0.836   0.840   0.847   0.851   0.854   0.861
  0.863   0.867   0.876   0.878   0.882   0.887   0.890   0.898
  0.899   0.910   0.911   0.914   0.922   0.925   0.928   0.934
  0.943   0.945   0.951   0.958   0.961   0.962   0.967   0.973
  0.978   0.979   0.985   0.991   0.996   1.006   1.015   1.016
  1.023   1.032   1.036   1.042   1.048   1.051   1.054   1.058
  1.064   1.070   1.076   1.082   1.089   1.091   1.095   1.102
  1.108   1.115   1.124   1.127   1.132   1.143   1.144   1.151
  1.160   1.163   1.170   1.177   1.184   1.189   1.201   1.208
  1.209   1.216   1.220   1.224   1.237   1.242   1.250   1.253
  1.255   1.262   1.269   1.277   1.278   1.288   1.292   1.302
  1.313   1.319   1.330   1.336   1.346   1.354   1.359   1.364
  1.366   1.371   1.380   1.381   1.391   1.396   1.405   1.409
  1.415   1.420   1.422   1.435   1.437   1.445   1.451   1.453
  1.462   1.464   1.467   1.477   1.481   1.485   1.488   1.490
  1.492   1.498   1.514   1.516   1.521   1.538   1.540   1.549
  1.562   1.563   1.572   1.577   1.584   1.590   1.605   1.608
  1.612   1.619   1.623   1.627   1.638   1.644   1.652   1.654
  1.658   1.664   1.667   1.672   1.675   1.687   1.690   1.694
  1.705   1.707   1.711   1.713   1.727   1.735   1.740   1.747
  1.753   1.758   1.768   1.775   1.776   1.786   1.796   1.801
  1.823   1.832   1.836   1.841   1.854   1.874   1.882   1.885
  1.889   1.901   1.905   1.910   1.929   1.932   1.937   1.939
  1.949   1.959   1.968   1.975   1.981   1.988   1.995   2.004
  2.014   2.021   2.024   2.031   2.035   2.042   2.043   2.065
  2.073   2.082   2.086   2.091   2.101   2.108   2.116   2.125
  2.132   2.136   2.148   2.156   2.163   2.169   2.175   2.181
  2.193   2.202   2.206   2.211   2.215   2.236   2.238   2.242
  2.250   2.257   2.265   2.269   2.275   2.285   2.292   2.300
  2.321   2.325   2.331   2.335   2.337   2.346   2.353   2.358
  2.368   2.377   2.390   2.391   2.399   2.411   2.417   2.424
  2.436   2.443   2.448   2.454   2.456   2.462   2.469   2.477
  2.483   2.488   2.492   2.498   2.502   2.506   2.509   2.525
  2.532   2.535   2.542   2.553   2.559   2.567   2.573   2.585
  2.591   2.595   2.599   2.608   2.612   2.620   2.631   2.640
  2.647   2.654   2.665   2.669   2.676   2.682   2.694   2.711
  2.714   2.724   2.731   2.738   2.752   2.758   2.763   2.770
  2.773   2.780   2.781   2.786   2.789   2.802   2.805   2.809
  2.815   2.824   2.829   2.832   2.835   2.842   2.847   2.851
  2.859   2.874   2.885   2.896   2.898   2.903   2.909   2.913
  2.924   2.931   2.940   2.947   2.957   2.964   2.969   2.975
  2.977   2.987   2.994   2.995   2.998   3.007   3.013   3.018
  3.023   3.024   3.033   3.038   3.040   3.049   3.052   3.061
  3.065   3.072   3.073   3.079   3.082   3.086   3.095   3.098
  3.103   3.106   3.109   3.117   3.118   3.123   3.127   3.134
  3.137   3.143   3.150   3.151   3.154   3.162   3.166   3.169
  3.175   3.179   3.182   3.190   3.190   3.193   3.199   3.204
  3.212   3.215   3.217   3.223   3.226   3.232   3.236   3.240
  3.252   3.256   3.259   3.264   3.267   3.277   3.285   3.286
  3.288   3.289   3.291   3.300   3.304   3.308   3.311   3.318
  3.320   3.325   3.332   3.337   3.342   3.347   3.355   3.359
  3.367   3.370   3.376   3.382   3.391   3.394   3.397   3.407
  3.415   3.419   3.429   3.433   3.439   3.448   3.449   3.460
  3.461   3.462   3.467   3.472   3.474   3.480   3.484   3.493
  3.500   3.504   3.509   3.518   3.531   3.532   3.538   3.547
  3.549   3.561   3.566   3.568   3.572   3.582   3.584   3.597
  3.604   3.609   3.615   3.624   3.635   3.648   3.663   3.669
  3.689   3.694   3.703   3.704   3.715   3.721   3.731   3.739
  3.745   3.752   3.765   3.768   3.777   3.781   3.785   3.794
  3.801   3.808   3.811   3.831   3.840   3.846   3.854   3.857
  3.858   3.864   3.865   3.866   3.879   3.880   3.884   3.887
  3.891   3.900   3.907   3.921   3.932   3.937   3.944   3.948
  3.955   3.965   3.968   3.972   3.973   3.980   3.985   3.994
  3.999   4.010   4.014   4.026   4.032   4.038   4.054   4.069
  4.075   4.078   4.081   4.091   4.104   4.124   4.134   4.136
  4.145   4.152   4.159   4.165   4.169   4.174   4.184   4.191
  4.195   4.209   4.215   4.224   4.233   4.241   4.252   4.258
  4.269   4.274   4.280   4.288   4.299   4.318   4.322   4.327
  4.329   4.344   4.347   4.354   4.365   4.377   4.382   4.388
  4.390   4.398   4.404   4.409   4.423   4.428   4.431   4.435
  4.443   4.448   4.455   4.469   4.483   4.502   4.510   4.522
  4.527   4.540   4.552   4.562   4.572   4.581   4.592   4.601
  4.607   4.621   4.626   4.634   4.645   4.661   4.671   4.682
  4.685   4.719   4.723   4.735   4.749   4.750   4.778   4.780
  4.793   4.811   4.819   4.829   4.830   4.843   4.844   4.855
  4.862   4.865   4.882   4.888   4.897   4.909   4.919   4.936
  4.949   4.954   4.957   4.968   4.989   4.999   5.004   5.010
  5.028   5.044   5.051   5.067   5.073   5.079   5.088   5.092
  5.096   5.110   5.113   5.120   5.126   5.129   5.140   5.168
  5.188   5.194   5.215   5.244   5.247   5.251   5.266   5.271
  5.277   5.304   5.326   5.339   5.349   5.368   5.381   5.394
  5.399   5.429   5.444   5.468   5.503   5.519   5.523   5.536
  5.567   5.593   5.596   5.627   5.641   5.664   5.674   5.693
  5.729   5.737   5.768   5.797   5.819   5.826   5.838   5.868
  5.880   5.966   5.999   6.018   6.033   6.043   6.048   6.110
  6.141   6.156   6.174   6.191   6.214   6.236   6.251   6.303
  6.368   6.486   6.518   6.856   6.983   8.030   8.564   9.435
 10.111  10.710  11.129  11.143  11.682  12.015  12.322  12.621
 12.747  12.866  12.930  12.961  13.158  13.400  13.483  13.774
 13.813  13.948  14.126  14.668  15.706
 --------------------------------------------------------------
 
          Ground-State Mulliken Net Atomic Charges

     Atom                 Charge (a.u.)
  ----------------------------------------
      1 C                    -0.123954
      2 C                    -0.109497
      3 C                    -0.109687
      4 C                    -0.120591
      5 C                    -0.148101
      6 C                     0.118851
      7 C                     0.014707
      8 C                    -0.110184
      9 C                     0.033559
     10 N                    -0.174166
     11 N                    -0.281147
     12 C                    -0.012613
     13 C                     0.109396
     14 S                     0.412776
     15 N                    -0.222843
     16 C                    -0.008735
     17 N                    -0.137372
     18 S                     0.120545
     19 C                    -0.145846
     20 C                    -0.017389
     21 C                     0.004132
     22 S                     0.133532
     23 C                    -0.049868
     24 C                    -0.219708
     25 S                     0.056835
     26 C                     0.042869
     27 C                    -0.145394
     28 C                    -0.172771
     29 H                     0.117768
     30 H                     0.115722
     31 H                     0.115086
     32 H                     0.114234
     33 H                     0.127370
     34 H                     0.135766
     35 H                     0.146291
     36 H                     0.129848
     37 H                     0.132713
     38 H                     0.127866
  ----------------------------------------
  Sum of atomic charges =     0.000000

 -----------------------------------------------------------------
                    Cartesian Multipole Moments
 -----------------------------------------------------------------
    Charge (ESU x 10^10)
                 0.0000
    Dipole Moment (Debye)
         X       0.7541      Y      -0.9248      Z       0.1343
       Tot       1.2008
    Quadrupole Moments (Debye-Ang)
        XX    -139.8072     XY      -0.5746     YY    -179.6905
        XZ       2.3902     YZ      -1.1346     ZZ    -184.7948
    Octopole Moments (Debye-Ang^2)
       XXX     151.3152    XXY     -50.8185    XYY      10.3686
       YYY      21.4782    XXZ      19.6215    XYZ      50.8460
       YYZ       4.8212    XZZ     -20.2963    YZZ       4.5768
       ZZZ      -2.6586
    Hexadecapole Moments (Debye-Ang^3)
      XXXX  -21190.4016   XXXY     153.7246   XXYY   -4356.3852
      XYYY    -163.8423   YYYY   -2739.8617   XXXZ     307.0668
      XXYZ      -6.2185   XYYZ     -63.6903   YYYZ      -1.5360
      XXZZ   -4270.5072   XYZZ      27.6525   YYZZ    -561.6977
      XZZZ      -8.1068   YZZZ     -11.1381   ZZZZ    -666.7316
 -----------------------------------------------------------------
 Calculating analytic gradient of the SCF energy
 K construction time:  CPU 2096.66 s  wall 132.88 s
 Gradient of SCF Energy
            1           2           3           4           5           6
    1  -0.0001660  -0.0006291   0.0006845  -0.0003244  -0.0005188   0.0008650
    2   0.0001060   0.0001376   0.0004820   0.0008303   0.0010670  -0.0034973
    3  -0.0002094   0.0000473  -0.0000809   0.0003126   0.0005653  -0.0005586
            7           8           9          10          11          12
    1  -0.0006492   0.0009539  -0.0001864  -0.0002777   0.0003609  -0.0000757
    2   0.0036596  -0.0004755  -0.0007271  -0.0002053  -0.0000722  -0.0006041
    3   0.0011725  -0.0002895   0.0003600   0.0000693  -0.0000490   0.0001466
           13          14          15          16          17          18
    1  -0.0000808  -0.0000904  -0.0000520   0.0001220  -0.0002030  -0.0001279
    2  -0.0000171   0.0010431  -0.0000995   0.0003144  -0.0001836  -0.0003888
    3   0.0000002  -0.0001095  -0.0000281  -0.0000965   0.0001910   0.0002913
           19          20          21          22          23          24
    1  -0.0000166   0.0000027   0.0000619  -0.0002016  -0.0001907   0.0000906
    2   0.0000598   0.0003569   0.0004095  -0.0000973  -0.0005809   0.0000588
    3   0.0001064  -0.0008710   0.0005840  -0.0003123  -0.0001909   0.0000073
           25          26          27          28          29          30
    1  -0.0002624   0.0000195   0.0006508  -0.0001483   0.0000339   0.0000210
    2   0.0003089   0.0000068  -0.0002128   0.0000121   0.0000687   0.0001040
    3   0.0000644  -0.0000559  -0.0002470  -0.0002248   0.0001140   0.0000190
           31          32          33          34          35          36
    1  -0.0000920   0.0002564   0.0001636  -0.0000971   0.0001008   0.0001145
    2   0.0001752  -0.0010753  -0.0010565   0.0000174  -0.0000498   0.0000603
    3   0.0001664  -0.0007748  -0.0006941   0.0000163  -0.0000670   0.0001476
           37          38
    1  -0.0001801   0.0000679
    2  -0.0000217   0.0000863
    3   0.0002529   0.0002251
 Max gradient component =       3.660E-03
 RMS gradient           =       6.143E-04
 Gradient time:  CPU 2516.04 s  wall 161.26 s
 Geometry Optimization Parameters
   NAtoms,    NIC,     NZ,  NCons,   NDum,   NFix, NCnnct, MaxDiis
       38     289       0       3       0       0       0       0

 Cartesian Hessian Update
 Hessian Updated using BFGS Update


** CONSTRAINED OPTIMIZATION IN DELOCALIZED INTERNAL COORDINATES **
   Searching for a Minimum

   Optimization Cycle:   2

                       Coordinates (Angstroms)
     ATOM                X               Y               Z
      1  C        -8.0217290099   -1.5145009833    0.4586170936
      2  C        -7.6118165300   -0.6689575717   -0.5611242384
      3  C        -7.0847029175   -2.0337658162    1.3379901402
      4  C        -6.2756127115   -0.3317568234   -0.6910649892
      5  C        -5.7468804928   -1.7022215556    1.2059183655
      6  C        -5.3268350770   -0.8424022508    0.1942394739
      7  C        -3.9053242323   -0.4599484754    0.0854050528
      8  C        -2.9015098246   -1.3867498831    0.1702137654
      9  C        -3.4704857150    0.8808551205   -0.1120611849
     10  N        -1.5740391667   -1.1262001051    0.0921926757
     11  N        -4.2370890413    1.9682348044   -0.2242231496
     12  C        -2.0706869686    1.1722428324   -0.1939549602
     13  C        -1.1380295393    0.0915251890   -0.0817705550
     14  S        -3.2305080665    3.2102373422   -0.4198201015
     15  N        -1.8096912335    2.4677527539   -0.3726571028
     16  C         0.3125930408    0.2613901866   -0.1610062110
     17  N         0.9511851184    1.3868005033   -0.2430568071
     18  S         1.3270157967   -1.1503627956   -0.1434268792
     19  C         2.2906455526    1.1834652685   -0.3099661384
     20  C         2.7046862727   -0.1204071066   -0.2798159287
     21  C         4.0653435199   -0.6111400859   -0.3028011893
     22  S         4.4922580399   -2.1363783958   -1.0001251415
     23  C         5.1989039364   -0.0098900030    0.1742226202
     24  C         6.1515834522   -1.9617303219   -0.6339689187
     25  S         5.5222836086    1.4834272661    1.0114860790
     26  C         6.3916327506   -0.7713508139   -0.0068087994
     27  C         7.2219166767    1.0711771771    1.1060405594
     28  C         7.5431444370   -0.1062353945    0.5473525042
     29  H        -9.0675636141   -1.7657369754    0.5704899429
     30  H        -8.3350407641   -0.2682144437   -1.2580477588
     31  H        -7.3962032268   -2.6925894088    2.1370195970
     32  H        -5.9615180327    0.3211436644   -1.4924834831
     33  H        -5.0210970610   -2.1045808174    1.9003965216
     34  H        -3.1519222452   -2.4322039313    0.3000131865
     35  H         2.9529521333    2.0313747028   -0.4034349481
     36  H         6.8517179065   -2.7378457902   -0.8904759628
     37  H         7.8878393002    1.7607173776    1.5988001466
     38  H         8.5450518782   -0.5059857224    0.5303849486
   Point Group: c1    Number of degrees of freedom:   108


   Energy is  -2579.862170915

              Constraints and their Current Values
                                        Value     Constraint
   Dihedral:        4   6   7   8     -135.000     -135.000
   Dihedral:       10  13  16  18        4.632        4.632
   Dihedral:       18  20  21  22       32.716       32.716
 Hessian Updated using BFGS Update

100 Hessian modes will be used to form the next step
  Hessian Eigenvalues:
     0.024202    0.045000    0.045000    0.045000    0.045000    0.045000
     0.045000    0.045000    0.045000    0.045000    0.045001    0.045001
     0.045002    0.045002    0.045002    0.045003    0.045004    0.045004
     0.045005    0.045006    0.045007    0.045008    0.045011    0.045021
     0.045030    0.045039    0.045045    0.046122    0.159265    0.159975
     0.159978    0.159981    0.159982    0.159991    0.159993    0.159994
     0.159999    0.160773    0.217861    0.220050    0.225219    0.232920
     0.234539    0.234806    0.237021    0.241235    0.247567    0.249753
     0.249780    0.249909    0.249982    0.249988    0.249992    0.249995
     0.249998    0.250000    0.280706    0.296217    0.304492    0.308523
     0.315678    0.324614    0.337401    0.350865    0.356844    0.357285
     0.357363    0.357925    0.358486    0.358969    0.359869    0.361616
     0.362493    0.365192    0.365988    0.371242    0.381543    0.386881
     0.389558    0.394150    0.413488    0.429927    0.436263    0.472419
     0.473822    0.474876    0.479939    0.480440    0.483103    0.483581
     0.486973    0.500939    0.509431    0.519876    0.528170    0.543220
     0.556268    0.581415    0.638705    0.653841

 Minimum Search - Taking Simple RFO Step
 Searching for Lamda that Minimizes Along All modes
 Value Taken    Lamda =  -0.00043388
 Step Taken.  Stepsize is  0.129260

                             Maximum     Tolerance    Cnvgd?
         Gradient           0.001082      0.000300      NO
         Displacement       0.049776      0.001200      NO
         Energy change     -0.000664      0.000001      NO


 New Cartesian Coordinates Obtained by Inverse Iteration

 Displacement from previous Coordinates is:  0.350381
 ----------------------------------------------------------------
             Standard Nuclear Orientation (Angstroms)
    I     Atom           X                Y                Z
 ----------------------------------------------------------------
    1      C      -8.0126199948    -1.5543461958     0.4401348228
    2      C      -7.6168920439    -0.6765914925    -0.5585041884
    3      C      -7.0714283846    -2.0619675854     1.3207770954
    4      C      -6.2899467600    -0.3017636672    -0.6747707011
    5      C      -5.7421489176    -1.6895314232     1.2043789022
    6      C      -5.3349703783    -0.8092336875     0.2042573254
    7      C      -3.9105302020    -0.4434176936     0.0868797553
    8      C      -2.9109334225    -1.3728532547     0.1735868727
    9      C      -3.4702843035     0.8956161784    -0.1175474955
   10      N      -1.5819640396    -1.1156566708     0.0966465271
   11      N      -4.2355301290     1.9833942973    -0.2316220807
   12      C      -2.0693912746     1.1832893139    -0.2023292518
   13      C      -1.1408878186     0.0995408301    -0.0828731527
   14      S      -3.2244341963     3.2197074380    -0.4334655330
   15      N      -1.8044314475     2.4769113000    -0.3855894707
   16      C       0.3109639157     0.2631290904    -0.1544333865
   17      N       0.9550811739     1.3853205444    -0.2419420704
   18      S       1.3201646737    -1.1516522918    -0.1212642198
   19      C       2.2937957192     1.1759139261    -0.3008712942
   20      C       2.7026744812    -0.1294444786    -0.2593858781
   21      C       4.0620726684    -0.6236614241    -0.2798751290
   22      S       4.4857335798    -2.1512059185    -0.9719931942
   23      C       5.1985967392    -0.0179181190     0.1862270341
   24      C       6.1467945262    -1.9732861915    -0.6197114944
   25      S       5.5281309141     1.4813932169     1.0084726213
   26      C       6.3906992931    -0.7789624843    -0.0013404239
   27      C       7.2289442669     1.0747200673     1.0863445483
   28      C       7.5467030964    -0.1073676681     0.5349797616
   29      H      -9.0522851769    -1.8363525790     0.5363122225
   30      H      -8.3468288416    -0.2816232536    -1.2514057973
   31      H      -7.3701218476    -2.7430540732     2.1055635726
   32      H      -5.9916640870     0.3832091609    -1.4546547954
   33      H      -5.0117183021    -2.0739103359     1.9041370983
   34      H      -3.1622470845    -2.4172086215     0.3105833170
   35      H       2.9582187585     2.0215922874    -0.3984507504
   36      H       6.8443748596    -2.7499876516    -0.8818287153
   37      H       7.9017821873     1.7717157487     1.5588220779
   38      H       8.5489957493    -0.5052679204     0.5044436941
 ----------------------------------------------------------------
 Molecular Point Group                 C1    NOp =  1
 Largest Abelian Subgroup              C1    NOp =  1
 Nuclear Repulsion Energy =  2866.5043298346 hartrees
 There are      111 alpha and      111 beta electrons
 Applying Cartesian multipole field
    Component          Value
    ---------          -----
     (2,0,0)        1.00000E-12
     (0,2,0)        2.00000E-11
     (0,0,2)       -3.00000E-11
 Nucleus-field energy     =     0.0000000481 hartrees
 Requested basis set is cc-pVTZ
 There are 348 shells and 996 basis functions
 A cutoff of  1.0D-11 yielded  28543 shell pairs
 There are    225975 function pairs (    295252 Cartesian)
 Smallest overlap matrix eigenvalue = 3.10E-05
 Guess MOs from SCF MO coefficient file
 Reading MOs from coefficient file
 Reading MOs from coefficient file
 Long-range K will be added via erf
 Coulomb attenuation parameter = 0.2 bohr**(-1)
 A restricted hybrid HF-DFT SCF calculation will be
 performed using Pulay DIIS extrapolation
 Exchange:     0.2220 Hartree-Fock + 1.0000 wB97X-D + LR-HF
 Correlation:  1.0000 wB97X-D
 Using SG-2 standard quadrature grid
 Dispersion:   Grimme D
 SCF converges when DIIS error is below 1.0E-08
 Geometry optimization detected.  Setting ReadMinima to 0
 Setting SaveMinima to 0
 using 16 threads for integral computing 
 using 16 threads for integral computing 
 K construction time:  CPU 992.88 s  wall 65.09 s
 -------------------------------------------------------
 OpenMP BLAS3 based DFT computing Module                
 Release: version 1.0, May 2013, Q-Chem Inc. Pittsburgh 
 -------------------------------------------------------
 ---------------------------------------
  Cycle       Energy         DIIS Error
 ---------------------------------------
    1   -2579.8632949705      2.23E-04
 K construction time:  CPU 995.15 s  wall 65.11 s
    2   -2579.8622177188      2.38E-05
 K construction time:  CPU 722.33 s  wall 47.20 s
    3   -2579.8623755432      1.47E-05
 K construction time:  CPU 685.01 s  wall 44.81 s
    4   -2579.8624009385      8.59E-06
 K construction time:  CPU 651.43 s  wall 42.65 s
    5   -2579.8624113782      3.60E-06
 K construction time:  CPU 597.73 s  wall 39.16 s
    6   -2579.8624131420      1.47E-06
 K construction time:  CPU 535.23 s  wall 35.03 s
    7   -2579.8624134200      4.79E-07
 K construction time:  CPU 486.93 s  wall 31.74 s
    8   -2579.8624134540      2.02E-07
 K construction time:  CPU 452.31 s  wall 29.45 s
    9   -2579.8624134629      7.64E-08
 K construction time:  CPU 379.36 s  wall 24.65 s
   10   -2579.8624134634      2.56E-08
 K construction time:  CPU 351.88 s  wall 22.87 s
   11   -2579.8624134651      1.21E-08
 K construction time:  CPU 297.56 s  wall 19.46 s
   12   -2579.8624134668      5.57E-09 Convergence criterion met
 ---------------------------------------
 SCF time:  CPU 9743.02 s  wall 653.39 s
 SCF   energy in the final basis set = -2579.8624134668
 Total energy in the final basis set = -2579.8624134668
 
 --------------------------------------------------------------
 
                    Orbital Energies (a.u.)
 --------------------------------------------------------------
 
 Alpha MOs
 -- Occupied --
-89.149 -89.090 -89.086 -89.078 -14.485 -14.481 -14.454 -14.443
-10.365 -10.362 -10.357 -10.355 -10.343 -10.342 -10.335 -10.332
-10.330 -10.327 -10.324 -10.322 -10.313 -10.312 -10.305 -10.297
-10.296 -10.295 -10.295 -10.294  -8.159  -8.105  -8.101  -8.093
 -6.109  -6.104  -6.103  -6.054  -6.050  -6.050  -6.048  -6.047
 -6.044  -6.043  -6.039  -6.035  -1.146  -1.086  -1.064  -1.023
 -1.010  -0.974  -0.959  -0.925  -0.919  -0.899  -0.876  -0.860
 -0.855  -0.833  -0.828  -0.802  -0.775  -0.745  -0.734  -0.712
 -0.705  -0.693  -0.691  -0.660  -0.651  -0.637  -0.626  -0.615
 -0.606  -0.598  -0.572  -0.564  -0.556  -0.548  -0.541  -0.531
 -0.530  -0.525  -0.514  -0.513  -0.507  -0.504  -0.498  -0.486
 -0.478  -0.475  -0.469  -0.455  -0.449  -0.440  -0.436  -0.433
 -0.431  -0.423  -0.421  -0.399  -0.393  -0.374  -0.367  -0.362
 -0.358  -0.353  -0.339  -0.338  -0.324  -0.306  -0.272
 -- Virtual --
 -0.050   0.001   0.027   0.042   0.053   0.057   0.067   0.072
  0.084   0.089   0.107   0.114   0.118   0.125   0.131   0.138
  0.140   0.144   0.149   0.156   0.160   0.164   0.171   0.179
  0.190   0.192   0.195   0.201   0.218   0.220   0.235   0.237
  0.242   0.250   0.259   0.268   0.275   0.282   0.287   0.290
  0.297   0.303   0.304   0.308   0.312   0.315   0.322   0.325
  0.329   0.331   0.336   0.339   0.345   0.348   0.351   0.356
  0.359   0.362   0.370   0.372   0.377   0.385   0.386   0.387
  0.389   0.392   0.396   0.397   0.403   0.407   0.408   0.412
  0.414   0.418   0.422   0.429   0.429   0.433   0.434   0.442
  0.443   0.446   0.449   0.453   0.454   0.460   0.464   0.466
  0.467   0.469   0.470   0.473   0.478   0.481   0.486   0.488
  0.493   0.495   0.501   0.503   0.505   0.509   0.512   0.518
  0.522   0.526   0.527   0.530   0.533   0.543   0.547   0.554
  0.555   0.558   0.562   0.564   0.567   0.569   0.577   0.579
  0.580   0.594   0.596   0.602   0.606   0.617   0.619   0.626
  0.629   0.631   0.636   0.646   0.651   0.652   0.660   0.665
  0.668   0.673   0.679   0.688   0.693   0.698   0.706   0.716
  0.721   0.725   0.728   0.730   0.737   0.741   0.746   0.753
  0.756   0.761   0.766   0.768   0.772   0.774   0.778   0.783
  0.787   0.793   0.795   0.802   0.804   0.813   0.816   0.819
  0.826   0.834   0.837   0.840   0.848   0.851   0.854   0.861
  0.863   0.867   0.876   0.878   0.882   0.887   0.889   0.899
  0.899   0.910   0.913   0.914   0.922   0.925   0.928   0.934
  0.943   0.945   0.951   0.957   0.961   0.963   0.968   0.974
  0.977   0.980   0.985   0.990   0.996   1.006   1.014   1.017
  1.022   1.032   1.038   1.042   1.047   1.050   1.055   1.058
  1.063   1.073   1.075   1.082   1.090   1.091   1.095   1.102
  1.108   1.115   1.124   1.126   1.133   1.143   1.145   1.151
  1.160   1.163   1.168   1.177   1.185   1.189   1.201   1.208
  1.210   1.215   1.220   1.223   1.236   1.242   1.250   1.253
  1.254   1.261   1.269   1.277   1.278   1.288   1.292   1.302
  1.314   1.319   1.329   1.336   1.347   1.355   1.359   1.363
  1.366   1.370   1.379   1.382   1.391   1.396   1.405   1.409
  1.414   1.420   1.422   1.435   1.438   1.445   1.451   1.454
  1.461   1.463   1.467   1.477   1.482   1.486   1.487   1.489
  1.492   1.498   1.515   1.516   1.521   1.538   1.541   1.549
  1.562   1.565   1.573   1.577   1.583   1.590   1.605   1.608
  1.612   1.618   1.624   1.627   1.639   1.643   1.652   1.654
  1.658   1.664   1.667   1.672   1.676   1.688   1.690   1.694
  1.705   1.709   1.711   1.713   1.727   1.735   1.740   1.747
  1.753   1.760   1.767   1.775   1.776   1.786   1.797   1.801
  1.823   1.832   1.835   1.841   1.854   1.874   1.882   1.885
  1.889   1.901   1.905   1.911   1.928   1.933   1.938   1.940
  1.948   1.959   1.967   1.975   1.981   1.989   1.995   2.005
  2.014   2.021   2.025   2.031   2.036   2.042   2.044   2.065
  2.072   2.081   2.086   2.091   2.102   2.107   2.117   2.124
  2.133   2.137   2.148   2.155   2.162   2.170   2.175   2.181
  2.194   2.202   2.207   2.211   2.215   2.236   2.237   2.242
  2.250   2.258   2.263   2.271   2.276   2.285   2.290   2.299
  2.320   2.326   2.332   2.335   2.338   2.346   2.354   2.358
  2.369   2.376   2.391   2.392   2.399   2.411   2.417   2.426
  2.435   2.443   2.447   2.454   2.456   2.462   2.469   2.478
  2.484   2.488   2.492   2.498   2.503   2.505   2.508   2.524
  2.531   2.534   2.542   2.554   2.558   2.566   2.572   2.586
  2.591   2.594   2.600   2.609   2.610   2.620   2.632   2.641
  2.646   2.654   2.664   2.670   2.677   2.682   2.694   2.710
  2.714   2.725   2.730   2.739   2.752   2.757   2.762   2.771
  2.773   2.777   2.782   2.786   2.788   2.801   2.805   2.808
  2.815   2.823   2.829   2.833   2.835   2.842   2.847   2.849
  2.860   2.874   2.886   2.897   2.898   2.904   2.910   2.913
  2.924   2.932   2.941   2.948   2.957   2.964   2.968   2.975
  2.977   2.987   2.994   2.995   2.998   3.007   3.013   3.020
  3.022   3.024   3.032   3.039   3.041   3.049   3.054   3.063
  3.065   3.071   3.073   3.079   3.081   3.086   3.094   3.098
  3.103   3.106   3.109   3.117   3.117   3.122   3.127   3.134
  3.138   3.141   3.151   3.151   3.154   3.161   3.166   3.168
  3.175   3.178   3.183   3.190   3.190   3.194   3.199   3.206
  3.212   3.215   3.217   3.223   3.225   3.232   3.236   3.241
  3.252   3.255   3.259   3.265   3.269   3.276   3.284   3.285
  3.287   3.289   3.292   3.300   3.304   3.307   3.312   3.318
  3.320   3.325   3.333   3.336   3.342   3.347   3.356   3.359
  3.366   3.370   3.376   3.384   3.389   3.395   3.397   3.406
  3.414   3.419   3.429   3.434   3.439   3.448   3.450   3.459
  3.460   3.463   3.467   3.473   3.475   3.481   3.485   3.493
  3.499   3.503   3.509   3.518   3.531   3.533   3.538   3.548
  3.550   3.562   3.566   3.567   3.572   3.580   3.585   3.598
  3.605   3.609   3.615   3.624   3.634   3.645   3.662   3.670
  3.689   3.693   3.703   3.705   3.717   3.721   3.731   3.739
  3.745   3.752   3.765   3.768   3.777   3.780   3.785   3.796
  3.802   3.806   3.811   3.834   3.839   3.846   3.852   3.856
  3.859   3.863   3.864   3.866   3.880   3.881   3.884   3.887
  3.891   3.897   3.908   3.921   3.932   3.938   3.943   3.950
  3.955   3.966   3.967   3.972   3.973   3.980   3.986   3.993
  3.997   4.010   4.015   4.029   4.031   4.038   4.054   4.069
  4.076   4.078   4.082   4.091   4.105   4.122   4.134   4.135
  4.145   4.151   4.161   4.166   4.169   4.176   4.185   4.192
  4.196   4.211   4.215   4.225   4.235   4.241   4.252   4.257
  4.270   4.273   4.280   4.288   4.300   4.317   4.323   4.326
  4.333   4.344   4.348   4.354   4.364   4.378   4.382   4.388
  4.391   4.399   4.406   4.410   4.422   4.427   4.430   4.434
  4.444   4.450   4.455   4.470   4.485   4.503   4.510   4.522
  4.526   4.539   4.551   4.562   4.569   4.580   4.593   4.601
  4.607   4.620   4.627   4.634   4.645   4.661   4.672   4.682
  4.688   4.720   4.725   4.737   4.749   4.751   4.778   4.780
  4.791   4.811   4.818   4.829   4.830   4.843   4.844   4.854
  4.862   4.866   4.882   4.888   4.897   4.909   4.921   4.935
  4.948   4.954   4.956   4.968   4.990   4.999   5.003   5.011
  5.027   5.043   5.052   5.068   5.072   5.079   5.088   5.093
  5.097   5.110   5.114   5.121   5.126   5.129   5.141   5.168
  5.188   5.194   5.214   5.244   5.247   5.251   5.267   5.271
  5.278   5.303   5.326   5.338   5.348   5.368   5.380   5.393
  5.401   5.431   5.443   5.468   5.507   5.517   5.524   5.538
  5.566   5.593   5.597   5.629   5.638   5.665   5.675   5.694
  5.729   5.739   5.767   5.796   5.819   5.829   5.839   5.870
  5.880   5.967   6.000   6.019   6.031   6.043   6.048   6.114
  6.142   6.155   6.177   6.191   6.214   6.237   6.251   6.305
  6.367   6.486   6.518   6.855   6.985   8.037   8.570   9.440
 10.111  10.712  11.130  11.147  11.680  12.018  12.316  12.619
 12.736  12.862  12.928  12.959  13.159  13.398  13.478  13.786
 13.842  13.946  14.123  14.664  15.707
 --------------------------------------------------------------
 
          Ground-State Mulliken Net Atomic Charges

     Atom                 Charge (a.u.)
  ----------------------------------------
      1 C                    -0.124159
      2 C                    -0.109701
      3 C                    -0.109969
      4 C                    -0.120385
      5 C                    -0.150534
      6 C                     0.122639
      7 C                     0.014794
      8 C                    -0.111689
      9 C                     0.035999
     10 N                    -0.174290
     11 N                    -0.282774
     12 C                    -0.013382
     13 C                     0.109486
     14 S                     0.411910
     15 N                    -0.222109
     16 C                    -0.008770
     17 N                    -0.137718
     18 S                     0.120791
     19 C                    -0.145510
     20 C                    -0.016751
     21 C                     0.003715
     22 S                     0.134290
     23 C                    -0.051110
     24 C                    -0.220155
     25 S                     0.057717
     26 C                     0.043020
     27 C                    -0.145941
     28 C                    -0.172403
     29 H                     0.117796
     30 H                     0.115693
     31 H                     0.115198
     32 H                     0.114187
     33 H                     0.127890
     34 H                     0.135523
     35 H                     0.146237
     36 H                     0.129833
     37 H                     0.132855
     38 H                     0.127776
  ----------------------------------------
  Sum of atomic charges =     0.000000

 -----------------------------------------------------------------
                    Cartesian Multipole Moments
 -----------------------------------------------------------------
    Charge (ESU x 10^10)
                 0.0000
    Dipole Moment (Debye)
         X       0.7633      Y      -0.9379      Z       0.1051
       Tot       1.2138
    Quadrupole Moments (Debye-Ang)
        XX    -139.7712     XY      -0.3056     YY    -179.5374
        XZ       2.2618     YZ      -1.1601     ZZ    -185.0042
    Octopole Moments (Debye-Ang^2)
       XXX     153.5703    XXY     -52.0674    XYY       9.6433
       YYY      20.3132    XXZ      15.2667    XYZ      50.7648
       YYZ       4.2664    XZZ     -20.0560    YZZ       4.4961
       ZZZ      -4.5330
    Hexadecapole Moments (Debye-Ang^3)
      XXXX  -21193.2988   XXXY     190.0624   XXYY   -4343.5696
      XYYY    -150.8465   YYYY   -2758.1498   XXXZ     295.2456
      XXYZ      -4.4936   XYYZ     -68.7019   YYYZ       4.3540
      XXZZ   -4282.0835   XYZZ      27.5122   YYZZ    -563.4096
      XZZZ     -22.4460   YZZZ      -4.4988   ZZZZ    -656.1730
 -----------------------------------------------------------------
 Calculating analytic gradient of the SCF energy
 K construction time:  CPU 2098.15 s  wall 133.07 s
 Gradient of SCF Energy
            1           2           3           4           5           6
    1   0.0002510   0.0002520  -0.0005180  -0.0002072   0.0002637  -0.0003318
    2  -0.0001345   0.0001013  -0.0004155   0.0002511   0.0011792   0.0004501
    3   0.0001565  -0.0003631  -0.0000919   0.0000836   0.0004491  -0.0010351
            7           8           9          10          11          12
    1   0.0002514   0.0000845  -0.0007484   0.0000335  -0.0005408   0.0001656
    2  -0.0007631   0.0002463   0.0005515  -0.0002511   0.0000128   0.0005442
    3   0.0009764  -0.0007598   0.0001953   0.0003543   0.0000709  -0.0000937
           13          14          15          16          17          18
    1  -0.0000020   0.0002393   0.0004754  -0.0000699   0.0001490  -0.0000571
    2   0.0002779  -0.0014095   0.0001170   0.0000004  -0.0000291   0.0001370
    3  -0.0003035   0.0001487   0.0000235   0.0000975   0.0001196   0.0003060
           19          20          21          22          23          24
    1   0.0001596   0.0000160  -0.0001078   0.0001706   0.0000381  -0.0001095
    2  -0.0001453  -0.0000683  -0.0001160   0.0001655   0.0001429   0.0001274
    3   0.0001097  -0.0008300   0.0003567  -0.0002243   0.0002519   0.0002269
           25          26          27          28          29          30
    1  -0.0000065   0.0000768  -0.0001089   0.0000523  -0.0000258   0.0000756
    2  -0.0001559   0.0000199   0.0001642   0.0000013   0.0000846  -0.0000860
    3  -0.0000424  -0.0002764  -0.0000844   0.0001603   0.0002894   0.0001177
           31          32          33          34          35          36
    1   0.0000395  -0.0000914   0.0001626   0.0000678  -0.0000937   0.0000023
    2   0.0000420  -0.0004171  -0.0003654  -0.0000616   0.0000545  -0.0000802
    3  -0.0000383  -0.0001703  -0.0002362   0.0001952  -0.0000417  -0.0000884
           37          38
    1   0.0000134  -0.0000212
    2  -0.0000788  -0.0000937
    3   0.0000349  -0.0000446
 Max gradient component =       1.410E-03
 RMS gradient           =       3.316E-04
 Gradient time:  CPU 2517.98 s  wall 161.37 s
 Geometry Optimization Parameters
   NAtoms,    NIC,     NZ,  NCons,   NDum,   NFix, NCnnct, MaxDiis
       38     289       0       3       0       0       0       0

 Cartesian Hessian Update
 Hessian Updated using BFGS Update


** CONSTRAINED OPTIMIZATION IN DELOCALIZED INTERNAL COORDINATES **
   Searching for a Minimum

   Optimization Cycle:   3

                       Coordinates (Angstroms)
     ATOM                X               Y               Z
      1  C        -8.0126199948   -1.5543461958    0.4401348228
      2  C        -7.6168920439   -0.6765914925   -0.5585041884
      3  C        -7.0714283846   -2.0619675854    1.3207770954
      4  C        -6.2899467600   -0.3017636672   -0.6747707011
      5  C        -5.7421489176   -1.6895314232    1.2043789022
      6  C        -5.3349703783   -0.8092336875    0.2042573254
      7  C        -3.9105302020   -0.4434176936    0.0868797553
      8  C        -2.9109334225   -1.3728532547    0.1735868727
      9  C        -3.4702843035    0.8956161784   -0.1175474955
     10  N        -1.5819640396   -1.1156566708    0.0966465271
     11  N        -4.2355301290    1.9833942973   -0.2316220807
     12  C        -2.0693912746    1.1832893139   -0.2023292518
     13  C        -1.1408878186    0.0995408301   -0.0828731527
     14  S        -3.2244341963    3.2197074380   -0.4334655330
     15  N        -1.8044314475    2.4769113000   -0.3855894707
     16  C         0.3109639157    0.2631290904   -0.1544333865
     17  N         0.9550811739    1.3853205444   -0.2419420704
     18  S         1.3201646737   -1.1516522918   -0.1212642198
     19  C         2.2937957192    1.1759139261   -0.3008712942
     20  C         2.7026744812   -0.1294444786   -0.2593858781
     21  C         4.0620726684   -0.6236614241   -0.2798751290
     22  S         4.4857335798   -2.1512059185   -0.9719931942
     23  C         5.1985967392   -0.0179181190    0.1862270341
     24  C         6.1467945262   -1.9732861915   -0.6197114944
     25  S         5.5281309141    1.4813932169    1.0084726213
     26  C         6.3906992931   -0.7789624843   -0.0013404239
     27  C         7.2289442669    1.0747200673    1.0863445483
     28  C         7.5467030964   -0.1073676681    0.5349797616
     29  H        -9.0522851769   -1.8363525790    0.5363122225
     30  H        -8.3468288416   -0.2816232536   -1.2514057973
     31  H        -7.3701218476   -2.7430540732    2.1055635726
     32  H        -5.9916640870    0.3832091609   -1.4546547954
     33  H        -5.0117183021   -2.0739103359    1.9041370983
     34  H        -3.1622470845   -2.4172086215    0.3105833170
     35  H         2.9582187585    2.0215922874   -0.3984507504
     36  H         6.8443748596   -2.7499876516   -0.8818287153
     37  H         7.9017821873    1.7717157487    1.5588220779
     38  H         8.5489957493   -0.5052679204    0.5044436941
   Point Group: c1    Number of degrees of freedom:   108


   Energy is  -2579.862413467

              Constraints and their Current Values
                                        Value     Constraint
   Dihedral:        4   6   7   8     -135.000     -135.000
   Dihedral:       10  13  16  18        4.632        4.632
   Dihedral:       18  20  21  22       32.716       32.716
 Hessian Updated using BFGS Update

104 Hessian modes will be used to form the next step
  Hessian Eigenvalues:
     0.017450    0.045000    0.045000    0.045000    0.045000    0.045000
     0.045000    0.045000    0.045000    0.045000    0.045000    0.045001
     0.045001    0.045001    0.045002    0.045002    0.045002    0.045003
[...]
     32  H        -5.9662327178    0.4216859772   -1.4241168450
     33  H        -5.0511125391   -2.0823239854    1.9184407326
     34  H        -3.1725106423   -2.3957467483    0.3792989698
     35  H         2.9616681653    2.0113653472   -0.4065493276
     36  H         6.8234587811   -2.7790992091   -0.8551786295
     37  H         7.9376798051    1.8055294643    1.4370996807
     38  H         8.5590709054   -0.5009996458    0.4346741090
   Point Group: c1    Number of degrees of freedom:   108


   Energy is  -2579.862483509

              Constraints and their Current Values
                                        Value     Constraint
   Dihedral:        4   6   7   8     -135.000     -135.000
   Dihedral:       10  13  16  18        4.632        4.632
   Dihedral:       18  20  21  22       32.716       32.716
 Hessian Updated using BFGS Update

105 Hessian modes will be used to form the next step
  Hessian Eigenvalues:
     0.008569    0.015248    0.025843    0.045000    0.045000    0.045000
     0.045000    0.045000    0.045000    0.045000    0.045001    0.045001
     0.045001    0.045001    0.045002    0.045002    0.045004    0.045004
     0.045004    0.045005    0.045007    0.045007    0.045011    0.045015
     0.045020    0.045027    0.045030    0.045037    0.045064    0.045400
     0.045936    0.047444    0.158969    0.159919    0.159978    0.159983
     0.159992    0.160006    0.160086    0.160135    0.160447    0.160934
     0.219668    0.220397    0.225267    0.231759    0.234202    0.235205
     0.237061    0.243401    0.247771    0.249365    0.249556    0.249819
     0.249891    0.249993    0.250027    0.250422    0.251244    0.259014
     0.289456    0.295905    0.304890    0.308447    0.315549    0.324558
     0.337383    0.346863    0.351908    0.356856    0.357282    0.357526
     0.357984    0.358488    0.358971    0.359892    0.361621    0.362494
     0.365227    0.367972    0.381663    0.386953    0.389598    0.407732
     0.409386    0.429626    0.436115    0.436744    0.473146    0.474342
     0.475016    0.480638    0.481094    0.483771    0.485609    0.486946
     0.501254    0.509305    0.525276    0.527674    0.543299    0.557072
     0.635625    0.653488    0.654638

 Minimum Search - Taking Simple RFO Step
 Searching for Lamda that Minimizes Along All modes
 Value Taken    Lamda =   0.00000000
 Step Taken.  Stepsize is  0.003486

                             Maximum     Tolerance    Cnvgd?
         Gradient           0.000038      0.000300     YES
         Displacement       0.001564      0.001200      NO
         Energy change      0.000000      0.000001     YES

 Final energy is   -2579.86248350873     


 ******************************
 **  OPTIMIZATION CONVERGED  **
 ******************************

                       Coordinates (Angstroms)
     ATOM                X               Y               Z
      1  C        -8.0121724442   -1.5870871694    0.3657187680
      2  C        -7.6005620622   -0.6821505354   -0.6011187139
      3  C        -7.0899445512   -2.0937454764    1.2675450101
      4  C        -6.2763163825   -0.2858093117   -0.6692070096
      5  C        -5.7636987072   -1.7005909057    1.1992665087
      6  C        -5.3395214947   -0.7952102871    0.2284294987
      7  C        -3.9150721115   -0.4222051707    0.1359640056
      8  C        -2.9177074536   -1.3529695915    0.2381537279
      9  C        -3.4694801279    0.9133934043   -0.0810642097
     10  N        -1.5879018038   -1.0999703498    0.1644449224
     11  N        -4.2301837184    2.0029035790   -0.2103419813
     12  C        -2.0680419435    1.1958388608   -0.1655077754
     13  C        -1.1427428933    0.1109096199   -0.0315389867
     14  S        -3.2161024618    3.2352607186   -0.4238987737
     15  N        -1.7993616202    2.4866616417   -0.3636174582
     16  C         0.3093870058    0.2688404362   -0.1057273912
     17  N         0.9564702814    1.3867543714   -0.2216207515
     18  S         1.3135682436   -1.1490389298   -0.0537291796
     19  C         2.2938990864    1.1712018637   -0.2868456446
     20  C         2.6984411939   -0.1347689706   -0.2228980887
     21  C         4.0552448567   -0.6359851598   -0.2454073570
     22  S         4.4634061075   -2.1791237948   -0.9126538215
     23  C         5.2018258966   -0.0210783569    0.1822097325
     24  C         6.1315600947   -1.9958321607   -0.5980405102
     25  S         5.5509810858    1.5004227225    0.9547638669
     26  C         6.3889039902   -0.7882359389   -0.0115404631
     27  C         7.2531126370    1.0941524237    1.0044020466
     28  C         7.5573336660   -0.1029893565    0.4786237992
     29  H        -9.0481610420   -1.8929235626    0.4184980509
     30  H        -8.3148720388   -0.2843172597   -1.3088760552
     31  H        -7.4018450963   -2.7935298364    2.0306337694
     32  H        -5.9662327178    0.4216859772   -1.4241168450
     33  H        -5.0511125391   -2.0823239854    1.9184407326
     34  H        -3.1725106423   -2.3957467483    0.3792989698
     35  H         2.9616681653    2.0113653472   -0.4065493276
     36  H         6.8234587811   -2.7790992091   -0.8551786295
     37  H         7.9376798051    1.8055294643    1.4370996807
     38  H         8.5590709054   -0.5009996458    0.4346741090

Z-matrix Print:
$molecule
0 1
S 
C  1 1.724887
C  2 1.368687 1 109.168838
H  3 1.079870 2 124.386832 1 179.149632 0
N  3 1.356257 2 116.159321 1 0.636643 0
C  5 1.296873 3 111.058871 2 -0.090124 0
C  2 1.446596 1 123.423997 3 -178.230805 0
C  7 1.369531 2 128.668663 1 149.486768 0
C  8 1.426613 7 114.380051 2 178.686082 0
C  9 1.366930 8 112.128434 7 -0.228278 0
H  10 1.076267 9 128.639167 8 179.412196 0
C  9 1.440504 8 111.895503 7 178.921330 0
H  12 1.078805 9 124.320040 8 -179.903694 0
C  12 1.342439 9 111.941990 8 -0.130363 0
H  14 1.077922 12 127.000455 9 179.899323 0
C  6 1.462576 5 126.370658 3 178.852744 0
N  16 1.304916 6 116.520726 5 176.022368 0
C  17 1.355664 16 121.062577 6 179.493715 0
H  18 1.082696 17 114.688425 16 -178.605403 0
C  18 1.368028 17 125.740278 16 0.661675 0
C  20 1.424597 18 114.910886 17 -0.726273 0
N  21 1.335071 20 126.985913 18 179.702804 0
C  21 1.432109 20 119.998089 18 0.478533 0
N  23 1.333289 21 113.384793 20 179.682340 0
C  20 1.475377 18 121.816069 17 -179.962733 0
C  25 1.393616 20 120.117350 18 -43.101555 0
H  26 1.081994 25 119.457853 20 -3.503289 0
C  26 1.384977 25 120.679055 20 177.787595 0
H  28 1.081335 26 119.650346 25 179.704658 0
C  28 1.385820 26 120.091947 25 0.005698 0
H  30 1.081478 28 120.154558 26 179.962052 0
C  30 1.386762 28 119.653362 26 0.211903 0
H  32 1.081402 30 120.020265 28 -179.896448 0
C  32 1.383961 30 120.343764 28 -0.072569 0
H  34 1.080088 32 119.780578 30 179.823457 0
S  24 1.603493 23 106.231821 21 -0.238413 0
S  10 1.707429 9 110.966987 8 -0.320258 0
S  8 1.741756 7 134.309443 2 -2.868807 0
$end

 
 --------------------------------------------------------------
 
                    Orbital Energies (a.u.)
 --------------------------------------------------------------
 
 Alpha MOs
 -- Occupied --
-89.149 -89.090 -89.086 -89.078 -14.485 -14.481 -14.454 -14.443
-10.365 -10.362 -10.357 -10.355 -10.343 -10.342 -10.335 -10.333
-10.330 -10.327 -10.325 -10.322 -10.313 -10.312 -10.305 -10.297
-10.296 -10.295 -10.295 -10.294  -8.159  -8.105  -8.101  -8.093
 -6.109  -6.104  -6.103  -6.054  -6.051  -6.050  -6.048  -6.047
 -6.044  -6.043  -6.039  -6.035  -1.146  -1.086  -1.064  -1.023
 -1.010  -0.974  -0.959  -0.925  -0.919  -0.899  -0.876  -0.860
 -0.855  -0.833  -0.828  -0.802  -0.775  -0.745  -0.734  -0.712
 -0.705  -0.693  -0.691  -0.660  -0.651  -0.637  -0.626  -0.615
 -0.606  -0.598  -0.572  -0.564  -0.556  -0.548  -0.541  -0.531
 -0.530  -0.525  -0.514  -0.513  -0.507  -0.504  -0.498  -0.487
 -0.478  -0.475  -0.469  -0.455  -0.449  -0.440  -0.436  -0.433
 -0.430  -0.423  -0.421  -0.399  -0.393  -0.375  -0.367  -0.362
 -0.359  -0.353  -0.339  -0.338  -0.324  -0.306  -0.272
 -- Virtual --
 -0.050   0.001   0.027   0.042   0.053   0.057   0.067   0.072
  0.083   0.089   0.107   0.114   0.119   0.125   0.131   0.138
  0.140   0.144   0.149   0.156   0.160   0.164   0.171   0.179
  0.190   0.193   0.195   0.201   0.219   0.220   0.235   0.238
  0.242   0.250   0.259   0.268   0.275   0.282   0.288   0.290
  0.297   0.303   0.304   0.309   0.313   0.315   0.322   0.326
  0.328   0.331   0.336   0.339   0.345   0.349   0.351   0.356
  0.360   0.362   0.370   0.372   0.377   0.385   0.385   0.387
  0.388   0.392   0.396   0.397   0.403   0.407   0.408   0.411
  0.414   0.418   0.421   0.429   0.429   0.433   0.434   0.442
  0.443   0.445   0.449   0.453   0.455   0.460   0.464   0.465
  0.467   0.469   0.471   0.474   0.478   0.481   0.486   0.488
  0.493   0.496   0.501   0.503   0.505   0.509   0.512   0.518
  0.522   0.526   0.527   0.530   0.533   0.543   0.547   0.554
  0.555   0.558   0.562   0.564   0.567   0.569   0.577   0.580
  0.581   0.594   0.596   0.602   0.607   0.617   0.619   0.626
  0.628   0.631   0.636   0.647   0.651   0.652   0.660   0.665
  0.668   0.674   0.679   0.688   0.693   0.697   0.706   0.716
  0.721   0.725   0.728   0.730   0.737   0.741   0.745   0.753
  0.756   0.761   0.765   0.768   0.772   0.774   0.778   0.782
  0.786   0.794   0.795   0.802   0.804   0.813   0.817   0.819
  0.826   0.833   0.837   0.840   0.848   0.851   0.854   0.860
  0.863   0.867   0.876   0.878   0.883   0.886   0.890   0.899
  0.900   0.910   0.913   0.914   0.923   0.925   0.929   0.934
  0.942   0.945   0.952   0.957   0.961   0.963   0.967   0.974
  0.977   0.981   0.984   0.990   0.996   1.005   1.013   1.018
  1.023   1.032   1.038   1.041   1.047   1.049   1.056   1.058
  1.063   1.075   1.076   1.082   1.089   1.090   1.095   1.102
  1.108   1.115   1.123   1.127   1.132   1.142   1.145   1.151
  1.160   1.163   1.166   1.177   1.185   1.188   1.200   1.210
  1.211   1.214   1.219   1.223   1.236   1.241   1.250   1.253
  1.254   1.260   1.269   1.278   1.278   1.287   1.292   1.302
  1.314   1.319   1.328   1.336   1.347   1.355   1.359   1.363
  1.366   1.370   1.379   1.382   1.391   1.395   1.405   1.409
  1.414   1.420   1.422   1.435   1.439   1.446   1.450   1.454
  1.461   1.463   1.468   1.476   1.482   1.486   1.488   1.488
  1.491   1.497   1.516   1.516   1.521   1.538   1.541   1.550
  1.562   1.566   1.573   1.577   1.581   1.590   1.605   1.607
  1.613   1.618   1.625   1.627   1.639   1.643   1.651   1.653
  1.657   1.664   1.667   1.672   1.676   1.688   1.690   1.694
  1.705   1.709   1.711   1.713   1.726   1.734   1.740   1.747
  1.754   1.762   1.768   1.775   1.775   1.785   1.798   1.801
  1.822   1.831   1.836   1.840   1.854   1.874   1.882   1.885
  1.889   1.900   1.905   1.910   1.928   1.932   1.939   1.940
  1.948   1.959   1.968   1.975   1.980   1.989   1.994   2.005
  2.014   2.022   2.024   2.030   2.036   2.042   2.044   2.065
  2.071   2.082   2.086   2.091   2.102   2.107   2.117   2.124
  2.133   2.137   2.148   2.155   2.163   2.170   2.175   2.182
  2.192   2.203   2.208   2.211   2.215   2.236   2.237   2.242
  2.250   2.257   2.263   2.270   2.276   2.284   2.289   2.299
  2.320   2.327   2.333   2.335   2.339   2.347   2.355   2.358
  2.368   2.375   2.391   2.392   2.399   2.410   2.419   2.426
  2.435   2.442   2.447   2.454   2.455   2.461   2.468   2.478
  2.485   2.488   2.492   2.497   2.503   2.503   2.508   2.524
  2.529   2.534   2.543   2.555   2.559   2.566   2.573   2.586
  2.591   2.594   2.600   2.609   2.610   2.620   2.632   2.641
  2.646   2.654   2.662   2.671   2.677   2.682   2.694   2.709
  2.714   2.725   2.729   2.739   2.752   2.756   2.761   2.771
  2.772   2.775   2.782   2.786   2.787   2.800   2.805   2.807
  2.815   2.824   2.829   2.834   2.835   2.842   2.846   2.850
  2.860   2.874   2.886   2.897   2.898   2.903   2.910   2.914
  2.924   2.933   2.940   2.949   2.957   2.964   2.968   2.975
  2.977   2.986   2.993   2.994   2.998   3.007   3.012   3.021
  3.022   3.024   3.031   3.038   3.041   3.048   3.054   3.063
  3.066   3.072   3.074   3.079   3.082   3.086   3.094   3.096
  3.103   3.105   3.109   3.116   3.117   3.121   3.127   3.133
  3.137   3.141   3.150   3.152   3.154   3.161   3.166   3.168
  3.175   3.178   3.183   3.189   3.190   3.195   3.199   3.207
  3.211   3.215   3.217   3.223   3.225   3.232   3.236   3.240
  3.251   3.256   3.260   3.266   3.269   3.276   3.282   3.285
  3.287   3.288   3.292   3.299   3.303   3.308   3.311   3.317
  3.321   3.327   3.333   3.335   3.343   3.346   3.357   3.358
  3.366   3.370   3.376   3.385   3.389   3.394   3.397   3.405
  3.413   3.418   3.429   3.433   3.438   3.446   3.450   3.460
  3.460   3.463   3.467   3.473   3.476   3.481   3.484   3.493
  3.501   3.503   3.509   3.518   3.529   3.532   3.537   3.547
  3.549   3.563   3.566   3.568   3.572   3.579   3.587   3.598
  3.604   3.608   3.614   3.624   3.635   3.643   3.662   3.670
  3.688   3.693   3.703   3.706   3.717   3.721   3.730   3.739
  3.746   3.751   3.764   3.768   3.777   3.780   3.786   3.797
  3.803   3.804   3.810   3.835   3.839   3.847   3.850   3.856
  3.859   3.862   3.864   3.866   3.879   3.881   3.885   3.887
  3.890   3.895   3.908   3.921   3.932   3.938   3.944   3.949
  3.955   3.966   3.967   3.971   3.972   3.980   3.986   3.993
  3.995   4.010   4.016   4.029   4.032   4.039   4.055   4.069
  4.076   4.079   4.083   4.091   4.104   4.121   4.134   4.135
  4.144   4.151   4.162   4.167   4.170   4.177   4.186   4.192
  4.196   4.212   4.215   4.223   4.234   4.241   4.252   4.257
  4.269   4.273   4.280   4.290   4.300   4.318   4.322   4.327
  4.335   4.345   4.348   4.355   4.364   4.377   4.383   4.386
  4.392   4.398   4.408   4.409   4.421   4.426   4.428   4.434
  4.444   4.451   4.455   4.467   4.485   4.502   4.510   4.523
  4.524   4.539   4.552   4.563   4.568   4.580   4.593   4.602
  4.607   4.619   4.627   4.635   4.645   4.660   4.672   4.681
  4.688   4.719   4.724   4.737   4.749   4.751   4.777   4.780
  4.791   4.811   4.818   4.829   4.831   4.843   4.843   4.852
  4.862   4.867   4.883   4.889   4.899   4.908   4.922   4.935
  4.949   4.954   4.956   4.968   4.990   4.999   5.003   5.011
  5.027   5.043   5.051   5.068   5.073   5.080   5.088   5.093
  5.097   5.110   5.115   5.121   5.126   5.129   5.141   5.169
  5.188   5.194   5.214   5.244   5.247   5.251   5.267   5.271
  5.278   5.303   5.326   5.337   5.348   5.369   5.380   5.394
  5.401   5.431   5.443   5.467   5.508   5.518   5.524   5.540
  5.566   5.592   5.597   5.628   5.637   5.665   5.675   5.694
  5.730   5.740   5.768   5.795   5.818   5.829   5.839   5.870
  5.881   5.967   5.999   6.020   6.029   6.044   6.048   6.115
  6.142   6.155   6.176   6.191   6.214   6.237   6.251   6.305
  6.369   6.488   6.517   6.854   6.987   8.042   8.573   9.441
 10.112  10.716  11.123  11.146  11.682  12.016  12.304  12.620
 12.730  12.860  12.926  12.957  13.161  13.397  13.465  13.793
 13.868  13.946  14.132  14.668  15.703
 --------------------------------------------------------------
 
          Ground-State Mulliken Net Atomic Charges

     Atom                 Charge (a.u.)
  ----------------------------------------
      1 C                    -0.124434
      2 C                    -0.110619
      3 C                    -0.109650
      4 C                    -0.120928
      5 C                    -0.152650
      6 C                     0.124500
      7 C                     0.016343
      8 C                    -0.110629
      9 C                     0.036415
     10 N                    -0.174483
     11 N                    -0.284333
     12 C                    -0.013221
     13 C                     0.109400
     14 S                     0.412474
     15 N                    -0.222373
     16 C                    -0.008872
     17 N                    -0.137394
     18 S                     0.120720
     19 C                    -0.145783
     20 C                    -0.015588
     21 C                     0.004410
     22 S                     0.134500
     23 C                    -0.052974
     24 C                    -0.220673
     25 S                     0.057439
     26 C                     0.043959
     27 C                    -0.146079
     28 C                    -0.172291
     29 H                     0.117989
     30 H                     0.115662
     31 H                     0.115124
     32 H                     0.114144
     33 H                     0.127753
     34 H                     0.135657
     35 H                     0.145864
     36 H                     0.129935
     37 H                     0.132887
     38 H                     0.127801
  ----------------------------------------
  Sum of atomic charges =     0.000000

 -----------------------------------------------------------------
                    Cartesian Multipole Moments
 -----------------------------------------------------------------
    Charge (ESU x 10^10)
                 0.0000
    Dipole Moment (Debye)
         X       0.7838      Y      -0.9467      Z       0.0223
       Tot       1.2292
    Quadrupole Moments (Debye-Ang)
        XX    -139.7559     XY       0.0385     YY    -179.1632
        XZ       2.1220     YZ      -1.2624     ZZ    -185.3363
    Octopole Moments (Debye-Ang^2)
       XXX     158.0181    XXY     -53.5933    XYY       9.1854
       YYY      18.9331    XXZ       6.7104    XYZ      49.6737
       YYZ       2.0123    XZZ     -21.2824    YZZ       4.1266
       ZZZ     -11.2922
    Hexadecapole Moments (Debye-Ang^3)
      XXXX  -21204.6451   XXXY     230.6919   XXYY   -4327.9375
      XYYY    -152.7837   YYYY   -2790.3716   XXXZ     300.2793
      XXYZ      -5.0500   XYYZ     -68.2762   YYYZ       9.5210
      XXZZ   -4299.8434   XYZZ      20.3671   YYZZ    -565.6365
      XZZZ     -20.1173   YZZZ       1.6811   ZZZZ    -620.8672
 -----------------------------------------------------------------
Archival summary:
1\1\mn456\OPT\ProcedureUnspecified\BasisUnspecified\442010\afmv_a\TueJun601:41:562017TueJun601:41:562017\0\\#,OPT,ProcedureUnspecified,BasisUnspecified,\\0,1\S\C,1,1.72489\C,2,1.36869,1,109.169\H,3,1.07987,2,124.387,1,179.15,0\N,3,1.35626,2,116.159,1,0.636643,0\C,5,1.29687,3,111.059,2,-0.0901235,0\C,2,1.4466,1,123.424,3,-178.231,0\C,7,1.36953,2,128.669,1,149.487,0\C,8,1.42661,7,114.38,2,178.686,0\C,9,1.36693,8,112.128,7,-0.228278,0\H,10,1.07627,9,128.639,8,179.412,0\C,9,1.4405,8,111.896,7,178.921,0\H,12,1.07881,9,124.32,8,-179.904,0\C,12,1.34244,9,111.942,8,-0.130363,0\H,14,1.07792,12,127,9,179.899,0\C,6,1.46258,5,126.371,3,178.853,0\N,16,1.30492,6,116.521,5,176.022,0\C,17,1.35566,16,121.063,6,179.494,0\H,18,1.0827,17,114.688,16,-178.605,0\C,18,1.36803,17,125.74,16,0.661675,0\C,20,1.4246,18,114.911,17,-0.726273,0\N,21,1.33507,20,126.986,18,179.703,0\C,21,1.43211,20,119.998,18,0.478533,0\N,23,1.33329,21,113.385,20,179.682,0\C,20,1.47538,18,121.816,17,-179.963,0\C,25,1.39362,20,120.117,18,-43.1016,0\H,26,1.08199,25,119.458,20,-3.50329,0\C,26,1.38498,25,120.679,20,177.788,0\H,28,1.08133,26,119.65,25,179.705,0\C,28,1.38582,26,120.092,25,0.00569751,0\H,30,1.08148,28,120.155,26,179.962,0\C,30,1.38676,28,119.653,26,0.211903,0\H,32,1.0814,30,120.02,28,-179.896,0\C,32,1.38396,30,120.344,28,-0.072569,0\H,34,1.08009,32,119.781,30,179.823,0\S,24,1.60349,23,106.232,21,-0.238413,0\S,10,1.70743,9,110.967,8,-0.320258,0\S,8,1.74176,7,134.309,2,-2.86881,0\\\@

 Total job time:  6893.93s(wall), 103572.95s(cpu) 
 Tue Jun  6 01:41:56 2017

        *************************************************************
        *                                                           *
        *  Thank you very much for using Q-Chem.  Have a nice day.  *
        *                                                           *
        *************************************************************


