
Running Job 1 of 1 C306_1/C306_90.qcin
qchem C306_1/C306_90.qcin_28132.0 /tmpu/cab_g/afmv_a/scratch_qchem/qchem28132/ 1
/tmpu/appuserlic/qchem4.4/serial-multicore/exe/qcprog.exe_s C306_1/C306_90.qcin_28132.0 /tmpu/cab_g/afmv_a/scratch_qchem/qchem28132/
Check license passed

                  Welcome to Q-Chem
     A Quantum Leap Into The Future Of Chemistry


 Q-Chem 4.4, Q-Chem, Inc., Pleasanton, CA (2016)

 Y. Shao,  Z. Gan,  E. Epifanovsky,  A. T. B. Gilbert,  M. Wormit,  
 J. Kussmann,  A. W. Lange,  A. Behn,  J. Deng,  X. Feng,  D. Ghosh,  
 M. Goldey,  P. R. Horn,  L. D. Jacobson,  I. Kaliman,  F. Rob,  
 R. Z. Khaliullin,  T. Kus,  A. Landau,  J. Liu,  E. I. Proynov,  Y. M. Rhee,  
 R. M. Richard,  M. A. Rohrdanz,  R. P. Steele,  E. J. Sundstrom,  
 H. L. Woodcock III,  P. M. Zimmerman,  D. Zuev,  B. Albrecht,  E. Alguire,  
 B. Austin,  S. A. Baeppler,  G. J. O. Beran,  Y. A. Bernard,  E. Berquist,  
 K. Brandhorst,  K. B. Bravaya,  S. T. Brown,  D. Casanova,  C.-M. Chang,  
 Y. Chen,  S. H. Chien,  K. D. Closser,  M. P. Coons,  D. L. Crittenden,  
 S. Dasgupta,  M. Diedenhofen,  R. A. DiStasio Jr.,  H. Do,  A. D. Dutoi,  
 R. G. Edgar,  P.-T. Fang,  S. Fatehi,  Q. Feng,  L. Fusti-Molnar,  
 A. Ghysels,  A. Golubeva-Zadorozhnaya,  J. Gomes,  A. Gunina,  
 M. W. D. Hanson-Heine,  P. H. P. Harbach,  A. W. Hauser,  J. E. Herr,  
 E. G. Hohenstein,  Z. C. Holden,  K. Hui,  T.-C. Jagau,  H. Ji,  B. Kaduk,  
 K. Khistyaev,  Jaehoon Kim,  Jihan Kim,  R. A. King,  P. Klunzinger,  
 K. Koh,  D. Kosenkov,  T. Kowalczyk,  C. M. Krauter,  A. Kunitsa,  
 K. U. Lao,  A. Laurent,  K. V. Lawler,  J. Lee,  D. Lefrancois,  S. Lehtola,  
 S. V. Levchenko,  C. Y. Lin,  Y.-S. Lin,  F. Liu,  E. Livshits,  
 R. C. Lochan,  A. Luenser,  P. Manohar,  S. F. Manzer,  S.-P. Mao,  Y. Mao,  
 N. Mardirossian,  A. V. Marenich,  L. A. Martinez-Martinez,  S. A. Maurer,  
 N. J. Mayhall,  J.-M. Mewes,  A. F. Morrison,  K. Nanda,  T. S. Nguyen-Beck,  
 C. M. Oana,  R. Olivares-Amaya,  D. P. O'Neill,  J. A. Parkhill,  
 T. M. Perrine,  R. Peverati,  P. A. Pieniazek,  F. Plasser,  A. Prociuk,  
 D. R. Rehn,  E. Rosta,  N. J. Russ,  N. Sergueev,  S. M. Sharada,  
 S. Sharma,  D. W. Small,  A. Sodt,  T. Stauch,  T. Stein,  D. Stuck,  
 Y.-C. Su,  A. J. W. Thom,  T. Tsuchimochi,  L. Vogt,  O. Vydrov,  T. Wang,  
 M. A. Watson,  J. Wenzel,  A. White,  C. F. Williams,  V. Vanovschi,  
 K. Yao,  S. Yeganeh,  S. R. Yost,  Z.-Q. You,  I. Y. Zhang,  X. Zhang,  
 Y. Zhao,  B. R. Brooks,  G. K. L. Chan,  D. M. Chipman,  C. J. Cramer,  
 W. A. Goddard III,  M. S. Gordon,  W. J. Hehre,  A. Klamt,  
 H. F. Schaefer III,  M. W. Schmidt,  C. D. Sherrill,  D. G. Truhlar,  
 A. Warshel,  X. Xu,  A. Aspuru-Guzik,  R. Baer,  A. T. Bell,  N. A. Besley,  
 J.-D. Chai,  A. Dreuw,  B. D. Dunietz,  T. R. Furlani,  S. R. Gwaltney,  
 C.-P. Hsu,  Y. Jung,  J. Kong,  D. S. Lambrecht,  W. Liang,  C. Ochsenfeld,  
 V. A. Rassolov,  L. V. Slipchenko,  J. E. Subotnik,  T. Van Voorhis,  
 J. M. Herbert,  A. I. Krylov,  P. M. W. Gill,  M. Head-Gordon

 Contributors to earlier versions of Q-Chem not listed above: 
 R. D. Adamson,  J. Baker,  E. F. C. Byrd,  A. K. Chakraborty,  C.-L. Cheng,  
 H. Dachsel,  R. J. Doerksen,  G. Hawkins,  A. Heyden,  S. Hirata,  
 G. Kedziora,  F. J. Keil,  C. Kelley,  P. P. Korambath,  W. Kurlancheek,  
 A. M. Lee,  M. S. Lee,  D. Liotard,  I. Lotan,  P. E. Maslen,  N. Nair,  
 D. Neuhauser,  R. Olson,  B. Peters,  J. Ritchie,  N. E. Schultz,  
 N. Shenvi,  A. C. Simmonett,  K. S. Thanthiriwatte,  Q. Wu,  W. Zhang

 Please cite Q-Chem as follows:
 Y. Shao et al., Mol. Phys. 113, 184-215 (2015)
 DOI: 10.1080/00268976.2014.952696

 Q-Chem 4.4.2 for Intel X86 Linux

 Parts of Q-Chem use Armadillo 5.200.1 (Boston Tea Smuggler).
 http://arma.sourceforge.net/

 Q-Chem begins on Tue Jun  6 08:32:18 2017  

Host: 
0

     Scratch files written to /tmpu/cab_g/afmv_a/scratch_qchem/qchem28132//
 Dec716 11556_ 22328  22283 4050   
Processing $rem in /tmpu/appuserlic/qchem4.4/serial-multicore/config/preferences.
 MEM_TOTAL  2000 
FILE_GEOM_ORG=        593

Checking the input file for inconsistencies... 	...done.

--------------------------------------------------------------
User input:
--------------------------------------------------------------
$comment
OPTIMIZATION
$end

$rem
JOBTYPE OPT
EXCHANGE omegaB97X-D
BASIS cc-pVTZ
$end

$molecule
0 1
C          0.00000        0.00000        0.00000
C          1.38599        0.00000        0.00000
C         -0.68515       -1.20581        0.00000
C          2.08055       -1.19709        0.02226
C          0.00742       -2.40411        0.01179
C          1.40063       -2.41271        0.04151
C          2.15950       -3.67324        0.15696
C          2.44607       -4.21470        1.38019
C          2.63586       -4.41700       -0.95796
N          3.13083       -5.36325        1.59604
N          2.49050       -4.11002       -2.24876
C          3.36772       -5.62999       -0.74496
C          3.59101       -6.06976        0.60010
S          3.22578       -5.28442       -3.06993
N          3.75720       -6.21674       -1.87715
C          4.30559       -7.29799        0.94833
N          4.91334       -8.09394        0.12554
S          4.37935       -7.78196        2.61751
C          5.46646       -9.14376        0.78398
C          5.28906       -9.16815        2.14057
C          5.80392      -10.14000        3.08035
S          4.97933      -10.54106        4.54968
C          6.95164      -10.87954        3.00006
C          6.17440      -11.66027        5.03974
S          8.25907      -10.97105        1.84993
C          7.17471      -11.74498        4.11153
C          9.07402      -12.14518        2.86359
C          8.41719      -12.46357        3.98987
H         -0.54342        0.93472        0.00000
H          1.93260        0.93382       -0.01501
H         -1.76734       -1.21268        0.00047
H          3.16263       -1.19509        0.00785
H         -0.53593       -3.33924        0.01382
H          2.08977       -3.71767        2.27349
H          5.99370       -9.90514        0.22824
H          6.08553      -12.18233        5.97611
H         10.03031      -12.52015        2.53681
H          8.79439      -13.16208        4.72015
$end

$opt
CONSTRAINT
tors 4 6 7 8 90.00000
tors 10 13 16 18 4.63242
tors 18 20 21 22 32.71647
ENDCONSTRAINT
$end
--------------------------------------------------------------
 ----------------------------------------------------------------
             Standard Nuclear Orientation (Angstroms)
    I     Atom           X                Y                Z
 ----------------------------------------------------------------
    1      C      -7.9592602369     1.6549552134    -0.5621330967
    2      C      -7.2557128944     1.1574634832    -1.6477165321
    3      C      -7.3564389507     1.6919821642     0.6863234626
    4      C      -5.9516693012     0.7211791111    -1.4894135849
    5      C      -6.0560908251     1.2466000076     0.8489413764
    6      C      -5.3317683379     0.7722841746    -0.2430168497
    7      C      -3.9126749358     0.3873936198    -0.1158105713
    8      C      -2.9151640945     1.3125977097    -0.2592066761
    9      C      -3.4720486171    -0.9349841811     0.1675792532
   10      N      -1.5870728181     1.0657894660    -0.1596384325
   11      N      -4.2365110547    -2.0134687382     0.3519677872
   12      C      -2.0702374258    -1.2124765379     0.2688520307
   13      C      -1.1426702452    -0.1352059004     0.0912300174
   14      S      -3.2228503638    -3.2339814372     0.6294798813
   15      N      -1.8034958468    -2.4923068367     0.5309736920
   16      C       0.3093881409    -0.2851112019     0.1886594079
   17      N       0.9593948278    -1.3957682973     0.3429706927
   18      S       1.3085571825     1.1354380165     0.0910350490
   19      C       2.2966674286    -1.1723037164     0.4010445475
   20      C       2.6973774992     0.1313298579     0.2898105446
   21      C       4.0515503883     0.6400637601     0.2769538791
   22      S       4.4598766225     2.2141431742     0.8730009620
   23      C       5.1892648829     0.0263371770    -0.1697815058
   24      C       6.1191894356     2.0407345538     0.5020662357
   25      S       5.5253070873    -1.5136396872    -0.9154980714
   26      C       6.3711089437     0.8157060560    -0.0503931977
   27      C       7.2169589595    -1.0799071886    -1.0584015991
   28      C       7.5260290918     0.1336534684    -0.5756483864
   29      H      -8.9720037435     2.0119496110    -0.6882773183
   30      H      -7.7196501246     1.1092768005    -2.6241733281
   31      H      -7.9001938874     2.0796677890     1.5379178726
   32      H      -5.4089762456     0.3199043297    -2.3353282211
   33      H      -5.5939776977     1.2814851086     1.8261496180
   34      H      -3.1773663507     2.3458790463    -0.4477618593
   35      H       2.9713755532    -2.0031509865     0.5459246011
   36      H       6.8111189311     2.8409705899     0.6972306717
   37      H       7.8844118333    -1.7878263617    -1.5223362270
   38      H       8.5220140833     0.5470140736    -0.6011796498
 ----------------------------------------------------------------
 Molecular Point Group                 C1    NOp =  1
 Largest Abelian Subgroup              C1    NOp =  1
 Nuclear Repulsion Energy =  2863.8112703050 hartrees
 There are      111 alpha and      111 beta electrons
 Requested basis set is cc-pVTZ
 There are 348 shells and 996 basis functions

 Total QAlloc Memory Limit   2000 MB
 Mega-Array Size        61 MB
 MEM_STATIC part        62 MB
 A cutoff of  1.0D-11 yielded  28515 shell pairs
 There are    226139 function pairs (    295553 Cartesian)
 
 -------------------------------------------------------
 OpenMP Integral Computing Module                       
 Release: version 1.0, May 2013, Q-Chem Inc. Pittsburgh 
 -------------------------------------------------------
 Integral Job Info:
 Integral job number is                      11
 Integral operator is                         1
 short-range coefficients              22203600
 long-range coefficients              100000000
 Omega coefficients                         200
 if combine SR and LR in K                    1
 Integral screening is                        0
 Integral computing path is                   2
 max size of driver memory is            800000
 size of driver memory is                776718
 size of scratch memory is             26248924
 max col of scratch BK array              10000
 max len of scratch array in speh3          662
 max len of scratch index in speh4           32
 max int batch size is                      520
 min int batch size is                       52
 fixed nKL is                                52
 max L of basis functions is                  3
 order of int derivative is                   0
 number of shells is                        348
 number of basis is                        1146
 number of cartesian basis is              1146
 number of contracted shell pairs         28515
 number of primitive shell pairs          90466
 maxK2 (contraction) of shell pair          121
 max number of K2 of shell pair               1
 max number of CS2 of shell pair           3869
 max number of PS2 of shell pair          11529
 mem total for path MDJ                  789404
 -------------------------------------------------------
 Smallest overlap matrix eigenvalue = 3.08E-05

 Scale SEOQF with 1.000000e-02/1.000000e-01/1.000000e-01

 Standard Electronic Orientation quadrupole field applied
 Nucleus-field energy     =     0.0000000458 hartrees
 Guess from superposition of atomic densities
 Warning:  Energy on first SCF cycle will be non-variational
 Long-range K will be added via erf
 Coulomb attenuation parameter = 0.2 bohr**(-1)
 A restricted hybrid HF-DFT SCF calculation will be
 performed using Pulay DIIS extrapolation
 Exchange:     0.2220 Hartree-Fock + 1.0000 wB97X-D + LR-HF
 Correlation:  1.0000 wB97X-D
 Using SG-2 standard quadrature grid
 Dispersion:   Grimme D
 SCF converges when DIIS error is below 1.0E-08
 using 16 threads for integral computing 
 using 16 threads for integral computing 
 K construction time:  CPU 65.96 s  wall 4.33 s
 -------------------------------------------------------
 OpenMP BLAS3 based DFT computing Module                
 Release: version 1.0, May 2013, Q-Chem Inc. Pittsburgh 
 -------------------------------------------------------
 ---------------------------------------
  Cycle       Energy         DIIS Error
 ---------------------------------------
    1   -2589.8422030743      1.85E-02
 K construction time:  CPU 997.33 s  wall 65.17 s
    2   -2579.6146740618      1.35E-03
 K construction time:  CPU 950.91 s  wall 62.08 s
    3   -2579.6473216732      1.37E-03
 K construction time:  CPU 906.21 s  wall 59.20 s
    4   -2579.8522541219      2.14E-04
 K construction time:  CPU 832.45 s  wall 54.54 s
    5   -2579.8567632871      1.18E-04
 K construction time:  CPU 794.87 s  wall 51.93 s
    6   -2579.8584279558      3.57E-05
 K construction time:  CPU 738.21 s  wall 48.22 s
    7   -2579.8585909198      1.45E-05
 K construction time:  CPU 697.56 s  wall 45.58 s
    8   -2579.8586272720      5.68E-06
 K construction time:  CPU 665.07 s  wall 43.54 s
    9   -2579.8586361863      3.72E-06
 K construction time:  CPU 630.70 s  wall 41.37 s
   10   -2579.8586393950      1.13E-06
 K construction time:  CPU 570.91 s  wall 37.28 s
   11   -2579.8586397827      6.21E-07
 K construction time:  CPU 527.03 s  wall 34.31 s
   12   -2579.8586398864      1.88E-07
 K construction time:  CPU 466.97 s  wall 30.44 s
   13   -2579.8586398975      9.51E-08
 K construction time:  CPU 400.78 s  wall 26.20 s
   14   -2579.8586399013      3.24E-08
 K construction time:  CPU 354.56 s  wall 23.00 s
   15   -2579.8586399045      1.43E-08
 K construction time:  CPU 987.83 s  wall 64.73 s
   16   -2579.8586398974      4.42E-09 Convergence criterion met
 ---------------------------------------
 SCF time:  CPU 14259.13 s  wall 954.73 s
 SCF   energy in the final basis set = -2579.8586398974
 Total energy in the final basis set = -2579.8586398974
 
 --------------------------------------------------------------
 
                    Orbital Energies (a.u.)
 --------------------------------------------------------------
 
 Alpha MOs
 -- Occupied --
-89.148 -89.091 -89.086 -89.078 -14.484 -14.480 -14.453 -14.444
-10.365 -10.362 -10.356 -10.355 -10.343 -10.342 -10.335 -10.333
-10.330 -10.327 -10.323 -10.322 -10.313 -10.311 -10.305 -10.297
-10.296 -10.295 -10.295 -10.295  -8.158  -8.105  -8.102  -8.093
 -6.109  -6.103  -6.102  -6.055  -6.051  -6.050  -6.048  -6.047
 -6.045  -6.043  -6.039  -6.035  -1.145  -1.086  -1.064  -1.023
 -1.009  -0.974  -0.958  -0.924  -0.920  -0.898  -0.876  -0.860
 -0.855  -0.833  -0.828  -0.802  -0.774  -0.742  -0.734  -0.710
 -0.709  -0.693  -0.691  -0.660  -0.651  -0.637  -0.628  -0.614
 -0.606  -0.598  -0.571  -0.563  -0.556  -0.549  -0.544  -0.531
 -0.530  -0.523  -0.514  -0.514  -0.508  -0.504  -0.498  -0.484
 -0.477  -0.476  -0.465  -0.455  -0.447  -0.441  -0.437  -0.434
 -0.425  -0.423  -0.422  -0.399  -0.393  -0.370  -0.368  -0.361
 -0.354  -0.353  -0.339  -0.335  -0.325  -0.314  -0.273
 -- Virtual --
 -0.048   0.002   0.030   0.045   0.050   0.062   0.064   0.069
  0.085   0.088   0.104   0.113   0.116   0.123   0.130   0.138
  0.141   0.147   0.149   0.150   0.158   0.163   0.164   0.178
  0.185   0.186   0.192   0.199   0.216   0.219   0.227   0.236
  0.238   0.248   0.257   0.265   0.274   0.280   0.280   0.291
  0.293   0.302   0.304   0.304   0.307   0.319   0.321   0.323
  0.331   0.332   0.333   0.344   0.345   0.347   0.350   0.355
  0.358   0.359   0.368   0.372   0.375   0.380   0.382   0.385
  0.387   0.389   0.393   0.397   0.398   0.405   0.406   0.411
  0.414   0.418   0.420   0.429   0.431   0.435   0.438   0.441
  0.443   0.446   0.448   0.452   0.453   0.454   0.457   0.462
  0.464   0.466   0.469   0.477   0.478   0.480   0.481   0.482
  0.486   0.497   0.500   0.503   0.509   0.509   0.510   0.516
  0.518   0.524   0.527   0.531   0.536   0.542   0.544   0.554
  0.556   0.558   0.561   0.562   0.567   0.569   0.575   0.575
  0.580   0.581   0.595   0.596   0.613   0.621   0.622   0.627
  0.632   0.638   0.643   0.644   0.649   0.654   0.662   0.666
  0.667   0.673   0.678   0.687   0.690   0.701   0.702   0.710
  0.715   0.723   0.728   0.729   0.736   0.740   0.743   0.747
  0.752   0.758   0.761   0.766   0.770   0.771   0.774   0.780
  0.790   0.794   0.796   0.798   0.802   0.811   0.815   0.829
  0.834   0.836   0.837   0.841   0.846   0.846   0.850   0.858
  0.861   0.861   0.865   0.874   0.876   0.886   0.887   0.894
  0.903   0.906   0.907   0.913   0.918   0.922   0.931   0.934
  0.937   0.942   0.945   0.953   0.960   0.961   0.964   0.966
  0.973   0.980   0.981   0.988   0.991   0.998   1.006   1.015
  1.018   1.030   1.034   1.037   1.045   1.049   1.050   1.055
  1.057   1.067   1.076   1.080   1.087   1.090   1.094   1.100
  1.103   1.121   1.124   1.131   1.132   1.142   1.150   1.153
  1.161   1.169   1.171   1.176   1.182   1.186   1.191   1.203
  1.209   1.220   1.222   1.230   1.232   1.243   1.247   1.252
  1.258   1.263   1.268   1.275   1.289   1.292   1.296   1.309
  1.321   1.325   1.334   1.347   1.351   1.353   1.361   1.368
  1.370   1.374   1.380   1.385   1.389   1.402   1.407   1.415
  1.422   1.424   1.435   1.435   1.439   1.445   1.449   1.457
  1.463   1.465   1.468   1.476   1.478   1.481   1.484   1.488
  1.498   1.503   1.504   1.518   1.521   1.539   1.549   1.553
  1.561   1.563   1.572   1.578   1.584   1.592   1.595   1.602
  1.611   1.615   1.628   1.630   1.639   1.649   1.651   1.654
  1.663   1.663   1.671   1.674   1.687   1.688   1.692   1.700
  1.706   1.712   1.712   1.716   1.730   1.735   1.740   1.749
  1.750   1.764   1.770   1.778   1.781   1.787   1.799   1.805
  1.829   1.838   1.841   1.853   1.867   1.878   1.884   1.887
  1.889   1.900   1.908   1.912   1.924   1.932   1.938   1.939
  1.945   1.956   1.966   1.974   1.980   1.984   1.999   2.008
  2.010   2.019   2.022   2.025   2.032   2.037   2.044   2.064
  2.069   2.077   2.085   2.091   2.093   2.104   2.127   2.131
  2.136   2.147   2.152   2.161   2.163   2.172   2.176   2.181
  2.192   2.202   2.203   2.214   2.218   2.231   2.237   2.241
  2.244   2.252   2.256   2.263   2.265   2.273   2.284   2.291
  2.303   2.304   2.322   2.328   2.341   2.347   2.351   2.356
  2.365   2.368   2.386   2.391   2.399   2.407   2.410   2.417
  2.423   2.443   2.445   2.450   2.454   2.459   2.466   2.475
  2.480   2.489   2.491   2.499   2.499   2.506   2.509   2.513
  2.527   2.532   2.534   2.551   2.554   2.559   2.580   2.587
  2.590   2.596   2.601   2.611   2.612   2.623   2.631   2.639
  2.644   2.659   2.667   2.671   2.676   2.682   2.697   2.714
  2.727   2.737   2.740   2.744   2.751   2.763   2.770   2.773
  2.776   2.780   2.785   2.788   2.790   2.803   2.805   2.808
  2.809   2.815   2.831   2.832   2.839   2.845   2.853   2.861
  2.867   2.889   2.893   2.895   2.901   2.910   2.911   2.921
  2.928   2.935   2.948   2.954   2.959   2.965   2.973   2.974
  2.980   2.981   2.984   2.989   2.992   2.998   3.013   3.017
  3.022   3.024   3.031   3.041   3.045   3.048   3.054   3.057
  3.065   3.066   3.075   3.075   3.077   3.085   3.086   3.089
  3.098   3.105   3.108   3.112   3.116   3.120   3.130   3.131
  3.140   3.145   3.146   3.149   3.152   3.157   3.165   3.167
  3.171   3.173   3.182   3.184   3.187   3.189   3.198   3.204
  3.214   3.216   3.218   3.222   3.227   3.232   3.234   3.239
  3.246   3.255   3.258   3.268   3.273   3.276   3.280   3.286
  3.287   3.294   3.296   3.306   3.315   3.317   3.320   3.324
  3.327   3.328   3.332   3.333   3.347   3.349   3.357   3.363
  3.370   3.373   3.379   3.387   3.389   3.393   3.396   3.406
  3.409   3.424   3.437   3.439   3.445   3.449   3.454   3.456
  3.462   3.466   3.469   3.473   3.475   3.481   3.486   3.489
  3.500   3.508   3.512   3.515   3.528   3.532   3.543   3.548
  3.549   3.551   3.562   3.565   3.571   3.573   3.580   3.589
  3.595   3.602   3.606   3.622   3.632   3.663   3.667   3.670
  3.678   3.694   3.703   3.705   3.720   3.726   3.731   3.738
  3.745   3.761   3.765   3.768   3.769   3.776   3.782   3.789
  3.793   3.803   3.816   3.824   3.842   3.842   3.855   3.857
  3.861   3.863   3.870   3.872   3.876   3.878   3.881   3.885
  3.906   3.909   3.916   3.924   3.925   3.938   3.946   3.951
  3.953   3.957   3.962   3.965   3.976   3.981   3.986   3.991
  3.995   4.005   4.021   4.032   4.044   4.054   4.061   4.069
  4.072   4.077   4.081   4.094   4.101   4.115   4.130   4.134
  4.139   4.143   4.150   4.162   4.168   4.177   4.183   4.189
  4.193   4.197   4.206   4.209   4.234   4.237   4.247   4.261
  4.271   4.275   4.294   4.296   4.300   4.305   4.326   4.331
  4.336   4.337   4.343   4.357   4.368   4.373   4.378   4.391
  4.401   4.407   4.412   4.421   4.424   4.430   4.431   4.436
  4.438   4.449   4.454   4.473   4.486   4.509   4.517   4.521
  4.526   4.544   4.554   4.569   4.576   4.586   4.589   4.601
  4.621   4.628   4.630   4.633   4.645   4.655   4.662   4.666
  4.682   4.715   4.721   4.726   4.753   4.761   4.780   4.783
  4.786   4.820   4.822   4.833   4.841   4.845   4.850   4.852
  4.860   4.864   4.872   4.880   4.899   4.904   4.910   4.925
  4.936   4.952   4.966   4.975   4.987   4.989   4.995   5.000
  5.023   5.046   5.055   5.066   5.070   5.078   5.080   5.086
  5.094   5.112   5.116   5.117   5.120   5.127   5.150   5.163
  5.185   5.193   5.225   5.245   5.247   5.250   5.254   5.272
  5.272   5.308   5.328   5.340   5.361   5.368   5.368   5.382
  5.401   5.440   5.451   5.451   5.514   5.518   5.521   5.541
  5.576   5.589   5.595   5.632   5.641   5.663   5.675   5.692
  5.717   5.734   5.759   5.802   5.818   5.831   5.843   5.867
  5.879   5.968   6.006   6.026   6.027   6.045   6.070   6.085
  6.141   6.156   6.162   6.177   6.200   6.239   6.250   6.290
  6.355   6.483   6.534   6.861   6.937   8.009   8.536   9.253
 10.072  10.656  11.133  11.140  11.686  11.982  12.190  12.616
 12.745  12.802  12.861  12.961  13.143  13.396  13.425  13.762
 13.811  13.949  14.131  14.693  15.711
 --------------------------------------------------------------
 
          Ground-State Mulliken Net Atomic Charges

     Atom                 Charge (a.u.)
  ----------------------------------------
      1 C                    -0.123694
      2 C                    -0.105524
      3 C                    -0.103210
      4 C                    -0.104306
      5 C                    -0.107261
      6 C                     0.054326
      7 C                    -0.062539
      8 C                    -0.074005
      9 C                     0.061898
     10 N                    -0.171265
     11 N                    -0.267367
     12 C                    -0.011588
     13 C                     0.110716
     14 S                     0.411788
     15 N                    -0.222897
     16 C                    -0.009511
     17 N                    -0.136414
     18 S                     0.121018
     19 C                    -0.145310
     20 C                    -0.018466
     21 C                     0.005998
     22 S                     0.132809
     23 C                    -0.049284
     24 C                    -0.219674
     25 S                     0.056460
     26 C                     0.042382
     27 C                    -0.145288
     28 C                    -0.172824
     29 H                     0.118019
     30 H                     0.116529
     31 H                     0.116465
     32 H                     0.117570
     33 H                     0.117881
     34 H                     0.129815
     35 H                     0.145804
     36 H                     0.130227
     37 H                     0.132781
     38 H                     0.127942
  ----------------------------------------
  Sum of atomic charges =     0.000000

 -----------------------------------------------------------------
                    Cartesian Multipole Moments
 -----------------------------------------------------------------
    Charge (ESU x 10^10)
                 0.0000
    Dipole Moment (Debye)
         X       0.8520      Y       1.0856      Z      -0.2602
       Tot       1.4043
    Quadrupole Moments (Debye-Ang)
        XX    -141.5440     XY      -1.3364     YY    -181.0084
        XZ      -1.4247     YZ       3.5037     ZZ    -182.4220
    Octopole Moments (Debye-Ang^2)
       XXX     172.2267    XXY      75.7610    XYY      21.1882
       YYY     -26.0386    XXZ     -42.7799    XYZ      16.1955
       YYZ       8.4207    XZZ     -40.7718    YZZ      -5.7143
       ZZZ      -0.8027
    Hexadecapole Moments (Debye-Ang^3)
      XXXX  -21339.6700   XXXY    -379.2164   XXYY   -4335.0610
      XYYY     211.0535   YYYY   -2764.6355   XXXZ    -174.2130
      XXYZ     182.2773   XYYZ     -40.7374   YYYZ      14.9091
      XXZZ   -4140.7856   XYZZ     -30.3593   YYZZ    -595.2556
      XZZZ      21.8023   YZZZ       1.3816   ZZZZ    -724.4329
 -----------------------------------------------------------------
 Calculating analytic gradient of the SCF energy
 K construction time:  CPU 2076.40 s  wall 131.69 s
 Gradient of SCF Energy
            1           2           3           4           5           6
    1  -0.0009520   0.0009115   0.0024982  -0.0013841  -0.0031323   0.0072083
    2   0.0003238   0.0000681  -0.0007519   0.0024463   0.0002964  -0.0014829
    3  -0.0003257   0.0005682   0.0001331  -0.0015051   0.0015202   0.0018867
            7           8           9          10          11          12
    1  -0.0074757   0.0041557   0.0004379  -0.0022478   0.0005009  -0.0005022
    2   0.0001372   0.0005603  -0.0010570   0.0002300  -0.0002850   0.0005053
    3  -0.0029153  -0.0021081   0.0020436  -0.0003824  -0.0002432   0.0002208
           13          14          15          16          17          18
    1   0.0012761   0.0000916   0.0002750   0.0000343  -0.0008772   0.0003998
    2  -0.0003464  -0.0003366   0.0003330  -0.0007345   0.0002111   0.0006594
    3  -0.0002066   0.0001786  -0.0005080   0.0000239  -0.0001363   0.0000931
           19          20          21          22          23          24
    1  -0.0005340   0.0007386   0.0008303  -0.0005333  -0.0003871   0.0003854
    2   0.0003211  -0.0004566  -0.0009401   0.0005292   0.0012805   0.0009294
    3   0.0002302   0.0005597  -0.0012679   0.0007182   0.0005920   0.0005802
           25          26          27          28          29          30
    1  -0.0005171  -0.0000555   0.0013808  -0.0006646   0.0001905   0.0002245
    2  -0.0013497  -0.0002735   0.0007554   0.0002103   0.0001825  -0.0004205
    3  -0.0003725  -0.0002034   0.0003719   0.0009463  -0.0001872  -0.0005958
           31          32          33          34          35          36
    1  -0.0003108  -0.0003588  -0.0010607  -0.0003462   0.0003191   0.0000136
    2   0.0005975  -0.0013309   0.0000315  -0.0000616   0.0001520  -0.0003915
    3   0.0001900   0.0001644   0.0001877   0.0014526  -0.0000630  -0.0005430
           37          38
    1  -0.0005527   0.0000199
    2  -0.0001422  -0.0003996
    3  -0.0006175  -0.0004803
 Max gradient component =       7.476E-03
 RMS gradient           =       1.375E-03
 Gradient time:  CPU 2492.62 s  wall 159.88 s
 Geometry Optimization Parameters
   NAtoms,    NIC,     NZ,  NCons,   NDum,   NFix, NCnnct, MaxDiis
       38     289       0       3       0       0       0       0


** CONSTRAINED OPTIMIZATION IN DELOCALIZED INTERNAL COORDINATES **
   Searching for a Minimum

   Optimization Cycle:   1

                       Coordinates (Angstroms)
     ATOM                X               Y               Z
      1  C        -7.9592602369    1.6549552134   -0.5621330967
      2  C        -7.2557128944    1.1574634832   -1.6477165321
      3  C        -7.3564389507    1.6919821642    0.6863234626
      4  C        -5.9516693012    0.7211791111   -1.4894135849
      5  C        -6.0560908251    1.2466000076    0.8489413764
      6  C        -5.3317683379    0.7722841746   -0.2430168497
      7  C        -3.9126749358    0.3873936198   -0.1158105713
      8  C        -2.9151640945    1.3125977097   -0.2592066761
      9  C        -3.4720486171   -0.9349841811    0.1675792532
     10  N        -1.5870728181    1.0657894660   -0.1596384325
     11  N        -4.2365110547   -2.0134687382    0.3519677872
     12  C        -2.0702374258   -1.2124765379    0.2688520307
     13  C        -1.1426702452   -0.1352059004    0.0912300174
     14  S        -3.2228503638   -3.2339814372    0.6294798813
     15  N        -1.8034958468   -2.4923068367    0.5309736920
     16  C         0.3093881409   -0.2851112019    0.1886594079
     17  N         0.9593948278   -1.3957682973    0.3429706927
     18  S         1.3085571825    1.1354380165    0.0910350490
     19  C         2.2966674286   -1.1723037164    0.4010445475
     20  C         2.6973774992    0.1313298579    0.2898105446
     21  C         4.0515503883    0.6400637601    0.2769538791
     22  S         4.4598766225    2.2141431742    0.8730009620
     23  C         5.1892648829    0.0263371770   -0.1697815058
     24  C         6.1191894356    2.0407345538    0.5020662357
     25  S         5.5253070873   -1.5136396872   -0.9154980714
     26  C         6.3711089437    0.8157060560   -0.0503931977
     27  C         7.2169589595   -1.0799071886   -1.0584015991
     28  C         7.5260290918    0.1336534684   -0.5756483864
     29  H        -8.9720037435    2.0119496110   -0.6882773183
     30  H        -7.7196501246    1.1092768005   -2.6241733281
     31  H        -7.9001938874    2.0796677890    1.5379178726
     32  H        -5.4089762456    0.3199043297   -2.3353282211
     33  H        -5.5939776977    1.2814851086    1.8261496180
     34  H        -3.1773663507    2.3458790463   -0.4477618593
     35  H         2.9713755532   -2.0031509865    0.5459246011
     36  H         6.8111189311    2.8409705899    0.6972306717
     37  H         7.8844118333   -1.7878263617   -1.5223362270
     38  H         8.5220140833    0.5470140736   -0.6011796498
   Point Group: c1    Number of degrees of freedom:   108


   Energy is  -2579.858639897

              Constraints and their Current Values
                                        Value     Constraint
   Dihedral:        4   6   7   8       90.000       90.000
   Dihedral:       10  13  16  18        4.688        4.632
   Dihedral:       18  20  21  22       32.691       32.716

 Attempting to Generate Delocalized Internal Coordinates

   Using Lagrange Multiplier Algorithm


111 Hessian modes will be used to form the next step
  Hessian Eigenvalues:
    -0.977753   -0.977753   -0.977753    0.045000    0.045000    0.045000
     0.045000    0.045000    0.045000    0.045000    0.045000    0.045000
     0.045000    0.045000    0.045000    0.045001    0.045001    0.045001
     0.045001    0.045001    0.045002    0.045002    0.045003    0.045003
     0.045004    0.045005    0.045005    0.045007    0.045008    0.045008
     0.045012    0.045021    0.045031    0.045040    0.045052    0.159964
     0.159978    0.159978    0.159981    0.159982    0.159991    0.159991
     0.159994    0.160000    0.160000    0.219984    0.219994    0.225219
     0.233057    0.234605    0.234757    0.237025    0.247519    0.249693
     0.249750    0.249778    0.249982    0.249986    0.249988    0.249992
     0.249995    0.249997    0.249999    0.249999    0.250000    0.296268
     0.304578    0.308356    0.315683    0.324170    0.337614    0.350485
     0.356847    0.357284    0.357325    0.357370    0.358104    0.358490
     0.359871    0.361569    0.362487    0.365130    0.365884    0.369132
     0.381386    0.386889    0.389560    0.393557    0.413654    0.429805
     0.432305    0.470765    0.472706    0.474104    0.479089    0.480434
     0.482720    0.483543    0.486771    0.496412    0.509559    0.519722
     0.527461    0.543244    0.556253    0.579543    0.638684    0.653871
     1.022753    1.022753    1.022753

 Minimum Search - Taking P-RFO Step
 Searching for Lamda that Maximizes Along the Constraint modes Only
 Value Taken    Lamda =   0.00000197
 Searching for Lamda that Minimizes Along All other modes
 Value Taken    Lamda =  -0.00066785
 Step Taken.  Stepsize is  0.085570

                             Maximum     Tolerance    Cnvgd?
         Gradient            0.004597       0.000300      NO
         Displacement        0.029706       0.001200      NO
         Energy change     *********       0.000001      NO


 New Cartesian Coordinates Obtained by Inverse Iteration

 Displacement from previous Coordinates is:  0.607666
 ----------------------------------------------------------------
             Standard Nuclear Orientation (Angstroms)
    I     Atom           X                Y                Z
 ----------------------------------------------------------------
    1      C      -7.9890363955     1.5986378707    -0.5130116211
    2      C      -7.2952262417     1.1296754028    -1.6176463026
    3      C      -7.3608863524     1.6513072551     0.7214385674
    4      C      -5.9753688633     0.7275654998    -1.4905232670
    5      C      -6.0426271275     1.2454830250     0.8498352330
    6      C      -5.3353297171     0.7899836660    -0.2567829535
    7      C      -3.9047149367     0.4230235865    -0.1380685347
    8      C      -2.9106597829     1.3468982227    -0.2919635204
    9      C      -3.4678647957    -0.8979285688     0.1432631837
   10      N      -1.5808177047     1.0946878501    -0.1991118161
   11      N      -4.2393634040    -1.9698596593     0.3355101485
   12      C      -2.0685411087    -1.1818777257     0.2432204873
   13      C      -1.1403940732    -0.1069379784     0.0578072177
   14      S      -3.2319757842    -3.1946600518     0.6155082595
   15      N      -1.8083316969    -2.4617410098     0.5128873318
   16      C       0.3113517249    -0.2627758740     0.1507122106
   17      N       0.9570846879    -1.3751650080     0.3141271980
   18      S       1.3159775367     1.1514196197     0.0388638575
   19      C       2.2947302475    -1.1575680218     0.3742815765
   20      C       2.6996835037     0.1441400456     0.2559016232
   21      C       4.0566312438     0.6456048449     0.2524443624
   22      S       4.4683179886     2.2195326630     0.8429945632
   23      C       5.1977891643     0.0197535009    -0.1717482917
   24      C       6.1315217938     2.0307542303     0.5023259107
   25      S       5.5375614611    -1.5283142780    -0.8951937512
   26      C       6.3840578629     0.8004207114    -0.0365820884
   27      C       7.2353011113    -1.1122606023    -1.0057644927
   28      C       7.5444244684     0.1048735358    -0.5317873124
   29      H      -9.0155764546     1.9232906500    -0.6136599363
   30      H      -7.7815600071     1.0776350862    -2.5821873122
   31      H      -7.8957465000     2.0154260066     1.5879551553
   32      H      -5.4369740427     0.3529198928    -2.3509299424
   33      H      -5.5528164651     1.2862750119     1.8136884742
   34      H      -3.1694870083     2.3773355355    -0.5015127191
   35      H       2.9636009385    -1.9908668292     0.5308681915
   36      H       6.8249444416     2.8273085939     0.7099079223
   37      H       7.9103451410    -1.8317413585    -1.4399032592
   38      H       8.5437320401     0.5114119492    -0.5347678784
 ----------------------------------------------------------------
 Molecular Point Group                 C1    NOp =  1
 Largest Abelian Subgroup              C1    NOp =  1
 Nuclear Repulsion Energy =  2864.4238971986 hartrees
 There are      111 alpha and      111 beta electrons
 Applying Cartesian multipole field
    Component          Value
    ---------          -----
     (2,0,0)        1.00000E-12
     (0,2,0)        2.00000E-11
     (0,0,2)       -3.00000E-11
 Nucleus-field energy     =     0.0000000458 hartrees
 Requested basis set is cc-pVTZ
 There are 348 shells and 996 basis functions
 A cutoff of  1.0D-11 yielded  28520 shell pairs
 There are    226276 function pairs (    295756 Cartesian)
 Smallest overlap matrix eigenvalue = 3.07E-05
 Guess MOs from SCF MO coefficient file
 Reading MOs from coefficient file
 Reading MOs from coefficient file
 Long-range K will be added via erf
 Coulomb attenuation parameter = 0.2 bohr**(-1)
 A restricted hybrid HF-DFT SCF calculation will be
 performed using Pulay DIIS extrapolation
 Exchange:     0.2220 Hartree-Fock + 1.0000 wB97X-D + LR-HF
 Correlation:  1.0000 wB97X-D
 Using SG-2 standard quadrature grid
 Dispersion:   Grimme D
 SCF converges when DIIS error is below 1.0E-08
 Geometry optimization detected.  Setting ReadMinima to 0
 Setting SaveMinima to 0
 using 16 threads for integral computing 
 using 16 threads for integral computing 
 K construction time:  CPU 989.33 s  wall 64.68 s
 -------------------------------------------------------
 OpenMP BLAS3 based DFT computing Module                
 Release: version 1.0, May 2013, Q-Chem Inc. Pittsburgh 
 -------------------------------------------------------
 ---------------------------------------
  Cycle       Energy         DIIS Error
 ---------------------------------------
    1   -2579.8527846770      2.92E-04
 K construction time:  CPU 990.39 s  wall 64.71 s
    2   -2579.8587978321      2.96E-05
 K construction time:  CPU 730.46 s  wall 47.84 s
    3   -2579.8590395164      1.87E-05
 K construction time:  CPU 694.25 s  wall 45.44 s
    4   -2579.8590737861      1.34E-05
 K construction time:  CPU 659.01 s  wall 43.11 s
    5   -2579.8590969125      4.56E-06
 K construction time:  CPU 607.06 s  wall 39.69 s
    6   -2579.8590998132      1.56E-06
 K construction time:  CPU 547.57 s  wall 35.75 s
    7   -2579.8591001804      4.43E-07
 K construction time:  CPU 497.70 s  wall 32.66 s
    8   -2579.8591002210      2.27E-07
 K construction time:  CPU 449.49 s  wall 29.32 s
    9   -2579.8591002299      7.28E-08
 K construction time:  CPU 385.97 s  wall 25.17 s
   10   -2579.8591002309      3.00E-08
 K construction time:  CPU 350.10 s  wall 22.92 s
   11   -2579.8591002308      1.31E-08
 K construction time:  CPU 296.62 s  wall 19.34 s
   12   -2579.8591002317      5.42E-09 Convergence criterion met
 ---------------------------------------
 SCF time:  CPU 9817.66 s  wall 658.53 s
 SCF   energy in the final basis set = -2579.8591002317
 Total energy in the final basis set = -2579.8591002317
 
 --------------------------------------------------------------
 
                    Orbital Energies (a.u.)
 --------------------------------------------------------------
 
 Alpha MOs
 -- Occupied --
-89.148 -89.090 -89.086 -89.078 -14.484 -14.480 -14.453 -14.443
-10.365 -10.362 -10.356 -10.355 -10.343 -10.342 -10.335 -10.333
-10.330 -10.327 -10.323 -10.322 -10.313 -10.311 -10.305 -10.297
-10.297 -10.295 -10.295 -10.294  -8.158  -8.105  -8.102  -8.093
 -6.109  -6.103  -6.102  -6.054  -6.051  -6.050  -6.048  -6.047
 -6.045  -6.043  -6.039  -6.035  -1.145  -1.086  -1.064  -1.023
 -1.009  -0.974  -0.958  -0.924  -0.919  -0.898  -0.876  -0.860
 -0.855  -0.833  -0.828  -0.802  -0.774  -0.742  -0.734  -0.709
 -0.709  -0.693  -0.691  -0.660  -0.651  -0.637  -0.627  -0.614
 -0.606  -0.598  -0.572  -0.563  -0.556  -0.549  -0.544  -0.531
 -0.530  -0.523  -0.514  -0.514  -0.507  -0.504  -0.498  -0.484
 -0.477  -0.476  -0.465  -0.455  -0.447  -0.441  -0.437  -0.434
 -0.426  -0.423  -0.421  -0.399  -0.393  -0.370  -0.368  -0.361
 -0.354  -0.353  -0.339  -0.335  -0.325  -0.314  -0.273
 -- Virtual --
 -0.048   0.002   0.030   0.045   0.051   0.063   0.064   0.069
  0.085   0.088   0.104   0.113   0.116   0.123   0.130   0.138
  0.142   0.147   0.149   0.150   0.158   0.163   0.164   0.178
  0.185   0.186   0.192   0.199   0.217   0.219   0.228   0.236
  0.238   0.248   0.257   0.265   0.274   0.280   0.281   0.291
  0.293   0.302   0.304   0.304   0.307   0.319   0.321   0.323
  0.330   0.332   0.333   0.344   0.345   0.346   0.350   0.355
  0.358   0.360   0.369   0.371   0.375   0.380   0.382   0.386
  0.387   0.389   0.394   0.397   0.398   0.405   0.407   0.411
  0.414   0.418   0.420   0.430   0.431   0.435   0.438   0.441
  0.443   0.446   0.449   0.452   0.453   0.454   0.457   0.462
  0.463   0.466   0.469   0.477   0.478   0.479   0.481   0.483
  0.486   0.497   0.500   0.503   0.509   0.509   0.510   0.517
  0.518   0.524   0.527   0.531   0.537   0.542   0.544   0.554
  0.556   0.558   0.561   0.562   0.567   0.569   0.575   0.576
  0.581   0.581   0.596   0.597   0.614   0.620   0.623   0.628
  0.632   0.639   0.643   0.644   0.649   0.654   0.663   0.666
  0.668   0.674   0.678   0.687   0.691   0.701   0.703   0.710
  0.716   0.723   0.727   0.729   0.736   0.740   0.744   0.747
  0.753   0.758   0.761   0.766   0.770   0.771   0.774   0.780
  0.790   0.795   0.797   0.798   0.803   0.812   0.815   0.829
  0.835   0.836   0.838   0.841   0.846   0.847   0.850   0.858
  0.859   0.862   0.865   0.874   0.877   0.886   0.887   0.894
  0.902   0.907   0.908   0.913   0.919   0.922   0.931   0.934
  0.938   0.941   0.945   0.953   0.960   0.962   0.965   0.966
  0.973   0.980   0.981   0.988   0.992   0.998   1.007   1.015
  1.018   1.030   1.034   1.037   1.045   1.048   1.050   1.056
  1.057   1.067   1.075   1.080   1.088   1.090   1.094   1.100
  1.104   1.122   1.124   1.130   1.132   1.142   1.150   1.153
  1.161   1.169   1.171   1.176   1.182   1.185   1.193   1.204
  1.210   1.219   1.223   1.230   1.232   1.243   1.248   1.252
  1.258   1.263   1.268   1.275   1.290   1.293   1.296   1.308
  1.322   1.325   1.335   1.348   1.351   1.354   1.361   1.368
  1.370   1.376   1.380   1.385   1.390   1.403   1.407   1.415
  1.422   1.425   1.435   1.436   1.441   1.445   1.450   1.458
  1.464   1.465   1.469   1.477   1.479   1.481   1.485   1.488
  1.498   1.502   1.504   1.518   1.520   1.539   1.549   1.553
  1.559   1.564   1.572   1.578   1.584   1.593   1.596   1.602
  1.611   1.616   1.628   1.631   1.638   1.648   1.651   1.654
  1.662   1.663   1.671   1.674   1.687   1.688   1.692   1.700
  1.706   1.712   1.713   1.716   1.729   1.735   1.740   1.749
  1.750   1.764   1.770   1.778   1.782   1.787   1.799   1.804
  1.828   1.838   1.840   1.854   1.866   1.879   1.884   1.887
  1.889   1.901   1.909   1.912   1.924   1.931   1.939   1.939
  1.944   1.956   1.966   1.974   1.980   1.983   1.999   2.007
  2.010   2.019   2.023   2.025   2.032   2.038   2.044   2.064
  2.069   2.080   2.086   2.090   2.093   2.103   2.127   2.131
  2.135   2.148   2.154   2.161   2.163   2.172   2.176   2.181
  2.192   2.203   2.204   2.216   2.219   2.231   2.238   2.242
  2.245   2.251   2.257   2.263   2.265   2.273   2.283   2.291
  2.302   2.304   2.322   2.329   2.341   2.347   2.351   2.357
  2.365   2.368   2.386   2.391   2.399   2.407   2.411   2.416
  2.423   2.443   2.446   2.448   2.454   2.459   2.466   2.476
  2.481   2.489   2.491   2.499   2.501   2.506   2.509   2.514
  2.527   2.530   2.535   2.551   2.554   2.560   2.580   2.588
  2.591   2.596   2.602   2.612   2.613   2.624   2.631   2.639
  2.645   2.661   2.667   2.671   2.674   2.683   2.697   2.714
  2.726   2.737   2.739   2.742   2.751   2.762   2.771   2.774
  2.777   2.781   2.786   2.789   2.789   2.803   2.805   2.807
  2.810   2.816   2.831   2.832   2.839   2.846   2.854   2.861
  2.868   2.889   2.892   2.896   2.902   2.910   2.912   2.922
  2.926   2.935   2.950   2.954   2.959   2.966   2.974   2.976
  2.981   2.981   2.983   2.990   2.993   2.998   3.013   3.017
  3.021   3.025   3.033   3.041   3.046   3.048   3.054   3.059
  3.065   3.067   3.074   3.076   3.078   3.085   3.085   3.089
  3.098   3.105   3.107   3.112   3.116   3.120   3.130   3.131
  3.139   3.146   3.147   3.149   3.152   3.156   3.165   3.166
  3.171   3.173   3.182   3.185   3.187   3.190   3.199   3.204
  3.213   3.216   3.220   3.222   3.228   3.231   3.234   3.238
  3.246   3.256   3.258   3.268   3.274   3.277   3.280   3.286
  3.288   3.293   3.297   3.306   3.315   3.319   3.320   3.323
  3.328   3.329   3.332   3.334   3.346   3.349   3.357   3.363
  3.371   3.374   3.379   3.387   3.389   3.394   3.396   3.405
  3.411   3.424   3.437   3.440   3.445   3.450   3.454   3.457
  3.461   3.465   3.468   3.474   3.476   3.481   3.485   3.489
  3.499   3.509   3.512   3.516   3.528   3.532   3.545   3.549
  3.550   3.551   3.562   3.565   3.570   3.573   3.580   3.587
  3.596   3.602   3.606   3.623   3.631   3.663   3.668   3.670
  3.679   3.695   3.704   3.706   3.720   3.725   3.732   3.736
  3.745   3.763   3.765   3.768   3.769   3.776   3.782   3.789
  3.793   3.804   3.816   3.824   3.841   3.843   3.856   3.858
  3.862   3.864   3.870   3.873   3.878   3.879   3.881   3.886
  3.908   3.910   3.916   3.925   3.927   3.940   3.947   3.951
  3.952   3.957   3.963   3.966   3.975   3.980   3.986   3.993
  3.995   4.004   4.021   4.031   4.047   4.053   4.059   4.069
  4.072   4.076   4.081   4.094   4.099   4.115   4.131   4.134
  4.139   4.143   4.150   4.162   4.168   4.178   4.184   4.190
  4.193   4.197   4.205   4.210   4.235   4.238   4.247   4.261
  4.273   4.276   4.295   4.297   4.301   4.308   4.326   4.333
  4.337   4.338   4.343   4.357   4.368   4.373   4.379   4.391
  4.400   4.406   4.411   4.423   4.424   4.430   4.432   4.435
  4.438   4.449   4.454   4.472   4.487   4.509   4.516   4.519
  4.527   4.545   4.554   4.569   4.574   4.587   4.590   4.601
  4.620   4.629   4.632   4.635   4.645   4.657   4.662   4.667
  4.681   4.715   4.722   4.729   4.755   4.762   4.780   4.785
  4.786   4.820   4.822   4.833   4.842   4.844   4.850   4.854
  4.859   4.863   4.872   4.880   4.899   4.905   4.910   4.925
  4.935   4.953   4.966   4.975   4.987   4.989   4.994   5.000
  5.024   5.045   5.054   5.066   5.071   5.078   5.082   5.087
  5.093   5.112   5.116   5.117   5.120   5.128   5.149   5.164
  5.186   5.193   5.225   5.244   5.247   5.250   5.254   5.271
  5.273   5.308   5.328   5.340   5.360   5.368   5.369   5.380
  5.401   5.439   5.449   5.451   5.514   5.517   5.522   5.540
  5.576   5.589   5.597   5.633   5.641   5.664   5.676   5.693
  5.718   5.736   5.760   5.802   5.822   5.837   5.844   5.871
  5.879   5.969   6.006   6.026   6.029   6.046   6.072   6.084
  6.146   6.155   6.166   6.179   6.200   6.240   6.249   6.290
  6.355   6.481   6.534   6.862   6.941   8.006   8.536   9.254
 10.068  10.654  11.139  11.145  11.682  11.976  12.209  12.614
 12.772  12.816  12.844  12.952  13.152  13.401  13.432  13.761
 13.807  13.948  14.128  14.701  15.725
 --------------------------------------------------------------
 
          Ground-State Mulliken Net Atomic Charges

     Atom                 Charge (a.u.)
  ----------------------------------------
      1 C                    -0.123467
      2 C                    -0.104690
      3 C                    -0.103256
      4 C                    -0.105278
      5 C                    -0.107332
      6 C                     0.055784
      7 C                    -0.059957
      8 C                    -0.073754
      9 C                     0.061251
     10 N                    -0.172208
     11 N                    -0.267356
     12 C                    -0.012025
     13 C                     0.109915
     14 S                     0.411523
     15 N                    -0.222896
     16 C                    -0.009755
     17 N                    -0.136630
     18 S                     0.121526
     19 C                    -0.145201
     20 C                    -0.017506
     21 C                     0.004710
     22 S                     0.133374
     23 C                    -0.050247
     24 C                    -0.219806
     25 S                     0.057130
     26 C                     0.042729
     27 C                    -0.145768
     28 C                    -0.172525
     29 H                     0.117940
     30 H                     0.116531
     31 H                     0.116526
     32 H                     0.117588
     33 H                     0.117325
     34 H                     0.129170
     35 H                     0.145866
     36 H                     0.129995
     37 H                     0.132896
     38 H                     0.127877
  ----------------------------------------
  Sum of atomic charges =     0.000000

 -----------------------------------------------------------------
                    Cartesian Multipole Moments
 -----------------------------------------------------------------
    Charge (ESU x 10^10)
                 0.0000
    Dipole Moment (Debye)
         X       0.8503      Y       1.0363      Z      -0.1981
       Tot       1.3550
    Quadrupole Moments (Debye-Ang)
        XX    -141.0759     XY      -1.2237     YY    -181.1438
        XZ      -0.9845     YZ       3.4621     ZZ    -182.5586
    Octopole Moments (Debye-Ang^2)
       XXX     170.9934    XXY      68.8665    XYY      22.8965
       YYY     -30.3232    XXZ     -36.1745    XYZ      15.9212
       YYZ      10.0132    XZZ     -42.2573    YZZ      -6.5935
       ZZZ       4.6560
    Hexadecapole Moments (Debye-Ang^3)
      XXXX  -21343.7059   XXXY    -355.5684   XXYY   -4357.4462
      XYYY     222.3038   YYYY   -2731.8528   XXXZ    -150.4038
      XXYZ     184.7713   XYYZ     -41.1263   YYYZ      11.6132
      XXZZ   -4164.8793   XYZZ     -23.4026   YYZZ    -586.4560
      XZZZ      18.6294   YZZZ      -2.1354   ZZZZ    -703.7706
 -----------------------------------------------------------------
 Calculating analytic gradient of the SCF energy
 K construction time:  CPU 2078.94 s  wall 131.68 s
 Gradient of SCF Energy
            1           2           3           4           5           6
    1  -0.0003993  -0.0000739   0.0006293  -0.0001210  -0.0006587   0.0014063
    2   0.0000336   0.0003284  -0.0001375   0.0013477  -0.0000485  -0.0011242
    3  -0.0001829  -0.0000253  -0.0001654  -0.0004573  -0.0004136   0.0013098
            7           8           9          10          11          12
    1  -0.0018557   0.0018016   0.0000917  -0.0010360   0.0002129  -0.0000117
    2  -0.0006577   0.0003243   0.0000080   0.0003345   0.0002802   0.0003914
    3  -0.0003426  -0.0005099   0.0006926  -0.0006933  -0.0000620  -0.0000255
           13          14          15          16          17          18
    1   0.0005295   0.0000018   0.0000864  -0.0001337  -0.0000062  -0.0000484
    2  -0.0005340  -0.0000071   0.0002200  -0.0003112   0.0001398   0.0003478
    3   0.0001992  -0.0000821  -0.0000950   0.0002193  -0.0003355  -0.0004666
           19          20          21          22          23          24
    1  -0.0000001  -0.0000140   0.0000854  -0.0001975  -0.0002319   0.0000950
    2   0.0000401  -0.0002882  -0.0003437   0.0000213   0.0005515  -0.0000312
    3  -0.0000336   0.0010551  -0.0007133   0.0004383   0.0001518  -0.0000045
           25          26          27          28          29          30
    1  -0.0002772   0.0000595   0.0006837  -0.0001862   0.0001167   0.0000315
    2  -0.0002737  -0.0000831   0.0002180   0.0000749   0.0002241  -0.0001929
    3  -0.0001041   0.0002165   0.0003192   0.0001619   0.0000311  -0.0000405
           31          32          33          34          35          36
    1   0.0000203  -0.0001746  -0.0001777  -0.0003066   0.0001049   0.0001060
    2   0.0001564  -0.0007763  -0.0002571   0.0001156   0.0000234  -0.0000441
    3  -0.0000166   0.0001736   0.0001116   0.0004079   0.0000208  -0.0001811
           37          38
    1  -0.0002339   0.0000821
    2   0.0000346  -0.0001053
    3  -0.0003573  -0.0002007
 Max gradient component =       1.856E-03
 RMS gradient           =       4.640E-04
 Gradient time:  CPU 2497.20 s  wall 159.90 s
 Geometry Optimization Parameters
   NAtoms,    NIC,     NZ,  NCons,   NDum,   NFix, NCnnct, MaxDiis
       38     289       0       3       0       0       0       0

 Cartesian Hessian Update
 Hessian Updated using BFGS Update


** CONSTRAINED OPTIMIZATION IN DELOCALIZED INTERNAL COORDINATES **
   Searching for a Minimum

   Optimization Cycle:   2

                       Coordinates (Angstroms)
     ATOM                X               Y               Z
      1  C        -7.9890363955    1.5986378707   -0.5130116211
      2  C        -7.2952262417    1.1296754028   -1.6176463026
      3  C        -7.3608863524    1.6513072551    0.7214385674
      4  C        -5.9753688633    0.7275654998   -1.4905232670
      5  C        -6.0426271275    1.2454830250    0.8498352330
      6  C        -5.3353297171    0.7899836660   -0.2567829535
      7  C        -3.9047149367    0.4230235865   -0.1380685347
      8  C        -2.9106597829    1.3468982227   -0.2919635204
      9  C        -3.4678647957   -0.8979285688    0.1432631837
     10  N        -1.5808177047    1.0946878501   -0.1991118161
     11  N        -4.2393634040   -1.9698596593    0.3355101485
     12  C        -2.0685411087   -1.1818777257    0.2432204873
     13  C        -1.1403940732   -0.1069379784    0.0578072177
     14  S        -3.2319757842   -3.1946600518    0.6155082595
     15  N        -1.8083316969   -2.4617410098    0.5128873318
     16  C         0.3113517249   -0.2627758740    0.1507122106
     17  N         0.9570846879   -1.3751650080    0.3141271980
     18  S         1.3159775367    1.1514196197    0.0388638575
     19  C         2.2947302475   -1.1575680218    0.3742815765
     20  C         2.6996835037    0.1441400456    0.2559016232
     21  C         4.0566312438    0.6456048449    0.2524443624
     22  S         4.4683179886    2.2195326630    0.8429945632
     23  C         5.1977891643    0.0197535009   -0.1717482917
     24  C         6.1315217938    2.0307542303    0.5023259107
     25  S         5.5375614611   -1.5283142780   -0.8951937512
     26  C         6.3840578629    0.8004207114   -0.0365820884
     27  C         7.2353011113   -1.1122606023   -1.0057644927
     28  C         7.5444244684    0.1048735358   -0.5317873124
     29  H        -9.0155764546    1.9232906500   -0.6136599363
     30  H        -7.7815600071    1.0776350862   -2.5821873122
     31  H        -7.8957465000    2.0154260066    1.5879551553
     32  H        -5.4369740427    0.3529198928   -2.3509299424
     33  H        -5.5528164651    1.2862750119    1.8136884742
     34  H        -3.1694870083    2.3773355355   -0.5015127191
     35  H         2.9636009385   -1.9908668292    0.5308681915
     36  H         6.8249444416    2.8273085939    0.7099079223
     37  H         7.9103451410   -1.8317413585   -1.4399032592
     38  H         8.5437320401    0.5114119492   -0.5347678784
   Point Group: c1    Number of degrees of freedom:   108


   Energy is  -2579.859100232

              Constraints and their Current Values
                                        Value     Constraint
   Dihedral:        4   6   7   8       90.000       90.000
   Dihedral:       10  13  16  18        4.632        4.632
   Dihedral:       18  20  21  22       32.716       32.716
 Hessian Updated using BFGS Update

 95 Hessian modes will be used to form the next step
  Hessian Eigenvalues:
     0.028798    0.045000    0.045000    0.045000    0.045000    0.045001
     0.045001    0.045001    0.045002    0.045002    0.045003    0.045003
     0.045004    0.045004    0.045006    0.045007    0.045007    0.045009
     0.045021    0.045030    0.045037    0.045048    0.047127    0.157280
     0.159969    0.159979    0.159981    0.159987    0.159991    0.159994
     0.159995    0.159998    0.161486    0.212057    0.219997    0.223102
     0.225224    0.233688    0.235235    0.237030    0.238152    0.247721
     0.249753    0.249780    0.249905    0.249983    0.249987    0.249992
     0.249994    0.249999    0.249999    0.255042    0.296135    0.304602
     0.308360    0.315694    0.324171    0.337273    0.351727    0.356972
     0.357320    0.357333    0.357707    0.358312    0.358491    0.359872
     0.361618    0.362493    0.365243    0.365921    0.369793    0.381479
     0.386889    0.389558    0.393405    0.418164    0.429764    0.438535
     0.471145    0.472739    0.477138    0.479860    0.480560    0.482724
     0.485981    0.490039    0.495032    0.509484    0.519738    0.523814
     0.543248    0.556540    0.580021    0.639261    0.654083

 Minimum Search - Taking Simple RFO Step
 Searching for Lamda that Minimizes Along All modes
 Value Taken    Lamda =  -0.00025679
 Step Taken.  Stepsize is  0.086634

                             Maximum     Tolerance    Cnvgd?
         Gradient           0.001611      0.000300      NO
         Displacement       0.032011      0.001200      NO
         Energy change     -0.000460      0.000001      NO


 New Cartesian Coordinates Obtained by Inverse Iteration

 Displacement from previous Coordinates is:  0.551272
 ----------------------------------------------------------------
             Standard Nuclear Orientation (Angstroms)
    I     Atom           X                Y                Z
 ----------------------------------------------------------------
    1      C      -8.0141171240     1.5372949489    -0.4747667050
    2      C      -7.3215665015     1.1042287789    -1.5950927934
    3      C      -7.3708771389     1.6040266064     0.7508894312
    4      C      -5.9881388998     0.7418194273    -1.4921803537
    5      C      -6.0369315320     1.2425406245     0.8540542031
    6      C      -5.3364748436     0.8120373392    -0.2664694175
    7      C      -3.8988488047     0.4598289399    -0.1553811868
    8      C      -2.9065196829     1.3817405951    -0.3149162956
    9      C      -3.4651519075    -0.8627918808     0.1220459818
   10      N      -1.5756313549     1.1249838791    -0.2237252939
   11      N      -4.2409281681    -1.9318871651     0.3164958747
   12      C      -2.0676353128    -1.1514294343     0.2234150657
   13      C      -1.1387076244    -0.0770340198     0.0360904402
   14      S      -3.2380229137    -3.1597671303     0.5988680809
   15      N      -1.8117807224    -2.4321034123     0.4951313466
   16      C       0.3130643839    -0.2375478013     0.1241334232
   17      N       0.9539072704    -1.3515609938     0.2966244260
   18      S       1.3239477121     1.1707793490     0.0034088248
   19      C       2.2922914101    -1.1392305041     0.3557711082
   20      C       2.7032745787     0.1599835130     0.2280688439
   21      C       4.0630131267     0.6539365850     0.2264960468
   22      S       4.4812346811     2.2274068567     0.8117684438
   23      C       5.2043631184     0.0141013643    -0.1781600476
   24      C       6.1462434043     2.0221422931     0.4946337875
   25      S       5.5421821276    -1.5446631615    -0.8775301191
   26      C       6.3954445707     0.7853542806    -0.0311502619
   27      C       7.2450134837    -1.1472978234    -0.9611222283
   28      C       7.5575397513     0.0731681571    -0.4974605022
   29      H      -9.0535344258     1.8242117836    -0.5577663412
   30      H      -7.8213487078     1.0500004939    -2.5524181767
   31      H      -7.9049024530     1.9401975044     1.6289016745
   32      H      -5.4487858805     0.4000561435    -2.3654028525
   33      H      -5.5310056343     1.2899932531     1.8092807906
   34      H      -3.1603614576     2.4108055561    -0.5359630169
   35      H       2.9561457234    -1.9749231334     0.5198449899
   36      H       6.8427499412     2.8135547324     0.7117740224
   37      H       7.9241471912    -1.8804947044    -1.3650025081
   38      H       8.5604655090     0.4702054502    -0.4807922304
 ----------------------------------------------------------------
 Molecular Point Group                 C1    NOp =  1
 Largest Abelian Subgroup              C1    NOp =  1
 Nuclear Repulsion Energy =  2864.8133450819 hartrees
 There are      111 alpha and      111 beta electrons
 Applying Cartesian multipole field
    Component          Value
    ---------          -----
     (2,0,0)        1.00000E-12
     (0,2,0)        2.00000E-11
     (0,0,2)       -3.00000E-11
 Nucleus-field energy     =     0.0000000458 hartrees
 Requested basis set is cc-pVTZ
 There are 348 shells and 996 basis functions
 A cutoff of  1.0D-11 yielded  28527 shell pairs
 There are    226505 function pairs (    296138 Cartesian)
 Smallest overlap matrix eigenvalue = 3.07E-05
 Guess MOs from SCF MO coefficient file
 Reading MOs from coefficient file
 Reading MOs from coefficient file
 Long-range K will be added via erf
 Coulomb attenuation parameter = 0.2 bohr**(-1)
 A restricted hybrid HF-DFT SCF calculation will be
 performed using Pulay DIIS extrapolation
 Exchange:     0.2220 Hartree-Fock + 1.0000 wB97X-D + LR-HF
 Correlation:  1.0000 wB97X-D
 Using SG-2 standard quadrature grid
 Dispersion:   Grimme D
 SCF converges when DIIS error is below 1.0E-08
 Geometry optimization detected.  Setting ReadMinima to 0
 Setting SaveMinima to 0
 using 16 threads for integral computing 
 using 16 threads for integral computing 
 K construction time:  CPU 994.79 s  wall 65.22 s
 -------------------------------------------------------
 OpenMP BLAS3 based DFT computing Module                
 Release: version 1.0, May 2013, Q-Chem Inc. Pittsburgh 
 -------------------------------------------------------
 ---------------------------------------
  Cycle       Energy         DIIS Error
 ---------------------------------------
    1   -2579.8545985952      2.72E-04
 K construction time:  CPU 994.14 s  wall 65.07 s
    2   -2579.8589676292      2.80E-05
 K construction time:  CPU 725.24 s  wall 47.51 s
    3   -2579.8591974869      1.69E-05
 K construction time:  CPU 693.53 s  wall 45.41 s
    4   -2579.8592273816      1.23E-05
 K construction time:  CPU 654.87 s  wall 42.96 s
    5   -2579.8592470981      4.50E-06
 K construction time:  CPU 603.23 s  wall 39.47 s
    6   -2579.8592498327      1.53E-06
 K construction time:  CPU 547.10 s  wall 35.86 s
    7   -2579.8592501605      4.55E-07
 K construction time:  CPU 494.39 s  wall 32.44 s
    8   -2579.8592501968      2.28E-07
 K construction time:  CPU 446.78 s  wall 29.13 s
    9   -2579.8592502054      6.73E-08
 K construction time:  CPU 377.50 s  wall 24.53 s
   10   -2579.8592502062      2.63E-08
 K construction time:  CPU 340.81 s  wall 22.32 s
   11   -2579.8592502067      1.16E-08
 K construction time:  CPU 288.49 s  wall 18.69 s
   12   -2579.8592502087      4.79E-09 Convergence criterion met
 ---------------------------------------
 SCF time:  CPU 9770.62 s  wall 655.81 s
 SCF   energy in the final basis set = -2579.8592502087
 Total energy in the final basis set = -2579.8592502087
 
 --------------------------------------------------------------
 
                    Orbital Energies (a.u.)
 --------------------------------------------------------------
 
 Alpha MOs
 -- Occupied --
-89.148 -89.090 -89.086 -89.078 -14.484 -14.480 -14.453 -14.443
-10.365 -10.362 -10.355 -10.355 -10.343 -10.342 -10.335 -10.333
-10.330 -10.327 -10.322 -10.322 -10.313 -10.310 -10.305 -10.296
-10.296 -10.295 -10.295 -10.294  -8.158  -8.105  -8.102  -8.093
 -6.108  -6.103  -6.102  -6.054  -6.051  -6.050  -6.048  -6.047
 -6.045  -6.043  -6.039  -6.035  -1.145  -1.086  -1.064  -1.023
 -1.008  -0.974  -0.959  -0.924  -0.919  -0.898  -0.876  -0.860
 -0.855  -0.833  -0.828  -0.802  -0.774  -0.742  -0.734  -0.709
 -0.709  -0.693  -0.691  -0.660  -0.651  -0.637  -0.627  -0.614
 -0.606  -0.597  -0.571  -0.563  -0.556  -0.549  -0.544  -0.531
 -0.530  -0.523  -0.514  -0.514  -0.507  -0.504  -0.498  -0.484
 -0.477  -0.476  -0.465  -0.455  -0.446  -0.441  -0.437  -0.434
 -0.426  -0.423  -0.421  -0.399  -0.393  -0.370  -0.368  -0.361
 -0.354  -0.353  -0.339  -0.335  -0.325  -0.314  -0.273
 -- Virtual --
 -0.048   0.002   0.030   0.045   0.052   0.063   0.064   0.069
  0.085   0.088   0.104   0.113   0.116   0.123   0.130   0.138
  0.142   0.147   0.149   0.149   0.158   0.163   0.164   0.178
  0.185   0.186   0.192   0.198   0.217   0.219   0.228   0.236
  0.238   0.248   0.256   0.265   0.274   0.280   0.281   0.291
  0.293   0.302   0.303   0.304   0.307   0.319   0.321   0.323
  0.330   0.332   0.333   0.344   0.345   0.346   0.351   0.355
  0.358   0.360   0.369   0.371   0.375   0.380   0.382   0.386
  0.387   0.388   0.394   0.397   0.398   0.405   0.407   0.412
  0.414   0.418   0.420   0.430   0.431   0.435   0.437   0.441
  0.443   0.446   0.450   0.453   0.454   0.455   0.456   0.462
  0.463   0.466   0.469   0.477   0.477   0.479   0.482   0.483
  0.486   0.497   0.499   0.503   0.508   0.509   0.510   0.517
  0.518   0.524   0.527   0.531   0.537   0.542   0.544   0.554
  0.556   0.558   0.561   0.562   0.568   0.569   0.575   0.576
  0.581   0.582   0.596   0.597   0.614   0.620   0.623   0.629
  0.632   0.639   0.643   0.644   0.649   0.654   0.663   0.665
  0.668   0.674   0.678   0.687   0.691   0.702   0.704   0.711
  0.716   0.724   0.727   0.730   0.736   0.740   0.744   0.747
  0.753   0.758   0.762   0.765   0.770   0.771   0.774   0.780
  0.790   0.795   0.797   0.798   0.803   0.813   0.815   0.828
  0.834   0.836   0.840   0.842   0.846   0.847   0.850   0.857
  0.858   0.862   0.865   0.874   0.877   0.885   0.888   0.893
  0.902   0.907   0.909   0.913   0.920   0.922   0.931   0.933
  0.938   0.941   0.946   0.953   0.960   0.962   0.965   0.966
  0.974   0.979   0.981   0.987   0.993   0.998   1.009   1.015
  1.018   1.030   1.034   1.038   1.045   1.047   1.051   1.056
  1.057   1.067   1.074   1.081   1.088   1.090   1.093   1.100
  1.104   1.122   1.123   1.130   1.133   1.142   1.150   1.153
  1.161   1.169   1.171   1.176   1.182   1.185   1.195   1.205
  1.211   1.219   1.224   1.229   1.232   1.243   1.248   1.252
  1.258   1.262   1.269   1.276   1.290   1.294   1.296   1.307
  1.322   1.325   1.335   1.348   1.352   1.354   1.361   1.368
  1.370   1.376   1.380   1.385   1.390   1.403   1.407   1.416
  1.421   1.425   1.435   1.436   1.442   1.444   1.450   1.459
  1.463   1.466   1.469   1.477   1.479   1.481   1.486   1.489
  1.498   1.502   1.503   1.519   1.519   1.539   1.549   1.554
  1.558   1.564   1.573   1.577   1.583   1.594   1.596   1.602
  1.611   1.617   1.629   1.631   1.638   1.649   1.651   1.654
  1.661   1.663   1.671   1.674   1.688   1.689   1.692   1.699
  1.707   1.711   1.713   1.716   1.728   1.735   1.741   1.749
  1.750   1.764   1.770   1.778   1.783   1.787   1.799   1.803
  1.827   1.838   1.840   1.854   1.865   1.880   1.883   1.888
  1.890   1.901   1.909   1.911   1.924   1.931   1.939   1.940
  1.944   1.956   1.967   1.974   1.980   1.983   1.999   2.006
  2.010   2.019   2.023   2.025   2.031   2.038   2.044   2.064
  2.069   2.082   2.086   2.089   2.093   2.103   2.126   2.131
  2.135   2.148   2.155   2.161   2.164   2.172   2.176   2.181
  2.192   2.204   2.205   2.217   2.220   2.232   2.239   2.243
  2.246   2.251   2.258   2.262   2.265   2.272   2.283   2.291
  2.302   2.305   2.322   2.329   2.342   2.348   2.352   2.357
  2.364   2.369   2.385   2.391   2.399   2.407   2.410   2.415
  2.422   2.443   2.446   2.447   2.454   2.458   2.466   2.477
  2.483   2.489   2.492   2.500   2.502   2.505   2.509   2.514
  2.527   2.531   2.535   2.551   2.554   2.561   2.581   2.589
  2.591   2.597   2.603   2.612   2.615   2.624   2.632   2.639
  2.647   2.661   2.667   2.671   2.673   2.683   2.698   2.713
  2.725   2.736   2.739   2.742   2.751   2.762   2.772   2.775
  2.779   2.782   2.785   2.789   2.790   2.802   2.805   2.806
  2.810   2.817   2.831   2.832   2.839   2.847   2.854   2.861
  2.870   2.890   2.892   2.897   2.902   2.911   2.912   2.923
  2.925   2.934   2.951   2.953   2.959   2.966   2.975   2.977
  2.981   2.982   2.984   2.990   2.994   2.999   3.013   3.016
  3.021   3.025   3.035   3.041   3.046   3.049   3.053   3.060
  3.064   3.066   3.072   3.076   3.078   3.084   3.085   3.089
  3.098   3.105   3.106   3.112   3.117   3.121   3.129   3.132
  3.138   3.146   3.148   3.149   3.153   3.154   3.164   3.165
  3.171   3.173   3.183   3.185   3.187   3.191   3.198   3.204
  3.212   3.216   3.221   3.223   3.228   3.230   3.234   3.238
  3.246   3.256   3.258   3.269   3.273   3.278   3.281   3.286
  3.287   3.292   3.298   3.305   3.315   3.319   3.320   3.322
  3.329   3.330   3.333   3.335   3.345   3.351   3.356   3.362
  3.372   3.374   3.378   3.387   3.389   3.394   3.396   3.404
  3.412   3.424   3.436   3.441   3.446   3.450   3.454   3.458
  3.461   3.464   3.467   3.476   3.478   3.481   3.484   3.489
  3.499   3.509   3.512   3.517   3.527   3.532   3.546   3.549
  3.551   3.552   3.562   3.565   3.570   3.572   3.580   3.587
  3.597   3.603   3.606   3.623   3.631   3.663   3.667   3.670
  3.680   3.695   3.704   3.706   3.721   3.724   3.732   3.734
  3.745   3.763   3.764   3.768   3.768   3.776   3.783   3.790
  3.793   3.805   3.816   3.824   3.840   3.843   3.856   3.859
  3.862   3.864   3.869   3.873   3.878   3.879   3.881   3.886
  3.908   3.911   3.916   3.925   3.929   3.941   3.947   3.950
  3.952   3.958   3.963   3.966   3.974   3.980   3.986   3.993
  3.997   4.003   4.021   4.031   4.047   4.051   4.058   4.069
  4.072   4.076   4.080   4.093   4.099   4.116   4.131   4.133
  4.139   4.143   4.150   4.163   4.168   4.177   4.185   4.191
  4.193   4.198   4.205   4.210   4.235   4.239   4.247   4.261
  4.274   4.276   4.296   4.297   4.301   4.311   4.326   4.334
  4.338   4.340   4.342   4.358   4.368   4.374   4.380   4.392
  4.399   4.404   4.411   4.422   4.424   4.428   4.433   4.435
  4.439   4.449   4.454   4.472   4.487   4.510   4.515   4.518
  4.527   4.545   4.554   4.569   4.573   4.587   4.591   4.602
  4.619   4.629   4.631   4.638   4.645   4.657   4.662   4.668
  4.681   4.715   4.723   4.731   4.755   4.762   4.780   4.785
  4.786   4.820   4.822   4.832   4.842   4.843   4.849   4.854
  4.858   4.862   4.872   4.881   4.900   4.904   4.910   4.924
  4.934   4.952   4.966   4.974   4.986   4.990   4.994   5.000
  5.025   5.044   5.053   5.067   5.071   5.078   5.082   5.088
  5.093   5.113   5.116   5.118   5.120   5.129   5.148   5.163
  5.186   5.193   5.225   5.243   5.246   5.250   5.254   5.271
  5.273   5.308   5.328   5.339   5.359   5.368   5.370   5.379
  5.401   5.438   5.448   5.452   5.513   5.516   5.523   5.541
  5.575   5.590   5.598   5.633   5.641   5.665   5.677   5.694
  5.718   5.735   5.760   5.802   5.826   5.840   5.844   5.872
  5.880   5.969   6.007   6.025   6.028   6.045   6.074   6.084
  6.149   6.155   6.169   6.180   6.200   6.240   6.248   6.290
  6.355   6.480   6.533   6.863   6.943   8.000   8.536   9.257
 10.065  10.652  11.138  11.147  11.681  11.964  12.220  12.607
 12.780  12.821  12.823  12.943  13.160  13.399  13.435  13.762
 13.804  13.946  14.127  14.703  15.729
 --------------------------------------------------------------
 
          Ground-State Mulliken Net Atomic Charges

     Atom                 Charge (a.u.)
  ----------------------------------------
      1 C                    -0.123690
      2 C                    -0.103633
      3 C                    -0.102927
      4 C                    -0.106266
      5 C                    -0.107698
      6 C                     0.056454
      7 C                    -0.057487
      8 C                    -0.073896
      9 C                     0.060189
     10 N                    -0.172665
     11 N                    -0.267517
     12 C                    -0.011925
     13 C                     0.109142
     14 S                     0.411381
     15 N                    -0.222980
     16 C                    -0.009479
     17 N                    -0.136659
     18 S                     0.121606
     19 C                    -0.145410
     20 C                    -0.016568
     21 C                     0.004277
     22 S                     0.134068
     23 C                    -0.051765
     24 C                    -0.220356
     25 S                     0.057819
     26 C                     0.043269
     27 C                    -0.146225
     28 C                    -0.172186
     29 H                     0.117842
     30 H                     0.116372
     31 H                     0.116752
     32 H                     0.117791
     33 H                     0.117206
     34 H                     0.128801
     35 H                     0.145716
     36 H                     0.129916
     37 H                     0.132868
     38 H                     0.127865
  ----------------------------------------
  Sum of atomic charges =     0.000000

 -----------------------------------------------------------------
                    Cartesian Multipole Moments
 -----------------------------------------------------------------
    Charge (ESU x 10^10)
                 0.0000
    Dipole Moment (Debye)
         X       0.8485      Y       0.9835      Z      -0.1410
       Tot       1.3066
    Quadrupole Moments (Debye-Ang)
        XX    -140.6676     XY      -1.1371     YY    -181.2720
        XZ      -0.6220     YZ       3.3923     ZZ    -182.6488
    Octopole Moments (Debye-Ang^2)
       XXX     169.1815    XXY      61.7728    XYY      24.9214
       YYY     -34.9426    XXZ     -29.5653    XYZ      15.8448
       YYZ      11.2413    XZZ     -43.8604    YZZ      -7.4587
       ZZZ       9.2188
    Hexadecapole Moments (Debye-Ang^3)
      XXXX  -21344.1989   XXXY    -331.1716   XXYY   -4378.5008
      XYYY     231.1884   YYYY   -2703.7620   XXXZ    -129.1961
      XXYZ     184.9789   XYYZ     -40.4211   YYYZ       9.0108
      XXZZ   -4183.9567   XYZZ     -18.1104   YYZZ    -579.3931
      XZZZ      18.3098   YZZZ      -5.1248   ZZZZ    -686.5950
 -----------------------------------------------------------------
 Calculating analytic gradient of the SCF energy
 K construction time:  CPU 2081.92 s  wall 131.98 s
 Gradient of SCF Energy
            1           2           3           4           5           6
    1   0.0001588   0.0000992  -0.0005451   0.0003943   0.0005405  -0.0014399
    2  -0.0001394   0.0001098   0.0001826   0.0004498   0.0003205  -0.0011932
    3   0.0001376  -0.0002220  -0.0000304  -0.0000548  -0.0003661  -0.0001298
            7           8           9          10          11          12
    1   0.0011408  -0.0001519  -0.0000625  -0.0000880  -0.0000010   0.0002128
    2   0.0000286   0.0002135   0.0006539   0.0001853  -0.0000143   0.0002695
    3   0.0009988   0.0000819  -0.0004351  -0.0006462   0.0000130   0.0000309
           13          14          15          16          17          18
    1  -0.0001782   0.0000072  -0.0001036  -0.0000749   0.0000245   0.0000152
    2  -0.0003080  -0.0001532  -0.0001708  -0.0001388  -0.0000283  -0.0001075
    3   0.0006862   0.0000928  -0.0000326  -0.0003588  -0.0002250  -0.0003099
           19          20          21          22          23          24
    1   0.0000657  -0.0000800  -0.0000906   0.0001514   0.0000674  -0.0000981
    2   0.0000622   0.0001538   0.0001992  -0.0002201  -0.0001353  -0.0000309
    3  -0.0000017   0.0011053  -0.0007408   0.0004828  -0.0002259  -0.0003034
           25          26          27          28          29          30
    1  -0.0000186   0.0000515  -0.0000910   0.0000511   0.0000586  -0.0000176
    2   0.0001498  -0.0000913  -0.0001061   0.0000552   0.0001721  -0.0000512
    3  -0.0000075   0.0004305   0.0000873  -0.0002447   0.0000592   0.0001060
           31          32          33          34          35          36
    1   0.0001127  -0.0001338   0.0000916  -0.0000084  -0.0000514   0.0000075
    2  -0.0000816  -0.0001881  -0.0002309   0.0000082  -0.0000048   0.0000548
    3   0.0000103   0.0000194   0.0000478  -0.0001816   0.0000405   0.0001035
           37          38
    1   0.0000140  -0.0000300
    2   0.0000506   0.0000744
    3  -0.0000793   0.0000617
 Max gradient component =       1.440E-03
 RMS gradient           =       3.290E-04
 Gradient time:  CPU 2499.99 s  wall 160.27 s
 Geometry Optimization Parameters
   NAtoms,    NIC,     NZ,  NCons,   NDum,   NFix, NCnnct, MaxDiis
       38     289       0       3       0       0       0       0

 Cartesian Hessian Update
 Hessian Updated using BFGS Update


** CONSTRAINED OPTIMIZATION IN DELOCALIZED INTERNAL COORDINATES **
   Searching for a Minimum

   Optimization Cycle:   3

                       Coordinates (Angstroms)
     ATOM                X               Y               Z
      1  C        -8.0141171240    1.5372949489   -0.4747667050
      2  C        -7.3215665015    1.1042287789   -1.5950927934
      3  C        -7.3708771389    1.6040266064    0.7508894312
      4  C        -5.9881388998    0.7418194273   -1.4921803537
      5  C        -6.0369315320    1.2425406245    0.8540542031
      6  C        -5.3364748436    0.8120373392   -0.2664694175
      7  C        -3.8988488047    0.4598289399   -0.1553811868
      8  C        -2.9065196829    1.3817405951   -0.3149162956
      9  C        -3.4651519075   -0.8627918808    0.1220459818
     10  N        -1.5756313549    1.1249838791   -0.2237252939
     11  N        -4.2409281681   -1.9318871651    0.3164958747
     12  C        -2.0676353128   -1.1514294343    0.2234150657
     13  C        -1.1387076244   -0.0770340198    0.0360904402
     14  S        -3.2380229137   -3.1597671303    0.5988680809
     15  N        -1.8117807224   -2.4321034123    0.4951313466
     16  C         0.3130643839   -0.2375478013    0.1241334232
     17  N         0.9539072704   -1.3515609938    0.2966244260
     18  S         1.3239477121    1.1707793490    0.0034088248
     19  C         2.2922914101   -1.1392305041    0.3557711082
     20  C         2.7032745787    0.1599835130    0.2280688439
     21  C         4.0630131267    0.6539365850    0.2264960468
     22  S         4.4812346811    2.2274068567    0.8117684438
     23  C         5.2043631184    0.0141013643   -0.1781600476
     24  C         6.1462434043    2.0221422931    0.4946337875
     25  S         5.5421821276   -1.5446631615   -0.8775301191
     26  C         6.3954445707    0.7853542806   -0.0311502619
     27  C         7.2450134837   -1.1472978234   -0.9611222283
     28  C         7.5575397513    0.0731681571   -0.4974605022
     29  H        -9.0535344258    1.8242117836   -0.5577663412
     30  H        -7.8213487078    1.0500004939   -2.5524181767
     31  H        -7.9049024530    1.9401975044    1.6289016745
     32  H        -5.4487858805    0.4000561435   -2.3654028525
     33  H        -5.5310056343    1.2899932531    1.8092807906
     34  H        -3.1603614576    2.4108055561   -0.5359630169
     35  H         2.9561457234   -1.9749231334    0.5198449899
     36  H         6.8427499412    2.8135547324    0.7117740224
     37  H         7.9241471912   -1.8804947044   -1.3650025081
     38  H         8.5604655090    0.4702054502   -0.4807922304
   Point Group: c1    Number of degrees of freedom:   108


   Energy is  -2579.859250209

              Constraints and their Current Values
                                        Value     Constraint
   Dihedral:        4   6   7   8       90.000       90.000
   Dihedral:       10  13  16  18        4.632        4.632
   Dihedral:       18  20  21  22       32.716       32.716
 Hessian Updated using BFGS Update

 95 Hessian modes will be used to form the next step
  Hessian Eigenvalues:
     0.020637    0.045000    0.045000    0.045000    0.045001    0.045001
     0.045002    0.045002    0.045003    0.045003    0.045004    0.045004
     0.045005    0.045006    0.045007    0.045007    0.045009    0.045020
[...]
     31  H        -7.9336086605    1.8685944294    1.6415185507
     32  H        -5.4336912377    0.4561380342   -2.3712848918
     33  H        -5.5461771700    1.2711164497    1.8181154030
     34  H        -3.1568381766    2.4340228905   -0.5246683463
     35  H         2.9549260146   -1.9628326091    0.5134446414
     36  H         6.8580948415    2.8090922679    0.6854507769
     37  H         7.9261969354   -1.9198741967   -1.3163314769
     38  H         8.5698873669    0.4393678776   -0.4639801404
   Point Group: c1    Number of degrees of freedom:   108


   Energy is  -2579.859293991

              Constraints and their Current Values
                                        Value     Constraint
   Dihedral:        4   6   7   8       90.000       90.000
   Dihedral:       10  13  16  18        4.632        4.632
   Dihedral:       18  20  21  22       32.716       32.716
 Hessian Updated using BFGS Update

100 Hessian modes will be used to form the next step
  Hessian Eigenvalues:
     0.011582    0.020648    0.044054    0.045000    0.045000    0.045000
     0.045000    0.045001    0.045001    0.045001    0.045002    0.045002
     0.045003    0.045004    0.045004    0.045005    0.045006    0.045007
     0.045008    0.045009    0.045020    0.045027    0.045035    0.045039
     0.045307    0.045887    0.046961    0.157904    0.159483    0.159895
     0.159979    0.159987    0.159990    0.159994    0.160004    0.160428
     0.160929    0.216647    0.220040    0.225246    0.226825    0.233908
     0.235373    0.237084    0.237246    0.245677    0.247958    0.249359
     0.249826    0.249850    0.249980    0.249989    0.249991    0.250078
     0.250555    0.252638    0.296155    0.304424    0.308267    0.315518
     0.324234    0.337190    0.346225    0.349181    0.356976    0.357318
     0.357340    0.357531    0.358241    0.358559    0.359899    0.361619
     0.362498    0.365222    0.365984    0.381570    0.386809    0.389562
     0.391513    0.409579    0.429540    0.434196    0.438946    0.471588
     0.475311    0.475574    0.479045    0.480545    0.485336    0.485742
     0.488774    0.495397    0.509646    0.519793    0.524999    0.543324
     0.556780    0.634420    0.653334    0.655505

 Minimum Search - Taking Simple RFO Step
 Searching for Lamda that Minimizes Along All modes
 Value Taken    Lamda =   0.00000000
 Step Taken.  Stepsize is  0.003644

                             Maximum     Tolerance    Cnvgd?
         Gradient           0.000086      0.000300     YES
         Displacement       0.001177      0.001200     YES
         Energy change      0.000000      0.000001     YES

 Final energy is   -2579.85929399111     


 ******************************
 **  OPTIMIZATION CONVERGED  **
 ******************************

                       Coordinates (Angstroms)
     ATOM                X               Y               Z
      1  C        -8.0298270031    1.4975592271   -0.4678094757
      2  C        -7.3252061539    1.1012537040   -1.5938223413
      3  C        -7.3890496280    1.5595934680    0.7597822376
      4  C        -5.9840245390    0.7680948738   -1.4936305996
      5  C        -6.0479079145    1.2267754433    0.8606431370
      6  C        -5.3349221187    0.8321310730   -0.2659056786
      7  C        -3.8979600927    0.4818233343   -0.1579569000
      8  C        -2.9041630977    1.4031743304   -0.3109198470
      9  C        -3.4647545168   -0.8424373680    0.1189168036
     10  N        -1.5732184866    1.1454542238   -0.2201471967
     11  N        -4.2406450904   -1.9120094172    0.3076761370
     12  C        -2.0672870477   -1.1311032270    0.2224333646
     13  C        -1.1369337665   -0.0565548082    0.0381317182
     14  S        -3.2381457428   -3.1407779079    0.5881534864
     15  N        -1.8117242782   -2.4122159385    0.4905858326
     16  C         0.3150803331   -0.2200882433    0.1183308855
     17  N         0.9534971227   -1.3347556657    0.2955826774
     18  S         1.3291362232    1.1853774962   -0.0090115082
     19  C         2.2925515401   -1.1259305853    0.3494928819
     20  C         2.7066604689    0.1717141714    0.2153549888
     21  C         4.0676004123    0.6620376767    0.2043088967
     22  S         4.4921428901    2.2382742786    0.7781883343
     23  C         5.2076958857    0.0109725484   -0.1854706916
     24  C         6.1578621346    2.0197336104    0.4733340554
     25  S         5.5418115853   -1.5606733655   -0.8583777249
     26  C         6.4024819689    0.7766685667   -0.0396997622
     27  C         7.2478935865   -1.1752730846   -0.9324888233
     28  C         7.5640403587    0.0499344983   -0.4843085359
     29  H        -9.0767629027    1.7567046491   -0.5475536340
     30  H        -7.8209551509    1.0525845852   -2.5536807597
     31  H        -7.9336086605    1.8685944294    1.6415185507
     32  H        -5.4336912377    0.4561380342   -2.3712848918
     33  H        -5.5461771700    1.2711164497    1.8181154030
     34  H        -3.1568381766    2.4340228905   -0.5246683463
     35  H         2.9549260146   -1.9628326091    0.5134446414
     36  H         6.8580948415    2.8090922679    0.6854507769
     37  H         7.9261969354   -1.9198741967   -1.3163314769
     38  H         8.5698873669    0.4393678776   -0.4639801404

Z-matrix Print:
$molecule
0 1
S 
C  1 1.724943
C  2 1.368708 1 109.163788
H  3 1.079826 2 124.338754 1 179.230449 0
N  3 1.356312 2 116.153739 1 0.650117 0
C  5 1.296718 3 111.048130 2 -0.142759 0
C  2 1.446616 1 123.443907 3 -177.883642 0
C  7 1.369537 2 128.623991 1 149.749306 0
C  8 1.426553 7 114.391773 2 178.545216 0
C  9 1.366841 8 112.123420 7 -0.296592 0
H  10 1.076293 9 128.647563 8 179.658694 0
C  9 1.440499 8 111.902250 7 179.076454 0
H  12 1.078796 9 124.325698 8 -179.959166 0
C  12 1.342367 9 111.938452 8 -0.086875 0
H  14 1.077897 12 126.955016 9 179.762432 0
C  6 1.463393 5 126.303063 3 178.703809 0
N  16 1.304560 6 116.464605 5 176.247462 0
C  17 1.358703 16 121.037240 6 179.776261 0
H  18 1.082673 17 114.986453 16 -179.755408 0
C  18 1.363788 17 125.322478 16 0.353849 0
C  20 1.420561 18 115.431015 17 -0.065600 0
N  21 1.334774 20 126.675940 18 179.979927 0
C  21 1.430720 20 120.003532 18 -0.147407 0
N  23 1.333592 21 113.300423 20 -179.737814 0
C  20 1.482980 18 122.570829 17 -179.805098 0
C  25 1.390231 20 120.385584 18 -89.999980 0
H  26 1.081878 25 119.484101 20 -0.262569 0
C  26 1.385569 25 120.313294 20 179.721899 0
H  28 1.081418 26 119.808357 25 -179.739989 0
C  28 1.386165 26 120.135344 25 0.176983 0
H  30 1.081476 28 120.046287 26 179.963142 0
C  30 1.386155 28 119.815743 26 0.012073 0
H  32 1.081427 30 120.138100 28 -179.967289 0
C  32 1.385497 30 120.078798 28 -0.021380 0
H  34 1.081875 32 120.231506 30 179.793955 0
S  24 1.604681 23 106.142985 21 -0.159334 0
S  10 1.707430 9 110.978312 8 -0.310588 0
S  8 1.741984 7 134.307910 2 -2.739860 0
$end

 
 --------------------------------------------------------------
 
                    Orbital Energies (a.u.)
 --------------------------------------------------------------
 
 Alpha MOs
 -- Occupied --
-89.148 -89.090 -89.086 -89.078 -14.484 -14.480 -14.453 -14.443
-10.365 -10.362 -10.355 -10.355 -10.343 -10.342 -10.335 -10.333
-10.330 -10.327 -10.322 -10.322 -10.313 -10.310 -10.305 -10.296
-10.296 -10.295 -10.295 -10.294  -8.158  -8.105  -8.102  -8.093
 -6.108  -6.103  -6.102  -6.055  -6.051  -6.051  -6.048  -6.047
 -6.045  -6.043  -6.039  -6.035  -1.145  -1.086  -1.064  -1.023
 -1.008  -0.974  -0.959  -0.924  -0.919  -0.898  -0.876  -0.860
 -0.855  -0.833  -0.828  -0.802  -0.774  -0.742  -0.734  -0.709
 -0.709  -0.693  -0.691  -0.660  -0.651  -0.637  -0.627  -0.614
 -0.606  -0.597  -0.571  -0.563  -0.556  -0.549  -0.544  -0.531
 -0.530  -0.523  -0.514  -0.514  -0.507  -0.504  -0.498  -0.484
 -0.477  -0.476  -0.465  -0.455  -0.446  -0.441  -0.437  -0.434
 -0.426  -0.423  -0.421  -0.399  -0.393  -0.370  -0.368  -0.361
 -0.354  -0.353  -0.339  -0.335  -0.325  -0.314  -0.273
 -- Virtual --
 -0.048   0.001   0.030   0.045   0.052   0.063   0.064   0.069
  0.085   0.088   0.104   0.113   0.116   0.123   0.130   0.138
  0.142   0.147   0.149   0.149   0.158   0.164   0.164   0.178
  0.185   0.186   0.192   0.198   0.217   0.219   0.228   0.236
  0.238   0.248   0.257   0.265   0.274   0.280   0.282   0.291
  0.293   0.302   0.303   0.304   0.307   0.319   0.321   0.323
  0.330   0.332   0.333   0.343   0.345   0.346   0.352   0.355
  0.358   0.361   0.369   0.371   0.375   0.380   0.383   0.386
  0.387   0.388   0.394   0.397   0.399   0.405   0.407   0.412
  0.414   0.418   0.420   0.430   0.432   0.434   0.437   0.441
  0.443   0.446   0.450   0.453   0.454   0.455   0.456   0.462
  0.463   0.466   0.469   0.477   0.477   0.478   0.482   0.483
  0.487   0.497   0.499   0.503   0.508   0.509   0.509   0.517
  0.519   0.524   0.527   0.531   0.537   0.542   0.544   0.554
  0.556   0.558   0.561   0.562   0.568   0.570   0.575   0.576
  0.582   0.583   0.596   0.598   0.614   0.620   0.624   0.629
  0.631   0.639   0.642   0.644   0.650   0.654   0.662   0.666
  0.668   0.675   0.679   0.687   0.691   0.702   0.705   0.711
  0.716   0.723   0.726   0.730   0.736   0.740   0.744   0.747
  0.754   0.758   0.762   0.765   0.769   0.771   0.775   0.781
  0.790   0.794   0.797   0.798   0.803   0.813   0.815   0.828
  0.833   0.837   0.840   0.842   0.846   0.847   0.850   0.856
  0.859   0.862   0.865   0.875   0.877   0.885   0.888   0.893
  0.902   0.906   0.909   0.912   0.921   0.922   0.931   0.933
  0.938   0.940   0.946   0.953   0.960   0.962   0.965   0.966
  0.974   0.979   0.980   0.987   0.993   0.998   1.011   1.015
  1.018   1.030   1.034   1.038   1.045   1.047   1.052   1.056
  1.057   1.067   1.074   1.081   1.088   1.090   1.093   1.100
  1.105   1.121   1.122   1.130   1.133   1.142   1.150   1.153
  1.161   1.170   1.170   1.177   1.182   1.185   1.196   1.205
  1.211   1.219   1.224   1.228   1.232   1.244   1.249   1.252
  1.258   1.262   1.269   1.277   1.290   1.293   1.296   1.307
  1.321   1.325   1.336   1.348   1.351   1.355   1.361   1.368
  1.370   1.376   1.380   1.385   1.389   1.403   1.407   1.415
  1.422   1.424   1.435   1.436   1.442   1.445   1.450   1.459
  1.462   1.466   1.470   1.478   1.479   1.481   1.486   1.490
  1.497   1.502   1.503   1.519   1.519   1.539   1.549   1.554
  1.557   1.564   1.573   1.577   1.583   1.595   1.597   1.602
  1.611   1.617   1.629   1.631   1.638   1.649   1.651   1.653
  1.661   1.663   1.670   1.674   1.688   1.689   1.692   1.699
  1.707   1.711   1.714   1.716   1.728   1.735   1.741   1.749
  1.750   1.764   1.770   1.779   1.783   1.788   1.799   1.802
  1.826   1.838   1.840   1.854   1.866   1.880   1.883   1.888
  1.890   1.901   1.909   1.911   1.924   1.930   1.938   1.940
  1.944   1.956   1.967   1.974   1.981   1.983   2.000   2.006
  2.011   2.019   2.023   2.025   2.031   2.038   2.044   2.064
  2.068   2.083   2.086   2.089   2.093   2.104   2.126   2.131
  2.136   2.147   2.156   2.161   2.164   2.171   2.176   2.181
  2.192   2.204   2.205   2.218   2.220   2.232   2.238   2.243
  2.246   2.250   2.258   2.262   2.265   2.273   2.283   2.292
  2.302   2.305   2.322   2.329   2.342   2.348   2.352   2.358
  2.364   2.368   2.385   2.390   2.399   2.406   2.409   2.415
  2.421   2.441   2.445   2.448   2.455   2.458   2.466   2.477
  2.483   2.489   2.492   2.500   2.503   2.505   2.509   2.515
  2.527   2.531   2.536   2.552   2.554   2.561   2.581   2.589
  2.590   2.597   2.604   2.612   2.616   2.624   2.632   2.639
  2.647   2.659   2.667   2.671   2.673   2.684   2.698   2.713
  2.725   2.735   2.739   2.742   2.751   2.761   2.773   2.775
  2.780   2.782   2.784   2.789   2.791   2.801   2.805   2.806
  2.809   2.817   2.831   2.833   2.839   2.847   2.855   2.862
  2.871   2.890   2.893   2.897   2.902   2.911   2.912   2.923
  2.924   2.934   2.951   2.953   2.958   2.966   2.975   2.978
  2.980   2.982   2.984   2.991   2.994   2.999   3.013   3.016
  3.021   3.025   3.035   3.041   3.046   3.050   3.053   3.060
  3.064   3.066   3.072   3.076   3.079   3.084   3.085   3.090
  3.097   3.105   3.107   3.111   3.117   3.121   3.129   3.133
  3.137   3.146   3.148   3.149   3.153   3.154   3.163   3.165
  3.171   3.172   3.182   3.185   3.187   3.191   3.198   3.204
  3.211   3.216   3.221   3.223   3.228   3.229   3.234   3.238
  3.246   3.256   3.259   3.270   3.272   3.278   3.281   3.286
  3.287   3.291   3.298   3.305   3.314   3.319   3.320   3.323
  3.329   3.330   3.333   3.335   3.345   3.352   3.356   3.362
  3.371   3.374   3.378   3.387   3.389   3.394   3.395   3.403
  3.412   3.424   3.436   3.441   3.446   3.450   3.454   3.458
  3.461   3.464   3.465   3.475   3.479   3.480   3.484   3.490
  3.500   3.509   3.511   3.516   3.528   3.532   3.546   3.549
  3.551   3.552   3.562   3.565   3.571   3.572   3.580   3.586
  3.597   3.601   3.606   3.622   3.631   3.664   3.666   3.671
  3.680   3.696   3.705   3.707   3.721   3.723   3.732   3.733
  3.746   3.762   3.764   3.768   3.769   3.776   3.784   3.790
  3.793   3.805   3.816   3.823   3.840   3.842   3.856   3.859
  3.861   3.864   3.869   3.873   3.878   3.879   3.881   3.885
  3.907   3.912   3.916   3.924   3.929   3.942   3.946   3.950
  3.952   3.958   3.962   3.967   3.974   3.980   3.986   3.993
  3.998   4.003   4.022   4.030   4.046   4.051   4.058   4.069
  4.072   4.076   4.080   4.092   4.099   4.116   4.131   4.132
  4.139   4.143   4.150   4.163   4.168   4.177   4.185   4.190
  4.193   4.198   4.205   4.211   4.235   4.239   4.247   4.262
  4.274   4.276   4.296   4.298   4.301   4.313   4.326   4.334
  4.338   4.341   4.343   4.359   4.368   4.374   4.381   4.392
  4.398   4.402   4.410   4.422   4.424   4.428   4.434   4.436
  4.439   4.449   4.454   4.472   4.487   4.510   4.515   4.516
  4.527   4.544   4.555   4.569   4.574   4.587   4.592   4.602
  4.617   4.628   4.632   4.638   4.645   4.657   4.663   4.668
  4.680   4.715   4.724   4.733   4.754   4.763   4.780   4.783
  4.786   4.820   4.822   4.833   4.841   4.843   4.850   4.853
  4.859   4.862   4.873   4.881   4.901   4.903   4.910   4.924
  4.934   4.953   4.966   4.973   4.986   4.991   4.994   5.000
  5.025   5.044   5.053   5.067   5.071   5.078   5.082   5.089
  5.092   5.114   5.115   5.117   5.120   5.129   5.147   5.163
  5.185   5.193   5.225   5.244   5.246   5.250   5.254   5.271
  5.273   5.308   5.329   5.340   5.360   5.367   5.370   5.379
  5.401   5.439   5.448   5.453   5.511   5.517   5.524   5.541
  5.575   5.591   5.598   5.633   5.642   5.665   5.677   5.694
  5.718   5.734   5.760   5.802   5.827   5.841   5.845   5.872
  5.880   5.969   6.006   6.026   6.027   6.045   6.075   6.084
  6.148   6.155   6.169   6.180   6.200   6.241   6.248   6.289
  6.355   6.480   6.532   6.862   6.943   7.997   8.533   9.260
 10.064  10.652  11.141  11.149  11.682  11.968  12.224  12.604
 12.783  12.819  12.820  12.940  13.162  13.399  13.435  13.760
 13.803  13.947  14.137  14.699  15.726
 --------------------------------------------------------------
 
          Ground-State Mulliken Net Atomic Charges

     Atom                 Charge (a.u.)
  ----------------------------------------
      1 C                    -0.123826
      2 C                    -0.103374
      3 C                    -0.102896
      4 C                    -0.106354
      5 C                    -0.106318
      6 C                     0.054920
      7 C                    -0.056435
      8 C                    -0.074041
      9 C                     0.059427
     10 N                    -0.172595
     11 N                    -0.267145
     12 C                    -0.011842
     13 C                     0.109192
     14 S                     0.410809
     15 N                    -0.222807
     16 C                    -0.009076
     17 N                    -0.136433
     18 S                     0.121462
     19 C                    -0.146217
     20 C                    -0.015383
     21 C                     0.004943
     22 S                     0.134220
     23 C                    -0.053193
     24 C                    -0.220780
     25 S                     0.057414
     26 C                     0.044185
     27 C                    -0.146363
     28 C                    -0.172143
     29 H                     0.117904
     30 H                     0.116230
     31 H                     0.116732
     32 H                     0.117857
     33 H                     0.117015
     34 H                     0.128533
     35 H                     0.145582
     36 H                     0.129956
     37 H                     0.132859
     38 H                     0.127982
  ----------------------------------------
  Sum of atomic charges =     0.000000

 -----------------------------------------------------------------
                    Cartesian Multipole Moments
 -----------------------------------------------------------------
    Charge (ESU x 10^10)
                 0.0000
    Dipole Moment (Debye)
         X       0.8621      Y       0.9467      Z      -0.1239
       Tot       1.2864
    Quadrupole Moments (Debye-Ang)
        XX    -140.3340     XY      -1.0914     YY    -181.3693
        XZ      -0.5743     YZ       3.2583     ZZ    -182.7312
    Octopole Moments (Debye-Ang^2)
       XXX     167.7892    XXY      57.4280    XYY      26.7725
       YYY     -38.1290    XXZ     -26.3367    XYZ      15.9200
       YYZ      11.3847    XZZ     -45.1463    YZZ      -8.0195
       ZZZ      11.1796
    Hexadecapole Moments (Debye-Ang^3)
      XXXX  -21334.5510   XXXY    -315.1307   XXYY   -4392.1687
      XYYY     237.7715   YYYY   -2691.5940   XXXZ    -121.9856
      XXYZ     179.8787   XYYZ     -38.1621   YYYZ      11.7655
      XXZZ   -4195.3315   XYZZ     -15.5359   YYZZ    -576.7478
      XZZZ      23.1810   YZZZ      -3.2887   ZZZZ    -674.8026
 -----------------------------------------------------------------
Archival summary:
1\1\mn456\OPT\ProcedureUnspecified\BasisUnspecified\442010\afmv_a\TueJun610:02:442017TueJun610:02:442017\0\\#,OPT,ProcedureUnspecified,BasisUnspecified,\\0,1\S\C,1,1.72494\C,2,1.36871,1,109.164\H,3,1.07983,2,124.339,1,179.23,0\N,3,1.35631,2,116.154,1,0.650117,0\C,5,1.29672,3,111.048,2,-0.142759,0\C,2,1.44662,1,123.444,3,-177.884,0\C,7,1.36954,2,128.624,1,149.749,0\C,8,1.42655,7,114.392,2,178.545,0\C,9,1.36684,8,112.123,7,-0.296592,0\H,10,1.07629,9,128.648,8,179.659,0\C,9,1.4405,8,111.902,7,179.076,0\H,12,1.0788,9,124.326,8,-179.959,0\C,12,1.34237,9,111.938,8,-0.0868748,0\H,14,1.0779,12,126.955,9,179.762,0\C,6,1.46339,5,126.303,3,178.704,0\N,16,1.30456,6,116.465,5,176.247,0\C,17,1.3587,16,121.037,6,179.776,0\H,18,1.08267,17,114.986,16,-179.755,0\C,18,1.36379,17,125.322,16,0.353849,0\C,20,1.42056,18,115.431,17,-0.0655997,0\N,21,1.33477,20,126.676,18,179.98,0\C,21,1.43072,20,120.004,18,-0.147407,0\N,23,1.33359,21,113.3,20,-179.738,0\C,20,1.48298,18,122.571,17,-179.805,0\C,25,1.39023,20,120.386,18,-90,0\H,26,1.08188,25,119.484,20,-0.262569,0\C,26,1.38557,25,120.313,20,179.722,0\H,28,1.08142,26,119.808,25,-179.74,0\C,28,1.38617,26,120.135,25,0.176983,0\H,30,1.08148,28,120.046,26,179.963,0\C,30,1.38615,28,119.816,26,0.0120732,0\H,32,1.08143,30,120.138,28,-179.967,0\C,32,1.3855,30,120.079,28,-0.0213803,0\H,34,1.08187,32,120.232,30,179.794,0\S,24,1.60468,23,106.143,21,-0.159334,0\S,10,1.70743,9,110.978,8,-0.310588,0\S,8,1.74198,7,134.308,2,-2.73986,0\\\@

 Total job time:  5426.14s(wall), 81475.56s(cpu) 
 Tue Jun  6 10:02:44 2017

        *************************************************************
        *                                                           *
        *  Thank you very much for using Q-Chem.  Have a nice day.  *
        *                                                           *
        *************************************************************


