
Running Job 1 of 1 C306_1/C306_255.qcin
qchem C306_1/C306_255.qcin_27226.0 /tmpu/cab_g/afmv_a/scratch_qchem/qchem27226/ 1
/tmpu/appuserlic/qchem4.4/serial-multicore/exe/qcprog.exe_s C306_1/C306_255.qcin_27226.0 /tmpu/cab_g/afmv_a/scratch_qchem/qchem27226/
Check license passed

                  Welcome to Q-Chem
     A Quantum Leap Into The Future Of Chemistry


 Q-Chem 4.4, Q-Chem, Inc., Pleasanton, CA (2016)

 Y. Shao,  Z. Gan,  E. Epifanovsky,  A. T. B. Gilbert,  M. Wormit,  
 J. Kussmann,  A. W. Lange,  A. Behn,  J. Deng,  X. Feng,  D. Ghosh,  
 M. Goldey,  P. R. Horn,  L. D. Jacobson,  I. Kaliman,  F. Rob,  
 R. Z. Khaliullin,  T. Kus,  A. Landau,  J. Liu,  E. I. Proynov,  Y. M. Rhee,  
 R. M. Richard,  M. A. Rohrdanz,  R. P. Steele,  E. J. Sundstrom,  
 H. L. Woodcock III,  P. M. Zimmerman,  D. Zuev,  B. Albrecht,  E. Alguire,  
 B. Austin,  S. A. Baeppler,  G. J. O. Beran,  Y. A. Bernard,  E. Berquist,  
 K. Brandhorst,  K. B. Bravaya,  S. T. Brown,  D. Casanova,  C.-M. Chang,  
 Y. Chen,  S. H. Chien,  K. D. Closser,  M. P. Coons,  D. L. Crittenden,  
 S. Dasgupta,  M. Diedenhofen,  R. A. DiStasio Jr.,  H. Do,  A. D. Dutoi,  
 R. G. Edgar,  P.-T. Fang,  S. Fatehi,  Q. Feng,  L. Fusti-Molnar,  
 A. Ghysels,  A. Golubeva-Zadorozhnaya,  J. Gomes,  A. Gunina,  
 M. W. D. Hanson-Heine,  P. H. P. Harbach,  A. W. Hauser,  J. E. Herr,  
 E. G. Hohenstein,  Z. C. Holden,  K. Hui,  T.-C. Jagau,  H. Ji,  B. Kaduk,  
 K. Khistyaev,  Jaehoon Kim,  Jihan Kim,  R. A. King,  P. Klunzinger,  
 K. Koh,  D. Kosenkov,  T. Kowalczyk,  C. M. Krauter,  A. Kunitsa,  
 K. U. Lao,  A. Laurent,  K. V. Lawler,  J. Lee,  D. Lefrancois,  S. Lehtola,  
 S. V. Levchenko,  C. Y. Lin,  Y.-S. Lin,  F. Liu,  E. Livshits,  
 R. C. Lochan,  A. Luenser,  P. Manohar,  S. F. Manzer,  S.-P. Mao,  Y. Mao,  
 N. Mardirossian,  A. V. Marenich,  L. A. Martinez-Martinez,  S. A. Maurer,  
 N. J. Mayhall,  J.-M. Mewes,  A. F. Morrison,  K. Nanda,  T. S. Nguyen-Beck,  
 C. M. Oana,  R. Olivares-Amaya,  D. P. O'Neill,  J. A. Parkhill,  
 T. M. Perrine,  R. Peverati,  P. A. Pieniazek,  F. Plasser,  A. Prociuk,  
 D. R. Rehn,  E. Rosta,  N. J. Russ,  N. Sergueev,  S. M. Sharada,  
 S. Sharma,  D. W. Small,  A. Sodt,  T. Stauch,  T. Stein,  D. Stuck,  
 Y.-C. Su,  A. J. W. Thom,  T. Tsuchimochi,  L. Vogt,  O. Vydrov,  T. Wang,  
 M. A. Watson,  J. Wenzel,  A. White,  C. F. Williams,  V. Vanovschi,  
 K. Yao,  S. Yeganeh,  S. R. Yost,  Z.-Q. You,  I. Y. Zhang,  X. Zhang,  
 Y. Zhao,  B. R. Brooks,  G. K. L. Chan,  D. M. Chipman,  C. J. Cramer,  
 W. A. Goddard III,  M. S. Gordon,  W. J. Hehre,  A. Klamt,  
 H. F. Schaefer III,  M. W. Schmidt,  C. D. Sherrill,  D. G. Truhlar,  
 A. Warshel,  X. Xu,  A. Aspuru-Guzik,  R. Baer,  A. T. Bell,  N. A. Besley,  
 J.-D. Chai,  A. Dreuw,  B. D. Dunietz,  T. R. Furlani,  S. R. Gwaltney,  
 C.-P. Hsu,  Y. Jung,  J. Kong,  D. S. Lambrecht,  W. Liang,  C. Ochsenfeld,  
 V. A. Rassolov,  L. V. Slipchenko,  J. E. Subotnik,  T. Van Voorhis,  
 J. M. Herbert,  A. I. Krylov,  P. M. W. Gill,  M. Head-Gordon

 Contributors to earlier versions of Q-Chem not listed above: 
 R. D. Adamson,  J. Baker,  E. F. C. Byrd,  A. K. Chakraborty,  C.-L. Cheng,  
 H. Dachsel,  R. J. Doerksen,  G. Hawkins,  A. Heyden,  S. Hirata,  
 G. Kedziora,  F. J. Keil,  C. Kelley,  P. P. Korambath,  W. Kurlancheek,  
 A. M. Lee,  M. S. Lee,  D. Liotard,  I. Lotan,  P. E. Maslen,  N. Nair,  
 D. Neuhauser,  R. Olson,  B. Peters,  J. Ritchie,  N. E. Schultz,  
 N. Shenvi,  A. C. Simmonett,  K. S. Thanthiriwatte,  Q. Wu,  W. Zhang

 Please cite Q-Chem as follows:
 Y. Shao et al., Mol. Phys. 113, 184-215 (2015)
 DOI: 10.1080/00268976.2014.952696

 Q-Chem 4.4.2 for Intel X86 Linux

 Parts of Q-Chem use Armadillo 5.200.1 (Boston Tea Smuggler).
 http://arma.sourceforge.net/

 Q-Chem begins on Tue Jun  6 03:23:28 2017  

Host: 
0

     Scratch files written to /tmpu/cab_g/afmv_a/scratch_qchem/qchem27226//
 Dec716 11556_ 22328  22283 4050   
Processing $rem in /tmpu/appuserlic/qchem4.4/serial-multicore/config/preferences.
 MEM_TOTAL  2000 
FILE_GEOM_ORG=        593

Checking the input file for inconsistencies... 	...done.

--------------------------------------------------------------
User input:
--------------------------------------------------------------
$comment
OPTIMIZATION
$end

$rem
JOBTYPE OPT
EXCHANGE omegaB97X-D
BASIS cc-pVTZ
$end

$molecule
0 1
C          0.00000        0.00000        0.00000
C          1.38599        0.00000        0.00000
C         -0.68515       -1.20581        0.00000
C          2.08055       -1.19709        0.02226
C          0.00742       -2.40411        0.01179
C          1.40063       -2.41271        0.04151
C          2.15950       -3.67324        0.15696
C          2.33643       -4.49183       -0.92480
C          2.76248       -4.12827        1.36216
N          3.01517       -5.66398       -0.92717
N          2.73934       -3.52065        2.55036
C          3.47756       -5.36955        1.37654
C          3.57556       -6.11939        0.15975
S          3.56562       -4.47329        3.55231
N          3.98300       -5.67325        2.57241
C          4.29261       -7.38901        0.03991
N          4.84161       -8.05650        1.00580
S          4.45037       -8.11918       -1.53101
C          5.42901       -9.18848        0.54191
C          5.33710       -9.40905       -0.80541
C          5.83273      -10.54667       -1.54903
S          6.34639      -10.42774       -3.19879
C          5.98556      -11.83936       -1.12925
C          6.73260      -12.08893       -3.30951
S          5.64640      -12.68041        0.36011
C          6.49296      -12.72653       -2.12401
C          6.17640      -14.18528       -0.36426
C          6.59088      -14.07838       -1.63630
H         -0.54342        0.93472        0.00000
H          1.93260        0.93382       -0.01501
H         -1.76734       -1.21268        0.00047
H          3.16263       -1.19509        0.00785
H         -0.53593       -3.33924        0.01382
H          1.92937       -4.19493       -1.88300
H          5.94547       -9.84252        1.22896
H          7.10062      -12.50603       -4.23028
H          6.12749      -15.08070        0.23383
H          6.93613      -14.91655       -2.22090
$end

$opt
CONSTRAINT
tors 4 6 7 8 -105.00000
tors 10 13 16 18 4.63242
tors 18 20 21 22 32.71647
ENDCONSTRAINT
$end
--------------------------------------------------------------
 ----------------------------------------------------------------
             Standard Nuclear Orientation (Angstroms)
    I     Atom           X                Y                Z
 ----------------------------------------------------------------
    1      C      -8.0333935562    -1.4466034419     0.4675204179
    2      C      -7.4568482199    -1.2497354232    -0.7773919238
    3      C      -7.2462288019    -1.3708924883     1.6068394161
    4      C      -6.1077469763    -0.9574982299    -0.8796505509
    5      C      -5.8948838127    -1.0890186882     1.5061965819
    6      C      -5.3133530231    -0.8607831576     0.2605153121
    7      C      -3.8988534958    -0.4590371181     0.1342637091
    8      C      -2.8911953679    -1.3759205137     0.2589571200
    9      C      -3.4731435245     0.8722846905    -0.1293600449
   10      N      -1.5661562908    -1.1136319692     0.1584315472
   11      N      -4.2495271967     1.9455340843    -0.2934359306
   12      C      -2.0747118078     1.1660600204    -0.2313748402
   13      C      -1.1352801471     0.0958508870    -0.0746505756
   14      S      -3.2497264426     3.1809155912    -0.5549629753
   15      N      -1.8223568496     2.4526737974    -0.4737594613
   16      C       0.3147533997     0.2625171156    -0.1750615011
   17      N       0.9525364735     1.3822777586    -0.3138283751
   18      S       1.3290534452    -1.1488626481    -0.1041483630
   19      C       2.2918303818     1.1738132895    -0.3805052433
   20      C       2.7065302029    -0.1271614629    -0.2918570204
   21      C       4.0659827815    -0.6218205046    -0.2922865485
   22      S       4.4883607754    -2.1817076274    -0.9152215313
   23      C       5.1989698582    -0.0034802834     0.1600577321
   24      C       6.1472064670    -1.9969129301    -0.5477284156
   25      S       5.5218435975     1.5277189982     0.9293230480
   26      C       6.3884939440    -0.7783740181     0.0235111252
   27      C       7.2184731609     1.1094948877     1.0588696875
   28      C       7.5382951175    -0.0928130522     0.5554051152
   29      H      -9.0905739482    -1.6579215294     0.5495024857
   30      H      -8.0569357196    -1.3207957876    -1.6750962191
   31      H      -7.6903801121    -1.5231621693     2.5818912977
   32      H      -5.6566540984    -0.8181982363    -1.8534161807
   33      H      -5.2898013286    -1.0300199544     2.4006773235
   34      H      -3.1418811464    -2.4148094594     0.4317607442
   35      H       2.9572667155     2.0139247783    -0.5144609370
   36      H       6.8466744870    -2.7865921210    -0.7583935234
   37      H       7.8803113720     1.8168100149     1.5316871003
   38      H       8.5386193356    -0.4960577282     0.5705332766
 ----------------------------------------------------------------
 Molecular Point Group                 C1    NOp =  1
 Largest Abelian Subgroup              C1    NOp =  1
 Nuclear Repulsion Energy =  2864.8586824254 hartrees
 There are      111 alpha and      111 beta electrons
 Requested basis set is cc-pVTZ
 There are 348 shells and 996 basis functions

 Total QAlloc Memory Limit   2000 MB
 Mega-Array Size        61 MB
 MEM_STATIC part        62 MB
 A cutoff of  1.0D-11 yielded  28542 shell pairs
 There are    226328 function pairs (    295821 Cartesian)
 
 -------------------------------------------------------
 OpenMP Integral Computing Module                       
 Release: version 1.0, May 2013, Q-Chem Inc. Pittsburgh 
 -------------------------------------------------------
 Integral Job Info:
 Integral job number is                      11
 Integral operator is                         1
 short-range coefficients              22203600
 long-range coefficients              100000000
 Omega coefficients                         200
 if combine SR and LR in K                    1
 Integral screening is                        0
 Integral computing path is                   2
 max size of driver memory is            800000
 size of driver memory is                776718
 size of scratch memory is             26248924
 max col of scratch BK array              10000
 max len of scratch array in speh3          662
 max len of scratch index in speh4           32
 max int batch size is                      520
 min int batch size is                       52
 fixed nKL is                                52
 max L of basis functions is                  3
 order of int derivative is                   0
 number of shells is                        348
 number of basis is                        1146
 number of cartesian basis is              1146
 number of contracted shell pairs         28542
 number of primitive shell pairs          90550
 maxK2 (contraction) of shell pair          121
 max number of K2 of shell pair               1
 max number of CS2 of shell pair           3874
 max number of PS2 of shell pair          11543
 mem total for path MDJ                  791476
 -------------------------------------------------------
 Smallest overlap matrix eigenvalue = 3.10E-05

 Scale SEOQF with 1.000000e-02/1.000000e-01/1.000000e-01

 Standard Electronic Orientation quadrupole field applied
 Nucleus-field energy     =     0.0000000445 hartrees
 Guess from superposition of atomic densities
 Warning:  Energy on first SCF cycle will be non-variational
 Long-range K will be added via erf
 Coulomb attenuation parameter = 0.2 bohr**(-1)
 A restricted hybrid HF-DFT SCF calculation will be
 performed using Pulay DIIS extrapolation
 Exchange:     0.2220 Hartree-Fock + 1.0000 wB97X-D + LR-HF
 Correlation:  1.0000 wB97X-D
 Using SG-2 standard quadrature grid
 Dispersion:   Grimme D
 SCF converges when DIIS error is below 1.0E-08
 using 16 threads for integral computing 
 using 16 threads for integral computing 
 K construction time:  CPU 65.90 s  wall 4.35 s
 -------------------------------------------------------
 OpenMP BLAS3 based DFT computing Module                
 Release: version 1.0, May 2013, Q-Chem Inc. Pittsburgh 
 -------------------------------------------------------
 ---------------------------------------
  Cycle       Energy         DIIS Error
 ---------------------------------------
    1   -2589.8055618524      1.84E-02
 K construction time:  CPU 998.92 s  wall 65.21 s
    2   -2579.6136405388      1.36E-03
 K construction time:  CPU 953.36 s  wall 62.23 s
    3   -2579.6468961016      1.37E-03
 K construction time:  CPU 910.52 s  wall 59.46 s
    4   -2579.8525995357      2.14E-04
 K construction time:  CPU 836.15 s  wall 54.85 s
    5   -2579.8571402590      1.17E-04
 K construction time:  CPU 798.62 s  wall 52.19 s
    6   -2579.8587886786      3.44E-05
 K construction time:  CPU 742.25 s  wall 48.50 s
    7   -2579.8589448635      1.35E-05
 K construction time:  CPU 702.41 s  wall 45.86 s
    8   -2579.8589787206      5.22E-06
 K construction time:  CPU 669.13 s  wall 43.87 s
    9   -2579.8589871577      3.57E-06
 K construction time:  CPU 629.58 s  wall 41.15 s
   10   -2579.8589899534      1.11E-06
 K construction time:  CPU 573.71 s  wall 37.39 s
   11   -2579.8589903188      6.45E-07
 K construction time:  CPU 526.65 s  wall 34.34 s
   12   -2579.8589904207      1.91E-07
 K construction time:  CPU 470.13 s  wall 30.67 s
   13   -2579.8589904317      9.50E-08
 K construction time:  CPU 404.53 s  wall 26.40 s
   14   -2579.8589904351      3.27E-08
 K construction time:  CPU 357.45 s  wall 23.20 s
   15   -2579.8589904384      1.43E-08
 K construction time:  CPU 993.41 s  wall 65.08 s
   16   -2579.8589904312      4.45E-09 Convergence criterion met
 ---------------------------------------
 SCF time:  CPU 14307.62 s  wall 958.29 s
 SCF   energy in the final basis set = -2579.8589904312
 Total energy in the final basis set = -2579.8589904312
 
 --------------------------------------------------------------
 
                    Orbital Energies (a.u.)
 --------------------------------------------------------------
 
 Alpha MOs
 -- Occupied --
-89.148 -89.091 -89.086 -89.078 -14.484 -14.480 -14.453 -14.444
-10.365 -10.362 -10.357 -10.355 -10.343 -10.342 -10.335 -10.332
-10.330 -10.327 -10.323 -10.322 -10.313 -10.311 -10.305 -10.297
-10.296 -10.295 -10.295 -10.295  -8.158  -8.105  -8.101  -8.093
 -6.108  -6.103  -6.102  -6.055  -6.051  -6.050  -6.048  -6.047
 -6.044  -6.043  -6.039  -6.035  -1.145  -1.086  -1.064  -1.023
 -1.009  -0.974  -0.958  -0.924  -0.919  -0.898  -0.876  -0.860
 -0.855  -0.833  -0.828  -0.802  -0.774  -0.742  -0.734  -0.710
 -0.708  -0.693  -0.691  -0.660  -0.651  -0.637  -0.628  -0.613
 -0.606  -0.598  -0.571  -0.563  -0.556  -0.549  -0.544  -0.531
 -0.530  -0.523  -0.514  -0.514  -0.508  -0.504  -0.498  -0.484
 -0.477  -0.475  -0.466  -0.455  -0.447  -0.440  -0.437  -0.434
 -0.426  -0.423  -0.422  -0.399  -0.393  -0.371  -0.368  -0.361
 -0.354  -0.353  -0.339  -0.335  -0.325  -0.312  -0.273
 -- Virtual --
 -0.048   0.002   0.030   0.044   0.050   0.063   0.064   0.069
  0.085   0.088   0.104   0.113   0.116   0.123   0.130   0.138
  0.141   0.146   0.149   0.151   0.159   0.163   0.165   0.178
  0.185   0.188   0.192   0.199   0.217   0.219   0.228   0.235
  0.238   0.248   0.257   0.266   0.274   0.280   0.283   0.291
  0.295   0.302   0.303   0.304   0.308   0.317   0.321   0.323
  0.330   0.332   0.334   0.342   0.344   0.346   0.352   0.355
  0.360   0.363   0.371   0.372   0.373   0.380   0.384   0.386
  0.388   0.389   0.394   0.397   0.399   0.405   0.407   0.412
  0.414   0.418   0.420   0.429   0.431   0.434   0.435   0.441
  0.444   0.445   0.449   0.452   0.454   0.455   0.458   0.463
  0.463   0.467   0.469   0.477   0.479   0.479   0.481   0.482
  0.487   0.498   0.500   0.503   0.508   0.508   0.511   0.517
  0.518   0.525   0.528   0.531   0.536   0.543   0.545   0.551
  0.556   0.557   0.560   0.562   0.567   0.570   0.572   0.576
  0.580   0.585   0.593   0.599   0.614   0.618   0.624   0.627
  0.629   0.635   0.639   0.646   0.651   0.654   0.660   0.665
  0.668   0.677   0.678   0.683   0.690   0.700   0.702   0.709
  0.719   0.724   0.727   0.731   0.736   0.738   0.744   0.751
  0.754   0.761   0.762   0.767   0.768   0.770   0.773   0.780
  0.784   0.790   0.796   0.798   0.804   0.810   0.815   0.828
  0.830   0.834   0.838   0.843   0.848   0.849   0.853   0.857
  0.860   0.864   0.866   0.873   0.879   0.886   0.889   0.895
  0.904   0.906   0.909   0.912   0.922   0.926   0.927   0.933
  0.936   0.943   0.945   0.951   0.961   0.962   0.966   0.969
  0.975   0.980   0.983   0.987   0.993   0.998   1.012   1.019
  1.019   1.028   1.034   1.035   1.045   1.048   1.052   1.055
  1.062   1.064   1.075   1.078   1.086   1.088   1.097   1.103
  1.107   1.115   1.125   1.129   1.133   1.142   1.150   1.153
  1.159   1.161   1.168   1.173   1.181   1.189   1.196   1.205
  1.215   1.219   1.229   1.233   1.237   1.244   1.251   1.252
  1.259   1.265   1.267   1.274   1.283   1.292   1.295   1.304
  1.319   1.326   1.332   1.348   1.351   1.356   1.361   1.366
  1.368   1.371   1.379   1.381   1.393   1.403   1.407   1.414
  1.422   1.423   1.430   1.433   1.438   1.441   1.450   1.456
  1.458   1.463   1.468   1.472   1.479   1.483   1.484   1.492
  1.497   1.500   1.510   1.520   1.526   1.539   1.547   1.549
  1.559   1.563   1.572   1.577   1.584   1.593   1.601   1.603
  1.610   1.618   1.628   1.630   1.642   1.647   1.652   1.652
  1.659   1.662   1.671   1.672   1.684   1.688   1.695   1.697
  1.703   1.707   1.715   1.719   1.731   1.736   1.739   1.747
  1.750   1.762   1.770   1.777   1.780   1.788   1.797   1.801
  1.825   1.836   1.841   1.853   1.862   1.878   1.882   1.886
  1.890   1.903   1.905   1.912   1.927   1.931   1.936   1.939
  1.942   1.955   1.966   1.974   1.982   1.983   1.999   2.010
  2.011   2.022   2.024   2.027   2.032   2.037   2.044   2.062
  2.066   2.082   2.085   2.091   2.093   2.103   2.125   2.130
  2.133   2.147   2.154   2.156   2.165   2.168   2.175   2.181
  2.198   2.201   2.205   2.206   2.219   2.231   2.241   2.242
  2.249   2.257   2.258   2.263   2.265   2.274   2.285   2.294
  2.302   2.311   2.321   2.328   2.343   2.347   2.350   2.355
  2.366   2.372   2.385   2.389   2.398   2.399   2.410   2.421
  2.423   2.443   2.447   2.454   2.456   2.462   2.468   2.474
  2.480   2.489   2.491   2.500   2.504   2.507   2.508   2.524
  2.528   2.534   2.535   2.552   2.556   2.560   2.576   2.588
  2.594   2.600   2.602   2.607   2.613   2.623   2.630   2.638
  2.642   2.653   2.666   2.669   2.673   2.685   2.697   2.714
  2.726   2.731   2.738   2.744   2.752   2.763   2.769   2.772
  2.777   2.781   2.784   2.789   2.790   2.798   2.801   2.807
  2.808   2.823   2.831   2.833   2.839   2.845   2.855   2.863
  2.866   2.888   2.893   2.894   2.901   2.904   2.913   2.916
  2.923   2.933   2.941   2.953   2.957   2.966   2.975   2.975
  2.978   2.982   2.990   2.993   2.998   3.012   3.015   3.017
  3.019   3.025   3.035   3.037   3.045   3.047   3.053   3.058
  3.061   3.062   3.072   3.075   3.081   3.086   3.088   3.093
  3.100   3.104   3.106   3.112   3.114   3.121   3.127   3.133
  3.140   3.145   3.146   3.153   3.157   3.163   3.165   3.167
  3.171   3.174   3.180   3.182   3.183   3.192   3.197   3.203
  3.213   3.216   3.219   3.224   3.227   3.228   3.235   3.243
  3.250   3.254   3.257   3.263   3.269   3.275   3.280   3.285
  3.287   3.293   3.296   3.306   3.313   3.314   3.318   3.321
  3.328   3.334   3.337   3.340   3.347   3.354   3.356   3.361
  3.368   3.372   3.375   3.381   3.391   3.395   3.397   3.405
  3.412   3.425   3.434   3.439   3.442   3.449   3.453   3.458
  3.461   3.463   3.466   3.469   3.475   3.482   3.488   3.491
  3.505   3.507   3.508   3.513   3.522   3.532   3.545   3.547
  3.555   3.559   3.562   3.565   3.572   3.577   3.581   3.587
  3.595   3.603   3.607   3.622   3.632   3.657   3.665   3.672
  3.678   3.695   3.699   3.704   3.714   3.725   3.731   3.739
  3.744   3.760   3.766   3.769   3.771   3.778   3.785   3.789
  3.795   3.804   3.816   3.823   3.841   3.842   3.854   3.857
  3.862   3.863   3.868   3.873   3.876   3.881   3.881   3.884
  3.899   3.907   3.912   3.929   3.934   3.940   3.945   3.952
  3.956   3.964   3.965   3.968   3.976   3.979   3.988   3.996
  3.998   4.005   4.021   4.025   4.042   4.049   4.056   4.069
  4.075   4.076   4.080   4.092   4.104   4.111   4.121   4.136
  4.142   4.147   4.151   4.161   4.166   4.173   4.178   4.187
  4.198   4.204   4.212   4.216   4.234   4.243   4.253   4.261
  4.272   4.276   4.285   4.296   4.303   4.311   4.324   4.326
  4.333   4.340   4.344   4.358   4.369   4.373   4.374   4.388
  4.397   4.405   4.407   4.419   4.426   4.433   4.436   4.441
  4.441   4.445   4.454   4.476   4.483   4.507   4.511   4.515
  4.527   4.545   4.552   4.563   4.574   4.588   4.592   4.601
  4.617   4.621   4.626   4.636   4.642   4.660   4.660   4.672
  4.682   4.717   4.720   4.735   4.741   4.761   4.777   4.781
  4.786   4.820   4.822   4.834   4.837   4.845   4.850   4.854
  4.864   4.866   4.877   4.882   4.892   4.903   4.914   4.928
  4.936   4.954   4.966   4.971   4.986   4.990   4.996   5.000
  5.025   5.046   5.050   5.066   5.069   5.077   5.084   5.090
  5.097   5.110   5.112   5.115   5.122   5.128   5.147   5.163
  5.186   5.193   5.224   5.244   5.248   5.251   5.256   5.272
  5.274   5.309   5.329   5.342   5.359   5.365   5.372   5.386
  5.398   5.435   5.448   5.458   5.504   5.518   5.523   5.542
  5.572   5.589   5.598   5.629   5.648   5.663   5.672   5.692
  5.721   5.730   5.762   5.800   5.819   5.829   5.842   5.865
  5.878   5.965   6.004   6.027   6.030   6.044   6.067   6.092
  6.138   6.156   6.165   6.180   6.201   6.236   6.250   6.290
  6.356   6.488   6.524   6.864   6.940   7.999   8.533   9.281
 10.073  10.658  11.136  11.145  11.686  11.997  12.214  12.616
 12.776  12.832  12.854  12.960  13.143  13.396  13.444  13.682
 13.804  13.948  14.131  14.678  15.704
 --------------------------------------------------------------
 
          Ground-State Mulliken Net Atomic Charges

     Atom                 Charge (a.u.)
  ----------------------------------------
      1 C                    -0.123514
      2 C                    -0.102445
      3 C                    -0.103300
      4 C                    -0.105457
      5 C                    -0.117388
      6 C                     0.056032
      7 C                    -0.043080
      8 C                    -0.079128
      9 C                     0.049815
     10 N                    -0.171343
     11 N                    -0.265890
     12 C                    -0.009978
     13 C                     0.109998
     14 S                     0.411835
     15 N                    -0.223252
     16 C                    -0.009231
     17 N                    -0.136666
     18 S                     0.120662
     19 C                    -0.145462
     20 C                    -0.018309
     21 C                     0.005617
     22 S                     0.132855
     23 C                    -0.049108
     24 C                    -0.219452
     25 S                     0.056332
     26 C                     0.042440
     27 C                    -0.145253
     28 C                    -0.173016
     29 H                     0.118166
     30 H                     0.115723
     31 H                     0.116704
     32 H                     0.115879
     33 H                     0.122104
     34 H                     0.130340
     35 H                     0.145877
     36 H                     0.130122
     37 H                     0.132754
     38 H                     0.128017
  ----------------------------------------
  Sum of atomic charges =     0.000000

 -----------------------------------------------------------------
                    Cartesian Multipole Moments
 -----------------------------------------------------------------
    Charge (ESU x 10^10)
                 0.0000
    Dipole Moment (Debye)
         X       0.7919      Y      -0.9748      Z       0.1985
       Tot       1.2715
    Quadrupole Moments (Debye-Ang)
        XX    -140.3610     XY       0.2597     YY    -182.0475
        XZ       2.0893     YZ       1.7570     ZZ    -182.1031
    Octopole Moments (Debye-Ang^2)
       XXX     157.6646    XXY     -60.9114    XYY      28.6490
       YYY      28.8866    XXZ      31.3113    XYZ      28.7055
       YYZ      -3.5989    XZZ     -41.6600    YZZ       3.3626
       ZZZ       1.3185
    Hexadecapole Moments (Debye-Ang^3)
      XXXX  -21265.3283   XXXY     256.5552   XXYY   -4425.0210
      XYYY    -229.5793   YYYY   -2674.9414   XXXZ     257.0994
      XXYZ     117.2825   XYYZ       8.1666   YYYZ      12.0653
      XXZZ   -4155.3280   XYZZ      41.0204   YYZZ    -577.2895
      XZZZ     -17.0074   YZZZ     -10.3459   ZZZZ    -720.9692
 -----------------------------------------------------------------
 Calculating analytic gradient of the SCF energy
 K construction time:  CPU 2085.81 s  wall 132.40 s
 Gradient of SCF Energy
            1           2           3           4           5           6
    1  -0.0009709   0.0003840   0.0023853  -0.0010953  -0.0030847   0.0079852
    2  -0.0004864   0.0010656   0.0016283   0.0000534  -0.0014262  -0.0048601
    3  -0.0004596   0.0008590  -0.0001488  -0.0004390   0.0018150   0.0013123
            7           8           9          10          11          12
    1  -0.0083575   0.0030724   0.0014971  -0.0023905   0.0003217  -0.0004411
    2   0.0064865  -0.0011944   0.0009070  -0.0000687   0.0001981  -0.0002901
    3  -0.0015503   0.0009487  -0.0008463   0.0003190   0.0002412  -0.0000753
           13          14          15          16          17          18
    1   0.0012315   0.0001035   0.0003306  -0.0000167  -0.0008428   0.0004405
    2   0.0004334   0.0002903  -0.0002533   0.0006910  -0.0002037  -0.0005854
    3   0.0001254  -0.0001979   0.0004124   0.0000118   0.0001375  -0.0001170
           19          20          21          22          23          24
    1  -0.0005713   0.0006980   0.0008477  -0.0005431  -0.0003738   0.0003798
    2  -0.0002996   0.0004655   0.0009494  -0.0005384  -0.0013061  -0.0009571
    3  -0.0002016  -0.0005630   0.0013059  -0.0007363  -0.0006233  -0.0005719
           25          26          27          28          29          30
    1  -0.0005096  -0.0000843   0.0013475  -0.0006423   0.0000505  -0.0000382
    2   0.0013406   0.0002765  -0.0007372  -0.0001988   0.0001780  -0.0001149
    3   0.0003779   0.0002413  -0.0003745  -0.0009334  -0.0002660  -0.0005710
           31          32          33          34          35          36
    1  -0.0003159   0.0003128  -0.0005715  -0.0004055   0.0003720   0.0000250
    2   0.0003096  -0.0017142  -0.0008967   0.0001077  -0.0001829   0.0003988
    3   0.0003671  -0.0001989   0.0000439  -0.0012725   0.0000388   0.0005145
           37          38
    1  -0.0005350   0.0000051
    2   0.0001453   0.0003890
    3   0.0005970   0.0004781
 Max gradient component =       8.357E-03
 RMS gradient           =       1.571E-03
 Gradient time:  CPU 2505.24 s  wall 160.71 s
 Geometry Optimization Parameters
   NAtoms,    NIC,     NZ,  NCons,   NDum,   NFix, NCnnct, MaxDiis
       38     289       0       3       0       0       0       0


** CONSTRAINED OPTIMIZATION IN DELOCALIZED INTERNAL COORDINATES **
   Searching for a Minimum

   Optimization Cycle:   1

                       Coordinates (Angstroms)
     ATOM                X               Y               Z
      1  C        -8.0333935562   -1.4466034419    0.4675204179
      2  C        -7.4568482199   -1.2497354232   -0.7773919238
      3  C        -7.2462288019   -1.3708924883    1.6068394161
      4  C        -6.1077469763   -0.9574982299   -0.8796505509
      5  C        -5.8948838127   -1.0890186882    1.5061965819
      6  C        -5.3133530231   -0.8607831576    0.2605153121
      7  C        -3.8988534958   -0.4590371181    0.1342637091
      8  C        -2.8911953679   -1.3759205137    0.2589571200
      9  C        -3.4731435245    0.8722846905   -0.1293600449
     10  N        -1.5661562908   -1.1136319692    0.1584315472
     11  N        -4.2495271967    1.9455340843   -0.2934359306
     12  C        -2.0747118078    1.1660600204   -0.2313748402
     13  C        -1.1352801471    0.0958508870   -0.0746505756
     14  S        -3.2497264426    3.1809155912   -0.5549629753
     15  N        -1.8223568496    2.4526737974   -0.4737594613
     16  C         0.3147533997    0.2625171156   -0.1750615011
     17  N         0.9525364735    1.3822777586   -0.3138283751
     18  S         1.3290534452   -1.1488626481   -0.1041483630
     19  C         2.2918303818    1.1738132895   -0.3805052433
     20  C         2.7065302029   -0.1271614629   -0.2918570204
     21  C         4.0659827815   -0.6218205046   -0.2922865485
     22  S         4.4883607754   -2.1817076274   -0.9152215313
     23  C         5.1989698582   -0.0034802834    0.1600577321
     24  C         6.1472064670   -1.9969129301   -0.5477284156
     25  S         5.5218435975    1.5277189982    0.9293230480
     26  C         6.3884939440   -0.7783740181    0.0235111252
     27  C         7.2184731609    1.1094948877    1.0588696875
     28  C         7.5382951175   -0.0928130522    0.5554051152
     29  H        -9.0905739482   -1.6579215294    0.5495024857
     30  H        -8.0569357196   -1.3207957876   -1.6750962191
     31  H        -7.6903801121   -1.5231621693    2.5818912977
     32  H        -5.6566540984   -0.8181982363   -1.8534161807
     33  H        -5.2898013286   -1.0300199544    2.4006773235
     34  H        -3.1418811464   -2.4148094594    0.4317607442
     35  H         2.9572667155    2.0139247783   -0.5144609370
     36  H         6.8466744870   -2.7865921210   -0.7583935234
     37  H         7.8803113720    1.8168100149    1.5316871003
     38  H         8.5386193356   -0.4960577282    0.5705332766
   Point Group: c1    Number of degrees of freedom:   108


   Energy is  -2579.858990431

              Constraints and their Current Values
                                        Value     Constraint
   Dihedral:        4   6   7   8     -104.999     -105.000
   Dihedral:       10  13  16  18        4.689        4.632
   Dihedral:       18  20  21  22       32.691       32.716

 Attempting to Generate Delocalized Internal Coordinates

   Using Lagrange Multiplier Algorithm


111 Hessian modes will be used to form the next step
  Hessian Eigenvalues:
    -0.977753   -0.977753   -0.977753    0.045000    0.045000    0.045000
     0.045000    0.045000    0.045000    0.045000    0.045000    0.045000
     0.045000    0.045000    0.045000    0.045001    0.045001    0.045001
     0.045001    0.045001    0.045002    0.045002    0.045003    0.045003
     0.045004    0.045005    0.045005    0.045007    0.045008    0.045008
     0.045012    0.045021    0.045031    0.045040    0.045052    0.159964
     0.159978    0.159978    0.159981    0.159982    0.159991    0.159991
     0.159994    0.160000    0.160000    0.219984    0.219994    0.225218
     0.233057    0.234605    0.234758    0.237025    0.247518    0.249693
     0.249750    0.249778    0.249982    0.249986    0.249988    0.249992
     0.249995    0.249997    0.249999    0.249999    0.250000    0.296264
     0.304567    0.308357    0.315691    0.324175    0.337618    0.350485
     0.356836    0.357284    0.357325    0.357370    0.358104    0.358490
     0.359867    0.361581    0.362485    0.365133    0.365876    0.369136
     0.381389    0.386870    0.389564    0.393557    0.413655    0.429805
     0.432305    0.470765    0.472710    0.474104    0.479091    0.480434
     0.482737    0.483543    0.486790    0.496410    0.509562    0.519721
     0.527478    0.543242    0.556249    0.579541    0.638672    0.653864
     1.022753    1.022753    1.022753

 Minimum Search - Taking P-RFO Step
 Searching for Lamda that Maximizes Along the Constraint modes Only
 Value Taken    Lamda =   0.00000324
 Searching for Lamda that Minimizes Along All other modes
 Value Taken    Lamda =  -0.00102486
 Step Taken.  Stepsize is  0.111166

                             Maximum     Tolerance    Cnvgd?
         Gradient            0.004468       0.000300      NO
         Displacement        0.036458       0.001200      NO
         Energy change     *********       0.000001      NO


 New Cartesian Coordinates Obtained by Inverse Iteration

 Displacement from previous Coordinates is:  0.388178
 ----------------------------------------------------------------
             Standard Nuclear Orientation (Angstroms)
    I     Atom           X                Y                Z
 ----------------------------------------------------------------
    1      C      -8.0423065805    -1.4292623596     0.4630069794
    2      C      -7.4747494754    -1.2090871377    -0.7827555704
    3      C      -7.2508806438    -1.3690698299     1.5992618543
    4      C      -6.1258078378    -0.9140651728    -0.8886928347
    5      C      -5.9004282388    -1.0776137425     1.4936676378
    6      C      -5.3277332601    -0.8399535552     0.2492614154
    7      C      -3.8966936451    -0.4793998135     0.1337738868
    8      C      -2.8978090050    -1.4036464739     0.2593362163
    9      C      -3.4663605289     0.8476415598    -0.1276268773
   10      N      -1.5690280082    -1.1453730863     0.1653288486
   11      N      -4.2418692715     1.9208612890    -0.2950696309
   12      C      -2.0685930399     1.1374010628    -0.2299027570
   13      C      -1.1350491337     0.0632898463    -0.0686332542
   14      S      -3.2398030274     3.1539638452    -0.5567320573
   15      N      -1.8137491104     2.4232007160    -0.4751165084
   16      C       0.3153917202     0.2319213267    -0.1599109449
   17      N       0.9500241830     1.3537393067    -0.3001455738
   18      S       1.3341120096    -1.1743629426    -0.0768308068
   19      C       2.2897344693     1.1512467764    -0.3627444621
   20      C       2.7079611633    -0.1482048796    -0.2693883338
   21      C       4.0707400589    -0.6335519378    -0.2711068276
   22      S       4.5047307995    -2.1902882527    -0.8903851481
   23      C       5.2021048115    -0.0018199669     0.1702780804
   24      C       6.1640538034    -1.9871194295    -0.5388604097
   25      S       5.5188428141     1.5357181338     0.9259620233
   26      C       6.3987769659    -0.7645141674     0.0250905148
   27      C       7.2212810421     1.1391464800     1.0360545465
   28      C       7.5480118067    -0.0642427105     0.5393218220
   29      H      -9.0980719315    -1.6466898314     0.5491725059
   30      H      -8.0822564362    -1.2637323273    -1.6757072513
   31      H      -7.6876186685    -1.5407940606     2.5737521685
   32      H      -5.6804768966    -0.7510622375    -1.8612799149
   33      H      -5.2848076699    -1.0307010527     2.3822512185
   34      H      -3.1517395600    -2.4395988729     0.4464230263
   35      H       2.9498961638     1.9947593064    -0.5004127232
   36      H       6.8683036951    -2.7708584156    -0.7583634532
   37      H       7.8850135631     1.8582058978     1.4879470248
   38      H       8.5524225485    -0.4580179198     0.5391284493
 ----------------------------------------------------------------
 Molecular Point Group                 C1    NOp =  1
 Largest Abelian Subgroup              C1    NOp =  1
 Nuclear Repulsion Energy =  2865.6171041330 hartrees
 There are      111 alpha and      111 beta electrons
 Applying Cartesian multipole field
    Component          Value
    ---------          -----
     (2,0,0)        1.00000E-12
     (0,2,0)        2.00000E-11
     (0,0,2)       -3.00000E-11
 Nucleus-field energy     =     0.0000000444 hartrees
 Requested basis set is cc-pVTZ
 There are 348 shells and 996 basis functions
 A cutoff of  1.0D-11 yielded  28549 shell pairs
 There are    226407 function pairs (    295944 Cartesian)
 Smallest overlap matrix eigenvalue = 3.09E-05
 Guess MOs from SCF MO coefficient file
 Reading MOs from coefficient file
 Reading MOs from coefficient file
 Long-range K will be added via erf
 Coulomb attenuation parameter = 0.2 bohr**(-1)
 A restricted hybrid HF-DFT SCF calculation will be
 performed using Pulay DIIS extrapolation
 Exchange:     0.2220 Hartree-Fock + 1.0000 wB97X-D + LR-HF
 Correlation:  1.0000 wB97X-D
 Using SG-2 standard quadrature grid
 Dispersion:   Grimme D
 SCF converges when DIIS error is below 1.0E-08
 Geometry optimization detected.  Setting ReadMinima to 0
 Setting SaveMinima to 0
 using 16 threads for integral computing 
 using 16 threads for integral computing 
 K construction time:  CPU 994.37 s  wall 65.25 s
 -------------------------------------------------------
 OpenMP BLAS3 based DFT computing Module                
 Release: version 1.0, May 2013, Q-Chem Inc. Pittsburgh 
 -------------------------------------------------------
 ---------------------------------------
  Cycle       Energy         DIIS Error
 ---------------------------------------
    1   -2579.8547451952      1.87E-04
 K construction time:  CPU 994.78 s  wall 65.18 s
    2   -2579.8595706890      1.91E-05
 K construction time:  CPU 718.42 s  wall 47.01 s
    3   -2579.8596692500      1.15E-05
 K construction time:  CPU 671.45 s  wall 44.00 s
    4   -2579.8596849320      6.52E-06
 K construction time:  CPU 635.60 s  wall 41.68 s
    5   -2579.8596909148      2.99E-06
 K construction time:  CPU 583.13 s  wall 38.12 s
    6   -2579.8596920445      1.17E-06
 K construction time:  CPU 526.97 s  wall 34.49 s
    7   -2579.8596922291      3.20E-07
 K construction time:  CPU 476.11 s  wall 31.15 s
    8   -2579.8596922474      1.82E-07
 K construction time:  CPU 436.78 s  wall 28.54 s
    9   -2579.8596922530      5.67E-08
 K construction time:  CPU 370.90 s  wall 24.13 s
   10   -2579.8596922523      2.31E-08
 K construction time:  CPU 333.72 s  wall 21.66 s
   11   -2579.8596922545      1.00E-08
 K construction time:  CPU 288.15 s  wall 18.80 s
   12   -2579.8596922543      3.46E-09 Convergence criterion met
 ---------------------------------------
 SCF time:  CPU 9613.16 s  wall 644.93 s
 SCF   energy in the final basis set = -2579.8596922543
 Total energy in the final basis set = -2579.8596922543
 
 --------------------------------------------------------------
 
                    Orbital Energies (a.u.)
 --------------------------------------------------------------
 
 Alpha MOs
 -- Occupied --
-89.148 -89.090 -89.086 -89.078 -14.484 -14.480 -14.453 -14.443
-10.365 -10.362 -10.356 -10.355 -10.343 -10.342 -10.335 -10.333
-10.330 -10.327 -10.323 -10.322 -10.313 -10.310 -10.305 -10.297
-10.296 -10.295 -10.295 -10.294  -8.158  -8.105  -8.102  -8.093
 -6.108  -6.103  -6.102  -6.054  -6.051  -6.051  -6.048  -6.047
 -6.045  -6.043  -6.039  -6.035  -1.145  -1.086  -1.064  -1.023
 -1.009  -0.974  -0.958  -0.924  -0.919  -0.898  -0.876  -0.860
 -0.855  -0.833  -0.828  -0.802  -0.774  -0.742  -0.734  -0.710
 -0.708  -0.693  -0.691  -0.660  -0.651  -0.637  -0.627  -0.614
 -0.606  -0.597  -0.571  -0.563  -0.556  -0.549  -0.544  -0.531
 -0.530  -0.523  -0.514  -0.514  -0.507  -0.504  -0.498  -0.484
 -0.477  -0.475  -0.466  -0.455  -0.446  -0.440  -0.437  -0.434
 -0.426  -0.423  -0.421  -0.399  -0.393  -0.371  -0.368  -0.361
 -0.354  -0.353  -0.339  -0.335  -0.325  -0.313  -0.273
 -- Virtual --
 -0.048   0.002   0.030   0.045   0.051   0.063   0.064   0.069
  0.085   0.088   0.104   0.113   0.117   0.124   0.130   0.138
  0.141   0.145   0.149   0.151   0.159   0.163   0.165   0.178
  0.185   0.188   0.192   0.199   0.217   0.219   0.228   0.235
  0.239   0.248   0.257   0.266   0.274   0.280   0.283   0.291
  0.294   0.302   0.303   0.304   0.308   0.318   0.322   0.323
  0.330   0.332   0.334   0.343   0.344   0.346   0.352   0.355
  0.359   0.363   0.371   0.373   0.373   0.380   0.384   0.386
  0.388   0.389   0.394   0.397   0.399   0.405   0.407   0.412
  0.414   0.418   0.420   0.430   0.431   0.434   0.435   0.441
  0.444   0.445   0.449   0.453   0.454   0.456   0.458   0.463
  0.463   0.467   0.469   0.476   0.479   0.479   0.482   0.482
  0.486   0.497   0.499   0.503   0.508   0.508   0.510   0.517
  0.518   0.525   0.527   0.532   0.536   0.543   0.545   0.552
  0.556   0.558   0.561   0.562   0.567   0.570   0.572   0.576
  0.581   0.586   0.593   0.600   0.614   0.618   0.623   0.628
  0.628   0.635   0.639   0.646   0.651   0.654   0.660   0.666
  0.668   0.678   0.679   0.684   0.691   0.700   0.702   0.710
  0.721   0.723   0.727   0.732   0.737   0.738   0.743   0.751
  0.754   0.760   0.762   0.767   0.769   0.770   0.774   0.780
  0.784   0.791   0.797   0.799   0.805   0.810   0.816   0.827
  0.830   0.834   0.838   0.843   0.848   0.849   0.854   0.858
  0.862   0.864   0.866   0.872   0.878   0.886   0.888   0.895
  0.903   0.907   0.909   0.912   0.922   0.924   0.927   0.934
  0.936   0.944   0.946   0.951   0.960   0.962   0.965   0.972
  0.975   0.979   0.983   0.988   0.993   0.998   1.013   1.019
  1.020   1.028   1.034   1.035   1.046   1.049   1.053   1.055
  1.061   1.065   1.074   1.078   1.085   1.089   1.097   1.103
  1.108   1.115   1.126   1.130   1.133   1.142   1.150   1.153
  1.158   1.162   1.167   1.173   1.181   1.189   1.198   1.206
  1.215   1.219   1.229   1.232   1.239   1.243   1.251   1.252
  1.259   1.266   1.266   1.275   1.284   1.292   1.298   1.304
  1.319   1.325   1.332   1.349   1.351   1.356   1.361   1.367
  1.368   1.372   1.379   1.381   1.394   1.403   1.408   1.415
  1.421   1.424   1.429   1.434   1.438   1.441   1.450   1.455
  1.458   1.465   1.469   1.473   1.479   1.482   1.484   1.492
  1.496   1.500   1.512   1.519   1.526   1.539   1.547   1.549
  1.559   1.563   1.572   1.577   1.585   1.593   1.602   1.604
  1.610   1.618   1.629   1.629   1.642   1.647   1.651   1.653
  1.659   1.662   1.671   1.672   1.684   1.687   1.694   1.696
  1.702   1.707   1.715   1.720   1.731   1.736   1.739   1.747
  1.749   1.762   1.770   1.777   1.781   1.789   1.797   1.802
  1.826   1.837   1.840   1.853   1.857   1.877   1.882   1.886
  1.890   1.903   1.904   1.912   1.927   1.931   1.936   1.939
  1.942   1.955   1.966   1.974   1.983   1.983   1.999   2.010
  2.011   2.022   2.024   2.027   2.032   2.037   2.043   2.063
  2.067   2.083   2.085   2.091   2.093   2.103   2.125   2.132
  2.134   2.148   2.153   2.156   2.165   2.166   2.175   2.181
  2.199   2.203   2.206   2.208   2.219   2.232   2.241   2.243
  2.249   2.258   2.259   2.265   2.267   2.274   2.285   2.294
  2.302   2.311   2.321   2.329   2.344   2.346   2.351   2.356
  2.367   2.371   2.387   2.389   2.398   2.401   2.410   2.421
  2.425   2.443   2.447   2.454   2.455   2.462   2.469   2.475
  2.481   2.489   2.491   2.500   2.504   2.507   2.507   2.523
  2.529   2.535   2.536   2.551   2.557   2.561   2.576   2.588
  2.593   2.601   2.604   2.607   2.612   2.624   2.629   2.639
  2.641   2.654   2.666   2.669   2.673   2.686   2.697   2.713
  2.726   2.730   2.739   2.743   2.752   2.763   2.769   2.774
  2.776   2.781   2.786   2.790   2.790   2.798   2.801   2.807
  2.809   2.824   2.831   2.834   2.839   2.845   2.854   2.862
  2.866   2.888   2.893   2.894   2.901   2.904   2.913   2.916
  2.924   2.934   2.944   2.954   2.957   2.967   2.976   2.976
  2.978   2.982   2.991   2.993   2.998   3.011   3.016   3.019
  3.020   3.025   3.033   3.038   3.045   3.047   3.054   3.058
  3.061   3.062   3.072   3.076   3.082   3.086   3.087   3.094
  3.100   3.104   3.107   3.111   3.114   3.120   3.127   3.133
  3.139   3.145   3.146   3.153   3.156   3.163   3.165   3.167
  3.171   3.174   3.182   3.183   3.184   3.192   3.197   3.202
  3.213   3.216   3.219   3.225   3.227   3.229   3.235   3.242
  3.249   3.255   3.257   3.263   3.270   3.275   3.281   3.286
  3.287   3.293   3.297   3.306   3.313   3.314   3.319   3.321
  3.329   3.333   3.337   3.342   3.346   3.352   3.356   3.362
  3.369   3.372   3.375   3.381   3.392   3.396   3.397   3.405
  3.412   3.424   3.434   3.440   3.443   3.449   3.453   3.457
  3.462   3.464   3.468   3.468   3.476   3.481   3.487   3.491
  3.505   3.507   3.511   3.514   3.522   3.534   3.546   3.548
  3.554   3.558   3.562   3.566   3.571   3.577   3.581   3.587
  3.596   3.604   3.607   3.623   3.632   3.659   3.664   3.674
  3.681   3.696   3.700   3.704   3.712   3.725   3.731   3.740
  3.745   3.761   3.766   3.769   3.770   3.777   3.784   3.790
  3.795   3.804   3.815   3.824   3.840   3.842   3.856   3.858
  3.862   3.863   3.866   3.873   3.876   3.882   3.883   3.885
  3.901   3.910   3.913   3.928   3.935   3.940   3.945   3.952
  3.956   3.964   3.966   3.971   3.975   3.979   3.988   3.996
  3.998   4.004   4.021   4.025   4.044   4.048   4.055   4.069
  4.074   4.077   4.078   4.090   4.102   4.112   4.123   4.136
  4.142   4.147   4.151   4.161   4.167   4.174   4.176   4.188
  4.198   4.203   4.216   4.218   4.235   4.244   4.254   4.262
  4.271   4.279   4.287   4.296   4.304   4.313   4.325   4.327
  4.334   4.340   4.344   4.357   4.366   4.371   4.373   4.388
  4.397   4.407   4.408   4.419   4.425   4.433   4.434   4.438
  4.443   4.445   4.454   4.474   4.484   4.507   4.510   4.516
  4.530   4.547   4.553   4.564   4.575   4.589   4.594   4.602
  4.619   4.620   4.627   4.636   4.647   4.659   4.659   4.673
  4.681   4.716   4.721   4.737   4.745   4.761   4.780   4.782
  4.785   4.820   4.823   4.835   4.838   4.844   4.849   4.855
  4.863   4.866   4.876   4.881   4.892   4.904   4.914   4.927
  4.936   4.954   4.966   4.972   4.986   4.991   4.996   5.000
  5.027   5.045   5.050   5.066   5.068   5.077   5.085   5.092
  5.096   5.111   5.113   5.116   5.122   5.129   5.147   5.163
  5.186   5.193   5.224   5.243   5.247   5.251   5.256   5.271
  5.276   5.308   5.328   5.340   5.361   5.364   5.374   5.382
  5.397   5.435   5.446   5.457   5.506   5.518   5.524   5.540
  5.572   5.591   5.598   5.630   5.645   5.664   5.674   5.693
  5.723   5.733   5.763   5.800   5.823   5.833   5.844   5.871
  5.878   5.965   6.004   6.026   6.030   6.045   6.068   6.093
  6.144   6.156   6.170   6.182   6.201   6.239   6.249   6.290
  6.355   6.483   6.526   6.863   6.945   8.000   8.538   9.287
 10.072  10.659  11.140  11.150  11.683  11.994  12.236  12.613
 12.784  12.843  12.852  12.953  13.155  13.401  13.456  13.684
 13.798  13.947  14.128  14.680  15.716
 --------------------------------------------------------------
 
          Ground-State Mulliken Net Atomic Charges

     Atom                 Charge (a.u.)
  ----------------------------------------
      1 C                    -0.123327
      2 C                    -0.102475
      3 C                    -0.103964
      4 C                    -0.106260
      5 C                    -0.119221
      6 C                     0.062214
      7 C                    -0.043530
      8 C                    -0.078620
      9 C                     0.048695
     10 N                    -0.172399
     11 N                    -0.266743
     12 C                    -0.010539
     13 C                     0.110353
     14 S                     0.411588
     15 N                    -0.223177
     16 C                    -0.009643
     17 N                    -0.136540
     18 S                     0.121178
     19 C                    -0.145663
     20 C                    -0.017490
     21 C                     0.004253
     22 S                     0.133408
     23 C                    -0.049832
     24 C                    -0.219441
     25 S                     0.057013
     26 C                     0.042577
     27 C                    -0.145788
     28 C                    -0.172784
     29 H                     0.117969
     30 H                     0.115981
     31 H                     0.117005
     32 H                     0.116245
     33 H                     0.122080
     34 H                     0.129985
     35 H                     0.146044
     36 H                     0.129902
     37 H                     0.132945
     38 H                     0.128001
  ----------------------------------------
  Sum of atomic charges =     0.000000

 -----------------------------------------------------------------
                    Cartesian Multipole Moments
 -----------------------------------------------------------------
    Charge (ESU x 10^10)
                 0.0000
    Dipole Moment (Debye)
         X       0.8227      Y      -0.9334      Z       0.1643
       Tot       1.2550
    Quadrupole Moments (Debye-Ang)
        XX    -140.2718     XY       0.4509     YY    -181.9900
        XZ       1.8274     YZ       1.5867     ZZ    -182.2195
    Octopole Moments (Debye-Ang^2)
       XXX     160.0068    XXY     -57.6614    XYY      28.6155
       YYY      32.6299    XXZ      27.0530    XYZ      29.7036
       YYZ      -3.8377    XZZ     -42.5983    YZZ       4.4759
       ZZZ      -1.3858
    Hexadecapole Moments (Debye-Ang^3)
      XXXX  -21294.2891   XXXY     263.8153   XXYY   -4427.9068
      XYYY    -226.0524   YYYY   -2651.7129   XXXZ     231.8192
      XXYZ     111.8983   XYYZ       2.4805   YYYZ      13.0429
      XXZZ   -4170.2941   XYZZ      37.8249   YYZZ    -571.9535
      XZZZ     -26.5624   YZZZ      -9.7900   ZZZZ    -711.1631
 -----------------------------------------------------------------
 Calculating analytic gradient of the SCF energy
 K construction time:  CPU 2090.33 s  wall 132.54 s
 Gradient of SCF Energy
            1           2           3           4           5           6
    1  -0.0003830  -0.0003712   0.0008275  -0.0002832  -0.0011028   0.0021211
    2  -0.0001717   0.0002161   0.0003458  -0.0001503   0.0005948  -0.0018294
    3  -0.0002967   0.0001569  -0.0001144  -0.0000347  -0.0000360   0.0006730
            7           8           9          10          11          12
    1  -0.0025450   0.0020090  -0.0000950  -0.0008563   0.0002077   0.0000040
    2   0.0043107  -0.0007830  -0.0002412  -0.0004691  -0.0002203  -0.0006597
    3   0.0003554  -0.0008724   0.0002543   0.0005645   0.0000048  -0.0001073
           13          14          15          16          17          18
    1   0.0004516  -0.0000931   0.0001075  -0.0000188  -0.0001000  -0.0000820
    2   0.0004793   0.0001480  -0.0003795   0.0004162  -0.0001456  -0.0004488
    3  -0.0002140   0.0000400   0.0002225  -0.0000692   0.0002670   0.0003201
           19          20          21          22          23          24
    1   0.0000021  -0.0000288   0.0001137  -0.0002185  -0.0002279   0.0000624
    2  -0.0000191   0.0003910   0.0004144  -0.0000420  -0.0006028  -0.0000069
    3  -0.0000383  -0.0009154   0.0007252  -0.0004424  -0.0001782  -0.0000045
           25          26          27          28          29          30
    1  -0.0002770   0.0000581   0.0006926  -0.0001863   0.0000028   0.0000486
    2   0.0002886   0.0000764  -0.0002055  -0.0000415   0.0002227  -0.0000610
    3   0.0001024  -0.0001603  -0.0002931  -0.0001919   0.0000131  -0.0000515
           31          32          33          34          35          36
    1  -0.0000492   0.0002859   0.0000997  -0.0002555   0.0001091   0.0001244
    2   0.0001538  -0.0010220  -0.0006150  -0.0000669  -0.0000232   0.0000678
    3   0.0000483  -0.0001019  -0.0000072  -0.0003135  -0.0000192   0.0001765
           37          38
    1  -0.0002224   0.0000683
    2  -0.0000176   0.0000964
    3   0.0003245   0.0002133
 Max gradient component =       4.311E-03
 RMS gradient           =       6.653E-04
 Gradient time:  CPU 2509.44 s  wall 160.91 s
 Geometry Optimization Parameters
   NAtoms,    NIC,     NZ,  NCons,   NDum,   NFix, NCnnct, MaxDiis
       38     289       0       3       0       0       0       0

 Cartesian Hessian Update
 Hessian Updated using BFGS Update


** CONSTRAINED OPTIMIZATION IN DELOCALIZED INTERNAL COORDINATES **
   Searching for a Minimum

   Optimization Cycle:   2

                       Coordinates (Angstroms)
     ATOM                X               Y               Z
      1  C        -8.0423065805   -1.4292623596    0.4630069794
      2  C        -7.4747494754   -1.2090871377   -0.7827555704
      3  C        -7.2508806438   -1.3690698299    1.5992618543
      4  C        -6.1258078378   -0.9140651728   -0.8886928347
      5  C        -5.9004282388   -1.0776137425    1.4936676378
      6  C        -5.3277332601   -0.8399535552    0.2492614154
      7  C        -3.8966936451   -0.4793998135    0.1337738868
      8  C        -2.8978090050   -1.4036464739    0.2593362163
      9  C        -3.4663605289    0.8476415598   -0.1276268773
     10  N        -1.5690280082   -1.1453730863    0.1653288486
     11  N        -4.2418692715    1.9208612890   -0.2950696309
     12  C        -2.0685930399    1.1374010628   -0.2299027570
     13  C        -1.1350491337    0.0632898463   -0.0686332542
     14  S        -3.2398030274    3.1539638452   -0.5567320573
     15  N        -1.8137491104    2.4232007160   -0.4751165084
     16  C         0.3153917202    0.2319213267   -0.1599109449
     17  N         0.9500241830    1.3537393067   -0.3001455738
     18  S         1.3341120096   -1.1743629426   -0.0768308068
     19  C         2.2897344693    1.1512467764   -0.3627444621
     20  C         2.7079611633   -0.1482048796   -0.2693883338
     21  C         4.0707400589   -0.6335519378   -0.2711068276
     22  S         4.5047307995   -2.1902882527   -0.8903851481
     23  C         5.2021048115   -0.0018199669    0.1702780804
     24  C         6.1640538034   -1.9871194295   -0.5388604097
     25  S         5.5188428141    1.5357181338    0.9259620233
     26  C         6.3987769659   -0.7645141674    0.0250905148
     27  C         7.2212810421    1.1391464800    1.0360545465
     28  C         7.5480118067   -0.0642427105    0.5393218220
     29  H        -9.0980719315   -1.6466898314    0.5491725059
     30  H        -8.0822564362   -1.2637323273   -1.6757072513
     31  H        -7.6876186685   -1.5407940606    2.5737521685
     32  H        -5.6804768966   -0.7510622375   -1.8612799149
     33  H        -5.2848076699   -1.0307010527    2.3822512185
     34  H        -3.1517395600   -2.4395988729    0.4464230263
     35  H         2.9498961638    1.9947593064   -0.5004127232
     36  H         6.8683036951   -2.7708584156   -0.7583634532
     37  H         7.8850135631    1.8582058978    1.4879470248
     38  H         8.5524225485   -0.4580179198    0.5391284493
   Point Group: c1    Number of degrees of freedom:   108


   Energy is  -2579.859692254

              Constraints and their Current Values
                                        Value     Constraint
   Dihedral:        4   6   7   8     -105.000     -105.000
   Dihedral:       10  13  16  18        4.632        4.632
   Dihedral:       18  20  21  22       32.716       32.716
 Hessian Updated using BFGS Update

   Using Lagrange Multiplier Algorithm


107 Hessian modes will be used to form the next step
  Hessian Eigenvalues:
    -0.977520    0.027960    0.045000    0.045000    0.045000    0.045000
     0.045000    0.045000    0.045000    0.045000    0.045000    0.045000
     0.045000    0.045000    0.045001    0.045001    0.045001    0.045002
     0.045002    0.045003    0.045003    0.045004    0.045004    0.045005
     0.045006    0.045007    0.045008    0.045010    0.045021    0.045030
     0.045035    0.045043    0.046362    0.158747    0.159969    0.159980
     0.159981    0.159986    0.159991    0.159994    0.159997    0.159999
     0.160484    0.218064    0.220012    0.225214    0.225955    0.233933
     0.234981    0.237026    0.242344    0.247653    0.249739    0.249772
     0.249793    0.249983    0.249989    0.249992    0.249994    0.249999
     0.249999    0.250000    0.257716    0.296211    0.304498    0.308355
     0.315648    0.324393    0.337401    0.350393    0.356889    0.357298
     0.357321    0.357484    0.358195    0.358487    0.359864    0.361600
     0.362487    0.365177    0.365885    0.371038    0.381455    0.386871
     0.389564    0.393554    0.421259    0.430023    0.436003    0.471642
     0.472722    0.474719    0.478973    0.480246    0.482737    0.483898
     0.487105    0.499196    0.509465    0.519824    0.524657    0.543238
     0.556271    0.579763    0.638944    0.653904    1.023097

 Minimum Search - Taking P-RFO Step
 Searching for Lamda that Maximizes Along the Constraint modes Only
 Value Taken    Lamda =   0.00000019
 Searching for Lamda that Minimizes Along All other modes
 Value Taken    Lamda =  -0.00036547
 Step Taken.  Stepsize is  0.107500

                             Maximum     Tolerance    Cnvgd?
         Gradient            0.001262       0.000300      NO
         Displacement        0.035271       0.001200      NO
         Energy change     -0.000702       0.000001      NO


 New Cartesian Coordinates Obtained by Inverse Iteration

 Displacement from previous Coordinates is:  0.332895
 ----------------------------------------------------------------
             Standard Nuclear Orientation (Angstroms)
    I     Atom           X                Y                Z
 ----------------------------------------------------------------
    1      C      -8.0395160424    -1.4463029254     0.4500049825
    2      C      -7.4762361115    -1.1907140719    -0.7915167916
    3      C      -7.2518885691    -1.3939493113     1.5885756492
    4      C      -6.1318702694    -0.8751705445    -0.8927196402
    5      C      -5.9056175503    -1.0777016425     1.4879564020
    6      C      -5.3372270979    -0.8147190014     0.2472586784
    7      C      -3.8978967507    -0.4766527065     0.1418977921
    8      C      -2.9058612867    -1.4040194982     0.2700095091
    9      C      -3.4636058168     0.8493880374    -0.1234416635
   10      N      -1.5750473477    -1.1470289876     0.1784266337
   11      N      -4.2382819299     1.9226963897    -0.2970012813
   12      C      -2.0661674810     1.1374630211    -0.2278197039
   13      C      -1.1375802479     0.0593171512    -0.0600692591
   14      S      -3.2348259959     3.1529602712    -0.5662468083
   15      N      -1.8094072928     2.4218406207    -0.4807460703
   16      C       0.3140939472     0.2232604161    -0.1437701094
   17      N       0.9515320421     1.3426028440    -0.2922511276
   18      S       1.3303943612    -1.1833713486    -0.0467217733
   19      C       2.2907772270     1.1368573366    -0.3500034785
   20      C       2.7068225165    -0.1626700388    -0.2452779257
   21      C       4.0697186367    -0.6477600787    -0.2446979376
   22      S       4.5048715189    -2.2071172625    -0.8545569060
   23      C       5.2027680273    -0.0065302141     0.1805856989
   24      C       6.1658786810    -1.9942365879    -0.5211078886
   25      S       5.5219511857     1.5411935832     0.9124586128
   26      C       6.4011641707    -0.7653671576     0.0290069338
   27      C       7.2271637793     1.1556950873     1.0031244087
   28      C       7.5535533951    -0.0530021216     0.5186488984
   29      H      -9.0911249688    -1.6854886469     0.5308142200
   30      H      -8.0847381930    -1.2343771820    -1.6842156629
   31      H      -7.6856847552    -1.5934820411     2.5588885784
   32      H      -5.6909977920    -0.6779667522    -1.8608226110
   33      H      -5.2892407309    -1.0359212012     2.3762901513
   34      H      -3.1601172729    -2.4379971236     0.4666433698
   35      H       2.9514487652     1.9787009190    -0.4942429948
   36      H       6.8700472222    -2.7766732826    -0.7458428394
   37      H       7.8964882196     1.8858897353     1.4281732201
   38      H       8.5598294559    -0.4415803131     0.5036616130
 ----------------------------------------------------------------
 Molecular Point Group                 C1    NOp =  1
 Largest Abelian Subgroup              C1    NOp =  1
 Nuclear Repulsion Energy =  2865.6386801694 hartrees
 There are      111 alpha and      111 beta electrons
 Applying Cartesian multipole field
    Component          Value
    ---------          -----
     (2,0,0)        1.00000E-12
     (0,2,0)        2.00000E-11
     (0,0,2)       -3.00000E-11
 Nucleus-field energy     =     0.0000000448 hartrees
 Requested basis set is cc-pVTZ
 There are 348 shells and 996 basis functions
 A cutoff of  1.0D-11 yielded  28547 shell pairs
 There are    226391 function pairs (    295926 Cartesian)
 Smallest overlap matrix eigenvalue = 3.09E-05
 Guess MOs from SCF MO coefficient file
 Reading MOs from coefficient file
 Reading MOs from coefficient file
 Long-range K will be added via erf
 Coulomb attenuation parameter = 0.2 bohr**(-1)
 A restricted hybrid HF-DFT SCF calculation will be
 performed using Pulay DIIS extrapolation
 Exchange:     0.2220 Hartree-Fock + 1.0000 wB97X-D + LR-HF
 Correlation:  1.0000 wB97X-D
 Using SG-2 standard quadrature grid
 Dispersion:   Grimme D
 SCF converges when DIIS error is below 1.0E-08
 Geometry optimization detected.  Setting ReadMinima to 0
 Setting SaveMinima to 0
 using 16 threads for integral computing 
 using 16 threads for integral computing 
 K construction time:  CPU 992.64 s  wall 65.13 s
 -------------------------------------------------------
 OpenMP BLAS3 based DFT computing Module                
 Release: version 1.0, May 2013, Q-Chem Inc. Pittsburgh 
 -------------------------------------------------------
 ---------------------------------------
  Cycle       Energy         DIIS Error
 ---------------------------------------
    1   -2579.8576176569      2.10E-04
 K construction time:  CPU 995.76 s  wall 65.22 s
    2   -2579.8597463728      2.09E-05
 K construction time:  CPU 717.03 s  wall 46.90 s
    3   -2579.8598856017      1.05E-05
 K construction time:  CPU 673.77 s  wall 44.18 s
    4   -2579.8599023239      6.45E-06
 K construction time:  CPU 642.97 s  wall 42.12 s
    5   -2579.8599090223      2.43E-06
 K construction time:  CPU 588.52 s  wall 38.49 s
    6   -2579.8599099377      9.03E-07
 K construction time:  CPU 520.64 s  wall 34.08 s
    7   -2579.8599100612      2.93E-07
 K construction time:  CPU 475.71 s  wall 31.12 s
    8   -2579.8599100794      1.52E-07
 K construction time:  CPU 424.36 s  wall 27.81 s
    9   -2579.8599100832      3.97E-08
 K construction time:  CPU 364.67 s  wall 23.86 s
   10   -2579.8599100850      1.81E-08
 K construction time:  CPU 328.30 s  wall 21.38 s
   11   -2579.8599100862      8.40E-09 Convergence criterion met
 ---------------------------------------
 SCF time:  CPU 9149.91 s  wall 613.75 s
 SCF   energy in the final basis set = -2579.8599100862
 Total energy in the final basis set = -2579.8599100862
 
 --------------------------------------------------------------
 
                    Orbital Energies (a.u.)
 --------------------------------------------------------------
 
 Alpha MOs
 -- Occupied --
-89.148 -89.090 -89.086 -89.078 -14.484 -14.480 -14.453 -14.443
-10.365 -10.362 -10.355 -10.355 -10.343 -10.342 -10.335 -10.333
-10.330 -10.327 -10.323 -10.322 -10.313 -10.310 -10.305 -10.297
-10.296 -10.295 -10.295 -10.294  -8.158  -8.105  -8.102  -8.093
 -6.108  -6.103  -6.102  -6.055  -6.051  -6.051  -6.048  -6.047
 -6.045  -6.043  -6.039  -6.035  -1.145  -1.086  -1.064  -1.023
 -1.009  -0.974  -0.959  -0.924  -0.919  -0.898  -0.876  -0.859
 -0.855  -0.833  -0.828  -0.802  -0.774  -0.742  -0.734  -0.710
 -0.707  -0.693  -0.691  -0.660  -0.651  -0.637  -0.627  -0.614
 -0.606  -0.597  -0.571  -0.563  -0.556  -0.549  -0.543  -0.531
 -0.530  -0.523  -0.514  -0.514  -0.507  -0.504  -0.498  -0.484
 -0.477  -0.475  -0.466  -0.455  -0.446  -0.441  -0.437  -0.434
 -0.426  -0.423  -0.421  -0.399  -0.393  -0.371  -0.368  -0.361
 -0.355  -0.353  -0.339  -0.336  -0.325  -0.313  -0.273
 -- Virtual --
 -0.048   0.002   0.030   0.045   0.051   0.063   0.064   0.070
  0.085   0.089   0.105   0.113   0.117   0.124   0.130   0.138
  0.141   0.145   0.149   0.151   0.159   0.164   0.165   0.178
  0.186   0.188   0.192   0.199   0.217   0.220   0.229   0.235
  0.239   0.248   0.257   0.265   0.274   0.280   0.283   0.291
  0.294   0.302   0.303   0.304   0.308   0.318   0.322   0.323
  0.330   0.331   0.334   0.343   0.344   0.346   0.352   0.354
  0.359   0.363   0.371   0.373   0.373   0.380   0.384   0.386
  0.388   0.389   0.394   0.397   0.399   0.405   0.407   0.412
  0.414   0.418   0.420   0.430   0.431   0.435   0.435   0.442
  0.444   0.445   0.449   0.453   0.455   0.456   0.458   0.463
  0.464   0.467   0.469   0.475   0.479   0.480   0.482   0.482
  0.486   0.497   0.499   0.503   0.508   0.509   0.510   0.517
  0.518   0.525   0.527   0.532   0.536   0.543   0.545   0.552
  0.556   0.558   0.561   0.562   0.567   0.570   0.572   0.576
  0.581   0.587   0.593   0.600   0.613   0.618   0.623   0.628
  0.628   0.635   0.639   0.646   0.651   0.654   0.660   0.666
  0.668   0.678   0.679   0.684   0.692   0.700   0.702   0.710
  0.722   0.723   0.727   0.732   0.737   0.738   0.743   0.750
  0.754   0.760   0.763   0.766   0.769   0.770   0.775   0.779
  0.784   0.791   0.797   0.798   0.805   0.810   0.817   0.827
  0.830   0.835   0.838   0.843   0.848   0.850   0.855   0.859
  0.863   0.864   0.867   0.872   0.878   0.885   0.888   0.895
  0.902   0.907   0.909   0.913   0.922   0.923   0.927   0.934
  0.936   0.944   0.946   0.950   0.960   0.962   0.965   0.973
  0.975   0.979   0.982   0.990   0.993   0.998   1.013   1.019
  1.020   1.029   1.035   1.036   1.047   1.050   1.053   1.054
  1.060   1.065   1.073   1.079   1.085   1.089   1.097   1.104
  1.108   1.116   1.126   1.130   1.134   1.142   1.150   1.154
  1.156   1.162   1.167   1.173   1.182   1.189   1.198   1.206
  1.215   1.219   1.230   1.232   1.239   1.243   1.251   1.252
  1.259   1.266   1.267   1.275   1.284   1.292   1.298   1.305
  1.318   1.324   1.332   1.349   1.350   1.355   1.361   1.367
  1.368   1.372   1.379   1.381   1.395   1.404   1.408   1.415
  1.421   1.424   1.428   1.434   1.438   1.440   1.449   1.453
  1.458   1.464   1.469   1.473   1.479   1.481   1.484   1.491
  1.496   1.500   1.513   1.519   1.526   1.539   1.547   1.549
  1.559   1.563   1.573   1.577   1.586   1.594   1.602   1.605
  1.610   1.618   1.628   1.630   1.642   1.647   1.651   1.653
  1.659   1.662   1.671   1.673   1.683   1.686   1.693   1.695
  1.702   1.708   1.715   1.720   1.731   1.736   1.739   1.747
  1.749   1.762   1.770   1.777   1.781   1.789   1.798   1.803
  1.827   1.837   1.840   1.852   1.854   1.876   1.882   1.886
  1.890   1.903   1.904   1.912   1.927   1.930   1.936   1.939
  1.941   1.955   1.966   1.974   1.983   1.983   1.999   2.010
  2.011   2.022   2.025   2.026   2.031   2.038   2.043   2.064
  2.068   2.082   2.085   2.091   2.093   2.104   2.124   2.133
  2.135   2.148   2.150   2.157   2.163   2.166   2.175   2.181
  2.200   2.204   2.206   2.208   2.219   2.233   2.241   2.243
  2.248   2.259   2.259   2.265   2.270   2.274   2.284   2.294
  2.302   2.311   2.321   2.330   2.345   2.345   2.352   2.356
  2.367   2.371   2.388   2.390   2.399   2.402   2.411   2.422
  2.427   2.442   2.446   2.454   2.455   2.463   2.470   2.476
  2.482   2.489   2.492   2.500   2.504   2.506   2.506   2.522
  2.529   2.535   2.538   2.551   2.556   2.561   2.575   2.589
  2.592   2.601   2.606   2.608   2.610   2.625   2.628   2.639
  2.641   2.654   2.667   2.670   2.673   2.686   2.697   2.713
  2.726   2.729   2.739   2.743   2.751   2.762   2.769   2.773
  2.776   2.782   2.787   2.790   2.791   2.798   2.800   2.807
  2.809   2.825   2.831   2.833   2.839   2.845   2.853   2.860
  2.865   2.888   2.892   2.895   2.901   2.904   2.913   2.917
  2.924   2.934   2.945   2.954   2.958   2.967   2.976   2.977
  2.979   2.982   2.991   2.993   2.999   3.010   3.016   3.019
  3.023   3.024   3.031   3.038   3.046   3.048   3.054   3.058
  3.062   3.063   3.072   3.076   3.083   3.085   3.087   3.096
  3.099   3.103   3.107   3.111   3.115   3.121   3.126   3.133
  3.138   3.144   3.146   3.153   3.155   3.163   3.164   3.167
  3.171   3.173   3.182   3.183   3.185   3.192   3.197   3.202
  3.212   3.216   3.220   3.224   3.228   3.230   3.235   3.241
  3.249   3.254   3.257   3.262   3.271   3.275   3.281   3.286
  3.287   3.293   3.298   3.306   3.312   3.314   3.319   3.321
  3.329   3.333   3.337   3.344   3.345   3.350   3.356   3.362
  3.369   3.372   3.375   3.381   3.392   3.396   3.398   3.405
  3.412   3.423   3.433   3.441   3.443   3.448   3.452   3.457
  3.462   3.464   3.467   3.470   3.477   3.481   3.486   3.491
  3.504   3.507   3.511   3.516   3.522   3.535   3.547   3.549
  3.552   3.558   3.562   3.567   3.571   3.576   3.581   3.586
  3.597   3.605   3.607   3.623   3.630   3.658   3.664   3.675
  3.682   3.696   3.700   3.704   3.711   3.727   3.732   3.741
  3.745   3.760   3.766   3.768   3.770   3.777   3.784   3.790
  3.795   3.805   3.815   3.824   3.839   3.842   3.857   3.858
  3.861   3.862   3.866   3.873   3.877   3.882   3.884   3.886
  3.901   3.911   3.913   3.926   3.936   3.940   3.946   3.953
  3.956   3.965   3.966   3.973   3.975   3.978   3.987   3.995
  3.998   4.004   4.020   4.025   4.043   4.047   4.056   4.070
  4.073   4.077   4.078   4.089   4.102   4.114   4.124   4.135
  4.142   4.146   4.151   4.161   4.167   4.175   4.176   4.188
  4.198   4.203   4.218   4.219   4.236   4.245   4.255   4.262
  4.271   4.280   4.288   4.296   4.304   4.315   4.325   4.328
  4.335   4.338   4.344   4.357   4.365   4.369   4.373   4.388
  4.396   4.406   4.409   4.418   4.425   4.433   4.433   4.437
  4.443   4.445   4.454   4.472   4.485   4.506   4.510   4.517
  4.530   4.548   4.553   4.563   4.575   4.588   4.594   4.602
  4.619   4.620   4.628   4.636   4.650   4.658   4.658   4.674
  4.681   4.716   4.721   4.737   4.747   4.760   4.780   4.782
  4.784   4.820   4.824   4.835   4.838   4.843   4.847   4.856
  4.863   4.865   4.874   4.881   4.894   4.904   4.914   4.927
  4.935   4.953   4.966   4.971   4.985   4.991   4.997   5.000
  5.028   5.044   5.051   5.066   5.068   5.077   5.085   5.093
  5.095   5.111   5.113   5.116   5.122   5.129   5.148   5.163
  5.186   5.193   5.224   5.242   5.247   5.250   5.256   5.271
  5.276   5.306   5.327   5.338   5.361   5.364   5.374   5.381
  5.396   5.435   5.444   5.457   5.508   5.518   5.523   5.541
  5.571   5.591   5.597   5.631   5.643   5.665   5.676   5.694
  5.723   5.735   5.762   5.800   5.825   5.834   5.844   5.873
  5.877   5.965   6.005   6.025   6.030   6.043   6.067   6.095
  6.146   6.155   6.173   6.183   6.200   6.239   6.249   6.289
  6.354   6.479   6.527   6.863   6.947   8.002   8.541   9.292
 10.071  10.657  11.135  11.147  11.681  11.977  12.236  12.605
 12.774  12.828  12.855  12.946  13.160  13.399  13.462  13.708
 13.794  13.946  14.127  14.681  15.721
 --------------------------------------------------------------
 
          Ground-State Mulliken Net Atomic Charges

     Atom                 Charge (a.u.)
  ----------------------------------------
      1 C                    -0.123495
      2 C                    -0.102509
      3 C                    -0.104062
      4 C                    -0.107312
      5 C                    -0.121954
      6 C                     0.067219
      7 C                    -0.041731
      8 C                    -0.079551
      9 C                     0.047451
     10 N                    -0.172665
     11 N                    -0.267381
     12 C                    -0.010689
     13 C                     0.109647
     14 S                     0.411526
     15 N                    -0.223249
     16 C                    -0.009436
     17 N                    -0.136630
     18 S                     0.121306
     19 C                    -0.145791
     20 C                    -0.016829
     21 C                     0.003902
     22 S                     0.134090
     23 C                    -0.051114
     24 C                    -0.219927
     25 S                     0.057793
     26 C                     0.042881
     27 C                    -0.146326
     28 C                    -0.172416
     29 H                     0.117876
     30 H                     0.115919
     31 H                     0.117344
     32 H                     0.116941
     33 H                     0.122356
     34 H                     0.129980
     35 H                     0.146039
     36 H                     0.129856
     37 H                     0.132986
     38 H                     0.127955
  ----------------------------------------
  Sum of atomic charges =     0.000000

 -----------------------------------------------------------------
                    Cartesian Multipole Moments
 -----------------------------------------------------------------
    Charge (ESU x 10^10)
                 0.0000
    Dipole Moment (Debye)
         X       0.8322      Y      -0.9314      Z       0.1230
       Tot       1.2551
    Quadrupole Moments (Debye-Ang)
        XX    -140.2535     XY       0.7217     YY    -181.8456
        XZ       1.5744     YZ       1.3723     ZZ    -182.3585
    Octopole Moments (Debye-Ang^2)
       XXX     163.1893    XXY     -57.3534    XYY      28.4964
       YYY      33.3262    XXZ      22.4783    XYZ      30.5956
       YYZ      -4.2838    XZZ     -43.5111    YZZ       4.6022
       ZZZ      -4.2920
    Hexadecapole Moments (Debye-Ang^3)
      XXXX  -21312.0216   XXXY     293.2654   XXYY   -4420.5958
      XYYY    -218.8117   YYYY   -2658.5776   XXXZ     207.0255
      XXYZ     104.5796   XYYZ      -3.7306   YYYZ      19.8690
      XXZZ   -4180.5147   XYZZ      37.1093   YYZZ    -571.4054
      XZZZ     -36.6455   YZZZ      -3.2998   ZZZZ    -698.6589
 -----------------------------------------------------------------
 Calculating analytic gradient of the SCF energy
 K construction time:  CPU 2099.41 s  wall 133.06 s
 Gradient of SCF Energy
            1           2           3           4           5           6
    1   0.0001874   0.0000018  -0.0002799   0.0003069   0.0000982  -0.0012095
    2   0.0000258  -0.0001059  -0.0003764  -0.0008504   0.0013004   0.0010457
    3   0.0000363  -0.0001416   0.0000607  -0.0000352  -0.0001251  -0.0007670
            7           8           9          10          11          12
    1   0.0012122   0.0000738  -0.0006590  -0.0000828  -0.0000468   0.0001816
    2  -0.0001737  -0.0002457  -0.0003771  -0.0003139   0.0000491  -0.0002409
    3   0.0019095  -0.0018965   0.0006928   0.0005984  -0.0000323  -0.0001594
           13          14          15          16          17          18
    1  -0.0001491   0.0000918  -0.0000359  -0.0000745   0.0000202   0.0000041
    2   0.0004486  -0.0000772   0.0003177   0.0001597  -0.0000438   0.0001005
    3  -0.0006610  -0.0000026   0.0000507   0.0003959   0.0001940   0.0002811
           19          20          21          22          23          24
    1   0.0000964   0.0000076  -0.0000574   0.0001578   0.0000418  -0.0000867
    2  -0.0001513  -0.0000763  -0.0001386   0.0001918   0.0000876   0.0000503
    3  -0.0000081  -0.0010178   0.0006357  -0.0004353   0.0002321   0.0002614
           25          26          27          28          29          30
    1  -0.0000434   0.0000624  -0.0000471   0.0000320  -0.0000236   0.0000596
    2  -0.0001012   0.0000703   0.0000961  -0.0000336   0.0001523   0.0000069
    3  -0.0000058  -0.0003840  -0.0000979   0.0001944   0.0001304   0.0000674
           31          32          33          34          35          36
    1   0.0000097   0.0001186   0.0001668  -0.0000367  -0.0000798   0.0000113
    2   0.0000231  -0.0003687  -0.0002972  -0.0000029   0.0000174  -0.0000453
    3  -0.0000157  -0.0000533  -0.0000116   0.0001645  -0.0000200  -0.0000798
           37          38
    1  -0.0000105  -0.0000191
    2  -0.0000582  -0.0000649
    3   0.0000830  -0.0000382
 Max gradient component =       1.910E-03
 RMS gradient           =       4.191E-04
 Gradient time:  CPU 2518.22 s  wall 161.40 s
 Geometry Optimization Parameters
   NAtoms,    NIC,     NZ,  NCons,   NDum,   NFix, NCnnct, MaxDiis
       38     289       0       3       0       0       0       0

 Cartesian Hessian Update
 Hessian Updated using BFGS Update


** CONSTRAINED OPTIMIZATION IN DELOCALIZED INTERNAL COORDINATES **
   Searching for a Minimum

   Optimization Cycle:   3

                       Coordinates (Angstroms)
     ATOM                X               Y               Z
      1  C        -8.0395160424   -1.4463029254    0.4500049825
      2  C        -7.4762361115   -1.1907140719   -0.7915167916
      3  C        -7.2518885691   -1.3939493113    1.5885756492
      4  C        -6.1318702694   -0.8751705445   -0.8927196402
      5  C        -5.9056175503   -1.0777016425    1.4879564020
      6  C        -5.3372270979   -0.8147190014    0.2472586784
      7  C        -3.8978967507   -0.4766527065    0.1418977921
      8  C        -2.9058612867   -1.4040194982    0.2700095091
      9  C        -3.4636058168    0.8493880374   -0.1234416635
     10  N        -1.5750473477   -1.1470289876    0.1784266337
     11  N        -4.2382819299    1.9226963897   -0.2970012813
     12  C        -2.0661674810    1.1374630211   -0.2278197039
     13  C        -1.1375802479    0.0593171512   -0.0600692591
     14  S        -3.2348259959    3.1529602712   -0.5662468083
     15  N        -1.8094072928    2.4218406207   -0.4807460703
     16  C         0.3140939472    0.2232604161   -0.1437701094
     17  N         0.9515320421    1.3426028440   -0.2922511276
     18  S         1.3303943612   -1.1833713486   -0.0467217733
     19  C         2.2907772270    1.1368573366   -0.3500034785
     20  C         2.7068225165   -0.1626700388   -0.2452779257
     21  C         4.0697186367   -0.6477600787   -0.2446979376
     22  S         4.5048715189   -2.2071172625   -0.8545569060
     23  C         5.2027680273   -0.0065302141    0.1805856989
     24  C         6.1658786810   -1.9942365879   -0.5211078886
     25  S         5.5219511857    1.5411935832    0.9124586128
     26  C         6.4011641707   -0.7653671576    0.0290069338
     27  C         7.2271637793    1.1556950873    1.0031244087
     28  C         7.5535533951   -0.0530021216    0.5186488984
     29  H        -9.0911249688   -1.6854886469    0.5308142200
     30  H        -8.0847381930   -1.2343771820   -1.6842156629
     31  H        -7.6856847552   -1.5934820411    2.5588885784
     32  H        -5.6909977920   -0.6779667522   -1.8608226110
     33  H        -5.2892407309   -1.0359212012    2.3762901513
     34  H        -3.1601172729   -2.4379971236    0.4666433698
     35  H         2.9514487652    1.9787009190   -0.4942429948
     36  H         6.8700472222   -2.7766732826   -0.7458428394
     37  H         7.8964882196    1.8858897353    1.4281732201
     38  H         8.5598294559   -0.4415803131    0.5036616130
   Point Group: c1    Number of degrees of freedom:   108


   Energy is  -2579.859910086

              Constraints and their Current Values
                                        Value     Constraint
   Dihedral:        4   6   7   8     -105.000     -105.000
   Dihedral:       10  13  16  18        4.632        4.632
   Dihedral:       18  20  21  22       32.716       32.716
 Hessian Updated using BFGS Update

 97 Hessian modes will be used to form the next step
  Hessian Eigenvalues:
[...]
     32  H        -5.6888545921   -0.5522036884   -1.8349599398
     33  H        -5.3065023288   -1.0856502728    2.3858533925
     34  H        -3.1823540828   -2.3858074952    0.5035755358
     35  H         2.9620830592    1.9694391655   -0.5166008925
     36  H         6.8364618034   -2.8262110401   -0.6763815257
     37  H         7.9266482670    1.9024412590    1.3141971191
     38  H         8.5587694229   -0.4633556233    0.4705871157
   Point Group: c1    Number of degrees of freedom:   108


   Energy is  -2579.860030500

              Constraints and their Current Values
                                        Value     Constraint
   Dihedral:        4   6   7   8     -105.000     -105.000
   Dihedral:       10  13  16  18        4.632        4.632
   Dihedral:       18  20  21  22       32.716       32.716
 Hessian Updated using BFGS Update

104 Hessian modes will be used to form the next step
  Hessian Eigenvalues:
     0.008428    0.018840    0.043578    0.045000    0.045000    0.045000
     0.045000    0.045000    0.045000    0.045000    0.045001    0.045001
     0.045002    0.045002    0.045002    0.045003    0.045003    0.045004
     0.045005    0.045006    0.045006    0.045008    0.045008    0.045015
     0.045019    0.045028    0.045031    0.045040    0.045083    0.045779
     0.048343    0.158780    0.159593    0.159974    0.159980    0.159990
     0.159996    0.159998    0.160064    0.160271    0.160491    0.214908
     0.219997    0.221802    0.225255    0.233530    0.235273    0.237198
     0.238509    0.247712    0.248152    0.249664    0.249802    0.249824
     0.249947    0.249994    0.249997    0.250323    0.252745    0.255488
     0.275769    0.296240    0.304481    0.308450    0.315734    0.324123
     0.337511    0.350644    0.356861    0.357315    0.357337    0.357476
     0.358226    0.358498    0.359920    0.361599    0.362492    0.365184
     0.366695    0.371538    0.381578    0.387300    0.389717    0.395439
     0.419306    0.429948    0.435216    0.470905    0.471718    0.474649
     0.479040    0.480677    0.482032    0.484224    0.487010    0.499418
     0.509513    0.519201    0.523268    0.543272    0.556663    0.580904
     0.634176    0.654207

 Minimum Search - Taking Simple RFO Step
 Searching for Lamda that Minimizes Along All modes
 Value Taken    Lamda =   0.00000000
 Step Taken.  Stepsize is  0.002033

                             Maximum     Tolerance    Cnvgd?
         Gradient           0.000058      0.000300     YES
         Displacement       0.000728      0.001200     YES
         Energy change     -0.000001      0.000001     YES

 Final energy is   -2579.86003050025     


 ******************************
 **  OPTIMIZATION CONVERGED  **
 ******************************

                       Coordinates (Angstroms)
     ATOM                X               Y               Z
      1  C        -8.0201738756   -1.5251787821    0.4147817722
      2  C        -7.4578498375   -1.1892450539   -0.8078239622
      3  C        -7.2449314734   -1.4879772180    1.5624571004
      4  C        -6.1266684267   -0.8161380114   -0.8815805152
      5  C        -5.9118597924   -1.1141413944    1.4895342655
      6  C        -5.3445111605   -0.7684418601    0.2683169869
      7  C        -3.9078363340   -0.4195914894    0.1807630263
      8  C        -2.9210947810   -1.3538596195    0.3056596506
      9  C        -3.4639953199    0.8992069848   -0.1072849480
     10  N        -1.5888798538   -1.1074190096    0.2106531870
     11  N        -4.2308963377    1.9755534109   -0.2943915188
     12  C        -2.0647353612    1.1742346206   -0.2242464895
     13  C        -1.1428987305    0.0916961424   -0.0452976195
     14  S        -3.2193271406    3.1931773699   -0.5903290332
     15  N        -1.7992807681    2.4515234120   -0.5006983681
     16  C         0.3100230107    0.2444638037   -0.1257787290
     17  N         0.9564512242    1.3549774538   -0.3004444618
     18  S         1.3141928356   -1.1685056761   -0.0018992469
     19  C         2.2939140389    1.1368076301   -0.3545241234
     20  C         2.6989675207   -0.1639647012   -0.2228585631
     21  C         4.0567636592   -0.6626119297   -0.2066799650
     22  S         4.4740010735   -2.2420428988   -0.7771110501
     23  C         5.1996599970   -0.0168782218    0.1839807745
     24  C         6.1401450333   -2.0322985035   -0.4683930554
     25  S         5.5412705776    1.5548065757    0.8530215911
     26  C         6.3904552257   -0.7895571862    0.0427462608
     27  C         7.2450316555    1.1603024553    0.9314373138
     28  C         7.5551685333   -0.0680364353    0.4876496769
     29  H        -9.0597555025   -1.8177877723    0.4718535531
     30  H        -8.0557215376   -1.2202432060   -1.7083746691
     31  H        -7.6763100522   -1.7534178234    2.5179432334
     32  H        -5.6888545921   -0.5522036884   -1.8349599398
     33  H        -5.3065023288   -1.0856502728    2.3858533925
     34  H        -3.1823540828   -2.3858074952    0.5035755358
     35  H         2.9620830592    1.9694391655   -0.5166008925
     36  H         6.8364618034   -2.8262110401   -0.6763815257
     37  H         7.9266482670    1.9024412590    1.3141971191
     38  H         8.5587694229   -0.4633556233    0.4705871157

Z-matrix Print:
$molecule
0 1
S 
C  1 1.724971
C  2 1.368727 1 109.159022
H  3 1.079812 2 124.341616 1 179.196302 0
N  3 1.356219 2 116.160400 1 0.607643 0
C  5 1.296772 3 111.051475 2 -0.128140 0
C  2 1.446555 1 123.459415 3 -177.639671 0
C  7 1.369598 2 128.604344 1 149.878081 0
C  8 1.426525 7 114.391189 2 178.485625 0
C  9 1.366867 8 112.124557 7 -0.329807 0
H  10 1.076296 9 128.640938 8 179.604537 0
C  9 1.440517 8 111.903923 7 179.095897 0
H  12 1.078788 9 124.316023 8 -179.942168 0
C  12 1.342367 9 111.939825 8 -0.069343 0
H  14 1.077904 12 126.964114 9 179.740579 0
C  6 1.463146 5 126.286926 3 178.754279 0
N  16 1.304717 6 116.499088 5 176.217206 0
C  17 1.358144 16 121.050027 6 179.993468 0
H  18 1.082748 17 114.987045 16 -178.960814 0
C  18 1.364593 17 125.356546 16 1.458961 0
C  20 1.420984 18 115.347607 17 -1.764324 0
N  21 1.334791 20 126.680098 18 -178.914407 0
C  21 1.430821 20 120.027942 18 1.024039 0
N  23 1.333551 21 113.310931 20 -179.788007 0
C  20 1.481012 18 122.328741 17 -178.673619 0
C  25 1.390239 20 120.422964 18 -71.901878 0
H  26 1.081969 25 119.526301 20 -2.632211 0
C  26 1.386417 25 120.374187 20 177.625976 0
H  28 1.081434 26 119.749120 25 179.904900 0
C  28 1.385476 26 120.111859 25 -0.291025 0
H  30 1.081484 28 120.094029 26 -179.938830 0
C  30 1.387020 28 119.789467 26 -0.101241 0
H  32 1.081389 30 120.196618 28 -179.728760 0
C  32 1.384447 30 120.135910 28 0.085743 0
H  34 1.081792 32 120.122060 30 179.873615 0
S  24 1.604561 23 106.148474 21 -0.128117 0
S  10 1.707435 9 110.977297 8 -0.316099 0
S  8 1.741983 7 134.313143 2 -2.766708 0
$end

 
 --------------------------------------------------------------
 
                    Orbital Energies (a.u.)
 --------------------------------------------------------------
 
 Alpha MOs
 -- Occupied --
-89.148 -89.090 -89.086 -89.078 -14.484 -14.480 -14.453 -14.443
-10.365 -10.362 -10.356 -10.355 -10.343 -10.342 -10.335 -10.333
-10.330 -10.327 -10.323 -10.322 -10.313 -10.311 -10.305 -10.297
-10.296 -10.295 -10.295 -10.294  -8.158  -8.105  -8.102  -8.093
 -6.108  -6.103  -6.102  -6.055  -6.051  -6.050  -6.048  -6.047
 -6.045  -6.043  -6.039  -6.035  -1.145  -1.086  -1.064  -1.023
 -1.009  -0.974  -0.959  -0.924  -0.920  -0.898  -0.876  -0.860
 -0.855  -0.833  -0.828  -0.802  -0.774  -0.742  -0.734  -0.711
 -0.707  -0.693  -0.691  -0.660  -0.651  -0.637  -0.627  -0.614
 -0.606  -0.597  -0.571  -0.563  -0.556  -0.549  -0.543  -0.531
 -0.530  -0.523  -0.514  -0.514  -0.507  -0.504  -0.498  -0.484
 -0.477  -0.475  -0.466  -0.455  -0.447  -0.441  -0.437  -0.434
 -0.427  -0.423  -0.421  -0.399  -0.393  -0.371  -0.368  -0.361
 -0.355  -0.353  -0.339  -0.336  -0.325  -0.312  -0.273
 -- Virtual --
 -0.048   0.001   0.030   0.045   0.051   0.062   0.064   0.069
  0.085   0.089   0.105   0.113   0.117   0.124   0.130   0.138
  0.141   0.145   0.149   0.152   0.159   0.164   0.165   0.178
  0.185   0.188   0.192   0.199   0.218   0.220   0.229   0.236
  0.239   0.249   0.257   0.265   0.274   0.281   0.283   0.291
  0.294   0.301   0.304   0.305   0.308   0.319   0.322   0.322
  0.330   0.331   0.334   0.343   0.345   0.346   0.352   0.354
  0.359   0.363   0.371   0.373   0.374   0.380   0.384   0.386
  0.388   0.389   0.394   0.397   0.399   0.405   0.407   0.412
  0.414   0.418   0.421   0.430   0.431   0.435   0.436   0.442
  0.444   0.446   0.449   0.453   0.455   0.456   0.459   0.463
  0.465   0.467   0.469   0.476   0.478   0.480   0.482   0.482
  0.486   0.498   0.499   0.503   0.507   0.509   0.510   0.517
  0.518   0.524   0.527   0.532   0.536   0.543   0.545   0.552
  0.555   0.557   0.560   0.563   0.567   0.568   0.571   0.576
  0.582   0.588   0.593   0.600   0.613   0.618   0.623   0.628
  0.629   0.634   0.638   0.647   0.652   0.654   0.660   0.666
  0.669   0.679   0.680   0.683   0.692   0.699   0.702   0.711
  0.721   0.724   0.728   0.732   0.737   0.739   0.743   0.750
  0.754   0.761   0.763   0.766   0.768   0.770   0.776   0.778
  0.783   0.792   0.797   0.798   0.804   0.808   0.817   0.825
  0.829   0.835   0.839   0.843   0.847   0.851   0.856   0.861
  0.864   0.866   0.869   0.871   0.878   0.884   0.887   0.895
  0.902   0.907   0.910   0.914   0.922   0.924   0.927   0.934
  0.935   0.945   0.946   0.951   0.960   0.962   0.965   0.970
  0.975   0.978   0.983   0.991   0.992   0.998   1.011   1.019
  1.021   1.030   1.035   1.036   1.047   1.051   1.053   1.054
  1.059   1.066   1.072   1.079   1.085   1.090   1.097   1.104
  1.106   1.117   1.126   1.130   1.135   1.142   1.149   1.151
  1.154   1.163   1.167   1.173   1.183   1.189   1.198   1.206
  1.216   1.220   1.230   1.231   1.240   1.244   1.251   1.252
  1.259   1.264   1.269   1.276   1.281   1.292   1.297   1.305
  1.317   1.323   1.331   1.349   1.350   1.354   1.360   1.367
  1.368   1.370   1.378   1.381   1.395   1.404   1.409   1.415
  1.421   1.425   1.425   1.433   1.438   1.439   1.447   1.451
  1.458   1.463   1.469   1.471   1.475   1.481   1.485   1.490
  1.494   1.500   1.516   1.519   1.528   1.538   1.545   1.549
  1.561   1.564   1.573   1.577   1.587   1.594   1.602   1.604
  1.610   1.616   1.626   1.629   1.643   1.648   1.648   1.653
  1.659   1.662   1.671   1.672   1.684   1.685   1.693   1.694
  1.702   1.709   1.714   1.719   1.731   1.735   1.739   1.747
  1.750   1.761   1.772   1.776   1.780   1.790   1.799   1.805
  1.828   1.835   1.841   1.848   1.854   1.875   1.882   1.886
  1.890   1.901   1.905   1.912   1.928   1.929   1.935   1.939
  1.939   1.955   1.966   1.974   1.983   1.983   2.000   2.011
  2.012   2.021   2.024   2.026   2.031   2.038   2.044   2.063
  2.068   2.083   2.085   2.091   2.094   2.104   2.124   2.133
  2.135   2.144   2.148   2.158   2.160   2.165   2.174   2.181
  2.200   2.202   2.204   2.208   2.219   2.232   2.241   2.243
  2.246   2.258   2.260   2.264   2.273   2.276   2.285   2.294
  2.301   2.311   2.320   2.330   2.342   2.345   2.353   2.356
  2.367   2.372   2.388   2.392   2.399   2.403   2.411   2.425
  2.430   2.441   2.447   2.455   2.455   2.465   2.475   2.476
  2.482   2.488   2.492   2.500   2.502   2.504   2.505   2.519
  2.528   2.534   2.544   2.553   2.556   2.561   2.572   2.587
  2.591   2.601   2.606   2.608   2.609   2.625   2.628   2.638
  2.640   2.655   2.668   2.671   2.672   2.687   2.695   2.713
  2.727   2.727   2.738   2.744   2.751   2.761   2.765   2.768
  2.775   2.782   2.786   2.790   2.793   2.796   2.801   2.807
  2.809   2.826   2.831   2.834   2.840   2.844   2.851   2.859
  2.863   2.888   2.891   2.894   2.899   2.905   2.913   2.917
  2.924   2.932   2.943   2.955   2.958   2.966   2.977   2.978
  2.980   2.982   2.990   2.994   2.999   3.007   3.015   3.017
  3.024   3.028   3.030   3.038   3.046   3.048   3.054   3.058
  3.062   3.063   3.073   3.076   3.084   3.085   3.088   3.097
  3.099   3.103   3.106   3.113   3.116   3.122   3.125   3.133
  3.139   3.143   3.148   3.153   3.156   3.161   3.163   3.167
  3.170   3.173   3.182   3.183   3.187   3.191   3.197   3.202
  3.211   3.216   3.220   3.224   3.227   3.229   3.236   3.241
  3.248   3.254   3.255   3.260   3.272   3.274   3.281   3.285
  3.287   3.294   3.298   3.305   3.311   3.316   3.320   3.321
  3.329   3.332   3.337   3.345   3.345   3.347   3.355   3.361
  3.368   3.372   3.375   3.381   3.393   3.395   3.399   3.405
  3.411   3.423   3.432   3.440   3.442   3.448   3.452   3.458
  3.462   3.464   3.467   3.473   3.477   3.481   3.486   3.490
  3.502   3.506   3.511   3.515   3.522   3.533   3.546   3.548
  3.549   3.559   3.562   3.568   3.572   3.575   3.582   3.584
  3.598   3.605   3.608   3.623   3.629   3.655   3.663   3.677
  3.684   3.692   3.700   3.704   3.710   3.730   3.732   3.743
  3.747   3.760   3.766   3.768   3.771   3.778   3.784   3.790
  3.794   3.805   3.814   3.824   3.838   3.841   3.856   3.858
  3.860   3.861   3.867   3.871   3.879   3.881   3.883   3.887
  3.898   3.908   3.915   3.925   3.937   3.940   3.946   3.951
  3.958   3.966   3.967   3.974   3.975   3.978   3.987   3.993
  3.998   4.005   4.019   4.024   4.043   4.048   4.055   4.070
  4.074   4.076   4.078   4.088   4.104   4.116   4.125   4.135
  4.140   4.148   4.150   4.159   4.167   4.175   4.177   4.188
  4.197   4.204   4.220   4.220   4.236   4.245   4.258   4.262
  4.272   4.281   4.284   4.294   4.301   4.315   4.323   4.325
  4.331   4.336   4.346   4.356   4.365   4.369   4.373   4.388
  4.397   4.404   4.409   4.416   4.426   4.430   4.433   4.437
  4.443   4.445   4.454   4.471   4.486   4.508   4.511   4.516
  4.529   4.549   4.553   4.562   4.573   4.588   4.594   4.601
  4.616   4.617   4.628   4.638   4.651   4.658   4.661   4.672
  4.680   4.716   4.722   4.733   4.748   4.760   4.779   4.781
  4.784   4.820   4.826   4.834   4.837   4.843   4.846   4.856
  4.862   4.867   4.874   4.881   4.894   4.903   4.912   4.926
  4.936   4.953   4.966   4.972   4.985   4.990   4.997   5.000
  5.028   5.044   5.050   5.066   5.068   5.077   5.085   5.095
  5.095   5.112   5.115   5.116   5.121   5.127   5.150   5.163
  5.186   5.193   5.224   5.242   5.246   5.250   5.257   5.271
  5.277   5.305   5.325   5.336   5.361   5.364   5.375   5.381
  5.395   5.434   5.444   5.458   5.510   5.519   5.522   5.542
  5.571   5.590   5.597   5.630   5.640   5.665   5.675   5.694
  5.724   5.737   5.762   5.799   5.823   5.832   5.842   5.873
  5.877   5.965   6.003   6.026   6.032   6.043   6.065   6.097
  6.144   6.155   6.174   6.182   6.201   6.238   6.249   6.289
  6.356   6.482   6.527   6.862   6.946   8.010   8.546   9.294
 10.072  10.659  11.127  11.147  11.683  11.979  12.212  12.607
 12.754  12.838  12.860  12.946  13.153  13.399  13.461  13.727
 13.798  13.947  14.139  14.681  15.717
 --------------------------------------------------------------
 
          Ground-State Mulliken Net Atomic Charges

     Atom                 Charge (a.u.)
  ----------------------------------------
      1 C                    -0.123936
      2 C                    -0.103303
      3 C                    -0.103001
      4 C                    -0.108128
      5 C                    -0.129136
      6 C                     0.073355
      7 C                    -0.037984
      8 C                    -0.080292
      9 C                     0.044760
     10 N                    -0.172443
     11 N                    -0.267763
     12 C                    -0.010800
     13 C                     0.109632
     14 S                     0.411516
     15 N                    -0.223276
     16 C                    -0.009305
     17 N                    -0.136419
     18 S                     0.121410
     19 C                    -0.146795
     20 C                    -0.015310
     21 C                     0.005414
     22 S                     0.134284
     23 C                    -0.053500
     24 C                    -0.221007
     25 S                     0.057396
     26 C                     0.044385
     27 C                    -0.146445
     28 C                    -0.172034
     29 H                     0.117964
     30 H                     0.115611
     31 H                     0.117220
     32 H                     0.117629
     33 H                     0.123109
     34 H                     0.130805
     35 H                     0.145633
     36 H                     0.129989
     37 H                     0.132836
     38 H                     0.127929
  ----------------------------------------
  Sum of atomic charges =     0.000000

 -----------------------------------------------------------------
                    Cartesian Multipole Moments
 -----------------------------------------------------------------
    Charge (ESU x 10^10)
                 0.0000
    Dipole Moment (Debye)
         X       0.8554      Y      -0.9909      Z       0.0798
       Tot       1.3115
    Quadrupole Moments (Debye-Ang)
        XX    -140.3916     XY       1.2302     YY    -181.3997
        XZ       1.6025     YZ       0.8772     ZZ    -182.6971
    Octopole Moments (Debye-Ang^2)
       XXX     169.0586    XXY     -63.2792    XYY      27.9873
       YYY      28.8163    XXZ      17.2064    XYZ      31.2180
       YYZ      -4.6182    XZZ     -44.4802    YZZ       2.9845
       ZZZ      -7.9426
    Hexadecapole Moments (Debye-Ang^3)
      XXXX  -21303.7259   XXXY     360.2987   XXYY   -4390.6575
      XYYY    -210.0055   YYYY   -2716.4656   XXXZ     207.1367
      XXYZ      86.6691   XYYZ     -11.2382   YYYZ      42.0612
      XXZZ   -4189.6750   XYZZ      38.4932   YYZZ    -577.9800
      XZZZ     -43.0025   YZZZ      19.3621   ZZZZ    -672.6828
 -----------------------------------------------------------------
Archival summary:
1\1\mn456\OPT\ProcedureUnspecified\BasisUnspecified\442010\afmv_a\TueJun605:08:382017TueJun605:08:382017\0\\#,OPT,ProcedureUnspecified,BasisUnspecified,\\0,1\S\C,1,1.72497\C,2,1.36873,1,109.159\H,3,1.07981,2,124.342,1,179.196,0\N,3,1.35622,2,116.16,1,0.607643,0\C,5,1.29677,3,111.051,2,-0.12814,0\C,2,1.44655,1,123.459,3,-177.64,0\C,7,1.3696,2,128.604,1,149.878,0\C,8,1.42652,7,114.391,2,178.486,0\C,9,1.36687,8,112.125,7,-0.329807,0\H,10,1.0763,9,128.641,8,179.605,0\C,9,1.44052,8,111.904,7,179.096,0\H,12,1.07879,9,124.316,8,-179.942,0\C,12,1.34237,9,111.94,8,-0.069343,0\H,14,1.0779,12,126.964,9,179.741,0\C,6,1.46315,5,126.287,3,178.754,0\N,16,1.30472,6,116.499,5,176.217,0\C,17,1.35814,16,121.05,6,179.993,0\H,18,1.08275,17,114.987,16,-178.961,0\C,18,1.36459,17,125.357,16,1.45896,0\C,20,1.42098,18,115.348,17,-1.76432,0\N,21,1.33479,20,126.68,18,-178.914,0\C,21,1.43082,20,120.028,18,1.02404,0\N,23,1.33355,21,113.311,20,-179.788,0\C,20,1.48101,18,122.329,17,-178.674,0\C,25,1.39024,20,120.423,18,-71.9019,0\H,26,1.08197,25,119.526,20,-2.63221,0\C,26,1.38642,25,120.374,20,177.626,0\H,28,1.08143,26,119.749,25,179.905,0\C,28,1.38548,26,120.112,25,-0.291025,0\H,30,1.08148,28,120.094,26,-179.939,0\C,30,1.38702,28,119.789,26,-0.101241,0\H,32,1.08139,30,120.197,28,-179.729,0\C,32,1.38445,30,120.136,28,0.0857433,0\H,34,1.08179,32,120.122,30,179.874,0\S,24,1.60456,23,106.148,21,-0.128117,0\S,10,1.70744,9,110.977,8,-0.316099,0\S,8,1.74198,7,134.313,2,-2.76671,0\\\@

 Total job time:  6309.68s(wall), 94724.75s(cpu) 
 Tue Jun  6 05:08:38 2017

        *************************************************************
        *                                                           *
        *  Thank you very much for using Q-Chem.  Have a nice day.  *
        *                                                           *
        *************************************************************


