
Running Job 1 of 1 ./6/1.qcin
qchem ./6/1.qcin_35412.0 /tmpu/cab_g/afmv_a/scratch_qchem/qchem35412/ 1
/tmpu/appuserlic/qchem4.4/serial-multicore/exe/qcprog.exe_s ./6/1.qcin_35412.0 /tmpu/cab_g/afmv_a/scratch_qchem/qchem35412/
Check license passed

                  Welcome to Q-Chem
     A Quantum Leap Into The Future Of Chemistry


 Q-Chem 4.4, Q-Chem, Inc., Pleasanton, CA (2016)

 Y. Shao,  Z. Gan,  E. Epifanovsky,  A. T. B. Gilbert,  M. Wormit,  
 J. Kussmann,  A. W. Lange,  A. Behn,  J. Deng,  X. Feng,  D. Ghosh,  
 M. Goldey,  P. R. Horn,  L. D. Jacobson,  I. Kaliman,  F. Rob,  
 R. Z. Khaliullin,  T. Kus,  A. Landau,  J. Liu,  E. I. Proynov,  Y. M. Rhee,  
 R. M. Richard,  M. A. Rohrdanz,  R. P. Steele,  E. J. Sundstrom,  
 H. L. Woodcock III,  P. M. Zimmerman,  D. Zuev,  B. Albrecht,  E. Alguire,  
 B. Austin,  S. A. Baeppler,  G. J. O. Beran,  Y. A. Bernard,  E. Berquist,  
 K. Brandhorst,  K. B. Bravaya,  S. T. Brown,  D. Casanova,  C.-M. Chang,  
 Y. Chen,  S. H. Chien,  K. D. Closser,  M. P. Coons,  D. L. Crittenden,  
 S. Dasgupta,  M. Diedenhofen,  R. A. DiStasio Jr.,  H. Do,  A. D. Dutoi,  
 R. G. Edgar,  P.-T. Fang,  S. Fatehi,  Q. Feng,  L. Fusti-Molnar,  
 A. Ghysels,  A. Golubeva-Zadorozhnaya,  J. Gomes,  A. Gunina,  
 M. W. D. Hanson-Heine,  P. H. P. Harbach,  A. W. Hauser,  J. E. Herr,  
 E. G. Hohenstein,  Z. C. Holden,  K. Hui,  T.-C. Jagau,  H. Ji,  B. Kaduk,  
 K. Khistyaev,  Jaehoon Kim,  Jihan Kim,  R. A. King,  P. Klunzinger,  
 K. Koh,  D. Kosenkov,  T. Kowalczyk,  C. M. Krauter,  A. Kunitsa,  
 K. U. Lao,  A. Laurent,  K. V. Lawler,  J. Lee,  D. Lefrancois,  S. Lehtola,  
 S. V. Levchenko,  C. Y. Lin,  Y.-S. Lin,  F. Liu,  E. Livshits,  
 R. C. Lochan,  A. Luenser,  P. Manohar,  S. F. Manzer,  S.-P. Mao,  Y. Mao,  
 N. Mardirossian,  A. V. Marenich,  L. A. Martinez-Martinez,  S. A. Maurer,  
 N. J. Mayhall,  J.-M. Mewes,  A. F. Morrison,  K. Nanda,  T. S. Nguyen-Beck,  
 C. M. Oana,  R. Olivares-Amaya,  D. P. O'Neill,  J. A. Parkhill,  
 T. M. Perrine,  R. Peverati,  P. A. Pieniazek,  F. Plasser,  A. Prociuk,  
 D. R. Rehn,  E. Rosta,  N. J. Russ,  N. Sergueev,  S. M. Sharada,  
 S. Sharma,  D. W. Small,  A. Sodt,  T. Stauch,  T. Stein,  D. Stuck,  
 Y.-C. Su,  A. J. W. Thom,  T. Tsuchimochi,  L. Vogt,  O. Vydrov,  T. Wang,  
 M. A. Watson,  J. Wenzel,  A. White,  C. F. Williams,  V. Vanovschi,  
 K. Yao,  S. Yeganeh,  S. R. Yost,  Z.-Q. You,  I. Y. Zhang,  X. Zhang,  
 Y. Zhao,  B. R. Brooks,  G. K. L. Chan,  D. M. Chipman,  C. J. Cramer,  
 W. A. Goddard III,  M. S. Gordon,  W. J. Hehre,  A. Klamt,  
 H. F. Schaefer III,  M. W. Schmidt,  C. D. Sherrill,  D. G. Truhlar,  
 A. Warshel,  X. Xu,  A. Aspuru-Guzik,  R. Baer,  A. T. Bell,  N. A. Besley,  
 J.-D. Chai,  A. Dreuw,  B. D. Dunietz,  T. R. Furlani,  S. R. Gwaltney,  
 C.-P. Hsu,  Y. Jung,  J. Kong,  D. S. Lambrecht,  W. Liang,  C. Ochsenfeld,  
 V. A. Rassolov,  L. V. Slipchenko,  J. E. Subotnik,  T. Van Voorhis,  
 J. M. Herbert,  A. I. Krylov,  P. M. W. Gill,  M. Head-Gordon

 Contributors to earlier versions of Q-Chem not listed above: 
 R. D. Adamson,  J. Baker,  E. F. C. Byrd,  A. K. Chakraborty,  C.-L. Cheng,  
 H. Dachsel,  R. J. Doerksen,  G. Hawkins,  A. Heyden,  S. Hirata,  
 G. Kedziora,  F. J. Keil,  C. Kelley,  P. P. Korambath,  W. Kurlancheek,  
 A. M. Lee,  M. S. Lee,  D. Liotard,  I. Lotan,  P. E. Maslen,  N. Nair,  
 D. Neuhauser,  R. Olson,  B. Peters,  J. Ritchie,  N. E. Schultz,  
 N. Shenvi,  A. C. Simmonett,  K. S. Thanthiriwatte,  Q. Wu,  W. Zhang

 Please cite Q-Chem as follows:
 Y. Shao et al., Mol. Phys. 113, 184-215 (2015)
 DOI: 10.1080/00268976.2014.952696

 Q-Chem 4.4.2 for Intel X86 Linux

 Parts of Q-Chem use Armadillo 5.200.1 (Boston Tea Smuggler).
 http://arma.sourceforge.net/

 Q-Chem begins on Sat Oct 13 00:14:36 2018  

Host: 
0

     Scratch files written to /tmpu/cab_g/afmv_a/scratch_qchem/qchem35412//
 Dec716 11556_ 22328  22283 4050   
Processing $rem in /tmpu/appuserlic/qchem4.4/serial-multicore/config/preferences.
 MEM_TOTAL  2000 
FILE_GEOM_ORG=        593

Checking the input file for inconsistencies... 	...done.

--------------------------------------------------------------
User input:
--------------------------------------------------------------
$comment
SP
$end

$rem
MEM_STATIC 5000
MEM_TOTAL 20000
JOBTYPE SP
EXCHANGE B3LYP
BASIS 6-31g(d,p)
$end

$molecule
0 1
C         -22.173000    -13.708000     -3.465000
C         -21.912000    -12.358000     -3.245000
N         -23.248000    -14.249000     -2.842000
C         -22.760000    -11.559000     -2.413000
C         -24.071000    -13.545000     -2.030000
C         -23.884000    -12.167000     -1.746000
C         -24.892000    -11.407000     -0.964000
C         -26.234000    -11.805000     -0.889000
C         -24.548000    -10.364000     -0.054000
N         -27.251000    -11.260000     -0.127000
N         -23.326000     -9.748000      0.107000
C         -25.555000     -9.708000      0.633000
C         -26.923000    -10.198000      0.617000
S         -23.590000     -8.622000      1.215000
N         -25.193000     -8.657000      1.413000
C         -27.999000     -9.427000      1.258000
S         -28.002000     -7.758000      1.709000
C         -29.104000    -10.018000      1.880000
C         -29.308000     -7.996000      2.830000
S         -29.484000    -11.723000      1.868000
C         -29.790000     -9.230000      2.694000
C         -29.731000     -6.973000      3.685000
C         -30.750000    -11.349000      3.057000
C         -30.718000     -9.991000      3.425000
N         -30.413000     -7.278000      4.755000
S         -29.349000     -5.280000      3.367000
C         -30.830000     -6.121000      5.370000
C         -30.260000     -4.967000      4.892000
C         -21.438000    -14.582000     -4.530000
H         -21.068000    -11.807000     -3.650000
H         -22.445000    -10.537000     -2.226000
H         -24.918000    -14.087000     -1.612000
H         -26.591000    -12.655000     -1.467000
H         -31.299000    -12.160000      3.517000
H         -31.271000     -9.634000      4.286000
H         -31.378000     -6.164000      6.302000
H         -30.481000     -3.947000      5.177000
H         -20.360000    -14.671000     -4.350000
C         -21.687000    -14.114000     -5.984000
H         -21.777000    -15.624000     -4.476000
H         -21.456000    -13.042000     -6.000000
H         -22.756000    -14.144000     -6.226000
C         -20.864000    -14.847000     -7.119000
H         -19.782000    -14.732000     -6.981000
C         -21.328000    -14.398000     -8.577000
H         -21.087000    -15.921000     -7.139000
H         -21.043000    -13.359000     -8.782000
H         -22.425000    -14.395000     -8.561000
C         -20.843000    -15.290000     -9.706000
H         -19.750000    -15.277000     -9.617000
C         -21.185000    -14.707000    -11.094000
H         -21.105000    -16.354000     -9.644000
H         -22.257000    -14.607000    -11.302000
H         -20.569000    -15.133000    -11.895000
H         -20.922000    -13.643000    -11.137000
C         -20.145000    -11.197000      2.382000
C         -20.293000    -12.104000      3.458000
N         -20.671000    -11.398000      1.151000
C         -21.101000    -13.218000      3.307000
C         -21.348000    -12.533000      0.966000
C         -21.624000    -13.507000      1.972000
C         -22.247000    -14.806000      1.595000
C         -23.313000    -15.277000      2.324000
C         -21.816000    -15.567000      0.530000
N         -23.891000    -16.462000      2.092000
N         -20.843000    -15.181000     -0.361000
C         -22.455000    -16.792000      0.221000
C         -23.507000    -17.293000      1.044000
S         -20.881000    -16.337000     -1.453000
N         -22.123000    -17.305000     -0.937000
C         -24.223000    -18.576000      0.816000
S         -23.935000    -19.839000     -0.448000
C         -25.086000    -19.210000      1.682000
C         -25.089000    -20.947000      0.247000
S         -25.457000    -18.745000      3.337000
C         -25.581000    -20.482000      1.412000
C         -25.412000    -22.207000     -0.424000
C         -26.582000    -20.142000      3.478000
C         -26.510000    -20.937000      2.389000
N         -26.330000    -23.006000      0.094000
S         -24.498000    -22.809000     -1.796000
C         -26.227000    -24.153000     -0.554000
C         -25.356000    -24.229000     -1.635000
C         -19.286000     -9.985000      2.611000
H         -19.979000    -11.855000      4.467000
H         -21.204000    -13.860000      4.177000
H         -21.836000    -12.734000      0.014000
H         -23.837000    -14.630000      3.027000
H         -27.074000    -20.312000      4.426000
H         -27.042000    -21.877000      2.309000
H         -26.927000    -24.912000     -0.231000
H         -25.143000    -25.066000     -2.287000
H         -19.142000     -9.792000      3.681000
C         -19.660000     -8.742000      1.787000
H         -18.262000    -10.173000      2.265000
H         -20.620000     -8.335000      2.127000
H         -19.724000     -8.919000      0.706000
C         -18.653000     -7.592000      2.123000
H         -18.876000     -6.691000      1.538000
C         -17.134000     -7.853000      1.857000
H         -18.666000     -7.315000      3.185000
H         -16.776000     -8.598000      2.579000
H         -16.661000     -6.880000      2.042000
C         -16.823000     -8.193000      0.302000
H         -17.284000     -9.169000      0.108000
C         -15.341000     -8.339000      0.000000
H         -17.151000     -7.515000     -0.496000
H         -14.741000     -7.487000      0.343000
H         -15.118000     -8.525000     -1.058000
H         -14.907000     -9.189000      0.541000
$end

--------------------------------------------------------------
 ----------------------------------------------------------------
             Standard Nuclear Orientation (Angstroms)
    I     Atom           X                Y                Z
 ----------------------------------------------------------------
    1      C       2.0483422698    -3.1666397346     1.8622192855
    2      C       0.8145709555    -3.8037811388     1.7579112077
    3      N       2.0577442325    -1.8115628840     1.8515735205
    4      C      -0.4053712527    -3.0597642176     1.6689796069
    5      C       0.9369131413    -1.0594335018     1.7499464697
    6      C      -0.3625657009    -1.6192270934     1.6381660001
    7      C      -1.5695803535    -0.7548261375     1.6715518653
    8      C      -1.5671349800     0.5079428970     2.2801579659
    9      C      -2.7422949880    -1.0236388619     0.9055459218
   10      N      -2.5747751615     1.4546352006     2.2999808536
   11      N      -3.0531199357    -2.1683309910     0.2043121652
   12      C      -3.8221702170    -0.1625932571     0.9994818374
   13      C      -3.7115137460     1.1155249974     1.6820863152
   14      S      -4.5196649280    -1.8934323074    -0.3778497531
   15      N      -4.9529230832    -0.5081673555     0.3316334278
   16      C      -4.8967848484     1.9657194762     1.8702345597
   17      S      -6.5643312812     1.5199206402     1.7726472033
   18      C      -4.8491815287     3.3639045936     1.8687175216
   19      C      -7.0579578467     3.1678987454     1.5288809656
   20      S      -3.3949588768     4.3299968353     1.8098001287
   21      C      -6.0128646439     3.9745357608     1.7040749236
   22      C      -8.3834842209     3.4949441778     1.2247360718
   23      C      -4.4563579925     5.7372805575     1.5876797955
   24      C      -5.8050076287     5.3474951475     1.4885662605
   25      N      -8.6444140668     4.6471414061     0.6702938633
   26      S      -9.7127439892     2.3815750756     1.5515000702
   27      C     -10.0071959269     4.8075396492     0.5816315514
   28      C     -10.7466885707     3.6821009392     0.8492849462
   29      C       3.3884462536    -3.8971323775     2.1921098902
   30      H       0.6638873372    -4.8787882519     1.7177097901
   31      H      -1.3173584701    -3.6266363437     1.5089380246
   32      H       1.0742280501     0.0203704830     1.7825803496
   33      H      -0.6867194923     0.8628424376     2.8120864246
   34      H      -4.0161130169     6.7033846006     1.3789950107
   35      H      -6.5616076156     6.0420467668     1.1425409611
   36      H     -10.4247344366     5.6871207399     0.1096403461
   37      H     -11.8232782111     3.5891119207     0.9019517151
   38      H       3.6739279128    -4.6419281563     1.4396575860
   39      C       3.4034882337    -4.5439811115     3.5979909144
   40      H       4.2296435865    -3.1934209147     2.1642132161
   41      H       2.4953061967    -5.1557988265     3.6586989972
   42      H       3.2493512178    -3.7880223038     4.3770885086
   43      C       4.6617737093    -5.4319402865     3.9600532923
   44      H       4.7779485217    -6.2789751766     3.2730101294
   45      C       4.6421805124    -5.9013134962     5.4838531140
   46      H       5.5861400530    -4.8421387788     3.9241918356
   47      H       3.8423138956    -6.6294954834     5.6647823511
   48      H       4.3624112515    -5.0183303001     6.0718529746
   49      C       5.9587345007    -6.4540871956     6.0002413724
   50      H       6.1868776152    -7.2922922849     5.3308371988
   51      C       5.8238846937    -7.0415655856     7.4215371441
   52      H       6.8361625621    -5.7996617981     5.9200453859
   53      H       5.5395647257    -6.3186336542     8.1954748538
   54      H       6.6379154899    -7.7321076793     7.6726117940
   55      H       4.9401635676    -7.6881321672     7.4855888948
   56      C      -1.7365610931    -3.1067623716    -3.6401652190
   57      C      -1.3221646148    -2.1428829002    -4.5896603078
   58      N      -1.2609637014    -3.1685429182    -2.3742946549
   59      C      -0.4612832455    -1.1295006444    -4.2041727313
   60      C      -0.3369322848    -2.2671413973    -2.0360340466
   61      C       0.1305562155    -1.2066033139    -2.8688614452
   62      C       1.2825775633    -0.3716230612    -2.4291868023
   63      C       1.1943213010     0.9971455526    -2.5204080393
   64      C       2.4450914608    -0.9033786270    -1.9144981038
   65      N       2.2043210469     1.8175796856    -2.2058903976
   66      N       2.6430756130    -2.2383386706    -1.6531746306
   67      C       3.5027247895    -0.0536063275    -1.5098676786
   68      C       3.4127451227     1.3585570858    -1.6907879749
   69      S       4.0565274487    -2.2527976293    -0.9236618846
   70      N       4.4481430694    -0.6457440240    -0.8243647795
   71      C       4.4759631815     2.3295064376    -1.3199056277
   72      S       6.1262264962     2.0179959964    -0.6450713983
   73      C       4.5384180754     3.6622843053    -1.6612024804
   74      C       6.6047985028     3.6911124551    -0.7636258169
   75      S       3.4557294988     4.5308755072    -2.7411218153
   76      C       5.6608369458     4.4331337496    -1.3750626307
   77      C       7.8969662593     4.1370441537    -0.2405413023
   78      C       4.3939265170     6.0415534965    -2.4677111942
   79      C       5.5066301713     5.7991386178    -1.7422764249
   80      N       8.2150373354     5.4198316668    -0.2928479617
   81      S       9.1407208697     3.0170366885     0.2875133795
   82      C       9.5023969949     5.4914690247    -0.0035467414
   83      C      10.1589547660     4.3324155232     0.3945799644
   84      C      -2.7004240476    -4.1637512223    -4.1016939554
   85      H      -1.8172892084    -2.0316082390    -5.5494246468
   86      H      -0.2048344549    -0.3992588613    -4.9661792640
   87      H       0.0520278616    -2.2321584933    -1.0199950705
   88      H       0.2366479093     1.4829300108    -2.7055272845
   89      H       4.0997611538     6.9334064289    -3.0041187687
   90      H       6.2538043695     6.5561070630    -1.5379397164
   91      H       9.9053310989     6.4954750317    -0.0086502403
   92      H      11.1941647247     4.1928827972     0.6772687684
   93      H      -3.2079110239    -3.8668588359    -5.0275432302
   94      C      -3.6350846677    -4.7271495069    -3.0186921558
   95      H      -2.1575773167    -5.0663007418    -4.4088710894
   96      H      -4.3583638769    -3.9642693050    -2.7060742053
   97      H      -3.1184989377    -5.0992679423    -2.1250182479
   98      C      -4.5429954660    -5.8293962854    -3.6591568477
   99      H      -5.2128157810    -6.2706287512    -2.9105517070
  100      C      -3.8390455847    -7.0625671278    -4.3148871567
  101      H      -5.1626669358    -5.4435554366    -4.4788373397
  102      H      -3.3242527323    -6.7279167545    -5.2245411826
  103      H      -4.6668565416    -7.7374527682    -4.5677535089
  104      C      -2.9188410385    -7.8865892129    -3.2639079959
  105      H      -2.0822445123    -7.2242217440    -3.0107112571
  106      C      -2.3158083744    -9.1516328842    -3.8511559126
  107      H      -3.3393661020    -8.2536095763    -2.3191716709
  108      H      -3.0569876382    -9.8086410696    -4.3229043023
  109      H      -1.7279470944    -9.7391535574    -3.1349662911
  110      H      -1.6248005994    -8.9190855903    -4.6708918524
 ----------------------------------------------------------------
 Molecular Point Group                 C1    NOp =  1
 Largest Abelian Subgroup              C1    NOp =  1
 Nuclear Repulsion Energy = 11688.4883610132 hartrees
 There are      270 alpha and      270 beta electrons
 Requested basis set is 6-31G(d,p)
 There are 406 shells and 1262 basis functions

 Total QAlloc Memory Limit  20000 MB
 Mega-Array Size      4888 MB
 MEM_STATIC part      5000 MB
 A cutoff of  1.0D-08 yielded  13739 shell pairs
 There are    144861 function pairs
 
 -------------------------------------------------------
 OpenMP Integral Computing Module                       
 Release: version 1.0, May 2013, Q-Chem Inc. Pittsburgh 
 -------------------------------------------------------
 Integral Job Info:
 Integral job number is                      11
 Integral operator is                         1
 short-range coefficients                     0
 long-range coefficients              100000000
 Omega coefficients                           0
 if combine SR and LR in K                    0
 Integral screening is                        0
 Integral computing path is                   2
 max size of driver memory is            800000
 size of driver memory is                593474
 size of scratch memory is             15166112
 max col of scratch BK array               1296
 max len of scratch array in speh3          155
 max len of scratch index in speh4           18
 max int batch size is                      520
 min int batch size is                       52
 fixed nKL is                                52
 max L of basis functions is                  2
 order of int derivative is                   0
 number of shells is                        406
 number of basis is                        1262
 number of cartesian basis is              1262
 number of contracted shell pairs         13739
 number of primitive shell pairs          43846
 maxK2 (contraction) of shell pair           36
 max number of K2 of shell pair               1
 max number of CS2 of shell pair           1445
 max number of PS2 of shell pair           8196
 mem total for path MDJ                  306792
 -------------------------------------------------------
 Smallest overlap matrix eigenvalue = 4.02E-04

 Scale SEOQF with 1.000000e-02/1.000000e-02/1.000000e-02

 Standard Electronic Orientation quadrupole field applied
 Nucleus-field energy     =     0.0000000753 hartrees
 Guess from superposition of atomic densities
 Warning:  Energy on first SCF cycle will be non-variational
 A restricted hybrid HF-DFT SCF calculation will be
 performed using Pulay DIIS extrapolation
 Exchange:     0.2000 Hartree-Fock + 0.0800 Slater + 0.7200 B88
 Correlation:  0.1900 VWN1RPA + 0.8100 LYP
 Using SG-1 standard quadrature grid
 SCF converges when DIIS error is below 1.0E-05
 using 16 threads for integral computing 
 -------------------------------------------------------
 OpenMP BLAS3 based DFT computing Module                
 Release: version 1.0, May 2013, Q-Chem Inc. Pittsburgh 
 -------------------------------------------------------
 ---------------------------------------
  Cycle       Energy         DIIS Error
 ---------------------------------------
    1   -5680.3683061197      2.16E-02
    2   -5662.4953174977      2.16E-03
    3   -5660.7277295514      3.53E-03
    4   -5663.3148193093      9.26E-04
    5   -5663.4858587837      3.37E-04
    6   -5663.4987279925      2.20E-04
    7   -5663.5079806286      8.46E-05
    8   -5663.5093894336      2.71E-05
    9   -5663.5095156768      1.24E-05
   10   -5663.5095457287      4.10E-06 Convergence criterion met
 ---------------------------------------
 SCF time:  CPU 1115.40 s  wall 91.70 s
 SCF   energy in the final basis set = -5663.5095457287
 Total energy in the final basis set = -5663.5095457287
 
 --------------------------------------------------------------
 
                    Orbital Energies (a.u.)
 --------------------------------------------------------------
 
 Alpha MOs
 -- Occupied --
-88.986 -88.977 -88.929 -88.922 -88.922 -88.918 -88.902 -88.895
-14.386 -14.381 -14.378 -14.376 -14.352 -14.344 -14.341 -14.339
-14.332 -14.328 -10.267 -10.264 -10.263 -10.263 -10.256 -10.253
-10.247 -10.245 -10.242 -10.240 -10.239 -10.237 -10.235 -10.232
-10.230 -10.229 -10.228 -10.228 -10.228 -10.228 -10.225 -10.225
-10.224 -10.222 -10.222 -10.220 -10.219 -10.217 -10.216 -10.212
-10.212 -10.210 -10.203 -10.201 -10.195 -10.193 -10.193 -10.192
-10.190 -10.188 -10.188 -10.185 -10.184 -10.181 -10.181 -10.181
-10.180 -10.178 -10.173 -10.168  -8.042  -8.033  -7.992  -7.983
 -7.982  -7.977  -7.962  -7.955  -6.007  -6.001  -6.000  -5.998
 -5.992  -5.991  -5.955  -5.952  -5.949  -5.947  -5.946  -5.944
 -5.943  -5.942  -5.940  -5.939  -5.938  -5.934  -5.927  -5.923
 -5.919  -5.919  -5.916  -5.911  -1.044  -1.037  -0.987  -0.972
 -0.954  -0.942  -0.935  -0.934  -0.926  -0.913  -0.907  -0.906
 -0.847  -0.839  -0.834  -0.827  -0.827  -0.805  -0.803  -0.801
 -0.798  -0.797  -0.793  -0.792  -0.784  -0.776  -0.768  -0.762
 -0.752  -0.743  -0.741  -0.734  -0.723  -0.720  -0.708  -0.708
 -0.693  -0.689  -0.671  -0.666  -0.653  -0.651  -0.646  -0.638
 -0.636  -0.629  -0.622  -0.618  -0.613  -0.611  -0.596  -0.596
 -0.591  -0.589  -0.587  -0.585  -0.582  -0.580  -0.577  -0.556
 -0.552  -0.549  -0.534  -0.533  -0.526  -0.522  -0.514  -0.508
 -0.507  -0.505  -0.499  -0.492  -0.487  -0.481  -0.476  -0.474
 -0.472  -0.471  -0.468  -0.466  -0.464  -0.457  -0.450  -0.446
 -0.444  -0.443  -0.439  -0.438  -0.435  -0.433  -0.430  -0.429
 -0.428  -0.426  -0.424  -0.424  -0.417  -0.412  -0.410  -0.410
 -0.409  -0.407  -0.403  -0.401  -0.398  -0.398  -0.396  -0.395
 -0.392  -0.388  -0.388  -0.387  -0.385  -0.381  -0.380  -0.377
 -0.375  -0.374  -0.372  -0.372  -0.367  -0.365  -0.355  -0.353
 -0.351  -0.348  -0.348  -0.346  -0.344  -0.342  -0.342  -0.341
 -0.337  -0.334  -0.331  -0.330  -0.328  -0.327  -0.323  -0.321
 -0.316  -0.315  -0.313  -0.309  -0.308  -0.307  -0.301  -0.298
 -0.297  -0.296  -0.295  -0.289  -0.287  -0.284  -0.282  -0.279
 -0.276  -0.269  -0.261  -0.260  -0.253  -0.247  -0.247  -0.244
 -0.242  -0.240  -0.232  -0.230  -0.192  -0.190
 -- Virtual --
 -0.107  -0.104  -0.073  -0.068  -0.042  -0.032  -0.028  -0.022
 -0.019  -0.017  -0.013  -0.011  -0.004   0.000   0.001   0.005
  0.019   0.020   0.029   0.034   0.036   0.045   0.046   0.050
  0.050   0.054   0.064   0.066   0.078   0.083   0.086   0.091
  0.101   0.103   0.107   0.107   0.110   0.111   0.112   0.113
  0.117   0.119   0.121   0.121   0.123   0.126   0.127   0.127
  0.130   0.130   0.132   0.133   0.135   0.137   0.142   0.144
  0.150   0.153   0.158   0.160   0.161   0.162   0.162   0.164
  0.167   0.169   0.173   0.175   0.176   0.178   0.183   0.184
  0.184   0.186   0.189   0.191   0.193   0.197   0.198   0.199
  0.200   0.202   0.203   0.206   0.208   0.211   0.218   0.219
  0.223   0.224   0.227   0.229   0.231   0.233   0.235   0.237
  0.238   0.239   0.242   0.247   0.249   0.252   0.254   0.255
  0.262   0.264   0.265   0.272   0.273   0.275   0.278   0.279
  0.285   0.286   0.290   0.295   0.296   0.298   0.305   0.308
  0.311   0.316   0.318   0.320   0.323   0.327   0.328   0.329
  0.332   0.335   0.338   0.339   0.342   0.346   0.353   0.354
  0.358   0.361   0.364   0.366   0.368   0.372   0.374   0.376
  0.377   0.382   0.386   0.390   0.391   0.394   0.403   0.407
  0.409   0.413   0.417   0.419   0.422   0.424   0.429   0.437
  0.443   0.449   0.455   0.459   0.464   0.466   0.470   0.476
  0.477   0.479   0.487   0.489   0.490   0.493   0.496   0.497
  0.500   0.504   0.507   0.510   0.510   0.514   0.516   0.520
  0.523   0.524   0.526   0.530   0.532   0.534   0.535   0.538
  0.539   0.540   0.541   0.542   0.544   0.547   0.549   0.551
  0.554   0.555   0.556   0.560   0.563   0.565   0.566   0.569
  0.570   0.572   0.573   0.575   0.579   0.579   0.582   0.585
  0.589   0.590   0.595   0.595   0.596   0.597   0.598   0.602
  0.603   0.605   0.605   0.608   0.611   0.613   0.616   0.617
  0.620   0.622   0.626   0.627   0.629   0.631   0.634   0.635
  0.637   0.639   0.641   0.643   0.643   0.647   0.648   0.650
  0.656   0.657   0.658   0.659   0.660   0.665   0.666   0.674
  0.678   0.681   0.684   0.688   0.690   0.691   0.692   0.695
  0.698   0.700   0.703   0.705   0.711   0.714   0.716   0.719
  0.724   0.728   0.735   0.741   0.742   0.743   0.747   0.749
  0.752   0.758   0.759   0.760   0.765   0.767   0.773   0.774
  0.776   0.779   0.781   0.784   0.786   0.789   0.792   0.794
  0.795   0.798   0.801   0.802   0.807   0.808   0.810   0.813
  0.814   0.819   0.820   0.821   0.824   0.825   0.826   0.827
  0.829   0.829   0.833   0.835   0.838   0.839   0.840   0.842
  0.844   0.845   0.847   0.849   0.852   0.854   0.856   0.857
  0.859   0.864   0.867   0.869   0.869   0.873   0.874   0.875
  0.881   0.883   0.884   0.886   0.887   0.890   0.894   0.896
  0.900   0.901   0.901   0.904   0.908   0.909   0.914   0.914
  0.917   0.921   0.922   0.923   0.925   0.927   0.932   0.934
  0.937   0.938   0.939   0.940   0.942   0.946   0.947   0.947
  0.950   0.954   0.957   0.960   0.963   0.965   0.965   0.970
  0.971   0.975   0.978   0.980   0.984   0.985   0.990   0.991
  0.996   0.997   1.001   1.005   1.006   1.008   1.010   1.013
  1.019   1.021   1.022   1.024   1.026   1.028   1.029   1.034
  1.036   1.040   1.042   1.042   1.049   1.052   1.052   1.056
  1.062   1.066   1.073   1.075   1.076   1.079   1.084   1.090
  1.094   1.098   1.102   1.106   1.109   1.112   1.113   1.116
  1.122   1.126   1.128   1.136   1.137   1.143   1.147   1.152
  1.156   1.157   1.161   1.164   1.170   1.174   1.178   1.189
  1.197   1.198   1.209   1.212   1.214   1.219   1.224   1.226
  1.228   1.236   1.242   1.250   1.256   1.260   1.264   1.268
  1.277   1.280   1.283   1.286   1.289   1.298   1.301   1.305
  1.307   1.309   1.310   1.319   1.321   1.332   1.334   1.338
  1.341   1.342   1.348   1.357   1.359   1.363   1.369   1.373
  1.376   1.378   1.381   1.382   1.385   1.397   1.399   1.402
  1.405   1.416   1.419   1.420   1.422   1.428   1.431   1.440
  1.443   1.444   1.448   1.451   1.455   1.460   1.472   1.475
  1.479   1.483   1.486   1.491   1.495   1.502   1.512   1.516
  1.517   1.526   1.530   1.536   1.544   1.546   1.553   1.560
  1.569   1.570   1.576   1.586   1.591   1.595   1.613   1.617
  1.625   1.632   1.634   1.640   1.642   1.644   1.650   1.653
  1.659   1.661   1.664   1.670   1.678   1.685   1.686   1.690
  1.692   1.693   1.700   1.703   1.706   1.711   1.713   1.717
  1.718   1.719   1.720   1.723   1.726   1.729   1.734   1.739
  1.741   1.748   1.754   1.757   1.759   1.761   1.765   1.773
  1.780   1.790   1.791   1.792   1.799   1.799   1.803   1.807
  1.817   1.819   1.821   1.829   1.832   1.837   1.839   1.844
  1.845   1.849   1.855   1.860   1.864   1.867   1.875   1.879
  1.881   1.885   1.886   1.890   1.897   1.899   1.903   1.907
  1.910   1.911   1.917   1.919   1.920   1.924   1.924   1.928
  1.932   1.935   1.936   1.940   1.944   1.947   1.949   1.950
  1.951   1.956   1.961   1.967   1.980   1.982   1.986   1.986
  1.999   2.001   2.009   2.014   2.015   2.022   2.024   2.028
  2.030   2.033   2.040   2.042   2.049   2.052   2.056   2.062
  2.075   2.077   2.082   2.083   2.089   2.096   2.097   2.101
  2.104   2.108   2.112   2.119   2.125   2.128   2.137   2.143
  2.146   2.149   2.151   2.154   2.158   2.161   2.164   2.166
  2.169   2.172   2.175   2.178   2.185   2.188   2.195   2.196
  2.197   2.199   2.201   2.203   2.205   2.214   2.215   2.217
  2.220   2.227   2.229   2.233   2.239   2.242   2.244   2.245
  2.248   2.253   2.260   2.263   2.268   2.271   2.275   2.283
  2.287   2.289   2.293   2.295   2.296   2.302   2.302   2.304
  2.309   2.312   2.318   2.322   2.325   2.330   2.334   2.336
  2.338   2.340   2.343   2.348   2.350   2.356   2.357   2.364
  2.367   2.373   2.383   2.389   2.395   2.398   2.400   2.402
  2.405   2.407   2.407   2.412   2.419   2.420   2.423   2.426
  2.428   2.430   2.437   2.443   2.446   2.449   2.451   2.458
  2.459   2.461   2.462   2.464   2.472   2.473   2.474   2.480
  2.483   2.484   2.493   2.496   2.497   2.503   2.504   2.511
  2.515   2.517   2.519   2.521   2.523   2.532   2.537   2.540
  2.547   2.551   2.554   2.561   2.565   2.568   2.569   2.576
  2.576   2.580   2.583   2.589   2.591   2.594   2.599   2.609
  2.613   2.616   2.616   2.620   2.625   2.627   2.632   2.637
  2.645   2.649   2.651   2.657   2.661   2.663   2.669   2.675
  2.678   2.686   2.691   2.693   2.698   2.703   2.704   2.710
  2.712   2.714   2.721   2.723   2.730   2.730   2.737   2.744
  2.745   2.757   2.766   2.776   2.779   2.782   2.787   2.792
  2.795   2.799   2.801   2.816   2.827   2.827   2.833   2.834
  2.838   2.840   2.848   2.859   2.862   2.863   2.864   2.865
  2.874   2.882   2.889   2.890   2.897   2.898   2.901   2.905
  2.905   2.910   2.920   2.929   2.934   2.934   2.936   2.941
  2.950   2.963   2.968   2.990   3.001   3.002   3.007   3.016
  3.018   3.038   3.047   3.072   3.077   3.090   3.128   3.142
  3.148   3.171   3.173   3.195   3.196   3.214   3.230   3.236
  3.243   3.252   3.259   3.268   3.270   3.272   3.278   3.292
  3.302   3.312   3.313   3.314   3.318   3.326   3.329   3.333
  3.337   3.349   3.353   3.354   3.384   3.387   3.411   3.419
  3.457   3.466   3.473   3.478   3.479   3.500   3.527   3.527
  3.553   3.565   3.567   3.576   3.577   3.582   3.589   3.612
  3.641   3.653   3.706   3.715   3.857   3.877   3.907   3.908
  3.940   3.952   3.953   3.967   3.968   3.980   3.983   4.003
  4.065   4.071   4.076   4.095   4.097   4.107   4.116   4.126
  4.138   4.146   4.160   4.172   4.173   4.178   4.184   4.192
  4.206   4.223   4.238   4.251   4.259   4.267   4.272   4.274
  4.279   4.290   4.318   4.324   4.362   4.373   4.380   4.390
  4.401   4.436   4.446   4.464   4.466   4.475   4.479   4.484
  4.503   4.518   4.532   4.541   4.563   4.601   4.646   4.654
  4.671   4.688   4.729   4.741   4.743   4.745   4.781   4.793
 --------------------------------------------------------------
 
          Ground-State Mulliken Net Atomic Charges

     Atom                 Charge (a.u.)
  ----------------------------------------
      1 C                     0.271766
      2 C                    -0.112412
      3 N                    -0.488389
      4 C                    -0.079005
      5 C                     0.064583
      6 C                     0.027839
      7 C                     0.045369
      8 C                     0.031328
      9 C                     0.217409
     10 N                    -0.496691
     11 N                    -0.516879
     12 C                     0.157465
     13 C                     0.279301
     14 S                     0.616787
     15 N                    -0.532688
     16 C                    -0.196521
     17 S                     0.326012
     18 C                    -0.149384
     19 C                    -0.249986
     20 S                     0.276902
     21 C                     0.227584
     22 C                     0.077411
     23 C                    -0.304853
     24 C                    -0.077422
     25 N                    -0.435185
     26 S                     0.241870
     27 C                     0.120320
     28 C                    -0.296273
     29 C                    -0.226323
     30 H                     0.094119
     31 H                     0.129507
     32 H                     0.113155
     33 H                     0.114348
     34 H                     0.129420
     35 H                     0.122837
     36 H                     0.113038
     37 H                     0.128393
     38 H                     0.104390
     39 C                    -0.184602
     40 H                     0.122625
     41 H                     0.094916
     42 H                     0.106425
     43 C                    -0.187784
     44 H                     0.093261
     45 C                    -0.174168
     46 H                     0.098187
     47 H                     0.092662
     48 H                     0.092573
     49 C                    -0.174123
     50 H                     0.093704
     51 C                    -0.324725
     52 H                     0.095868
     53 H                     0.105162
     54 H                     0.102148
     55 H                     0.098795
     56 C                     0.283215
     57 C                    -0.116269
     58 N                    -0.494898
     59 C                    -0.065961
     60 C                     0.115324
     61 C                    -0.004569
     62 C                     0.010039
     63 C                     0.061290
     64 C                     0.224635
     65 N                    -0.526674
     66 N                    -0.528075
     67 C                     0.200838
     68 C                     0.294289
     69 S                     0.604736
     70 N                    -0.557092
     71 C                    -0.194747
     72 S                     0.304630
     73 C                    -0.145521
     74 C                    -0.279821
     75 S                     0.259544
     76 C                     0.201634
     77 C                     0.060119
     78 C                    -0.314859
     79 C                    -0.030740
     80 N                    -0.411680
     81 S                     0.298560
     82 C                     0.118341
     83 C                    -0.311095
     84 C                    -0.236963
     85 H                     0.089202
     86 H                     0.101085
     87 H                     0.111494
     88 H                     0.117606
     89 H                     0.130051
     90 H                     0.123922
     91 H                     0.102159
     92 H                     0.138487
     93 H                     0.095494
     94 C                    -0.176822
     95 H                     0.127640
     96 H                     0.093888
     97 H                     0.128276
     98 C                    -0.188761
     99 H                     0.087791
    100 C                    -0.186833
    101 H                     0.085682
    102 H                     0.094899
    103 H                     0.092642
    104 C                    -0.179140
    105 H                     0.104228
    106 C                    -0.319297
    107 H                     0.096346
    108 H                     0.098218
    109 H                     0.096473
    110 H                     0.096977
  ----------------------------------------
  Sum of atomic charges =     0.000000

 -----------------------------------------------------------------
                    Cartesian Multipole Moments
 -----------------------------------------------------------------
    Charge (ESU x 10^10)
                 0.0000
    Dipole Moment (Debye)
         X      -0.1903      Y      -1.6208      Z      -1.2171
       Tot       2.0358
    Quadrupole Moments (Debye-Ang)
        XX    -379.1283     XY       2.3219     YY    -423.2819
        XZ      12.0809     YZ      -8.8810     ZZ    -440.9828
    Octopole Moments (Debye-Ang^2)
       XXX      37.2081    XXY     242.1741    XYY      36.4997
       YYY     108.3117    XXZ      51.1706    XYZ      -5.6497
       YYZ       4.7709    XZZ     -17.9165    YZZ     -52.8141
       ZZZ     -99.3213
    Hexadecapole Moments (Debye-Ang^3)
      XXXX  -60607.2936   XXXY     146.6099   XXYY  -17236.6524
      XYYY     -47.3271   YYYY  -39717.4252   XXXZ     410.1985
      XXYZ     122.1849   XYYZ     124.9560   YYYZ    -702.5158
      XXZZ  -15483.3955   XYZZ     178.8190   YYZZ   -9820.5733
      XZZZ     312.2018   YZZZ      -8.2521   ZZZZ  -17327.4528
 -----------------------------------------------------------------
Archival summary:
1\1\mn246\SP\ProcedureUnspecified\6-31G**\8105042\afmv_a\SatOct1300:16:102018SatOct1300:16:102018\0\\#,ProcedureUnspecified,6-31G**,\\0,1\S\N,1,1.59067\C,2,1.37463,1,102.944\C,3,1.37808,2,124.557,1,173.408,0\C,4,1.37464,3,117.591,2,-174.179,0\H,5,1.08968,4,120.771,3,166.319,0\N,5,1.33871,4,123.107,3,-3.87104,0\C,7,1.39152,5,122.683,4,3.46727,0\C,3,1.41578,2,114.896,1,-1.51841,0\N,9,1.30933,3,114.683,2,6.73594,0\C,8,1.48685,7,119.862,5,177.932,0\C,11,1.3772,8,127.054,7,13.9763,0\C,12,1.39137,11,121.451,8,172.861,0\C,13,1.34741,12,110.694,11,-0.573248,0\C,13,1.42288,12,113.04,11,176.909,0\H,15,1.08306,13,123.197,12,-176.088,0\C,15,1.35023,13,113.599,12,9.17373,0\H,17,1.08151,15,129.693,13,169.567,0\C,14,1.46362,13,127.8,12,176.651,0\N,19,1.32267,14,119.582,13,-3.12613,0\C,20,1.32141,19,106.153,14,168.156,0\H,21,1.08185,20,114.339,19,179.978,0\C,21,1.39032,20,118.527,19,6.09061,0\H,23,1.08215,21,129.35,20,179.43,0\C,4,1.48918,3,123.127,2,5.10617,0\C,25,1.4272,4,119.852,3,-46.4564,0\H,26,1.08851,25,113.814,4,-13.6647,0\N,26,1.33446,25,125.51,4,172.6,0\C,28,1.35368,26,116.711,25,-3.73499,0\C,29,1.41504,28,123.757,26,0.894066,0\H,30,1.08567,29,121.968,28,171.407,0\C,30,1.38444,29,119.595,28,5.26423,0\H,32,1.08613,30,116.334,29,177.954,0\C,29,1.50309,28,118.708,26,-175.401,0\H,34,1.09676,29,111.442,28,-165.049,0\H,34,1.0971,29,110.315,28,81.8695,0\C,34,1.5375,29,115.545,28,-32.2882,0\H,37,1.09674,34,110.291,29,-68.9964,0\H,37,1.09726,34,114.316,29,53.3267,0\C,37,1.56507,34,108.813,29,178.78,0\H,40,1.09716,37,110.988,34,-178.895,0\H,40,1.09761,37,112.677,34,60.0555,0\C,40,1.56405,37,117.759,34,-59.0965,0\H,43,1.09748,40,108.554,37,69.3479,0\H,43,1.09758,40,104.001,37,-172.973,0\C,43,1.62183,40,112.599,37,-59.4314,0\H,46,1.09669,43,105.996,40,67.7842,0\H,46,1.0973,43,120.692,40,-54.0682,0\C,46,1.51949,43,113.436,40,-175.325,0\H,49,1.09706,46,111.24,43,-63.7215,0\H,49,1.09707,46,113.369,43,52.2642,0\H,49,1.09713,46,113.966,43,177.43,0\S,23,1.66688,21,110.549,20,-4.97877,0\S,14,1.74425,13,111.523,12,-3.71009,0\S,12,1.75866,11,127.029,8,5.89197,0\C,27,2.75924,26,148.504,25,-102.326,0\C,56,1.41933,27,91.485,26,138.516,0\H,57,1.08899,56,120.59,27,-104.606,0\N,57,1.35362,56,123.016,27,76.9246,0\C,59,1.35515,57,123.398,56,0.290117,0\C,60,1.39249,59,117.587,57,-0.222698,0\H,61,1.08626,60,125.345,59,-177.686,0\C,61,1.43169,60,121.456,59,1.208,0\H,63,1.08567,61,116.975,60,-175.157,0\C,56,1.48499,27,105.848,26,15.7902,0\C,65,1.40178,56,122.189,27,125.488,0\H,66,1.08813,65,120.495,56,4.34323,0\N,66,1.38274,65,128.441,56,-174.658,0\C,68,1.33752,66,116.048,65,-1.47061,0\C,65,1.42628,56,123.129,27,-43.4382,0\N,70,1.37792,65,127.978,56,-11.0073,0\C,70,1.38432,65,119.191,56,-179.967,0\N,72,1.35796,70,117.252,65,175.233,0\C,69,1.47075,68,118.637,66,-169.153,0\C,74,1.399,69,123.379,68,-41.9028,0\C,75,1.32444,74,115.532,69,-163.258,0\C,76,1.33176,75,115.252,74,1.65818,0\C,77,1.39874,76,129.098,75,174.295,0\N,78,1.30501,77,119.229,76,-21.5484,0\C,79,1.37505,78,109.181,77,174.236,0\H,80,1.08202,79,120.358,78,177.407,0\C,80,1.37299,79,115.189,78,11.1023,0\H,82,1.08188,80,128.018,79,-175.738,0\C,76,1.40523,75,109.85,74,169.799,0\H,84,1.08378,76,124.879,75,-167.859,0\C,84,1.40734,76,113.675,75,3.93005,0\H,86,1.082,84,128.582,76,-173.791,0\C,60,1.56151,59,117.613,57,171.31,0\H,88,1.09654,60,113.341,59,126.887,0\H,88,1.09709,60,110.646,59,12.2403,0\C,88,1.54762,60,113.315,59,-107.269,0\H,91,1.09646,88,110.851,60,59.626,0\H,91,1.09672,88,105.986,60,-51.713,0\C,91,1.58204,88,116.758,60,-173.867,0\H,94,1.09681,91,111.984,88,60.019,0\H,94,1.09709,91,111.156,88,-60.6078,0\C,94,1.59457,91,111.971,88,-173.388,0\H,97,1.09671,94,111.227,91,-69.3316,0\H,97,1.09712,94,106.164,91,44.4315,0\C,97,1.5184,94,114.929,91,165.476,0\H,100,1.09669,97,104.539,94,57.8826,0\H,100,1.09754,97,116.824,94,-56.6089,0\C,100,1.54383,97,112.08,94,173.203,0\H,103,1.09656,100,114.932,97,62.8653,0\H,103,1.0966,100,112.679,97,-160.471,0\H,103,1.09687,100,110.392,97,-46.7536,0\S,71,1.60164,70,104.415,65,-177.233,0\S,74,1.72886,69,128.392,68,153.116,0\S,75,1.74687,74,125.527,69,6.52292,0\S,78,1.76445,77,121.743,76,159.265,0\\\@

 Total job time:  94.91s(wall), 1125.09s(cpu) 
 Sat Oct 13 00:16:10 2018

        *************************************************************
        *                                                           *
        *  Thank you very much for using Q-Chem.  Have a nice day.  *
        *                                                           *
        *************************************************************


