
Running Job 1 of 1 ./6/27.qcin
qchem ./6/27.qcin_35732.0 /tmpu/cab_g/afmv_a/scratch_qchem/qchem35732/ 1
/tmpu/appuserlic/qchem4.4/serial-multicore/exe/qcprog.exe_s ./6/27.qcin_35732.0 /tmpu/cab_g/afmv_a/scratch_qchem/qchem35732/
Check license passed

                  Welcome to Q-Chem
     A Quantum Leap Into The Future Of Chemistry


 Q-Chem 4.4, Q-Chem, Inc., Pleasanton, CA (2016)

 Y. Shao,  Z. Gan,  E. Epifanovsky,  A. T. B. Gilbert,  M. Wormit,  
 J. Kussmann,  A. W. Lange,  A. Behn,  J. Deng,  X. Feng,  D. Ghosh,  
 M. Goldey,  P. R. Horn,  L. D. Jacobson,  I. Kaliman,  F. Rob,  
 R. Z. Khaliullin,  T. Kus,  A. Landau,  J. Liu,  E. I. Proynov,  Y. M. Rhee,  
 R. M. Richard,  M. A. Rohrdanz,  R. P. Steele,  E. J. Sundstrom,  
 H. L. Woodcock III,  P. M. Zimmerman,  D. Zuev,  B. Albrecht,  E. Alguire,  
 B. Austin,  S. A. Baeppler,  G. J. O. Beran,  Y. A. Bernard,  E. Berquist,  
 K. Brandhorst,  K. B. Bravaya,  S. T. Brown,  D. Casanova,  C.-M. Chang,  
 Y. Chen,  S. H. Chien,  K. D. Closser,  M. P. Coons,  D. L. Crittenden,  
 S. Dasgupta,  M. Diedenhofen,  R. A. DiStasio Jr.,  H. Do,  A. D. Dutoi,  
 R. G. Edgar,  P.-T. Fang,  S. Fatehi,  Q. Feng,  L. Fusti-Molnar,  
 A. Ghysels,  A. Golubeva-Zadorozhnaya,  J. Gomes,  A. Gunina,  
 M. W. D. Hanson-Heine,  P. H. P. Harbach,  A. W. Hauser,  J. E. Herr,  
 E. G. Hohenstein,  Z. C. Holden,  K. Hui,  T.-C. Jagau,  H. Ji,  B. Kaduk,  
 K. Khistyaev,  Jaehoon Kim,  Jihan Kim,  R. A. King,  P. Klunzinger,  
 K. Koh,  D. Kosenkov,  T. Kowalczyk,  C. M. Krauter,  A. Kunitsa,  
 K. U. Lao,  A. Laurent,  K. V. Lawler,  J. Lee,  D. Lefrancois,  S. Lehtola,  
 S. V. Levchenko,  C. Y. Lin,  Y.-S. Lin,  F. Liu,  E. Livshits,  
 R. C. Lochan,  A. Luenser,  P. Manohar,  S. F. Manzer,  S.-P. Mao,  Y. Mao,  
 N. Mardirossian,  A. V. Marenich,  L. A. Martinez-Martinez,  S. A. Maurer,  
 N. J. Mayhall,  J.-M. Mewes,  A. F. Morrison,  K. Nanda,  T. S. Nguyen-Beck,  
 C. M. Oana,  R. Olivares-Amaya,  D. P. O'Neill,  J. A. Parkhill,  
 T. M. Perrine,  R. Peverati,  P. A. Pieniazek,  F. Plasser,  A. Prociuk,  
 D. R. Rehn,  E. Rosta,  N. J. Russ,  N. Sergueev,  S. M. Sharada,  
 S. Sharma,  D. W. Small,  A. Sodt,  T. Stauch,  T. Stein,  D. Stuck,  
 Y.-C. Su,  A. J. W. Thom,  T. Tsuchimochi,  L. Vogt,  O. Vydrov,  T. Wang,  
 M. A. Watson,  J. Wenzel,  A. White,  C. F. Williams,  V. Vanovschi,  
 K. Yao,  S. Yeganeh,  S. R. Yost,  Z.-Q. You,  I. Y. Zhang,  X. Zhang,  
 Y. Zhao,  B. R. Brooks,  G. K. L. Chan,  D. M. Chipman,  C. J. Cramer,  
 W. A. Goddard III,  M. S. Gordon,  W. J. Hehre,  A. Klamt,  
 H. F. Schaefer III,  M. W. Schmidt,  C. D. Sherrill,  D. G. Truhlar,  
 A. Warshel,  X. Xu,  A. Aspuru-Guzik,  R. Baer,  A. T. Bell,  N. A. Besley,  
 J.-D. Chai,  A. Dreuw,  B. D. Dunietz,  T. R. Furlani,  S. R. Gwaltney,  
 C.-P. Hsu,  Y. Jung,  J. Kong,  D. S. Lambrecht,  W. Liang,  C. Ochsenfeld,  
 V. A. Rassolov,  L. V. Slipchenko,  J. E. Subotnik,  T. Van Voorhis,  
 J. M. Herbert,  A. I. Krylov,  P. M. W. Gill,  M. Head-Gordon

 Contributors to earlier versions of Q-Chem not listed above: 
 R. D. Adamson,  J. Baker,  E. F. C. Byrd,  A. K. Chakraborty,  C.-L. Cheng,  
 H. Dachsel,  R. J. Doerksen,  G. Hawkins,  A. Heyden,  S. Hirata,  
 G. Kedziora,  F. J. Keil,  C. Kelley,  P. P. Korambath,  W. Kurlancheek,  
 A. M. Lee,  M. S. Lee,  D. Liotard,  I. Lotan,  P. E. Maslen,  N. Nair,  
 D. Neuhauser,  R. Olson,  B. Peters,  J. Ritchie,  N. E. Schultz,  
 N. Shenvi,  A. C. Simmonett,  K. S. Thanthiriwatte,  Q. Wu,  W. Zhang

 Please cite Q-Chem as follows:
 Y. Shao et al., Mol. Phys. 113, 184-215 (2015)
 DOI: 10.1080/00268976.2014.952696

 Q-Chem 4.4.2 for Intel X86 Linux

 Parts of Q-Chem use Armadillo 5.200.1 (Boston Tea Smuggler).
 http://arma.sourceforge.net/

 Q-Chem begins on Sat Oct 13 00:27:07 2018  

Host: 
0

     Scratch files written to /tmpu/cab_g/afmv_a/scratch_qchem/qchem35732//
 Dec716 11556_ 22328  22283 4050   
Processing $rem in /tmpu/appuserlic/qchem4.4/serial-multicore/config/preferences.
 MEM_TOTAL  2000 
FILE_GEOM_ORG=        593

Checking the input file for inconsistencies... 	...done.

--------------------------------------------------------------
User input:
--------------------------------------------------------------
$comment
SP
$end

$rem
MEM_STATIC 5000
MEM_TOTAL 20000
JOBTYPE SP
EXCHANGE B3LYP
BASIS 6-31g(d,p)
$end

$molecule
0 1
C          -5.780000     18.574000      6.809000
C          -6.224000     17.467000      7.508000
N          -6.396000     19.727000      6.887000
C          -7.396000     17.581000      8.282000
C          -7.475000     19.848000      7.670000
C          -7.879000     18.809000      8.512000
C          -9.032000     19.011000      9.483000
C         -10.044000     18.092000      9.563000
C          -9.042000     19.986000     10.467000
N         -11.091000     18.203000     10.350000
N          -7.960000     20.825000     10.614000
C         -10.000000     20.046000     11.365000
C         -11.109000     19.197000     11.265000
S          -8.391000     21.766000     11.886000
N          -9.762000     21.027000     12.301000
C         -12.240000     19.120000     12.144000
S         -12.238000     19.779000     13.726000
C         -13.482000     18.747000     11.730000
C         -14.017000     19.587000     13.838000
S         -14.126000     18.162000     10.219000
C         -14.488000     19.038000     12.645000
C         -14.766000     20.294000     14.907000
C         -15.776000     18.193000     10.907000
C         -15.747000     18.656000     12.225000
N         -16.105000     20.162000     14.978000
S         -14.053000     21.133000     16.240000
C         -16.576000     20.686000     16.128000
C         -15.666000     21.274000     16.959000
C          -4.371000     18.563000      6.148000
H          -5.576000     16.606000      7.373000
H          -7.691000     16.742000      8.905000
H          -7.859000     20.854000      7.832000
H         -10.127000     17.312000      8.808000
H         -16.574000     17.842000     10.266000
H         -16.540000     18.560000     12.958000
H         -17.607000     20.545000     16.425000
H         -15.809000     21.575000     17.988000
H          -4.089000     17.590000      5.729000
C          -3.285000     19.013000      7.141000
H          -4.439000     19.078000      5.182000
H          -3.515000     20.059000      7.377000
H          -2.339000     19.024000      6.586000
C          -3.247000     18.291000      8.502000
H          -4.136000     18.512000      9.105000
C          -1.982000     18.775000      9.263000
H          -3.203000     17.219000      8.272000
H          -2.008000     19.872000      9.249000
H          -1.075000     18.457000      8.735000
C          -2.064000     18.204000     10.645000
H          -2.998000     18.339000     11.203000
C          -0.855000     18.833000     11.308000
H          -1.894000     17.132000     10.487000
H           0.015000     18.363000     10.834000
H          -0.877000     18.582000     12.376000
H          -0.868000     19.924000     11.195000
C         -13.921000     24.626000     15.686000
C         -14.875000     24.638000     14.700000
N         -12.656000     24.180000     15.511000
C         -14.491000     24.155000     13.403000
C         -12.254000     23.714000     14.316000
C         -13.165000     23.682000     13.219000
C         -12.646000     23.358000     11.837000
C         -13.190000     22.410000     11.003000
C         -11.567000     24.094000     11.232000
N         -12.813000     22.115000      9.760000
N         -10.876000     25.096000     11.770000
C         -11.174000     23.817000      9.958000
C         -11.752000     22.729000      9.225000
S          -9.717000     25.554000     10.751000
N         -10.076000     24.568000      9.538000
C         -11.295000     22.082000      7.960000
S         -11.687000     20.365000      7.671000
C         -10.501000     22.470000      6.890000
C         -10.804000     20.240000      6.124000
S          -9.694000     23.983000      6.637000
C         -10.221000     21.477000      5.957000
C         -10.558000     19.053000      5.398000
C          -8.786000     23.172000      5.322000
C          -9.137000     21.921000      5.139000
N         -11.193000     18.011000      5.823000
S          -9.839000     19.025000      3.799000
C         -10.909000     16.951000      4.973000
C         -10.125000     17.237000      3.908000
C         -14.258000     24.898000     17.179000
H         -15.843000     25.108000     14.848000
H         -15.127000     24.241000     12.527000
H         -11.211000     23.424000     14.201000
H         -14.029000     21.784000     11.303000
H          -7.960000     23.685000      4.848000
H          -8.577000     21.316000      4.435000
H         -11.366000     15.990000      5.163000
H          -9.759000     16.568000      3.140000
H         -15.091000     24.260000     17.499000
C         -14.504000     26.358000     17.480000
H         -13.436000     24.559000     17.822000
H         -15.231000     26.732000     16.749000
H         -13.529000     26.764000     17.182000
C         -14.855000     26.709000     18.928000
H         -15.885000     26.429000     19.180000
C         -14.711000     28.253000     19.086000
H         -14.132000     26.310000     19.649000
H         -15.429000     28.725000     18.405000
H         -13.673000     28.569000     18.924000
C         -15.092000     28.689000     20.486000
H         -15.258000     29.770000     20.393000
C         -14.040000     28.482000     21.623000
H         -16.060000     28.315000     20.841000
H         -13.081000     28.812000     21.205000
H         -13.891000     27.422000     21.864000
H         -14.352000     29.110000     22.466000
$end

--------------------------------------------------------------
 ----------------------------------------------------------------
             Standard Nuclear Orientation (Angstroms)
    I     Atom           X                Y                Z
 ----------------------------------------------------------------
    1      C      -6.9119520157     1.4242999778    -0.7088000366
    2      C      -6.5992438520     0.8393793992    -1.9217582062
    3      N      -6.0553406469     1.4501896541     0.2813997854
    4      C      -5.3435882208     0.2170248805    -2.0689308562
    5      C      -4.8411473236     0.9104559088     0.1189403818
    6      C      -4.4179855531     0.4412198878    -1.1270342057
    7      C      -2.9926895523    -0.0538259152    -1.3181230933
    8      C      -2.7486787828    -1.2532486161    -1.9320847606
    9      C      -1.8732771349     0.7290645226    -1.0879505444
   10      N      -1.5530633701    -1.7696158325    -2.1103196694
   11      N      -2.0208632084     2.0356834818    -0.6790260450
   12      C      -0.6652409397     0.3048338742    -1.3853474312
   13      C      -0.4723568559    -1.0107409319    -1.8243698220
   14      S      -0.4731263268     2.5661207637    -0.5677927975
   15      N       0.2856219644     1.2756909453    -1.1653536016
   16      C       0.7614421399    -1.6434478957    -2.1920013443
   17      S       2.1869995893    -0.7652551118    -2.5574769148
   18      C       0.9872118027    -2.9779920840    -2.0467124299
   19      C       3.1656395835    -2.2650421224    -2.4729092816
   20      S      -0.0052571540    -4.3236777437    -1.5525287847
   21      C       2.3266161070    -3.3347174579    -2.1593406565
   22      C       4.6443796095    -2.1727240773    -2.3811688106
   23      C       1.4154514621    -5.4059612035    -1.6365200983
   24      C       2.5536696495    -4.6893471088    -2.0150139518
   25      N       5.3762173103    -3.3010830523    -2.2998939484
   26      S       5.5701412188    -0.7263400843    -2.5814630626
   27      C       6.6890063099    -3.0303477678    -2.4489055190
   28      C       7.0374873779    -1.7188815784    -2.6006367923
   29      C      -8.1729473354     2.3278365707    -0.5829611361
   30      H      -7.3981742185     0.9455108981    -2.6496980212
   31      H      -5.0607951702    -0.1575114570    -3.0481272729
   32      H      -4.1086816898     1.0938446222     0.9035413473
   33      H      -3.5707607678    -1.9421360803    -2.1189785047
   34      H       1.2403239937    -6.4516802694    -1.4204460253
   35      H       3.4876458277    -5.1077418614    -2.3727685178
   36      H       7.4147860192    -3.8259352028    -2.5553735739
   37      H       7.9925045972    -1.3214675275    -2.9166987846
   38      H      -9.0252173614     1.9793910778    -1.1779699943
   39      C      -7.8570513961     3.7839032401    -0.9677008010
   40      H      -8.6390713686     2.1360177789     0.3911738324
   41      H      -7.1384301561     4.1384986614    -0.2189968538
   42      H      -8.7780230177     4.3570737196    -0.8053774400
   43      C      -7.1672643574     4.0083417050    -2.3274324719
   44      H      -6.1491925444     3.6007239246    -2.3396197057
   45      C      -7.1061421671     5.5394055371    -2.5837713486
   46      H      -7.7901371849     3.4922317251    -3.0688364976
   47      H      -6.6623830166     5.9901727533    -1.6870173504
   48      H      -8.1178431185     5.9475343769    -2.6953465927
   49      C      -6.2747298601     5.7390245646    -3.8132406730
   50      H      -5.2995833727     5.2403307771    -3.8616021709
   51      C      -6.1968435579     7.2507429975    -3.8876187845
   52      H      -6.9136346037     5.3530241130    -4.6168900866
   53      H      -7.2095639735     7.5825471668    -4.1460357985
   54      H      -5.5006845830     7.5216944857    -4.6913954778
   55      H      -5.8353467606     7.6726431487    -2.9418178922
   56      C       6.4912993782     0.6950663010     0.5260215364
   57      C       6.2935575068    -0.4491954700     1.2567876766
   58      N       5.4917921501     1.4725193459     0.0502925548
   59      C       4.9367917304    -0.8282012423     1.5369577184
   60      C       4.2069426916     1.1536916914     0.2833071372
   61      C       3.8864720828    -0.0158577082     1.0341778257
   62      C       2.4571362629    -0.2467336904     1.4677172064
   63      C       1.7618706723    -1.4159904198     1.2686180870
   64      C       1.7173333618     0.7322386696     2.2202242070
   65      N       0.5239883972    -1.6988027037     1.6709459199
   66      N       2.1363250050     1.9351067279     2.6055596938
   67      C       0.4551354616     0.4588131379     2.6519057322
   68      C      -0.2034446318    -0.7615651236     2.2884966520
   69      S       0.9370907342     2.7043342952     3.3549141582
   70      N      -0.1531125064     1.5288584719     3.3084439204
   71      C      -1.6423893651    -1.1401668697     2.4058924458
   72      S      -2.3286719540    -2.3162389951     1.2521400616
   73      C      -2.7074651780    -0.7195518453     3.1898417516
   74      C      -3.9986137365    -2.2237279657     1.8776471780
   75      S      -2.7282826280     0.5058036004     4.4156058665
   76      C      -3.9443417974    -1.2699765422     2.8703000774
   77      C      -5.1425673540    -2.8092484225     1.2901976776
   78      C      -4.5164695743     0.4068290279     4.3523486215
   79      C      -4.9604624312    -0.4933674319     3.5072405357
   80      N      -4.9006317637    -3.6245824101     0.3174121623
   81      S      -6.7221006520    -2.8283297734     2.0512866755
   82      C      -6.1055716269    -4.1699345170    -0.1038561674
   83      C      -7.2023972604    -3.8000303207     0.5967303121
   84      C       7.8817731131     1.0938633574    -0.0433164128
   85      H       7.1203538111    -0.9828619396     1.7166093491
   86      H       4.6755622791    -1.6386322998     2.2109226099
   87      H       3.4355282026     1.8394457142    -0.0628649392
   88      H       2.1903567050    -2.2641222489     0.7367636707
   89      H      -5.1110017770     1.1302674932     4.8939104803
   90      H      -6.0267038257    -0.5601184926     3.3230814071
   91      H      -6.1012232882    -4.8917601068    -0.9084796259
   92      H      -8.2351839949    -4.0774845434     0.4302619508
   93      H       8.3168610758     0.2528845615    -0.5971991889
   94      C       8.8228949813     1.6397081178     1.0050442727
   95      H       7.7685970442     1.8597843699    -0.8208832458
   96      H       8.8334659127     0.9340643856     1.8445210018
   97      H       8.2332657459     2.5043263553     1.3352527950
   98      C      10.2196363375     2.0446258369     0.5272773583
   99      H      10.8560739760     1.1726025487     0.3340766410
  100      C      10.8759855228     2.8933331783     1.6580017260
  101      H      10.1938827019     2.7323856429    -0.3260070019
  102      H      10.9576631352     2.2563463788     2.5466217713
  103      H      10.3157355811     3.8211316272     1.8278664989
  104      C      12.2879495962     3.2927505505     1.2810664290
  105      H      12.7438418833     3.5923629933     2.2335162212
  106      C      12.4648457591     4.4887852507     0.2908489056
  107      H      12.9284618428     2.4690439189     0.9431663742
  108      H      11.7653248244     5.2624830221     0.6305064101
  109      H      12.1354229829     4.2395570016    -0.7256391240
  110      H      13.5067592501     4.8206200305     0.3725737874
 ----------------------------------------------------------------
 Molecular Point Group                 C1    NOp =  1
 Largest Abelian Subgroup              C1    NOp =  1
 Nuclear Repulsion Energy = 12856.4266561905 hartrees
 There are      270 alpha and      270 beta electrons
 Requested basis set is 6-31G(d,p)
 There are 406 shells and 1262 basis functions

 Total QAlloc Memory Limit  20000 MB
 Mega-Array Size      4888 MB
 MEM_STATIC part      5000 MB
 A cutoff of  1.0D-08 yielded  15901 shell pairs
 There are    173328 function pairs
 
 -------------------------------------------------------
 OpenMP Integral Computing Module                       
 Release: version 1.0, May 2013, Q-Chem Inc. Pittsburgh 
 -------------------------------------------------------
 Integral Job Info:
 Integral job number is                      11
 Integral operator is                         1
 short-range coefficients                     0
 long-range coefficients              100000000
 Omega coefficients                           0
 if combine SR and LR in K                    0
 Integral screening is                        0
 Integral computing path is                   2
 max size of driver memory is            800000
 size of driver memory is                593474
 size of scratch memory is             15166112
 max col of scratch BK array               1296
 max len of scratch array in speh3          155
 max len of scratch index in speh4           18
 max int batch size is                      520
 min int batch size is                       52
 fixed nKL is                                52
 max L of basis functions is                  2
 order of int derivative is                   0
 number of shells is                        406
 number of basis is                        1262
 number of cartesian basis is              1262
 number of contracted shell pairs         15901
 number of primitive shell pairs          49067
 maxK2 (contraction) of shell pair           36
 max number of K2 of shell pair               1
 max number of CS2 of shell pair           1919
 max number of PS2 of shell pair          10062
 mem total for path MDJ                  405384
 -------------------------------------------------------
 Smallest overlap matrix eigenvalue = 3.33E-04

 Scale SEOQF with 1.000000e-02/1.000000e-02/1.000000e-01

 Standard Electronic Orientation quadrupole field applied
 Nucleus-field energy     =    -0.0000001869 hartrees
 Guess from superposition of atomic densities
 Warning:  Energy on first SCF cycle will be non-variational
 A restricted hybrid HF-DFT SCF calculation will be
 performed using Pulay DIIS extrapolation
 Exchange:     0.2000 Hartree-Fock + 0.0800 Slater + 0.7200 B88
 Correlation:  0.1900 VWN1RPA + 0.8100 LYP
 Using SG-1 standard quadrature grid
 SCF converges when DIIS error is below 1.0E-05
 using 16 threads for integral computing 
 -------------------------------------------------------
 OpenMP BLAS3 based DFT computing Module                
 Release: version 1.0, May 2013, Q-Chem Inc. Pittsburgh 
 -------------------------------------------------------
 ---------------------------------------
  Cycle       Energy         DIIS Error
 ---------------------------------------
    1   -5680.9535276908      2.19E-02
    2   -5662.4024146921      2.23E-03
    3   -5659.5458239663      3.92E-03
    4   -5661.1312052995      2.47E-03
    5   -5663.4071791563      5.93E-04
    6   -5663.4353881039      4.75E-04
    7   -5663.4660100797      2.76E-04
    8   -5663.4803405542      6.66E-05
    9   -5663.4810168348      3.89E-05
   10   -5663.4812552862      1.89E-05
   11   -5663.4813106797      9.40E-06 Convergence criterion met
 ---------------------------------------
 SCF time:  CPU 1498.70 s  wall 123.58 s
 SCF   energy in the final basis set = -5663.4813106797
 Total energy in the final basis set = -5663.4813106797
 
 --------------------------------------------------------------
 
                    Orbital Energies (a.u.)
 --------------------------------------------------------------
 
 Alpha MOs
 -- Occupied --
-88.993 -88.992 -88.926 -88.919 -88.918 -88.912 -88.901 -88.901
-14.384 -14.383 -14.378 -14.372 -14.342 -14.340 -14.338 -14.333
-14.324 -14.319 -10.266 -10.266 -10.265 -10.256 -10.253 -10.252
-10.246 -10.242 -10.241 -10.240 -10.233 -10.230 -10.229 -10.228
-10.227 -10.226 -10.225 -10.225 -10.224 -10.221 -10.221 -10.220
-10.219 -10.219 -10.217 -10.216 -10.216 -10.215 -10.215 -10.209
-10.204 -10.203 -10.201 -10.200 -10.200 -10.191 -10.190 -10.189
-10.180 -10.179 -10.176 -10.176 -10.175 -10.175 -10.174 -10.173
-10.173 -10.172 -10.171 -10.167  -8.048  -8.047  -7.986  -7.979
 -7.979  -7.970  -7.962  -7.961  -6.013  -6.012  -6.008  -6.007
 -6.006  -6.005  -5.950  -5.947  -5.943  -5.943  -5.942  -5.939
 -5.939  -5.936  -5.936  -5.935  -5.931  -5.927  -5.927  -5.925
 -5.923  -5.922  -5.918  -5.917  -1.044  -1.040  -0.975  -0.965
 -0.962  -0.959  -0.945  -0.932  -0.913  -0.912  -0.896  -0.894
 -0.843  -0.842  -0.837  -0.828  -0.815  -0.810  -0.809  -0.806
 -0.799  -0.797  -0.794  -0.793  -0.785  -0.784  -0.768  -0.764
 -0.749  -0.747  -0.743  -0.738  -0.722  -0.718  -0.707  -0.707
 -0.695  -0.692  -0.676  -0.671  -0.651  -0.649  -0.644  -0.640
 -0.635  -0.633  -0.629  -0.626  -0.611  -0.608  -0.600  -0.594
 -0.590  -0.585  -0.578  -0.577  -0.576  -0.571  -0.567  -0.561
 -0.550  -0.546  -0.538  -0.537  -0.523  -0.518  -0.516  -0.508
 -0.504  -0.504  -0.501  -0.494  -0.487  -0.485  -0.482  -0.478
 -0.473  -0.472  -0.471  -0.468  -0.466  -0.461  -0.448  -0.444
 -0.443  -0.442  -0.438  -0.435  -0.435  -0.432  -0.431  -0.430
 -0.429  -0.425  -0.423  -0.418  -0.417  -0.415  -0.414  -0.412
 -0.408  -0.405  -0.403  -0.403  -0.399  -0.399  -0.397  -0.396
 -0.393  -0.391  -0.388  -0.388  -0.387  -0.384  -0.379  -0.379
 -0.376  -0.375  -0.371  -0.364  -0.363  -0.360  -0.357  -0.354
 -0.350  -0.349  -0.347  -0.346  -0.343  -0.341  -0.338  -0.338
 -0.336  -0.330  -0.327  -0.327  -0.326  -0.325  -0.324  -0.320
 -0.317  -0.308  -0.306  -0.303  -0.302  -0.300  -0.298  -0.295
 -0.293  -0.290  -0.289  -0.283  -0.282  -0.280  -0.276  -0.274
 -0.272  -0.269  -0.265  -0.260  -0.254  -0.248  -0.245  -0.242
 -0.240  -0.239  -0.236  -0.228  -0.195  -0.187
 -- Virtual --
 -0.110  -0.108  -0.073  -0.072  -0.031  -0.028  -0.027  -0.023
 -0.012  -0.009  -0.007  -0.006  -0.004  -0.001   0.002   0.005
  0.007   0.011   0.023   0.030   0.037   0.040   0.043   0.047
  0.053   0.058   0.061   0.069   0.074   0.081   0.085   0.086
  0.096   0.099   0.101   0.107   0.108   0.109   0.110   0.115
  0.117   0.119   0.119   0.120   0.123   0.124   0.126   0.128
  0.131   0.132   0.133   0.136   0.137   0.139   0.146   0.148
  0.153   0.153   0.154   0.157   0.162   0.163   0.164   0.164
  0.168   0.174   0.175   0.178   0.180   0.181   0.182   0.185
  0.186   0.188   0.189   0.191   0.192   0.194   0.200   0.203
  0.204   0.207   0.210   0.214   0.216   0.216   0.217   0.224
  0.225   0.227   0.232   0.235   0.236   0.237   0.240   0.242
  0.244   0.246   0.248   0.251   0.253   0.255   0.262   0.264
  0.267   0.268   0.270   0.274   0.276   0.278   0.283   0.283
  0.287   0.293   0.296   0.297   0.298   0.304   0.304   0.308
  0.311   0.315   0.317   0.319   0.322   0.326   0.326   0.330
  0.333   0.336   0.340   0.341   0.345   0.347   0.349   0.352
  0.354   0.362   0.366   0.367   0.373   0.374   0.377   0.381
  0.386   0.389   0.392   0.393   0.396   0.400   0.405   0.409
  0.410   0.418   0.423   0.425   0.428   0.436   0.440   0.443
  0.445   0.451   0.459   0.465   0.466   0.470   0.472   0.478
  0.481   0.482   0.484   0.489   0.490   0.493   0.498   0.502
  0.507   0.508   0.512   0.514   0.515   0.517   0.520   0.523
  0.524   0.524   0.528   0.531   0.531   0.534   0.537   0.542
  0.544   0.546   0.551   0.552   0.552   0.555   0.557   0.559
  0.560   0.562   0.564   0.567   0.570   0.571   0.574   0.576
  0.579   0.580   0.582   0.582   0.584   0.587   0.588   0.592
  0.594   0.594   0.597   0.598   0.601   0.603   0.607   0.610
  0.612   0.614   0.618   0.619   0.624   0.624   0.627   0.631
  0.631   0.633   0.637   0.637   0.639   0.640   0.642   0.644
  0.647   0.649   0.651   0.655   0.655   0.660   0.664   0.666
  0.670   0.673   0.673   0.677   0.681   0.684   0.688   0.689
  0.691   0.692   0.697   0.699   0.701   0.708   0.711   0.713
  0.715   0.718   0.723   0.725   0.728   0.731   0.733   0.734
  0.739   0.741   0.742   0.745   0.751   0.753   0.755   0.758
  0.761   0.764   0.766   0.768   0.771   0.775   0.776   0.781
  0.781   0.782   0.785   0.786   0.790   0.793   0.795   0.796
  0.798   0.800   0.803   0.807   0.808   0.809   0.813   0.814
  0.820   0.821   0.822   0.826   0.828   0.828   0.831   0.832
  0.833   0.834   0.837   0.838   0.840   0.841   0.842   0.845
  0.847   0.849   0.852   0.853   0.855   0.858   0.860   0.861
  0.862   0.862   0.867   0.869   0.872   0.873   0.877   0.881
  0.883   0.886   0.888   0.889   0.892   0.895   0.898   0.901
  0.903   0.905   0.908   0.911   0.913   0.914   0.916   0.920
  0.921   0.923   0.926   0.926   0.931   0.932   0.933   0.936
  0.939   0.939   0.943   0.944   0.948   0.949   0.953   0.955
  0.958   0.960   0.961   0.965   0.966   0.968   0.972   0.973
  0.976   0.978   0.980   0.984   0.986   0.988   0.990   0.992
  0.997   0.999   1.002   1.004   1.005   1.009   1.012   1.013
  1.017   1.020   1.024   1.025   1.029   1.034   1.036   1.039
  1.044   1.047   1.049   1.050   1.052   1.054   1.057   1.061
  1.063   1.068   1.073   1.075   1.077   1.080   1.083   1.087
  1.089   1.094   1.100   1.101   1.112   1.113   1.121   1.123
  1.129   1.133   1.134   1.138   1.144   1.150   1.151   1.159
  1.161   1.163   1.168   1.178   1.180   1.182   1.191   1.195
  1.201   1.205   1.206   1.209   1.216   1.219   1.224   1.234
  1.236   1.248   1.251   1.254   1.261   1.266   1.270   1.275
  1.275   1.282   1.283   1.288   1.291   1.299   1.302   1.311
  1.314   1.315   1.318   1.325   1.327   1.335   1.339   1.341
  1.345   1.349   1.354   1.359   1.360   1.368   1.371   1.371
  1.378   1.381   1.386   1.391   1.394   1.397   1.403   1.411
  1.412   1.419   1.426   1.430   1.432   1.439   1.445   1.446
  1.454   1.461   1.464   1.471   1.473   1.474   1.480   1.485
  1.493   1.499   1.502   1.506   1.509   1.514   1.518   1.519
  1.530   1.536   1.540   1.549   1.554   1.558   1.567   1.574
  1.576   1.581   1.592   1.597   1.598   1.603   1.613   1.617
  1.618   1.630   1.631   1.640   1.647   1.650   1.654   1.658
  1.667   1.669   1.676   1.679   1.684   1.684   1.690   1.694
  1.697   1.704   1.705   1.711   1.712   1.717   1.723   1.728
  1.729   1.731   1.743   1.744   1.751   1.756   1.760   1.767
  1.771   1.778   1.781   1.785   1.787   1.790   1.792   1.802
  1.808   1.814   1.817   1.822   1.824   1.826   1.832   1.837
  1.839   1.840   1.843   1.851   1.857   1.860   1.863   1.865
  1.868   1.871   1.874   1.878   1.882   1.886   1.888   1.890
  1.893   1.897   1.902   1.905   1.907   1.909   1.912   1.914
  1.916   1.918   1.922   1.923   1.928   1.936   1.939   1.939
  1.946   1.947   1.951   1.957   1.963   1.965   1.968   1.971
  1.974   1.980   1.985   1.990   1.991   1.993   2.000   2.006
  2.010   2.015   2.018   2.021   2.030   2.033   2.037   2.041
  2.047   2.049   2.058   2.059   2.062   2.064   2.068   2.072
  2.073   2.074   2.076   2.085   2.087   2.091   2.099   2.104
  2.105   2.108   2.110   2.114   2.119   2.125   2.128   2.129
  2.141   2.144   2.146   2.149   2.152   2.153   2.161   2.165
  2.169   2.173   2.177   2.180   2.183   2.188   2.194   2.200
  2.202   2.205   2.209   2.209   2.215   2.221   2.223   2.228
  2.232   2.240   2.241   2.247   2.248   2.249   2.261   2.264
  2.272   2.276   2.278   2.279   2.281   2.288   2.290   2.296
  2.297   2.301   2.306   2.309   2.309   2.314   2.316   2.321
  2.324   2.329   2.332   2.335   2.340   2.344   2.345   2.348
  2.353   2.358   2.362   2.364   2.367   2.370   2.371   2.378
  2.380   2.381   2.382   2.383   2.389   2.395   2.396   2.402
  2.406   2.410   2.414   2.416   2.418   2.422   2.429   2.431
  2.437   2.437   2.438   2.443   2.445   2.448   2.453   2.455
  2.461   2.462   2.465   2.466   2.472   2.479   2.481   2.486
  2.493   2.496   2.498   2.500   2.503   2.509   2.511   2.518
  2.520   2.525   2.530   2.534   2.537   2.543   2.546   2.553
  2.554   2.555   2.561   2.562   2.569   2.570   2.577   2.581
  2.582   2.587   2.590   2.600   2.606   2.613   2.616   2.620
  2.625   2.634   2.635   2.639   2.641   2.644   2.653   2.653
  2.660   2.661   2.668   2.668   2.671   2.672   2.676   2.680
  2.686   2.692   2.695   2.700   2.701   2.709   2.710   2.713
  2.719   2.721   2.724   2.725   2.728   2.732   2.739   2.747
  2.750   2.756   2.758   2.781   2.782   2.801   2.803   2.810
  2.814   2.815   2.822   2.828   2.830   2.833   2.842   2.843
  2.848   2.855   2.858   2.866   2.875   2.876   2.878   2.880
  2.890   2.896   2.899   2.901   2.908   2.911   2.918   2.920
  2.924   2.929   2.932   2.934   2.939   2.947   2.952   2.964
  2.972   2.976   2.982   2.986   2.992   3.025   3.031   3.041
  3.042   3.054   3.082   3.091   3.108   3.116   3.132   3.139
  3.174   3.188   3.208   3.215   3.215   3.234   3.239   3.242
  3.247   3.247   3.260   3.263   3.273   3.276   3.277   3.287
  3.301   3.309   3.311   3.312   3.317   3.325   3.336   3.337
  3.348   3.350   3.368   3.380   3.391   3.392   3.417   3.430
  3.439   3.444   3.467   3.470   3.476   3.495   3.537   3.553
  3.569   3.577   3.581   3.583   3.595   3.599   3.610   3.624
  3.643   3.648   3.730   3.788   3.878   3.887   3.919   3.925
  3.948   3.958   3.962   3.966   3.967   3.982   3.991   3.999
  4.041   4.059   4.082   4.092   4.119   4.126   4.136   4.142
  4.146   4.162   4.166   4.178   4.187   4.193   4.205   4.222
  4.226   4.236   4.252   4.265   4.267   4.274   4.279   4.296
  4.319   4.324   4.342   4.365   4.382   4.391   4.407   4.415
  4.434   4.455   4.461   4.476   4.485   4.490   4.496   4.497
  4.500   4.506   4.553   4.568   4.589   4.621   4.668   4.684
  4.703   4.715   4.731   4.740   4.777   4.796   4.800   4.827
 --------------------------------------------------------------
 
          Ground-State Mulliken Net Atomic Charges

     Atom                 Charge (a.u.)
  ----------------------------------------
      1 C                     0.258609
      2 C                    -0.108549
      3 N                    -0.462159
      4 C                    -0.091363
      5 C                     0.070266
      6 C                     0.059726
      7 C                     0.021637
      8 C                     0.055228
      9 C                     0.216792
     10 N                    -0.499029
     11 N                    -0.546540
     12 C                     0.231903
     13 C                     0.270037
     14 S                     0.611025
     15 N                    -0.574007
     16 C                    -0.203035
     17 S                     0.314494
     18 C                    -0.098794
     19 C                    -0.236959
     20 S                     0.293431
     21 C                     0.143897
     22 C                     0.045437
     23 C                    -0.324744
     24 C                    -0.050868
     25 N                    -0.437970
     26 S                     0.284568
     27 C                     0.131905
     28 C                    -0.320995
     29 C                    -0.229734
     30 H                     0.086519
     31 H                     0.099125
     32 H                     0.120674
     33 H                     0.116698
     34 H                     0.136632
     35 H                     0.125572
     36 H                     0.108404
     37 H                     0.131376
     38 H                     0.082937
     39 C                    -0.173630
     40 H                     0.103225
     41 H                     0.110188
     42 H                     0.088085
     43 C                    -0.181163
     44 H                     0.109519
     45 C                    -0.167947
     46 H                     0.081723
     47 H                     0.093420
     48 H                     0.093938
     49 C                    -0.174563
     50 H                     0.096331
     51 C                    -0.307092
     52 H                     0.094753
     53 H                     0.101870
     54 H                     0.086941
     55 H                     0.102871
     56 C                     0.269783
     57 C                    -0.104965
     58 N                    -0.481769
     59 C                    -0.071466
     60 C                     0.105156
     61 C                     0.020137
     62 C                     0.035681
     63 C                     0.039998
     64 C                     0.261387
     65 N                    -0.501125
     66 N                    -0.561949
     67 C                     0.171623
     68 C                     0.285432
     69 S                     0.617766
     70 N                    -0.547695
     71 C                    -0.250686
     72 S                     0.354752
     73 C                    -0.116725
     74 C                    -0.224206
     75 S                     0.264624
     76 C                     0.116655
     77 C                     0.085217
     78 C                    -0.300528
     79 C                    -0.054847
     80 N                    -0.436652
     81 S                     0.259457
     82 C                     0.128266
     83 C                    -0.302635
     84 C                    -0.226237
     85 H                     0.095525
     86 H                     0.106861
     87 H                     0.118898
     88 H                     0.123547
     89 H                     0.126410
     90 H                     0.120775
     91 H                     0.116049
     92 H                     0.130602
     93 H                     0.092658
     94 C                    -0.176410
     95 H                     0.112010
     96 H                     0.087229
     97 H                     0.106364
     98 C                    -0.171865
     99 H                     0.092256
    100 C                    -0.168309
    101 H                     0.095545
    102 H                     0.090902
    103 H                     0.094036
    104 C                    -0.184711
    105 H                     0.085440
    106 C                    -0.316443
    107 H                     0.087008
    108 H                     0.099887
    109 H                     0.104329
    110 H                     0.106341
  ----------------------------------------
  Sum of atomic charges =     0.000000

 -----------------------------------------------------------------
                    Cartesian Multipole Moments
 -----------------------------------------------------------------
    Charge (ESU x 10^10)
                 0.0000
    Dipole Moment (Debye)
         X      -1.0586      Y       0.4797      Z       0.2107
       Tot       1.1811
    Quadrupole Moments (Debye-Ang)
        XX    -383.2268     XY      -0.3270     YY    -438.8427
        XZ       8.1755     YZ       4.1899     ZZ    -442.3381
    Octopole Moments (Debye-Ang^2)
       XXX     -70.0463    XXY    -154.4080    XYY     -39.8565
       YYY     -62.6051    XXZ     -58.2227    XYZ      -5.6275
       YYZ      12.1223    XZZ     -24.5010    YZZ      45.2866
       ZZZ      36.3250
    Hexadecapole Moments (Debye-Ang^3)
      XXXX  -68601.0843   XXXY     122.9575   XXYY  -15263.6702
      XYYY     213.8099   YYYY  -18998.2813   XXXZ     -13.9498
      XXYZ      57.0540   XYYZ      42.5612   YYYZ     426.1762
      XXZZ  -14120.1086   XYZZ    -106.4954   YYZZ   -5450.9417
      XZZZ     -52.4127   YZZZ     152.7934   ZZZZ  -12862.7752
 -----------------------------------------------------------------
Archival summary:
1\1\mn246\SP\ProcedureUnspecified\6-31G**\8105042\afmv_a\SatOct1300:29:142018SatOct1300:29:142018\0\\#,ProcedureUnspecified,6-31G**,\\0,1\S\C,1,1.78473\C,2,1.38776,1,105.652\C,3,1.39102,2,115.641,1,1.15186,0\C,4,1.37766,3,118.326,2,-3.66515,0\C,5,1.413,4,128.194,3,172.543,0\N,6,1.29214,5,115.017,4,-175.982,0\C,7,1.38808,6,108.292,5,-176.777,0\H,8,1.08096,7,118.997,6,179.152,0\C,8,1.35303,7,116.049,6,2.88755,0\H,10,1.08229,8,128.597,7,-178.193,0\C,4,1.42875,3,108.354,2,164.908,0\H,12,1.08409,4,126.178,3,-169.004,0\C,12,1.31213,4,114.796,3,8.40564,0\H,14,1.08172,12,126.534,4,-176.341,0\C,2,1.49254,1,119.145,3,175.915,0\N,16,1.33751,2,112.514,1,23.9096,0\C,17,1.33199,16,119.744,2,-167.684,0\H,18,1.08894,17,110.355,16,176.736,0\C,18,1.37484,17,127.359,16,-3.52421,0\C,16,1.43357,2,129.71,1,-151.476,0\C,21,1.36171,16,121.091,2,166.132,0\N,22,1.33076,21,112.429,16,-177.012,0\N,21,1.39499,16,124.889,2,-5.36499,0\C,20,1.51138,18,124.516,17,-177.182,0\C,25,1.41981,20,120.705,18,60.3432,0\H,26,1.08594,25,117.957,20,-2.17415,0\C,25,1.42631,20,119.259,18,-129.558,0\H,28,1.08866,25,121.648,20,5.59014,0\N,28,1.34417,25,120.035,20,-170.682,0\C,30,1.35269,28,120.598,25,0.218768,0\C,31,1.37203,30,124.067,28,-0.286786,0\H,32,1.0862,31,121.703,30,172.874,0\C,31,1.55454,30,112.623,28,-170.452,0\H,34,1.09697,31,110.061,30,119.289,0\H,34,1.09729,31,110.263,30,6.80165,0\C,34,1.51087,31,113.31,30,-113.973,0\H,37,1.09671,34,107.739,31,-50.4182,0\H,37,1.09739,34,99.1345,31,60.1362,0\C,37,1.53072,34,116.575,31,-179.466,0\H,40,1.09625,37,112.797,34,-52.5441,0\H,40,1.09672,37,111.973,34,74.9461,0\C,40,1.55873,37,107.568,34,-166.004,0\H,43,1.09639,40,107.636,37,-61.743,0\H,43,1.09706,40,110.963,37,63.4027,0\C,43,1.51501,40,110.824,37,-177.931,0\H,46,1.09678,43,115.019,40,50.6651,0\H,46,1.09762,43,104.073,40,162.901,0\C,46,1.56279,43,117.704,40,-78.8133,0\H,49,1.09653,46,106.974,43,-163.301,0\H,49,1.09695,46,105.749,43,-44.1329,0\H,49,1.09722,46,112.283,43,69.6059,0\S,24,1.60388,21,106.226,16,174.291,0\S,3,1.73333,2,128.533,1,174.946,0\S,6,1.75344,5,123.597,4,20.8197,0\H,35,2.82203,34,142.855,31,-67.361,0\C,56,1.08161,35,93.8007,34,63.4926,0\C,57,1.36543,56,127.642,35,123.262,0\H,58,1.08215,57,121.603,56,-5.90097,0\N,58,1.34867,57,116.969,56,167.326,0\C,60,1.34736,58,110.728,57,-2.19046,0\C,61,1.48446,60,119.519,58,-169.765,0\C,62,1.39517,61,129.261,60,-17.9939,0\C,63,1.38109,62,132.581,61,19.4923,0\H,64,1.08414,63,119.057,62,13.8306,0\C,63,1.39066,62,113.625,61,-164.892,0\C,66,1.36128,63,113.739,62,3.37213,0\C,64,1.39726,63,113.418,62,-177.588,0\H,68,1.08207,64,132.966,63,178.57,0\C,67,1.43448,66,123.21,63,165.597,0\N,70,1.35114,67,112.705,66,38.1723,0\C,71,1.3145,70,118.567,67,173.998,0\H,72,1.08872,71,114.517,70,176.121,0\C,72,1.36934,71,124.538,70,8.55044,0\C,74,1.38527,72,115.184,71,-11.0149,0\C,75,1.31445,74,121.512,72,3.17165,0\N,76,1.37663,75,111.779,74,-175.605,0\N,75,1.37705,74,119.933,72,-169.468,0\C,74,1.52087,72,120.56,71,178.37,0\C,79,1.33947,74,120.316,72,36.7779,0\H,80,1.08585,79,120.789,74,10.9738,0\C,79,1.39703,74,120.348,72,-131.374,0\H,82,1.08892,79,119.699,74,-11.1906,0\N,82,1.33865,79,121.225,74,-174.527,0\C,84,1.30956,82,119.576,79,-6.62544,0\C,85,1.38246,84,121.589,82,-0.635257,0\H,86,1.08602,85,112.355,84,177.183,0\C,85,1.55638,84,117.217,82,166.816,0\H,88,1.09627,85,113.67,84,155.578,0\H,88,1.09682,85,108.337,84,50.7573,0\C,88,1.53881,85,111.271,84,-80.9844,0\H,91,1.09668,88,105.651,85,64.5312,0\H,91,1.09684,88,106.564,85,177.294,0\C,91,1.54112,88,116.762,85,-51.9546,0\H,94,1.09671,91,111.788,88,66.8859,0\H,94,1.09728,91,105.877,88,-53.0842,0\C,94,1.55358,91,107.861,88,-173.124,0\H,97,1.09661,94,110.32,91,65.1234,0\H,97,1.0974,94,106.612,91,-51.494,0\C,97,1.49756,94,106.778,91,-172.612,0\H,100,1.09633,97,117.995,94,50.1683,0\H,100,1.09684,97,103.37,94,-70.1957,0\C,100,1.51555,97,101.641,94,175.535,0\H,103,1.09657,100,105.422,97,69.3753,0\H,103,1.09691,100,110.994,97,-53.3417,0\H,103,1.09732,100,108.352,97,-173.138,0\S,77,1.61183,76,107.381,75,-1.90151,0\S,67,1.71377,66,112.779,63,-2.98244,0\S,61,1.72892,60,114.63,58,2.3809,0\S,66,1.74358,63,111.914,62,176.264,0\\\@

 Total job time:  126.91s(wall), 1508.30s(cpu) 
 Sat Oct 13 00:29:14 2018

        *************************************************************
        *                                                           *
        *  Thank you very much for using Q-Chem.  Have a nice day.  *
        *                                                           *
        *************************************************************


