
Running Job 1 of 1 ./6/31.qcin
qchem ./6/31.qcin_35937.0 /tmpu/cab_g/afmv_a/scratch_qchem/qchem35937/ 1
/tmpu/appuserlic/qchem4.4/serial-multicore/exe/qcprog.exe_s ./6/31.qcin_35937.0 /tmpu/cab_g/afmv_a/scratch_qchem/qchem35937/
Check license passed

                  Welcome to Q-Chem
     A Quantum Leap Into The Future Of Chemistry


 Q-Chem 4.4, Q-Chem, Inc., Pleasanton, CA (2016)

 Y. Shao,  Z. Gan,  E. Epifanovsky,  A. T. B. Gilbert,  M. Wormit,  
 J. Kussmann,  A. W. Lange,  A. Behn,  J. Deng,  X. Feng,  D. Ghosh,  
 M. Goldey,  P. R. Horn,  L. D. Jacobson,  I. Kaliman,  F. Rob,  
 R. Z. Khaliullin,  T. Kus,  A. Landau,  J. Liu,  E. I. Proynov,  Y. M. Rhee,  
 R. M. Richard,  M. A. Rohrdanz,  R. P. Steele,  E. J. Sundstrom,  
 H. L. Woodcock III,  P. M. Zimmerman,  D. Zuev,  B. Albrecht,  E. Alguire,  
 B. Austin,  S. A. Baeppler,  G. J. O. Beran,  Y. A. Bernard,  E. Berquist,  
 K. Brandhorst,  K. B. Bravaya,  S. T. Brown,  D. Casanova,  C.-M. Chang,  
 Y. Chen,  S. H. Chien,  K. D. Closser,  M. P. Coons,  D. L. Crittenden,  
 S. Dasgupta,  M. Diedenhofen,  R. A. DiStasio Jr.,  H. Do,  A. D. Dutoi,  
 R. G. Edgar,  P.-T. Fang,  S. Fatehi,  Q. Feng,  L. Fusti-Molnar,  
 A. Ghysels,  A. Golubeva-Zadorozhnaya,  J. Gomes,  A. Gunina,  
 M. W. D. Hanson-Heine,  P. H. P. Harbach,  A. W. Hauser,  J. E. Herr,  
 E. G. Hohenstein,  Z. C. Holden,  K. Hui,  T.-C. Jagau,  H. Ji,  B. Kaduk,  
 K. Khistyaev,  Jaehoon Kim,  Jihan Kim,  R. A. King,  P. Klunzinger,  
 K. Koh,  D. Kosenkov,  T. Kowalczyk,  C. M. Krauter,  A. Kunitsa,  
 K. U. Lao,  A. Laurent,  K. V. Lawler,  J. Lee,  D. Lefrancois,  S. Lehtola,  
 S. V. Levchenko,  C. Y. Lin,  Y.-S. Lin,  F. Liu,  E. Livshits,  
 R. C. Lochan,  A. Luenser,  P. Manohar,  S. F. Manzer,  S.-P. Mao,  Y. Mao,  
 N. Mardirossian,  A. V. Marenich,  L. A. Martinez-Martinez,  S. A. Maurer,  
 N. J. Mayhall,  J.-M. Mewes,  A. F. Morrison,  K. Nanda,  T. S. Nguyen-Beck,  
 C. M. Oana,  R. Olivares-Amaya,  D. P. O'Neill,  J. A. Parkhill,  
 T. M. Perrine,  R. Peverati,  P. A. Pieniazek,  F. Plasser,  A. Prociuk,  
 D. R. Rehn,  E. Rosta,  N. J. Russ,  N. Sergueev,  S. M. Sharada,  
 S. Sharma,  D. W. Small,  A. Sodt,  T. Stauch,  T. Stein,  D. Stuck,  
 Y.-C. Su,  A. J. W. Thom,  T. Tsuchimochi,  L. Vogt,  O. Vydrov,  T. Wang,  
 M. A. Watson,  J. Wenzel,  A. White,  C. F. Williams,  V. Vanovschi,  
 K. Yao,  S. Yeganeh,  S. R. Yost,  Z.-Q. You,  I. Y. Zhang,  X. Zhang,  
 Y. Zhao,  B. R. Brooks,  G. K. L. Chan,  D. M. Chipman,  C. J. Cramer,  
 W. A. Goddard III,  M. S. Gordon,  W. J. Hehre,  A. Klamt,  
 H. F. Schaefer III,  M. W. Schmidt,  C. D. Sherrill,  D. G. Truhlar,  
 A. Warshel,  X. Xu,  A. Aspuru-Guzik,  R. Baer,  A. T. Bell,  N. A. Besley,  
 J.-D. Chai,  A. Dreuw,  B. D. Dunietz,  T. R. Furlani,  S. R. Gwaltney,  
 C.-P. Hsu,  Y. Jung,  J. Kong,  D. S. Lambrecht,  W. Liang,  C. Ochsenfeld,  
 V. A. Rassolov,  L. V. Slipchenko,  J. E. Subotnik,  T. Van Voorhis,  
 J. M. Herbert,  A. I. Krylov,  P. M. W. Gill,  M. Head-Gordon

 Contributors to earlier versions of Q-Chem not listed above: 
 R. D. Adamson,  J. Baker,  E. F. C. Byrd,  A. K. Chakraborty,  C.-L. Cheng,  
 H. Dachsel,  R. J. Doerksen,  G. Hawkins,  A. Heyden,  S. Hirata,  
 G. Kedziora,  F. J. Keil,  C. Kelley,  P. P. Korambath,  W. Kurlancheek,  
 A. M. Lee,  M. S. Lee,  D. Liotard,  I. Lotan,  P. E. Maslen,  N. Nair,  
 D. Neuhauser,  R. Olson,  B. Peters,  J. Ritchie,  N. E. Schultz,  
 N. Shenvi,  A. C. Simmonett,  K. S. Thanthiriwatte,  Q. Wu,  W. Zhang

 Please cite Q-Chem as follows:
 Y. Shao et al., Mol. Phys. 113, 184-215 (2015)
 DOI: 10.1080/00268976.2014.952696

 Q-Chem 4.4.2 for Intel X86 Linux

 Parts of Q-Chem use Armadillo 5.200.1 (Boston Tea Smuggler).
 http://arma.sourceforge.net/

 Q-Chem begins on Sat Oct 13 00:35:12 2018  

Host: 
0

     Scratch files written to /tmpu/cab_g/afmv_a/scratch_qchem/qchem35937//
 Dec716 11556_ 22328  22283 4050   
Processing $rem in /tmpu/appuserlic/qchem4.4/serial-multicore/config/preferences.
 MEM_TOTAL  2000 
FILE_GEOM_ORG=        593

Checking the input file for inconsistencies... 	...done.

--------------------------------------------------------------
User input:
--------------------------------------------------------------
$comment
SP
$end

$rem
MEM_STATIC 5000
MEM_TOTAL 20000
JOBTYPE SP
EXCHANGE B3LYP
BASIS 6-31g(d,p)
$end

$molecule
0 1
C          -2.378000      6.881000     14.589000
C          -3.306000      5.924000     15.007000
N          -1.465000      6.688000     13.667000
C          -3.439000      4.704000     14.208000
C          -1.652000      5.586000     12.950000
C          -2.622000      4.564000     13.094000
C          -2.664000      3.412000     12.222000
C          -1.452000      2.924000     11.613000
C          -3.882000      2.822000     11.718000
N          -1.421000      1.916000     10.790000
N          -5.066000      3.374000     12.109000
C          -3.861000      1.918000     10.651000
C          -2.586000      1.405000     10.300000
S          -6.105000      2.587000     11.034000
N          -5.107000      1.719000     10.109000
C          -2.320000      0.578000      9.082000
S          -0.771000      0.475000      8.292000
C          -3.156000     -0.310000      8.437000
C          -1.423000     -0.439000      6.943000
S          -4.735000     -0.905000      8.917000
C          -2.662000     -0.823000      7.248000
C          -0.775000     -0.505000      5.644000
C          -4.841000     -1.662000      7.202000
C          -3.630000     -1.599000      6.519000
N          -1.210000     -1.370000      4.723000
S           0.381000      0.653000      5.132000
C          -0.404000     -1.225000      3.545000
C           0.492000     -0.141000      3.587000
C          -2.228000      8.102000     15.345000
H          -3.861000      6.168000     15.908000
H          -4.141000      3.961000     14.575000
H          -1.034000      5.683000     12.058000
H          -0.528000      3.376000     11.969000
H          -5.786000     -2.105000      6.915000
H          -3.476000     -1.972000      5.513000
H          -0.661000     -1.887000      2.728000
H           1.194000      0.126000      2.809000
H          -1.752000      8.903000     14.766000
C          -1.367000      7.851000     16.607000
H          -3.213000      8.520000     15.585000
H          -1.587000      6.948000     17.190000
H          -1.528000      8.672000     17.317000
C           0.202000      7.812000     16.427000
H           0.484000      6.890000     15.903000
C           1.048000      7.949000     17.727000
H           0.441000      8.673000     15.791000
H           1.029000      8.958000     18.158000
H           2.102000      7.795000     17.465000
C           0.753000      6.789000     18.730000
H          -0.248000      6.969000     19.142000
C           1.806000      6.611000     19.878000
H           0.734000      5.907000     18.078000
H           2.739000      6.165000     19.511000
H           1.510000      5.940000     20.694000
H           2.008000      7.571000     20.369000
C           7.371000      8.100000     13.104000
C           6.350000      8.134000     12.111000
N           7.655000      7.017000     13.873000
C           5.654000      6.928000     11.896000
C           6.965000      5.957000     13.633000
C           6.021000      5.747000     12.594000
C           5.386000      4.467000     12.232000
C           4.640000      4.343000     11.027000
C           5.223000      3.297000     13.033000
N           3.947000      3.281000     10.592000
N           5.698000      3.284000     14.257000
C           4.515000      2.174000     12.593000
C           3.853000      2.163000     11.344000
S           5.266000      1.846000     14.873000
N           4.475000      1.233000     13.582000
C           3.193000      0.999000     10.813000
S           2.340000     -0.308000     11.658000
C           3.155000      0.704000      9.475000
C           1.861000     -1.077000     10.159000
S           3.971000      1.480000      8.168000
C           2.429000     -0.410000      9.140000
C           0.805000     -2.078000     10.023000
C           3.334000      0.231000      7.140000
C           2.615000     -0.723000      7.765000
N           0.969000     -2.867000      8.959000
S          -0.671000     -2.204000     11.038000
C          -0.165000     -3.672000      8.896000
C          -1.100000     -3.485000      9.930000
C           8.135000      9.331000     13.312000
H           6.118000      9.026000     11.537000
H           4.818000      7.021000     11.208000
H           7.225000      5.142000     14.307000
H           4.560000      5.204000     10.364000
H           3.663000      0.198000      6.109000
H           2.203000     -1.586000      7.255000
H          -0.123000     -4.382000      8.080000
H          -2.075000     -3.949000      9.999000
H           8.834000      9.240000     14.153000
C           7.219000     10.502000     13.737000
H           8.623000      9.534000     12.350000
H           6.893000     10.389000     14.778000
H           6.301000     10.592000     13.143000
C           7.946000     11.854000     13.851000
H           8.901000     11.483000     14.242000
C           7.187000     12.820000     14.717000
H           8.072000     12.289000     12.851000
H           7.121000     12.384000     15.721000
H           6.195000     13.034000     14.300000
C           8.050000     14.068000     14.916000
H           9.043000     13.837000     15.320000
C           7.442000     15.135000     15.859000
H           8.115000     14.576000     13.946000
H           6.366000     15.128000     15.643000
H           8.066000     16.007000     15.628000
H           7.440000     15.008000     16.949000
$end

--------------------------------------------------------------
 ----------------------------------------------------------------
             Standard Nuclear Orientation (Angstroms)
    I     Atom           X                Y                Z
 ----------------------------------------------------------------
    1      C       2.4850981213    -5.4823686569     0.7688246679
    2      C       1.5407118805    -6.1960875836     0.0268698701
    3      N       2.3607505143    -4.2283037168     1.1331882205
    4      C       0.2177936794    -5.5955441900    -0.1567739853
    5      C       1.1340980371    -3.7440533146     0.9773445546
    6      C      -0.0119892054    -4.3452785732     0.4019036619
    7      C      -1.2762875351    -3.6525157042     0.2975899964
    8      C      -1.3039414212    -2.2160263372     0.1805320572
    9      C      -2.5603993665    -4.2720495805     0.5275347301
   10      N      -2.4051653485    -1.5247006194     0.1194696790
   11      N      -2.5800833445    -5.5992173877     0.8400713720
   12      C      -3.7127189603    -3.5018043269     0.7146918914
   13      C      -3.5995421310    -2.1280742356     0.3799507353
   14      S      -4.1925539716    -5.7444180805     1.3231554596
   15      N      -4.7529361295    -4.2335036723     1.2328089716
   16      C      -4.6467980062    -1.1021767947     0.6782770207
   17      S      -4.3192976985     0.5971143282     0.8764265300
   18      C      -6.0167127286    -1.2537450205     0.7401294764
   19      C      -5.9591942043     0.9404378153     1.3990826633
   20      S      -7.0055212697    -2.6406198403     0.3200081804
   21      C      -6.7115447610    -0.1364664420     1.1758163189
   22      C      -6.3132389018     2.1167459746     2.1753638407
   23      C      -8.4360660599    -1.7095919532     1.1024650014
   24      C      -8.1104907866    -0.3892793981     1.3986988589
   25      N      -7.5982652089     2.4254189671     2.3731500225
   26      S      -5.1567171440     3.0110105054     3.0710157668
   27      C      -7.6632858978     3.6190143182     3.1665272645
   28      C      -6.4197545955     4.0531859397     3.6612604282
   29      C       3.7962877321    -6.0485681524     0.9811379640
   30      H       1.8729185418    -7.1544470937    -0.3611350056
   31      H      -0.4851907492    -6.1543273309    -0.7676064456
   32      H       1.0797133822    -2.8303186264     1.5682152924
   33      H      -0.3395793877    -1.7347497925     0.0282338109
   34      H      -9.3709083283    -2.2436175168     1.2144008335
   35      H      -8.7894083273     0.3184122754     1.8603529157
   36      H      -8.6631147547     3.9719598185     3.3845954438
   37      H      -6.2551998683     4.9367762118     4.2625648209
   38      H       4.3214613386    -5.5942867005     1.8303959021
   39      C       4.6751858971    -5.8576493303    -0.2790421894
   40      H       3.7089215882    -7.1009858557     1.2766597647
   41      H       4.2099587323    -6.0716903226    -1.2493246940
   42      H       5.5225349543    -6.5531690870    -0.2309397664
   43      C       5.3572214755    -4.4482948530    -0.4893501237
   44      H       4.5911033186    -3.7121002268    -0.7636937803
   45      C       6.5217620551    -4.3938727695    -1.5215170071
   46      H       5.7763975076    -4.1817556753     0.4884976768
   47      H       7.4376114026    -4.8895761811    -1.1755385387
   48      H       6.8202997679    -3.3453389887    -1.6428765741
   49      C       6.0423933934    -4.7996583664    -2.9512644448
   50      H       5.8627518024    -5.8820415352    -2.9333598495
   51      C       7.0147115441    -4.4139022389    -4.1192484447
   52      H       5.0887658087    -4.2656569909    -3.0452110288
   53      H       6.9935505785    -3.3371565610    -4.3296408370
   54      H       6.7892860114    -4.8653643328    -5.0934549459
   55      H       8.0376789226    -4.7396818881    -3.8936595206
   56      C       7.5775973682     3.0495206107     0.6821993492
   57      C       6.5956153975     2.6563762464     1.6365551100
   58      N       7.3324504715     3.2183206529    -0.6430612081
   59      C       5.2826186089     2.5049461670     1.1485127306
   60      C       6.1135922146     3.0439075207    -1.0189130526
   61      C       4.9755031200     2.8036391075    -0.2054136351
   62      C       3.5690777339     2.7931665079    -0.6464657385
   63      C       2.5111677866     2.7738624502     0.3045184343
   64      C       3.0507231432     2.5963744584    -1.9616278607
   65      N       1.1937661151     2.6899352069     0.0705802936
   66      N       3.8831620575     2.4172247928    -2.9610881406
   67      C       1.6800641511     2.5189147403    -2.2286239645
   68      C       0.7232847014     2.5599364452    -1.1887892159
   69      S       2.9476124733     2.1561344244    -4.2612815090
   70      N       1.4785238496     2.2734330423    -3.5569018883
   71      C      -0.6966002728     2.5769931486    -1.4256282517
   72      S      -1.6412448125     1.8191609747    -2.7230179734
   73      C      -1.5807138646     3.2600765851    -0.6316174359
   74      C      -3.1640689266     2.3388291739    -2.0310969661
   75      S      -1.2572493733     4.3509387744     0.6651753026
   76      C      -2.9026778644     3.1153111713    -0.9659094613
   77      C      -4.4763003841     1.7926328927    -2.3707309221
   78      C      -2.9692670054     4.6460850714     0.7317957996
   79      C      -3.7037608544     4.0083550467    -0.2017571991
   80      N      -5.4730277558     2.6497621413    -2.1396962974
   81      S      -4.8184619503     0.1102910754    -2.8973507780
   82      C      -6.6503995178     1.9501559786    -2.3892898693
   83      C      -6.4865767171     0.6262133124    -2.8350340861
   84      C       8.9394384664     3.2543653953     1.1779295554
   85      H       6.8276115644     2.4907961669     2.6842788407
   86      H       4.5860092274     2.1059502634     1.8809242533
   87      H       5.9993650799     3.1644937233    -2.0952550658
   88      H       2.7548843634     2.7861761810     1.3664697525
   89      H      -3.3307836976     5.4192968094     1.3979341408
   90      H      -4.7741753161     4.1408762365    -0.3078892599
   91      H      -7.5316626592     2.5660163399    -2.2635469138
   92      H      -7.2770043521    -0.0959739524    -2.9910844249
   93      H       9.6428053204     3.4655976998     0.3625652305
   94      C       9.5108609083     1.9664257008     1.8148045323
   95      H       8.8596563049     4.0635299926     1.9152791748
   96      H       9.7754618606     1.2308422985     1.0456300435
   97      H       8.8165133953     1.4550426199     2.4930588178
   98      C      10.8934492479     2.1518317848     2.4655756649
   99      H      11.3081863880     2.8671439297     1.7452502940
  100      C      11.6158130731     0.8421961381     2.6146996967
  101      H      10.7751656291     2.6126556607     3.4548942895
  102      H      11.7658619450     0.4299732261     1.6096993948
  103      H      11.0583830279     0.1511003100     3.2592206824
  104      C      13.0356198037     1.1295371263     3.1081143339
  105      H      13.5751516993     1.8322744578     2.4618237053
  106      C      13.9440142076    -0.1177799298     3.2362617825
  107      H      12.9526956613     1.5051471873     4.1353580580
  108      H      13.2859793885    -0.9141523669     3.6067508083
  109      H      14.7653201848     0.2760156018     3.8474103497
  110      H      14.3874934662    -0.6015608810     2.3567646885
 ----------------------------------------------------------------
 Molecular Point Group                 C1    NOp =  1
 Largest Abelian Subgroup              C1    NOp =  1
 Nuclear Repulsion Energy = 11972.8597974911 hartrees
 There are      270 alpha and      270 beta electrons
 Requested basis set is 6-31G(d,p)
 There are 406 shells and 1262 basis functions

 Total QAlloc Memory Limit  20000 MB
 Mega-Array Size      4888 MB
 MEM_STATIC part      5000 MB
 A cutoff of  1.0D-08 yielded  13738 shell pairs
 There are    146737 function pairs
 
 -------------------------------------------------------
 OpenMP Integral Computing Module                       
 Release: version 1.0, May 2013, Q-Chem Inc. Pittsburgh 
 -------------------------------------------------------
 Integral Job Info:
 Integral job number is                      11
 Integral operator is                         1
 short-range coefficients                     0
 long-range coefficients              100000000
 Omega coefficients                           0
 if combine SR and LR in K                    0
 Integral screening is                        0
 Integral computing path is                   2
 max size of driver memory is            800000
 size of driver memory is                593474
 size of scratch memory is             15166112
 max col of scratch BK array               1296
 max len of scratch array in speh3          155
 max len of scratch index in speh4           18
 max int batch size is                      520
 min int batch size is                       52
 fixed nKL is                                52
 max L of basis functions is                  2
 order of int derivative is                   0
 number of shells is                        406
 number of basis is                        1262
 number of cartesian basis is              1262
 number of contracted shell pairs         13738
 number of primitive shell pairs          44242
 maxK2 (contraction) of shell pair           36
 max number of K2 of shell pair               1
 max number of CS2 of shell pair           1494
 max number of PS2 of shell pair           8484
 mem total for path MDJ                  316984
 -------------------------------------------------------
 Smallest overlap matrix eigenvalue = 4.37E-04

 Scale SEOQF with 1.000000e-02/1.000000e-02/1.000000e-01

 Standard Electronic Orientation quadrupole field applied
 Nucleus-field energy     =    -0.0000001249 hartrees
 Guess from superposition of atomic densities
 Warning:  Energy on first SCF cycle will be non-variational
 A restricted hybrid HF-DFT SCF calculation will be
 performed using Pulay DIIS extrapolation
 Exchange:     0.2000 Hartree-Fock + 0.0800 Slater + 0.7200 B88
 Correlation:  0.1900 VWN1RPA + 0.8100 LYP
 Using SG-1 standard quadrature grid
 SCF converges when DIIS error is below 1.0E-05
 using 16 threads for integral computing 
 -------------------------------------------------------
 OpenMP BLAS3 based DFT computing Module                
 Release: version 1.0, May 2013, Q-Chem Inc. Pittsburgh 
 -------------------------------------------------------
 ---------------------------------------
  Cycle       Energy         DIIS Error
 ---------------------------------------
    1   -5680.3940607722      2.16E-02
    2   -5662.4318193910      2.18E-03
    3   -5660.0492841626      3.71E-03
    4   -5662.9867034818      1.37E-03
    5   -5663.4342148424      4.04E-04
    6   -5663.4490047704      3.28E-04
    7   -5663.4700755024      1.18E-04
    8   -5663.4726518318      4.60E-05
    9   -5663.4729800824      2.42E-05
   10   -5663.4730915725      8.42E-06 Convergence criterion met
 ---------------------------------------
 SCF time:  CPU 1175.89 s  wall 96.09 s
 SCF   energy in the final basis set = -5663.4730915725
 Total energy in the final basis set = -5663.4730915725
 
 --------------------------------------------------------------
 
                    Orbital Energies (a.u.)
 --------------------------------------------------------------
 
 Alpha MOs
 -- Occupied --
-88.990 -88.982 -88.930 -88.926 -88.917 -88.914 -88.904 -88.901
-14.396 -14.392 -14.380 -14.371 -14.348 -14.343 -14.343 -14.343
-14.326 -14.323 -10.268 -10.266 -10.266 -10.263 -10.259 -10.256
-10.248 -10.246 -10.235 -10.235 -10.235 -10.233 -10.232 -10.231
-10.231 -10.231 -10.230 -10.228 -10.227 -10.225 -10.225 -10.224
-10.223 -10.220 -10.217 -10.216 -10.216 -10.215 -10.214 -10.213
-10.211 -10.210 -10.201 -10.200 -10.200 -10.197 -10.193 -10.184
-10.182 -10.181 -10.180 -10.180 -10.177 -10.177 -10.176 -10.176
-10.176 -10.174 -10.173 -10.170  -8.046  -8.038  -7.990  -7.987
 -7.976  -7.974  -7.963  -7.962  -6.011  -6.005  -6.004  -6.003
 -5.997  -5.996  -5.953  -5.951  -5.950  -5.947  -5.947  -5.944
 -5.941  -5.938  -5.937  -5.934  -5.933  -5.930  -5.928  -5.927
 -5.925  -5.923  -5.919  -5.918  -1.037  -1.036  -0.963  -0.959
 -0.955  -0.955  -0.953  -0.947  -0.916  -0.915  -0.907  -0.901
 -0.846  -0.836  -0.831  -0.828  -0.816  -0.812  -0.805  -0.804
 -0.803  -0.803  -0.795  -0.793  -0.789  -0.781  -0.763  -0.761
 -0.745  -0.742  -0.735  -0.735  -0.721  -0.717  -0.712  -0.708
 -0.691  -0.689  -0.673  -0.669  -0.655  -0.655  -0.648  -0.639
 -0.634  -0.633  -0.628  -0.618  -0.610  -0.604  -0.597  -0.592
 -0.590  -0.586  -0.584  -0.580  -0.575  -0.574  -0.573  -0.553
 -0.551  -0.550  -0.542  -0.539  -0.522  -0.520  -0.508  -0.508
 -0.507  -0.504  -0.500  -0.497  -0.490  -0.485  -0.479  -0.475
 -0.471  -0.469  -0.468  -0.464  -0.464  -0.459  -0.445  -0.445
 -0.441  -0.440  -0.438  -0.436  -0.433  -0.431  -0.430  -0.428
 -0.427  -0.421  -0.419  -0.418  -0.417  -0.417  -0.413  -0.411
 -0.410  -0.406  -0.405  -0.404  -0.397  -0.396  -0.393  -0.392
 -0.391  -0.389  -0.388  -0.385  -0.385  -0.383  -0.381  -0.380
 -0.378  -0.375  -0.374  -0.374  -0.366  -0.365  -0.356  -0.355
 -0.353  -0.351  -0.350  -0.347  -0.344  -0.337  -0.337  -0.336
 -0.335  -0.332  -0.331  -0.331  -0.331  -0.326  -0.322  -0.319
 -0.315  -0.315  -0.314  -0.305  -0.303  -0.301  -0.297  -0.295
 -0.293  -0.293  -0.292  -0.291  -0.289  -0.286  -0.282  -0.278
 -0.273  -0.270  -0.263  -0.261  -0.258  -0.250  -0.249  -0.243
 -0.242  -0.235  -0.230  -0.224  -0.194  -0.188
 -- Virtual --
 -0.118  -0.106  -0.073  -0.063  -0.039  -0.038  -0.030  -0.019
 -0.015  -0.013  -0.010  -0.005  -0.003   0.003   0.003   0.005
  0.007   0.008   0.012   0.025   0.028   0.036   0.040   0.045
  0.051   0.053   0.056   0.071   0.076   0.083   0.086   0.093
  0.094   0.097   0.102   0.103   0.104   0.105   0.110   0.114
  0.117   0.119   0.120   0.123   0.124   0.126   0.127   0.129
  0.130   0.132   0.135   0.136   0.137   0.138   0.141   0.143
  0.148   0.149   0.153   0.157   0.161   0.162   0.164   0.165
  0.168   0.170   0.172   0.174   0.179   0.180   0.183   0.184
  0.185   0.189   0.190   0.192   0.192   0.196   0.197   0.199
  0.203   0.205   0.206   0.208   0.211   0.212   0.215   0.221
  0.221   0.226   0.233   0.235   0.236   0.237   0.238   0.241
  0.243   0.246   0.247   0.249   0.252   0.254   0.262   0.264
  0.269   0.270   0.274   0.275   0.278   0.278   0.279   0.280
  0.281   0.286   0.288   0.291   0.297   0.301   0.302   0.304
  0.311   0.312   0.318   0.321   0.325   0.327   0.328   0.329
  0.331   0.331   0.335   0.337   0.342   0.344   0.347   0.348
  0.356   0.357   0.359   0.362   0.365   0.370   0.374   0.377
  0.381   0.384   0.388   0.391   0.395   0.400   0.405   0.409
  0.413   0.415   0.423   0.433   0.433   0.434   0.437   0.439
  0.441   0.444   0.454   0.460   0.464   0.472   0.474   0.479
  0.480   0.482   0.489   0.489   0.490   0.493   0.494   0.502
  0.506   0.509   0.510   0.511   0.512   0.518   0.523   0.524
  0.526   0.528   0.533   0.535   0.536   0.537   0.539   0.542
  0.542   0.547   0.549   0.549   0.552   0.554   0.555   0.556
  0.558   0.560   0.563   0.565   0.565   0.567   0.568   0.570
  0.571   0.573   0.574   0.577   0.578   0.582   0.586   0.588
  0.590   0.590   0.593   0.594   0.599   0.600   0.601   0.603
  0.607   0.611   0.612   0.613   0.613   0.615   0.616   0.620
  0.621   0.626   0.627   0.628   0.630   0.633   0.634   0.635
  0.636   0.638   0.638   0.645   0.648   0.649   0.651   0.653
  0.654   0.656   0.660   0.663   0.669   0.670   0.672   0.675
  0.677   0.679   0.686   0.688   0.691   0.691   0.697   0.703
  0.704   0.706   0.708   0.709   0.714   0.717   0.721   0.723
  0.724   0.726   0.733   0.736   0.738   0.746   0.748   0.756
  0.758   0.763   0.763   0.765   0.769   0.770   0.776   0.777
  0.781   0.782   0.787   0.788   0.790   0.791   0.793   0.795
  0.797   0.799   0.803   0.804   0.807   0.807   0.810   0.811
  0.817   0.818   0.822   0.824   0.827   0.827   0.829   0.831
  0.832   0.834   0.835   0.838   0.839   0.841   0.843   0.844
  0.845   0.846   0.849   0.851   0.853   0.853   0.855   0.858
  0.860   0.862   0.863   0.867   0.868   0.871   0.874   0.874
  0.878   0.880   0.882   0.883   0.885   0.889   0.890   0.893
  0.896   0.898   0.900   0.902   0.903   0.906   0.908   0.908
  0.911   0.912   0.918   0.921   0.922   0.923   0.927   0.929
  0.931   0.935   0.938   0.939   0.939   0.943   0.945   0.947
  0.951   0.955   0.956   0.957   0.961   0.962   0.964   0.966
  0.967   0.967   0.968   0.973   0.975   0.977   0.979   0.980
  0.984   0.991   0.993   0.998   1.000   1.005   1.008   1.009
  1.010   1.011   1.015   1.016   1.018   1.021   1.025   1.027
  1.033   1.037   1.039   1.043   1.047   1.048   1.056   1.057
  1.060   1.063   1.068   1.070   1.074   1.075   1.077   1.083
  1.089   1.093   1.096   1.100   1.101   1.108   1.110   1.117
  1.119   1.124   1.128   1.131   1.136   1.144   1.146   1.149
  1.155   1.158   1.168   1.172   1.173   1.181   1.183   1.184
  1.191   1.192   1.195   1.204   1.204   1.213   1.225   1.226
  1.230   1.240   1.250   1.255   1.258   1.268   1.273   1.275
  1.276   1.285   1.291   1.293   1.298   1.301   1.307   1.315
  1.317   1.321   1.327   1.330   1.332   1.334   1.338   1.341
  1.343   1.351   1.354   1.364   1.368   1.373   1.375   1.376
  1.377   1.384   1.387   1.394   1.395   1.400   1.405   1.409
  1.410   1.415   1.416   1.417   1.423   1.430   1.432   1.442
  1.446   1.451   1.452   1.459   1.462   1.469   1.471   1.473
  1.475   1.476   1.487   1.488   1.501   1.502   1.503   1.521
  1.529   1.535   1.544   1.548   1.548   1.554   1.556   1.568
  1.574   1.583   1.585   1.593   1.600   1.603   1.610   1.614
  1.621   1.628   1.632   1.637   1.639   1.642   1.647   1.656
  1.660   1.662   1.668   1.670   1.674   1.681   1.685   1.688
  1.693   1.696   1.697   1.698   1.702   1.707   1.710   1.714
  1.720   1.723   1.736   1.738   1.741   1.746   1.753   1.755
  1.757   1.762   1.768   1.772   1.774   1.775   1.779   1.785
  1.788   1.795   1.797   1.799   1.805   1.809   1.812   1.817
  1.823   1.829   1.829   1.833   1.836   1.841   1.844   1.845
  1.851   1.856   1.858   1.862   1.867   1.869   1.870   1.877
  1.879   1.881   1.883   1.890   1.892   1.896   1.898   1.902
  1.906   1.907   1.914   1.917   1.921   1.925   1.930   1.934
  1.935   1.937   1.942   1.946   1.950   1.951   1.955   1.959
  1.964   1.968   1.968   1.969   1.980   1.987   1.994   2.001
  2.004   2.007   2.009   2.013   2.021   2.023   2.030   2.034
  2.035   2.038   2.045   2.046   2.048   2.055   2.059   2.063
  2.066   2.067   2.077   2.085   2.091   2.094   2.102   2.103
  2.106   2.108   2.112   2.116   2.124   2.128   2.129   2.133
  2.135   2.137   2.144   2.145   2.155   2.156   2.160   2.163
  2.165   2.167   2.172   2.179   2.185   2.189   2.189   2.197
  2.198   2.203   2.209   2.211   2.214   2.220   2.223   2.225
  2.227   2.235   2.239   2.246   2.249   2.249   2.253   2.255
  2.263   2.268   2.272   2.276   2.281   2.282   2.284   2.284
  2.286   2.291   2.294   2.299   2.300   2.307   2.311   2.315
  2.317   2.320   2.322   2.324   2.327   2.339   2.342   2.344
  2.349   2.350   2.359   2.361   2.365   2.367   2.372   2.374
  2.375   2.377   2.379   2.380   2.383   2.388   2.389   2.396
  2.398   2.399   2.404   2.411   2.418   2.423   2.424   2.425
  2.427   2.429   2.429   2.433   2.437   2.439   2.444   2.447
  2.456   2.458   2.459   2.462   2.465   2.467   2.468   2.474
  2.476   2.479   2.480   2.481   2.485   2.488   2.490   2.497
  2.500   2.506   2.512   2.517   2.519   2.524   2.525   2.535
  2.536   2.547   2.550   2.553   2.555   2.562   2.564   2.570
  2.575   2.579   2.585   2.586   2.588   2.594   2.597   2.606
  2.612   2.614   2.615   2.623   2.625   2.625   2.634   2.636
  2.638   2.648   2.653   2.654   2.661   2.669   2.671   2.674
  2.681   2.684   2.696   2.699   2.701   2.710   2.711   2.720
  2.720   2.723   2.725   2.730   2.733   2.737   2.742   2.743
  2.752   2.757   2.763   2.764   2.768   2.777   2.780   2.784
  2.791   2.795   2.797   2.806   2.808   2.811   2.818   2.824
  2.830   2.839   2.839   2.854   2.858   2.862   2.865   2.869
  2.874   2.877   2.879   2.885   2.894   2.896   2.901   2.908
  2.908   2.914   2.923   2.927   2.931   2.934   2.947   2.956
  2.965   2.968   2.986   2.993   2.999   3.014   3.017   3.024
  3.039   3.041   3.057   3.069   3.081   3.100   3.108   3.122
  3.168   3.173   3.199   3.202   3.206   3.218   3.233   3.239
  3.241   3.246   3.254   3.266   3.267   3.270   3.279   3.292
  3.293   3.295   3.299   3.302   3.322   3.332   3.336   3.339
  3.351   3.361   3.367   3.376   3.383   3.408   3.425   3.433
  3.453   3.455   3.466   3.480   3.492   3.493   3.524   3.537
  3.549   3.551   3.558   3.559   3.572   3.581   3.591   3.596
  3.631   3.661   3.723   3.728   3.848   3.854   3.908   3.919
  3.928   3.947   3.952   3.958   3.964   3.977   3.982   3.999
  4.021   4.043   4.076   4.084   4.098   4.102   4.119   4.121
  4.128   4.140   4.145   4.169   4.178   4.185   4.205   4.207
  4.209   4.237   4.245   4.251   4.257   4.263   4.270   4.288
  4.291   4.309   4.345   4.353   4.373   4.381   4.392   4.396
  4.427   4.432   4.464   4.468   4.472   4.487   4.495   4.499
  4.503   4.521   4.529   4.544   4.591   4.612   4.653   4.664
  4.689   4.695   4.726   4.732   4.752   4.788   4.799   4.820
 --------------------------------------------------------------
 
          Ground-State Mulliken Net Atomic Charges

     Atom                 Charge (a.u.)
  ----------------------------------------
      1 C                     0.285421
      2 C                    -0.114662
      3 N                    -0.459244
      4 C                    -0.075388
      5 C                     0.046904
      6 C                     0.065659
      7 C                     0.001437
      8 C                     0.086778
      9 C                     0.197755
     10 N                    -0.497327
     11 N                    -0.542520
     12 C                     0.240277
     13 C                     0.254616
     14 S                     0.602966
     15 N                    -0.522848
     16 C                    -0.231093
     17 S                     0.323816
     18 C                    -0.121616
     19 C                    -0.249221
     20 S                     0.228508
     21 C                     0.179323
     22 C                     0.057551
     23 C                    -0.303744
     24 C                    -0.035526
     25 N                    -0.446745
     26 S                     0.302664
     27 C                     0.103960
     28 C                    -0.316472
     29 C                    -0.242405
     30 H                     0.094825
     31 H                     0.110807
     32 H                     0.098800
     33 H                     0.118504
     34 H                     0.127353
     35 H                     0.135525
     36 H                     0.115526
     37 H                     0.135839
     38 H                     0.114470
     39 C                    -0.186671
     40 H                     0.096840
     41 H                     0.098750
     42 H                     0.089720
     43 C                    -0.176650
     44 H                     0.104017
     45 C                    -0.182602
     46 H                     0.090211
     47 H                     0.087827
     48 H                     0.095474
     49 C                    -0.173389
     50 H                     0.095428
     51 C                    -0.328206
     52 H                     0.095996
     53 H                     0.105699
     54 H                     0.100262
     55 H                     0.103919
     56 C                     0.264726
     57 C                    -0.107412
     58 N                    -0.471733
     59 C                    -0.095482
     60 C                     0.085803
     61 C                     0.044143
     62 C                     0.078178
     63 C                     0.040655
     64 C                     0.198933
     65 N                    -0.525188
     66 N                    -0.552302
     67 C                     0.228249
     68 C                     0.276358
     69 S                     0.593683
     70 N                    -0.560063
     71 C                    -0.207015
     72 S                     0.306193
     73 C                    -0.100156
     74 C                    -0.235425
     75 S                     0.272591
     76 C                     0.170244
     77 C                     0.041614
     78 C                    -0.296881
     79 C                    -0.050706
     80 N                    -0.414802
     81 S                     0.297626
     82 C                     0.121719
     83 C                    -0.312688
     84 C                    -0.238249
     85 H                     0.097561
     86 H                     0.104093
     87 H                     0.116103
     88 H                     0.098028
     89 H                     0.118602
     90 H                     0.126850
     91 H                     0.115308
     92 H                     0.137158
     93 H                     0.116476
     94 C                    -0.196313
     95 H                     0.111897
     96 H                     0.102170
     97 H                     0.088196
     98 C                    -0.165695
     99 H                     0.093748
    100 C                    -0.176028
    101 H                     0.086997
    102 H                     0.094915
    103 H                     0.094677
    104 C                    -0.173985
    105 H                     0.096595
    106 C                    -0.319968
    107 H                     0.093627
    108 H                     0.098321
    109 H                     0.101296
    110 H                     0.099656
  ----------------------------------------
  Sum of atomic charges =     0.000000

 -----------------------------------------------------------------
                    Cartesian Multipole Moments
 -----------------------------------------------------------------
    Charge (ESU x 10^10)
                 0.0000
    Dipole Moment (Debye)
         X      -2.1080      Y      -2.1966      Z       1.9743
       Tot       3.6286
    Quadrupole Moments (Debye-Ang)
        XX    -417.3758     XY      -5.0588     YY    -422.7423
        XZ       2.8269     YZ      22.4576     ZZ    -436.1359
    Octopole Moments (Debye-Ang^2)
       XXX    -303.7361    XXY     -18.5015    XYY    -125.3463
       YYY    -110.6226    XXZ     121.8078    XYZ     -37.1301
       YYZ      79.9040    XZZ      -2.1645    YZZ      48.1858
       ZZZ       5.2300
    Hexadecapole Moments (Debye-Ang^3)
      XXXX  -83718.1352   XXXY      -4.2302   XXYY  -18708.4781
      XYYY    -513.5210   YYYY  -28399.7861   XXXZ     138.3157
      XXYZ     853.3484   XYYZ    -427.3889   YYYZ     467.7197
      XXZZ  -15918.6453   XYZZ     -69.5324   YYZZ   -6526.3157
      XZZZ    -298.9714   YZZZ     191.3975   ZZZZ  -10708.3266
 -----------------------------------------------------------------
Archival summary:
1\1\mn246\SP\ProcedureUnspecified\6-31G**\8105042\afmv_a\SatOct1300:36:522018SatOct1300:36:522018\0\\#,ProcedureUnspecified,6-31G**,\\0,1\S\C,1,1.74187\C,2,1.37966,1,106.784\C,3,1.38597,2,115.044,1,11.4353,0\C,4,1.33252,3,114.905,2,-3.54759,0\C,4,1.43897,3,113.231,2,172.082,0\H,6,1.08392,4,124.069,3,-171.716,0\C,6,1.39175,4,111.169,3,0.764338,0\H,8,1.08242,6,130.396,4,-175.81,0\C,5,1.45316,4,127.312,3,162.334,0\N,10,1.3363,5,120.023,4,22.8171,0\C,11,1.43469,10,108.518,5,-179.851,0\H,12,1.08249,11,115.12,10,-179.473,0\C,12,1.407,11,114.275,10,7.41397,0\H,14,1.08138,12,125.602,11,-178.896,0\C,2,1.49606,1,124.059,3,-175.195,0\N,16,1.36325,2,110.358,1,7.75925,0\C,17,1.30167,16,119.813,2,-162.103,0\H,18,1.08849,17,120.54,16,176.65,0\C,16,1.41845,2,124.139,1,-154.453,0\N,20,1.37327,16,131.72,2,-6.69129,0\C,20,1.39862,16,115.851,2,171.337,0\N,22,1.36361,20,119.567,16,-179.241,0\C,18,1.44152,17,123.318,16,-10.514,0\C,24,1.44542,18,120.016,17,178.064,0\C,25,1.38856,24,123.179,18,145.049,0\H,26,1.08607,25,125.622,24,-3.72975,0\C,25,1.41638,24,122.252,18,-28.8424,0\H,28,1.08949,25,122.408,24,-14.095,0\N,28,1.32795,25,129.816,24,179.049,0\C,30,1.31183,28,113.801,25,4.76275,0\C,31,1.39705,30,124.877,28,-13.055,0\H,32,1.08598,31,115.709,30,-168.294,0\C,31,1.44391,30,114.841,28,177.523,0\H,34,1.09661,31,110.097,30,-144.141,0\H,34,1.097,31,112.717,30,-29.6115,0\C,34,1.54821,31,110.332,30,91.0797,0\H,37,1.09713,34,117.069,31,44.3847,0\H,37,1.0973,34,108.937,31,161.987,0\C,37,1.57977,34,117.61,31,-80.4124,0\H,40,1.09679,37,105.255,34,-45.3589,0\H,40,1.09735,37,109.292,34,71.6558,0\C,40,1.55708,37,116.252,34,-163.873,0\H,43,1.09694,40,108.077,37,-173.883,0\H,43,1.09736,40,113.541,37,71.4691,0\C,43,1.56161,40,111.608,37,-60.9139,0\H,46,1.09699,43,102.637,40,-43.6033,0\H,46,1.09734,43,106.955,40,71.9794,0\C,46,1.56793,43,115.323,40,-164.212,0\H,49,1.09703,46,110.611,43,-49.6379,0\H,49,1.09714,46,115.645,43,-168.271,0\H,49,1.09731,46,111.857,43,73.8925,0\S,21,1.61402,20,104.886,16,-178.628,0\S,10,1.71448,5,122.476,4,-147.274,0\S,3,1.75433,2,129.477,1,-167.276,0\C,1,3.42671,2,137.179,3,117.802,0\C,56,1.34383,1,85.4763,2,-21.0026,0\C,56,1.37124,1,110.186,2,95.2964,0\C,58,1.37066,56,115.341,1,-94.3395,0\C,56,1.42239,1,86.5443,2,-154.412,0\H,60,1.0838,56,125.479,1,73.5037,0\C,60,1.34822,56,111.233,1,-103.828,0\H,62,1.08272,60,125.585,56,-176.002,0\C,59,1.4396,58,123.147,56,177.029,0\N,64,1.35065,59,119.724,58,-29.2278,0\C,65,1.34064,64,120.732,59,175.15,0\H,66,1.08963,65,112.99,64,174.884,0\C,64,1.41364,59,123.153,58,145.561,0\N,68,1.36572,64,128.37,59,11.6346,0\C,68,1.39857,64,121.418,59,-175.534,0\N,70,1.313,68,117.935,64,-173.288,0\C,66,1.42264,65,127.947,64,-2.48061,0\C,57,1.46138,56,125.088,1,-54.3363,0\N,73,1.33473,57,112.973,56,-38.771,0\C,74,1.3921,73,106.13,57,174.588,0\H,75,1.08246,74,112.445,73,178.072,0\C,75,1.40654,74,115.554,73,2.0171,0\H,77,1.08198,75,126.078,74,-173.976,0\C,72,1.474,66,120.638,65,176.067,0\C,79,1.41942,72,126.495,66,168.815,0\H,80,1.08908,79,120.07,72,5.0418,0\N,80,1.28736,79,127.933,72,-170.901,0\C,82,1.35827,80,116.034,79,-5.59362,0\C,79,1.42009,72,119.35,66,-13.5375,0\H,84,1.08669,79,125.533,72,-10.5002,0\C,84,1.40893,79,120.61,72,172.655,0\H,86,1.0858,84,121.129,79,-176.105,0\C,83,1.46367,82,118.75,80,179.033,0\H,88,1.09734,83,111.818,82,3.95987,0\H,88,1.09763,83,105.252,82,-120.098,0\C,88,1.54626,83,111.517,82,119.02,0\H,91,1.09669,88,111.037,83,-74.0517,0\H,91,1.09711,88,114.142,83,45.5302,0\C,91,1.53929,88,113.937,83,174.911,0\H,94,1.09661,91,98.0803,88,36.1026,0\H,94,1.09777,91,109.56,88,-79.6917,0\C,94,1.50306,91,111.633,88,159.276,0\H,97,1.09657,94,107.6,91,-61.6079,0\H,97,1.09715,94,111.281,91,61.1712,0\C,97,1.53032,94,108.317,91,-173.279,0\H,100,1.09664,97,112.753,94,55.0178,0\H,100,1.0969,97,107.224,94,-68.3292,0\C,100,1.54835,97,114.818,94,176.627,0\H,103,1.09687,100,101.314,97,164.934,0\H,103,1.09738,100,121.729,97,-75.9827,0\H,103,1.09749,100,105.113,97,37.7197,0\S,71,1.62294,70,105.445,68,-0.340457,0\S,58,1.72519,56,115.516,1,89.2835,0\S,77,1.74719,75,113.606,74,-3.17307,0\S,57,1.75151,56,108.388,1,113.596,0\\\@

 Total job time:  99.32s(wall), 1185.67s(cpu) 
 Sat Oct 13 00:36:52 2018

        *************************************************************
        *                                                           *
        *  Thank you very much for using Q-Chem.  Have a nice day.  *
        *                                                           *
        *************************************************************


