
Running Job 1 of 1 ./6/34.qcin
qchem ./6/34.qcin_36061.0 /tmpu/cab_g/afmv_a/scratch_qchem/qchem36061/ 1
/tmpu/appuserlic/qchem4.4/serial-multicore/exe/qcprog.exe_s ./6/34.qcin_36061.0 /tmpu/cab_g/afmv_a/scratch_qchem/qchem36061/
Check license passed

                  Welcome to Q-Chem
     A Quantum Leap Into The Future Of Chemistry


 Q-Chem 4.4, Q-Chem, Inc., Pleasanton, CA (2016)

 Y. Shao,  Z. Gan,  E. Epifanovsky,  A. T. B. Gilbert,  M. Wormit,  
 J. Kussmann,  A. W. Lange,  A. Behn,  J. Deng,  X. Feng,  D. Ghosh,  
 M. Goldey,  P. R. Horn,  L. D. Jacobson,  I. Kaliman,  F. Rob,  
 R. Z. Khaliullin,  T. Kus,  A. Landau,  J. Liu,  E. I. Proynov,  Y. M. Rhee,  
 R. M. Richard,  M. A. Rohrdanz,  R. P. Steele,  E. J. Sundstrom,  
 H. L. Woodcock III,  P. M. Zimmerman,  D. Zuev,  B. Albrecht,  E. Alguire,  
 B. Austin,  S. A. Baeppler,  G. J. O. Beran,  Y. A. Bernard,  E. Berquist,  
 K. Brandhorst,  K. B. Bravaya,  S. T. Brown,  D. Casanova,  C.-M. Chang,  
 Y. Chen,  S. H. Chien,  K. D. Closser,  M. P. Coons,  D. L. Crittenden,  
 S. Dasgupta,  M. Diedenhofen,  R. A. DiStasio Jr.,  H. Do,  A. D. Dutoi,  
 R. G. Edgar,  P.-T. Fang,  S. Fatehi,  Q. Feng,  L. Fusti-Molnar,  
 A. Ghysels,  A. Golubeva-Zadorozhnaya,  J. Gomes,  A. Gunina,  
 M. W. D. Hanson-Heine,  P. H. P. Harbach,  A. W. Hauser,  J. E. Herr,  
 E. G. Hohenstein,  Z. C. Holden,  K. Hui,  T.-C. Jagau,  H. Ji,  B. Kaduk,  
 K. Khistyaev,  Jaehoon Kim,  Jihan Kim,  R. A. King,  P. Klunzinger,  
 K. Koh,  D. Kosenkov,  T. Kowalczyk,  C. M. Krauter,  A. Kunitsa,  
 K. U. Lao,  A. Laurent,  K. V. Lawler,  J. Lee,  D. Lefrancois,  S. Lehtola,  
 S. V. Levchenko,  C. Y. Lin,  Y.-S. Lin,  F. Liu,  E. Livshits,  
 R. C. Lochan,  A. Luenser,  P. Manohar,  S. F. Manzer,  S.-P. Mao,  Y. Mao,  
 N. Mardirossian,  A. V. Marenich,  L. A. Martinez-Martinez,  S. A. Maurer,  
 N. J. Mayhall,  J.-M. Mewes,  A. F. Morrison,  K. Nanda,  T. S. Nguyen-Beck,  
 C. M. Oana,  R. Olivares-Amaya,  D. P. O'Neill,  J. A. Parkhill,  
 T. M. Perrine,  R. Peverati,  P. A. Pieniazek,  F. Plasser,  A. Prociuk,  
 D. R. Rehn,  E. Rosta,  N. J. Russ,  N. Sergueev,  S. M. Sharada,  
 S. Sharma,  D. W. Small,  A. Sodt,  T. Stauch,  T. Stein,  D. Stuck,  
 Y.-C. Su,  A. J. W. Thom,  T. Tsuchimochi,  L. Vogt,  O. Vydrov,  T. Wang,  
 M. A. Watson,  J. Wenzel,  A. White,  C. F. Williams,  V. Vanovschi,  
 K. Yao,  S. Yeganeh,  S. R. Yost,  Z.-Q. You,  I. Y. Zhang,  X. Zhang,  
 Y. Zhao,  B. R. Brooks,  G. K. L. Chan,  D. M. Chipman,  C. J. Cramer,  
 W. A. Goddard III,  M. S. Gordon,  W. J. Hehre,  A. Klamt,  
 H. F. Schaefer III,  M. W. Schmidt,  C. D. Sherrill,  D. G. Truhlar,  
 A. Warshel,  X. Xu,  A. Aspuru-Guzik,  R. Baer,  A. T. Bell,  N. A. Besley,  
 J.-D. Chai,  A. Dreuw,  B. D. Dunietz,  T. R. Furlani,  S. R. Gwaltney,  
 C.-P. Hsu,  Y. Jung,  J. Kong,  D. S. Lambrecht,  W. Liang,  C. Ochsenfeld,  
 V. A. Rassolov,  L. V. Slipchenko,  J. E. Subotnik,  T. Van Voorhis,  
 J. M. Herbert,  A. I. Krylov,  P. M. W. Gill,  M. Head-Gordon

 Contributors to earlier versions of Q-Chem not listed above: 
 R. D. Adamson,  J. Baker,  E. F. C. Byrd,  A. K. Chakraborty,  C.-L. Cheng,  
 H. Dachsel,  R. J. Doerksen,  G. Hawkins,  A. Heyden,  S. Hirata,  
 G. Kedziora,  F. J. Keil,  C. Kelley,  P. P. Korambath,  W. Kurlancheek,  
 A. M. Lee,  M. S. Lee,  D. Liotard,  I. Lotan,  P. E. Maslen,  N. Nair,  
 D. Neuhauser,  R. Olson,  B. Peters,  J. Ritchie,  N. E. Schultz,  
 N. Shenvi,  A. C. Simmonett,  K. S. Thanthiriwatte,  Q. Wu,  W. Zhang

 Please cite Q-Chem as follows:
 Y. Shao et al., Mol. Phys. 113, 184-215 (2015)
 DOI: 10.1080/00268976.2014.952696

 Q-Chem 4.4.2 for Intel X86 Linux

 Parts of Q-Chem use Armadillo 5.200.1 (Boston Tea Smuggler).
 http://arma.sourceforge.net/

 Q-Chem begins on Sat Oct 13 00:40:02 2018  

Host: 
0

     Scratch files written to /tmpu/cab_g/afmv_a/scratch_qchem/qchem36061//
 Dec716 11556_ 22328  22283 4050   
Processing $rem in /tmpu/appuserlic/qchem4.4/serial-multicore/config/preferences.
 MEM_TOTAL  2000 
FILE_GEOM_ORG=        593

Checking the input file for inconsistencies... 	...done.

--------------------------------------------------------------
User input:
--------------------------------------------------------------
$comment
SP
$end

$rem
MEM_STATIC 5000
MEM_TOTAL 20000
JOBTYPE SP
EXCHANGE B3LYP
BASIS 6-31g(d,p)
$end

$molecule
0 1
C          10.313000    -16.226000    -10.555000
C          10.917000    -17.277000     -9.808000
N           9.021000    -15.929000    -10.488000
C          10.159000    -18.043000     -8.929000
C           8.259000    -16.655000     -9.616000
C           8.749000    -17.764000     -8.829000
C           7.922000    -18.560000     -7.823000
C           8.229000    -19.900000     -7.589000
C           6.742000    -18.066000     -7.148000
N           7.641000    -20.686000     -6.677000
N           6.136000    -16.873000     -7.445000
C           6.044000    -18.918000     -6.255000
C           6.552000    -20.231000     -6.033000
S           4.865000    -16.838000     -6.429000
N           4.927000    -18.299000     -5.732000
C           5.975000    -21.204000     -5.100000
S           6.900000    -22.462000     -4.146000
C           4.636000    -21.394000     -4.891000
C           5.400000    -23.028000     -3.421000
S           3.363000    -20.785000     -5.860000
C           4.303000    -22.466000     -4.150000
C           5.284000    -24.072000     -2.454000
C           2.244000    -22.064000     -5.142000
C           2.938000    -22.864000     -4.143000
N           4.077000    -24.484000     -1.960000
S           6.704000    -24.774000     -1.699000
C           4.276000    -25.647000     -1.223000
C           5.619000    -26.025000     -1.110000
C          11.225000    -15.459000    -11.577000
H          11.978000    -17.498000     -9.880000
H          10.646000    -18.775000     -8.292000
H           7.218000    -16.346000     -9.536000
H           9.048000    -20.363000     -8.138000
H           1.211000    -22.079000     -5.465000
H           2.460000    -23.669000     -3.595000
H           3.441000    -26.221000     -0.842000
H           6.039000    -26.788000     -0.468000
H          11.849000    -16.150000    -12.157000
C          12.207000    -14.535000    -10.786000
H          10.518000    -14.937000    -12.235000
H          12.641000    -15.050000     -9.920000
H          11.722000    -13.621000    -10.422000
C          13.311000    -13.861000    -11.640000
H          13.581000    -14.607000    -12.398000
C          14.562000    -13.520000    -10.796000
H          12.883000    -12.960000    -12.097000
H          14.784000    -14.507000    -10.374000
H          14.360000    -12.876000     -9.932000
C          15.823000    -13.036000    -11.559000
H          16.773000    -13.195000    -11.034000
C          15.776000    -11.559000    -11.987000
H          15.925000    -13.647000    -12.464000
H          15.538000    -10.918000    -11.129000
H          14.903000    -11.418000    -12.637000
H          16.691000    -11.242000    -12.502000
C          13.413000    -20.486000     -6.767000
C          14.535000    -21.326000     -6.536000
N          13.421000    -19.481000     -7.652000
C          15.676000    -21.023000     -7.227000
C          14.526000    -19.296000     -8.434000
C          15.748000    -20.038000     -8.291000
C          16.993000    -19.629000     -9.030000
C          17.179000    -18.235000     -9.471000
C          18.094000    -20.424000     -9.319000
N          18.317000    -17.735000     -9.928000
N          18.158000    -21.719000     -8.844000
C          19.201000    -19.927000     -9.962000
C          19.375000    -18.547000    -10.226000
S          19.533000    -22.315000     -9.556000
N          20.154000    -20.915000    -10.185000
C          20.629000    -18.033000    -10.760000
S          22.087000    -18.930000    -11.410000
C          20.848000    -16.683000    -11.146000
C          22.927000    -17.475000    -11.765000
S          19.811000    -15.326000    -10.916000
C          22.135000    -16.387000    -11.617000
C          24.279000    -17.440000    -12.298000
C          21.148000    -14.260000    -11.596000
C          22.294000    -14.997000    -11.844000
N          24.660000    -16.525000    -13.122000
S          25.499000    -18.693000    -12.059000
C          25.908000    -16.713000    -13.576000
C          26.577000    -17.787000    -13.050000
C          12.175000    -20.627000     -5.897000
H          14.452000    -22.186000     -5.878000
H          16.617000    -21.426000     -6.864000
H          14.356000    -18.457000     -9.107000
H          16.453000    -17.534000     -9.062000
H          20.925000    -13.213000    -11.751000
H          23.177000    -14.615000    -12.345000
H          26.374000    -15.915000    -14.139000
H          27.580000    -18.072000    -13.339000
H          12.386000    -20.419000     -4.841000
C          11.487000    -22.060000     -5.983000
H          11.384000    -19.894000     -6.100000
H          12.284000    -22.800000     -5.847000
H          11.070000    -22.331000     -6.961000
C          10.353000    -22.233000     -4.860000
H           9.575000    -21.460000     -4.829000
C          11.105000    -22.366000     -3.428000
H           9.856000    -23.204000     -4.977000
H          11.490000    -21.370000     -3.178000
H          11.846000    -23.173000     -3.491000
C          10.080000    -22.811000     -2.378000
H           9.224000    -22.131000     -2.472000
C          10.603000    -23.018000     -0.912000
H           9.650000    -23.756000     -2.732000
H           9.787000    -23.243000     -0.214000
H          10.929000    -22.013000     -0.617000
H          11.404000    -23.767000     -0.875000
$end

--------------------------------------------------------------
 ----------------------------------------------------------------
             Standard Nuclear Orientation (Angstroms)
    I     Atom           X                Y                Z
 ----------------------------------------------------------------
    1      C      -0.5895074172    -4.7109559894     0.9885990723
    2      C      -0.6135642262    -3.2950628035     0.8399593870
    3      N      -1.6838818445    -5.4603692622     1.0404291752
    4      C      -1.8226731427    -2.6200604481     0.7119420128
    5      C      -2.8838340189    -4.8219404932     0.8968064542
    6      C      -3.0388712071    -3.3902736617     0.7717322599
    7      C      -4.3669117679    -2.6649623989     0.5722007066
    8      C      -4.5206509720    -1.3673638789     1.0592400664
    9      C      -5.5556113046    -3.2590522516     0.0011388375
   10      N      -5.5976854380    -0.5907068697     0.8801181831
   11      N      -5.6772981456    -4.5925829816    -0.2914053554
   12      C      -6.7385871063    -2.4843039876    -0.1032181471
   13      C      -6.7033192724    -1.1290801908     0.3366018620
   14      S      -7.1957649310    -4.7107639995    -0.8651769726
   15      N      -7.7801822635    -3.2177484804    -0.6338005670
   16      C      -7.8252955511    -0.1897862494     0.2415065327
   17      S      -7.6994619847     1.6158733647    -0.0269413613
   18      C      -9.1382868479    -0.5093185151     0.4575041847
   19      C      -9.4531658977     1.7531171829     0.0138963664
   20      S      -9.7262245829    -1.9509205500     1.1691809321
   21      C      -9.9928159159     0.5274525914     0.5210631705
   22      C     -10.1990495091     2.9572222542    -0.1657410890
   23      C     -11.3171298518    -1.0892495920     1.5298325441
   24      C     -11.2998598193     0.2744982220     1.0203910402
   25      N     -11.5638597414     2.9940965358    -0.0847329586
   26      S      -9.4191024338     4.4412239074    -0.6840562953
   27      C     -11.9694059671     4.3248243368    -0.0788356512
   28      C     -10.9216909261     5.2386177377    -0.2418596171
   29      C       0.8128037061    -5.3844878645     1.1993010580
   30      H       0.2975725403    -2.7052721266     0.7984533614
   31      H      -1.8273088325    -1.5551801432     0.5003517323
   32      H      -3.7587016090    -5.4699022332     0.8790784165
   33      H      -3.6933087441    -0.8945018288     1.5869116683
   34      H     -12.1047242035    -1.6516770277     2.0146144712
   35      H     -12.1395346080     0.9537051752     1.1225534795
   36      H     -13.0007512660     4.5974954033     0.1051191370
   37      H     -10.9951739348     6.3022389690    -0.4263674049
   38      H       1.4237912009    -4.8254776246     1.9186471727
   39      C       1.5941054789    -5.3629875972    -0.1545402467
   40      H       0.5794777048    -6.3836796132     1.5897774676
   41      H       1.5052211308    -4.3932284392    -0.6597171941
   42      H       1.2470942418    -6.1353817795    -0.8517542945
   43      C       3.0761097955    -5.8086475189    -0.0681779885
   44      H       3.4316458897    -5.4320388392     0.8991585549
   45      C       3.9295811385    -5.1870440395    -1.1990244771
   46      H       3.1030491327    -6.9048047110    -0.1075185822
   47      H       3.7133202065    -4.1241394315    -1.0409042581
   48      H       3.5666602523    -5.4076920366    -2.2097860176
   49      C       5.4669988023    -5.3758817760    -1.1139760420
   50      H       6.0577870432    -4.6216814677    -1.6483515181
   51      C       5.9615446757    -6.7580302401    -1.5744236526
   52      H       5.7660801632    -5.2413496242    -0.0674573180
   53      H       5.5684703303    -6.9940144344    -2.5711648522
   54      H       5.4840742678    -7.5200992315    -0.9453108948
   55      H       7.0532673169    -6.8509781666    -1.5250135559
   56      C      -0.4138764180     1.6331188469    -0.3635888671
   57      C       0.2772693088     2.8734045073    -0.3205300133
   58      N       0.1943116131     0.4504962132    -0.2060292747
   59      C       1.6352151919     2.8096924667    -0.1685604292
   60      C       1.5274680958     0.4259266412     0.0920715955
   61      C       2.3662389672     1.5917886377     0.1311385919
   62      C       3.8614008780     1.4664068459     0.2415798296
   63      C       4.5463832994     0.2424430247    -0.2112166444
   64      C       4.7521380802     2.4352886187     0.6838493706
   65      N       5.8573039155     0.1226945169    -0.3562698518
   66      N       4.2989595876     3.7001852881     1.0023013600
   67      C       6.1089754960     2.2238054588     0.6970440735
   68      C       6.7094325105     1.0831389847     0.1116353543
   69      S       5.6493795847     4.4411715033     1.6188159667
   70      N       6.7949256618     3.3129985366     1.2235541013
   71      C       8.1569351502     0.9673472265    -0.0032401298
   72      S       9.4814656982     2.0098163357     0.7121268977
   73      C       8.8382788168    -0.1837561291    -0.4830201549
   74      C      10.7250010238     1.0492555812     0.0196004137
   75      S       8.1667033978    -1.5988932282    -1.2014152047
   76      C      10.2358780907    -0.0846847195    -0.5352420421
   77      C      12.1400761625     1.3563381437     0.1479774038
   78      C       9.8823074733    -2.1829462755    -1.5206481824
   79      C      10.8108325004    -1.2234712412    -1.1529010781
   80      N      13.0311733925     0.4284960392     0.2280820599
   81      S      12.8123485455     2.9700109996     0.3921899280
   82      C      14.2677245551     0.9039059351     0.4375830217
   83      C      14.3833632405     2.2690098477     0.4664274725
   84      C      -1.8886500302     1.6052231309    -0.7292247812
   85      H      -0.2709036769     3.8101311004    -0.3592942710
   86      H       2.2221309446     3.6837066999    -0.4355585929
   87      H       1.8529355008    -0.6067984786     0.2073963339
   88      H       3.9158450774    -0.4419051730    -0.7767669029
   89      H      10.0062539332    -3.1775971149    -1.9271822925
   90      H      11.8848092616    -1.3754867482    -1.1440015317
   91      H      15.1010376635     0.2186940490     0.3538994840
   92      H      15.3138050403     2.7907756190     0.6475173317
   93      H      -2.0711421287     1.9887061176    -1.7404410948
   94      C      -2.8169237621     2.4197420910     0.2753127952
   95      H      -2.3250580276     0.6012341211    -0.8049422038
   96      H      -2.3502779058     3.4026032305     0.4077160624
   97      H      -2.8630413817     2.0339757266     1.3014080526
   98      C      -4.3084691694     2.5712965505    -0.2985665856
   99      H      -4.8166405109     1.6429666402    -0.5879443065
  100      C      -4.2471941322     3.6172428770    -1.5379449184
  101      H      -4.9413055111     3.0846735109     0.4359409101
  102      H      -3.7600429769     3.0949627954    -2.3701998483
  103      H      -3.7673847523     4.5431562816    -1.1962340375
  104      C      -5.6807426483     3.9992331956    -1.9254653030
  105      H      -6.2310781623     3.0576913787    -2.0463033310
  106      C      -5.8536015548     5.0228124647    -3.1035736504
  107      H      -6.1536159325     4.4166759114    -1.0280392971
  108      H      -6.9079465185     5.1638746452    -3.3721684358
  109      H      -5.4342508369     4.4882320365    -3.9647906621
  110      H      -5.3462411947     5.9713435458    -2.8871360077
 ----------------------------------------------------------------
 Molecular Point Group                 C1    NOp =  1
 Largest Abelian Subgroup              C1    NOp =  1
 Nuclear Repulsion Energy = 10997.4751954871 hartrees
 There are      270 alpha and      270 beta electrons
 Requested basis set is 6-31G(d,p)
 There are 406 shells and 1262 basis functions

 Total QAlloc Memory Limit  20000 MB
 Mega-Array Size      4888 MB
 MEM_STATIC part      5000 MB
 A cutoff of  1.0D-08 yielded  13945 shell pairs
 There are    140489 function pairs
 
 -------------------------------------------------------
 OpenMP Integral Computing Module                       
 Release: version 1.0, May 2013, Q-Chem Inc. Pittsburgh 
 -------------------------------------------------------
 Integral Job Info:
 Integral job number is                      11
 Integral operator is                         1
 short-range coefficients                     0
 long-range coefficients              100000000
 Omega coefficients                           0
 if combine SR and LR in K                    0
 Integral screening is                        0
 Integral computing path is                   2
 max size of driver memory is            800000
 size of driver memory is                593474
 size of scratch memory is             15166112
 max col of scratch BK array               1296
 max len of scratch array in speh3          155
 max len of scratch index in speh4           18
 max int batch size is                      520
 min int batch size is                       52
 fixed nKL is                                52
 max L of basis functions is                  2
 order of int derivative is                   0
 number of shells is                        406
 number of basis is                        1262
 number of cartesian basis is              1262
 number of contracted shell pairs         13945
 number of primitive shell pairs          43920
 maxK2 (contraction) of shell pair           36
 max number of K2 of shell pair               1
 max number of CS2 of shell pair           1320
 max number of PS2 of shell pair           7770
 mem total for path MDJ                  280792
 -------------------------------------------------------
 Smallest overlap matrix eigenvalue = 4.17E-04

 Scale SEOQF with 1.000000e-02/1.000000e-02/1.000000e-01

 Standard Electronic Orientation quadrupole field applied
 Nucleus-field energy     =     0.0000001023 hartrees
 Guess from superposition of atomic densities
 Warning:  Energy on first SCF cycle will be non-variational
 A restricted hybrid HF-DFT SCF calculation will be
 performed using Pulay DIIS extrapolation
 Exchange:     0.2000 Hartree-Fock + 0.0800 Slater + 0.7200 B88
 Correlation:  0.1900 VWN1RPA + 0.8100 LYP
 Using SG-1 standard quadrature grid
 SCF converges when DIIS error is below 1.0E-05
 using 16 threads for integral computing 
 -------------------------------------------------------
 OpenMP BLAS3 based DFT computing Module                
 Release: version 1.0, May 2013, Q-Chem Inc. Pittsburgh 
 -------------------------------------------------------
 ---------------------------------------
  Cycle       Energy         DIIS Error
 ---------------------------------------
    1   -5679.2916276061      2.11E-02
    2   -5662.4966247577      2.14E-03
    3   -5660.9108414166      3.41E-03
    4   -5663.3243586509      8.76E-04
    5   -5663.4617150709      4.10E-04
    6   -5663.4790628431      2.93E-04
    7   -5663.4950431645      9.22E-05
    8   -5663.4965136332      3.44E-05
    9   -5663.4967220557      1.50E-05
   10   -5663.4967698051      3.89E-06 Convergence criterion met
 ---------------------------------------
 SCF time:  CPU 1103.61 s  wall 89.85 s
 SCF   energy in the final basis set = -5663.4967698051
 Total energy in the final basis set = -5663.4967698051
 
 --------------------------------------------------------------
 
                    Orbital Energies (a.u.)
 --------------------------------------------------------------
 
 Alpha MOs
 -- Occupied --
-88.991 -88.991 -88.931 -88.930 -88.927 -88.923 -88.911 -88.906
-14.391 -14.391 -14.387 -14.384 -14.354 -14.350 -14.345 -14.343
-14.334 -14.327 -10.274 -10.269 -10.268 -10.264 -10.262 -10.262
-10.255 -10.253 -10.249 -10.246 -10.245 -10.243 -10.240 -10.237
-10.236 -10.235 -10.235 -10.235 -10.234 -10.233 -10.231 -10.231
-10.230 -10.229 -10.228 -10.227 -10.226 -10.224 -10.223 -10.218
-10.213 -10.209 -10.209 -10.207 -10.204 -10.202 -10.202 -10.191
-10.190 -10.189 -10.187 -10.183 -10.179 -10.178 -10.176 -10.176
-10.175 -10.175 -10.174 -10.168  -8.047  -8.046  -7.992  -7.989
 -7.986  -7.984  -7.970  -7.967  -6.012  -6.011  -6.006  -6.006
 -6.005  -6.004  -5.956  -5.954  -5.953  -5.950  -5.950  -5.950
 -5.947  -5.946  -5.946  -5.945  -5.942  -5.941  -5.934  -5.932
 -5.931  -5.928  -5.926  -5.923  -1.037  -1.025  -0.990  -0.961
 -0.959  -0.952  -0.938  -0.930  -0.916  -0.914  -0.902  -0.893
 -0.844  -0.835  -0.829  -0.824  -0.816  -0.809  -0.808  -0.800
 -0.800  -0.798  -0.797  -0.791  -0.782  -0.774  -0.766  -0.762
 -0.752  -0.742  -0.739  -0.737  -0.725  -0.721  -0.709  -0.705
 -0.692  -0.688  -0.676  -0.669  -0.655  -0.649  -0.644  -0.644
 -0.640  -0.633  -0.625  -0.620  -0.612  -0.603  -0.600  -0.596
 -0.593  -0.588  -0.585  -0.582  -0.580  -0.573  -0.567  -0.562
 -0.557  -0.546  -0.542  -0.538  -0.524  -0.522  -0.515  -0.506
 -0.506  -0.500  -0.499  -0.498  -0.487  -0.480  -0.479  -0.475
 -0.475  -0.470  -0.466  -0.464  -0.461  -0.460  -0.453  -0.445
 -0.445  -0.444  -0.439  -0.438  -0.438  -0.436  -0.434  -0.431
 -0.427  -0.424  -0.422  -0.417  -0.416  -0.415  -0.414  -0.413
 -0.411  -0.407  -0.406  -0.400  -0.399  -0.397  -0.395  -0.394
 -0.393  -0.392  -0.391  -0.389  -0.389  -0.385  -0.384  -0.377
 -0.377  -0.375  -0.373  -0.372  -0.371  -0.364  -0.358  -0.356
 -0.355  -0.352  -0.350  -0.349  -0.348  -0.347  -0.343  -0.338
 -0.336  -0.334  -0.334  -0.330  -0.326  -0.326  -0.321  -0.318
 -0.315  -0.314  -0.311  -0.305  -0.304  -0.301  -0.301  -0.300
 -0.298  -0.295  -0.291  -0.290  -0.286  -0.283  -0.282  -0.277
 -0.275  -0.272  -0.271  -0.263  -0.260  -0.257  -0.249  -0.248
 -0.246  -0.245  -0.235  -0.228  -0.197  -0.187
 -- Virtual --
 -0.120  -0.113  -0.083  -0.077  -0.045  -0.038  -0.028  -0.026
 -0.022  -0.018  -0.017  -0.014  -0.010  -0.010  -0.006  -0.002
  0.002   0.007   0.017   0.019   0.020   0.028   0.036   0.036
  0.046   0.053   0.054   0.062   0.065   0.069   0.075   0.081
  0.086   0.089   0.094   0.097   0.100   0.103   0.108   0.109
  0.113   0.114   0.114   0.118   0.120   0.121   0.123   0.125
  0.129   0.130   0.131   0.137   0.138   0.143   0.147   0.149
  0.150   0.152   0.155   0.156   0.159   0.160   0.163   0.166
  0.168   0.170   0.172   0.175   0.176   0.178   0.182   0.183
  0.186   0.189   0.189   0.190   0.194   0.198   0.200   0.202
  0.203   0.206   0.208   0.211   0.212   0.212   0.219   0.220
  0.223   0.226   0.228   0.232   0.233   0.235   0.236   0.238
  0.241   0.243   0.243   0.245   0.249   0.254   0.257   0.260
  0.261   0.262   0.268   0.268   0.270   0.273   0.276   0.279
  0.282   0.287   0.290   0.291   0.293   0.298   0.300   0.308
  0.309   0.310   0.311   0.317   0.318   0.323   0.323   0.325
  0.326   0.328   0.332   0.332   0.335   0.341   0.346   0.349
  0.350   0.352   0.359   0.363   0.364   0.367   0.370   0.372
  0.374   0.377   0.385   0.386   0.390   0.391   0.399   0.401
  0.404   0.409   0.409   0.411   0.415   0.428   0.430   0.432
  0.437   0.440   0.442   0.451   0.451   0.459   0.466   0.469
  0.471   0.472   0.484   0.486   0.493   0.495   0.497   0.500
  0.501   0.503   0.503   0.508   0.509   0.511   0.515   0.516
  0.520   0.522   0.524   0.527   0.528   0.530   0.531   0.531
  0.533   0.535   0.535   0.540   0.543   0.545   0.546   0.550
  0.552   0.555   0.557   0.557   0.559   0.560   0.561   0.563
  0.566   0.568   0.570   0.573   0.574   0.576   0.579   0.580
  0.582   0.584   0.586   0.590   0.592   0.594   0.595   0.596
  0.599   0.601   0.605   0.607   0.610   0.611   0.612   0.614
  0.616   0.618   0.619   0.621   0.622   0.625   0.627   0.628
  0.631   0.632   0.634   0.636   0.638   0.640   0.641   0.645
  0.647   0.650   0.651   0.654   0.657   0.660   0.666   0.669
  0.672   0.676   0.681   0.683   0.685   0.685   0.689   0.691
  0.693   0.694   0.699   0.702   0.706   0.713   0.715   0.716
  0.720   0.729   0.731   0.732   0.735   0.739   0.741   0.743
  0.747   0.749   0.751   0.752   0.755   0.759   0.762   0.764
  0.768   0.771   0.774   0.779   0.782   0.787   0.788   0.794
  0.796   0.798   0.800   0.802   0.803   0.805   0.805   0.807
  0.809   0.810   0.813   0.816   0.817   0.820   0.823   0.826
  0.828   0.829   0.829   0.830   0.833   0.838   0.839   0.840
  0.841   0.843   0.845   0.846   0.849   0.851   0.854   0.858
  0.860   0.863   0.866   0.869   0.869   0.871   0.872   0.875
  0.876   0.879   0.880   0.888   0.889   0.891   0.892   0.894
  0.899   0.900   0.902   0.904   0.904   0.910   0.911   0.913
  0.917   0.919   0.922   0.925   0.929   0.931   0.933   0.935
  0.935   0.939   0.941   0.943   0.947   0.948   0.951   0.956
  0.957   0.959   0.960   0.963   0.965   0.968   0.969   0.971
  0.975   0.977   0.979   0.984   0.984   0.985   0.987   0.990
  0.994   0.996   1.001   1.005   1.005   1.009   1.011   1.012
  1.017   1.021   1.023   1.027   1.028   1.030   1.031   1.033
  1.035   1.038   1.041   1.046   1.049   1.053   1.056   1.059
  1.061   1.066   1.067   1.070   1.071   1.076   1.079   1.082
  1.083   1.085   1.088   1.091   1.100   1.105   1.106   1.108
  1.110   1.114   1.119   1.121   1.126   1.137   1.143   1.148
  1.149   1.153   1.157   1.164   1.168   1.174   1.179   1.182
  1.192   1.197   1.202   1.205   1.213   1.216   1.217   1.219
  1.225   1.230   1.236   1.238   1.243   1.250   1.261   1.263
  1.268   1.271   1.276   1.282   1.285   1.287   1.293   1.295
  1.299   1.301   1.306   1.313   1.322   1.324   1.329   1.334
  1.337   1.339   1.341   1.343   1.350   1.355   1.357   1.361
  1.365   1.371   1.381   1.384   1.387   1.392   1.394   1.396
  1.402   1.404   1.411   1.421   1.424   1.431   1.438   1.443
  1.448   1.451   1.454   1.462   1.468   1.469   1.471   1.476
  1.483   1.483   1.493   1.498   1.501   1.503   1.508   1.510
  1.515   1.515   1.530   1.531   1.538   1.548   1.555   1.559
  1.573   1.582   1.583   1.589   1.595   1.597   1.599   1.608
  1.610   1.621   1.623   1.626   1.632   1.644   1.644   1.648
  1.650   1.661   1.664   1.669   1.672   1.675   1.676   1.682
  1.682   1.686   1.690   1.696   1.698   1.702   1.705   1.706
  1.710   1.714   1.719   1.722   1.727   1.729   1.733   1.738
  1.744   1.745   1.751   1.754   1.757   1.764   1.774   1.776
  1.780   1.784   1.788   1.790   1.795   1.799   1.800   1.802
  1.804   1.810   1.814   1.820   1.824   1.828   1.829   1.835
  1.839   1.841   1.851   1.855   1.857   1.863   1.863   1.866
  1.867   1.870   1.875   1.878   1.878   1.882   1.885   1.886
  1.889   1.895   1.897   1.905   1.905   1.910   1.910   1.913
  1.917   1.921   1.925   1.927   1.934   1.934   1.939   1.943
  1.946   1.952   1.957   1.961   1.970   1.975   1.978   1.979
  1.981   1.995   2.003   2.005   2.011   2.013   2.014   2.017
  2.022   2.027   2.036   2.036   2.040   2.041   2.051   2.060
  2.064   2.067   2.078   2.079   2.080   2.092   2.096   2.099
  2.102   2.104   2.109   2.110   2.110   2.111   2.119   2.121
  2.122   2.127   2.129   2.133   2.139   2.141   2.143   2.146
  2.152   2.154   2.164   2.165   2.167   2.169   2.171   2.177
  2.179   2.184   2.189   2.191   2.196   2.204   2.208   2.215
  2.217   2.227   2.230   2.232   2.235   2.237   2.249   2.257
  2.258   2.265   2.267   2.267   2.272   2.278   2.280   2.282
  2.283   2.286   2.287   2.290   2.293   2.297   2.301   2.302
  2.306   2.308   2.316   2.316   2.323   2.324   2.326   2.330
  2.331   2.334   2.337   2.340   2.345   2.348   2.356   2.358
  2.363   2.366   2.367   2.378   2.383   2.389   2.390   2.395
  2.396   2.399   2.399   2.402   2.404   2.407   2.412   2.413
  2.417   2.422   2.426   2.428   2.434   2.435   2.439   2.440
  2.443   2.446   2.449   2.453   2.458   2.460   2.468   2.473
  2.474   2.479   2.485   2.486   2.491   2.495   2.499   2.501
  2.510   2.513   2.516   2.519   2.524   2.528   2.529   2.531
  2.535   2.540   2.542   2.543   2.547   2.550   2.552   2.552
  2.558   2.568   2.571   2.573   2.578   2.586   2.587   2.597
  2.603   2.609   2.613   2.614   2.624   2.625   2.635   2.637
  2.641   2.643   2.648   2.650   2.653   2.658   2.662   2.663
  2.672   2.676   2.678   2.679   2.682   2.685   2.689   2.692
  2.699   2.704   2.714   2.716   2.717   2.718   2.721   2.723
  2.737   2.739   2.742   2.751   2.758   2.769   2.774   2.778
  2.788   2.793   2.797   2.807   2.812   2.813   2.816   2.818
  2.827   2.839   2.846   2.849   2.849   2.857   2.861   2.862
  2.866   2.872   2.877   2.880   2.891   2.894   2.899   2.902
  2.906   2.907   2.910   2.915   2.921   2.933   2.942   2.943
  2.949   2.950   2.959   2.967   2.977   2.991   3.007   3.014
  3.020   3.023   3.036   3.051   3.064   3.069   3.089   3.134
  3.162   3.165   3.186   3.198   3.198   3.203   3.213   3.236
  3.240   3.249   3.252   3.258   3.261   3.274   3.279   3.281
  3.287   3.293   3.312   3.314   3.316   3.318   3.321   3.330
  3.339   3.355   3.378   3.381   3.384   3.401   3.423   3.430
  3.437   3.448   3.454   3.459   3.472   3.480   3.522   3.530
  3.539   3.550   3.563   3.566   3.574   3.577   3.598   3.599
  3.606   3.630   3.696   3.727   3.831   3.856   3.902   3.902
  3.933   3.938   3.943   3.956   3.957   3.959   3.983   3.987
  4.056   4.058   4.062   4.074   4.077   4.081   4.099   4.107
  4.114   4.131   4.134   4.140   4.158   4.166   4.180   4.185
  4.207   4.211   4.231   4.246   4.248   4.254   4.256   4.260
  4.268   4.283   4.320   4.336   4.360   4.363   4.377   4.382
  4.418   4.427   4.445   4.455   4.461   4.472   4.481   4.482
  4.486   4.488   4.528   4.533   4.575   4.618   4.640   4.654
  4.672   4.685   4.711   4.711   4.735   4.752   4.774   4.781
 --------------------------------------------------------------
 
          Ground-State Mulliken Net Atomic Charges

     Atom                 Charge (a.u.)
  ----------------------------------------
      1 C                     0.269535
      2 C                    -0.112948
      3 N                    -0.485020
      4 C                    -0.089361
      5 C                     0.072323
      6 C                     0.019499
      7 C                     0.049721
      8 C                     0.048003
      9 C                     0.194828
     10 N                    -0.510049
     11 N                    -0.536248
     12 C                     0.228018
     13 C                     0.247772
     14 S                     0.623533
     15 N                    -0.543800
     16 C                    -0.201427
     17 S                     0.328671
     18 C                    -0.097199
     19 C                    -0.222022
     20 S                     0.260106
     21 C                     0.116038
     22 C                     0.054676
     23 C                    -0.315472
     24 C                    -0.038938
     25 N                    -0.451544
     26 S                     0.269931
     27 C                     0.120709
     28 C                    -0.310904
     29 C                    -0.227744
     30 H                     0.094480
     31 H                     0.130054
     32 H                     0.124464
     33 H                     0.116195
     34 H                     0.134110
     35 H                     0.139626
     36 H                     0.118052
     37 H                     0.125476
     38 H                     0.105004
     39 C                    -0.184673
     40 H                     0.118597
     41 H                     0.096169
     42 H                     0.107821
     43 C                    -0.182732
     44 H                     0.088160
     45 C                    -0.177663
     46 H                     0.097480
     47 H                     0.088288
     48 H                     0.090852
     49 C                    -0.180383
     50 H                     0.096577
     51 C                    -0.315089
     52 H                     0.093979
     53 H                     0.099452
     54 H                     0.102713
     55 H                     0.098097
     56 C                     0.279978
     57 C                    -0.103445
     58 N                    -0.498005
     59 C                    -0.067148
     60 C                     0.053104
     61 C                     0.039795
     62 C                     0.000383
     63 C                     0.069919
     64 C                     0.218022
     65 N                    -0.527049
     66 N                    -0.556295
     67 C                     0.206420
     68 C                     0.320419
     69 S                     0.608706
     70 N                    -0.566840
     71 C                    -0.206943
     72 S                     0.332265
     73 C                    -0.149315
     74 C                    -0.235142
     75 S                     0.282144
     76 C                     0.192158
     77 C                     0.048079
     78 C                    -0.322280
     79 C                    -0.042796
     80 N                    -0.404044
     81 S                     0.266080
     82 C                     0.111647
     83 C                    -0.299911
     84 C                    -0.240065
     85 H                     0.103541
     86 H                     0.114885
     87 H                     0.101162
     88 H                     0.116392
     89 H                     0.133616
     90 H                     0.126362
     91 H                     0.113351
     92 H                     0.139373
     93 H                     0.116695
     94 C                    -0.194033
     95 H                     0.115532
     96 H                     0.091535
     97 H                     0.100771
     98 C                    -0.192299
     99 H                     0.115085
    100 C                    -0.173259
    101 H                     0.101571
    102 H                     0.093769
    103 H                     0.089338
    104 C                    -0.195597
    105 H                     0.102039
    106 C                    -0.323008
    107 H                     0.093647
    108 H                     0.106400
    109 H                     0.103868
    110 H                     0.103631
  ----------------------------------------
  Sum of atomic charges =     0.000000

 -----------------------------------------------------------------
                    Cartesian Multipole Moments
 -----------------------------------------------------------------
    Charge (ESU x 10^10)
                 0.0000
    Dipole Moment (Debye)
         X       3.1245      Y       4.1869      Z      -0.1850
       Tot       5.2276
    Quadrupole Moments (Debye-Ang)
        XX    -358.0027     XY       0.5035     YY    -429.4357
        XZ      -1.4101     YZ       6.4367     ZZ    -452.6932
    Octopole Moments (Debye-Ang^2)
       XXX     941.0806    XXY     283.7419    XYY     -83.9717
       YYY     228.6381    XXZ     119.1061    XYZ      63.2224
       YYZ     -29.4712    XZZ       1.0453    YZZ      -9.4292
       ZZZ       2.0118
    Hexadecapole Moments (Debye-Ang^3)
      XXXX -128594.7285   XXXY    1533.0809   XXYY  -27447.2155
      XYYY    -639.6313   YYYY  -27669.0040   XXXZ   -1111.0344
      XXYZ     388.0901   XYYZ     216.6696   YYYZ     297.2675
      XXZZ  -27113.6047   XYZZ     165.0467   YYZZ   -5173.1485
      XZZZ     127.8140   YZZZ     106.8153   ZZZZ   -2854.4441
 -----------------------------------------------------------------
Archival summary:
1\1\mn246\SP\ProcedureUnspecified\6-31G**\8105042\afmv_a\SatOct1300:41:352018SatOct1300:41:352018\0\\#,ProcedureUnspecified,6-31G**,\\0,1\S\C,1,1.75954\C,2,1.42775,1,125.7\N,3,1.36771,2,122.452,1,178.181,0\C,4,1.39116,3,108.478,2,-170.096,0\H,5,1.08253,4,121.292,3,172.179,0\C,5,1.39975,4,113.939,3,-3.93074,0\H,7,1.082,5,127.645,4,-169.487,0\C,2,1.43202,1,108.485,3,168.429,0\C,9,1.34505,2,113.802,1,18.6068,0\C,10,1.36847,9,115.915,2,-15.3202,0\C,9,1.42186,2,128.54,1,-163.957,0\H,12,1.08481,9,129.288,2,0.461488,0\C,12,1.4559,9,107.484,2,174.767,0\H,14,1.08242,12,130.697,9,-177.966,0\C,11,1.46634,10,125.053,9,-170.311,0\N,16,1.3445,11,113.511,10,141.758,0\C,17,1.33988,16,118.879,11,-177.806,0\H,18,1.08928,17,115.066,16,174.585,0\C,18,1.39449,17,125.542,16,-8.92653,0\C,16,1.42524,11,124.761,10,-38.7473,0\N,21,1.37999,16,129.993,11,3.14759,0\C,21,1.41794,16,118.437,11,-177.341,0\N,23,1.37065,21,116.22,16,-172.886,0\C,20,1.5263,18,119.502,17,-175.583,0\C,25,1.44081,20,118.36,18,35.4643,0\H,26,1.08571,25,121.924,20,1.91522,0\C,26,1.39067,25,118.074,20,177.419,0\H,28,1.08616,26,117.533,25,179.708,0\C,28,1.42388,26,120.461,25,-1.68382,0\N,30,1.32739,28,123.474,26,1.33642,0\C,31,1.36679,30,117.129,28,-2.23779,0\H,32,1.08884,31,115.414,30,-176.199,0\C,30,1.56988,28,117.112,26,177,0\H,34,1.09693,30,111.526,28,-43.9536,0\H,34,1.09786,30,104.381,28,-163.188,0\C,34,1.56326,30,108.924,28,73.1951,0\H,37,1.09687,34,112.5,30,77.45,0\H,37,1.09706,34,111.744,30,-43.8567,0\C,37,1.54997,34,115.193,30,-171.642,0\H,40,1.09719,37,107.983,34,-83.2049,0\H,40,1.09726,37,105.085,34,35.9141,0\C,40,1.54713,37,111.79,34,154.163,0\H,43,1.09615,40,100.097,37,-54.9887,0\H,43,1.09637,40,114.229,37,56.9054,0\C,43,1.5513,40,117.241,37,-171.148,0\H,46,1.0967,43,107.918,40,40.9876,0\H,46,1.097,43,115.045,40,155.955,0\C,46,1.53848,43,114.301,40,-79.0996,0\H,49,1.09679,46,112.496,43,-178.618,0\H,49,1.09713,46,110.486,43,-52.2477,0\H,49,1.0975,46,108.204,43,59.1653,0\S,22,1.61993,21,105.811,16,177.469,0\S,10,1.71183,9,114.285,2,-175.551,0\S,3,1.75477,2,121.211,1,-8.85185,0\H,27,2.56937,26,157.37,25,56.1572,0\C,56,1.09735,27,130.978,26,162.43,0\H,57,1.09678,56,100.959,27,-154.575,0\C,57,1.51968,56,114.793,27,-33.7577,0\N,59,1.33915,57,116.926,56,-1.49796,0\C,60,1.3663,59,118.993,57,-178.478,0\H,61,1.08892,60,109.378,59,-178.713,0\C,59,1.42051,57,119.702,56,-176.021,0\H,63,1.08603,59,120.426,57,-11.6642,0\C,63,1.36791,59,116.468,57,171.202,0\H,65,1.08612,63,118.142,59,-161.341,0\C,61,1.43677,60,124.123,59,5.96835,0\C,67,1.50447,61,120.967,60,169.78,0\C,68,1.38843,67,127.071,61,159.128,0\C,69,1.37328,68,121.969,67,177.615,0\N,69,1.38085,68,120.142,67,4.07669,0\N,70,1.39071,69,111.738,68,177.872,0\C,70,1.41576,69,122.626,68,-8.12559,0\N,73,1.36657,70,116.319,69,6.41381,0\C,74,1.32435,73,121.076,70,2.73514,0\H,75,1.08893,74,117.353,73,-167.756,0\C,73,1.45666,70,121.206,69,-172.358,0\C,77,1.42108,73,124.573,70,-174.988,0\C,78,1.40208,77,115.675,73,-179.022,0\C,79,1.35385,78,113.831,77,-6.7845,0\C,79,1.41736,78,111.335,77,173.937,0\H,81,1.08472,79,120.708,78,170.971,0\C,81,1.38491,79,113.602,78,1.98014,0\H,83,1.08165,81,131.304,79,174.182,0\C,80,1.45369,79,124.389,78,-176.895,0\N,85,1.28894,80,121.763,79,27.029,0\C,86,1.34125,85,113.075,80,175.501,0\H,87,1.08209,86,118.258,85,169.927,0\C,87,1.3703,86,115.734,85,2.95459,0\H,89,1.08201,87,123.813,86,-178.598,0\C,57,1.59193,56,106.246,27,93.0329,0\H,91,1.09604,57,106.666,56,-176.342,0\H,91,1.09718,57,115.769,56,-62.7781,0\C,91,1.60531,57,111.378,56,62.7188,0\H,94,1.09706,91,109.926,57,-176.765,0\H,94,1.09717,91,116.407,57,-53.9015,0\C,94,1.6229,91,107.384,57,71.4263,0\H,97,1.0967,94,106.821,91,-72.6211,0\H,97,1.09741,94,108.813,91,53.7425,0\C,97,1.53335,94,108.558,91,168.789,0\H,100,1.09692,97,106.922,94,-57.4153,0\H,100,1.09726,97,106.438,94,50.5354,0\C,100,1.5702,97,117.061,94,-179.356,0\H,103,1.09696,100,103.255,97,-63.6521,0\H,103,1.09713,100,111.919,97,-174.64,0\H,103,1.09726,100,111.384,97,58.548,0\S,72,1.65568,70,106.426,69,0.208349,0\S,80,1.71716,79,111.85,78,-3.16014,0\S,89,1.72192,87,109.127,86,-6.36275,0\S,78,1.72329,77,128.249,73,-7.96898,0\\\@

 Total job time:  93.02s(wall), 1113.49s(cpu) 
 Sat Oct 13 00:41:35 2018

        *************************************************************
        *                                                           *
        *  Thank you very much for using Q-Chem.  Have a nice day.  *
        *                                                           *
        *************************************************************


