
Running Job 1 of 1 ./6/44.qcin
qchem ./6/44.qcin_36500.0 /tmpu/cab_g/afmv_a/scratch_qchem/qchem36500/ 1
/tmpu/appuserlic/qchem4.4/serial-multicore/exe/qcprog.exe_s ./6/44.qcin_36500.0 /tmpu/cab_g/afmv_a/scratch_qchem/qchem36500/
Check license passed

                  Welcome to Q-Chem
     A Quantum Leap Into The Future Of Chemistry


 Q-Chem 4.4, Q-Chem, Inc., Pleasanton, CA (2016)

 Y. Shao,  Z. Gan,  E. Epifanovsky,  A. T. B. Gilbert,  M. Wormit,  
 J. Kussmann,  A. W. Lange,  A. Behn,  J. Deng,  X. Feng,  D. Ghosh,  
 M. Goldey,  P. R. Horn,  L. D. Jacobson,  I. Kaliman,  F. Rob,  
 R. Z. Khaliullin,  T. Kus,  A. Landau,  J. Liu,  E. I. Proynov,  Y. M. Rhee,  
 R. M. Richard,  M. A. Rohrdanz,  R. P. Steele,  E. J. Sundstrom,  
 H. L. Woodcock III,  P. M. Zimmerman,  D. Zuev,  B. Albrecht,  E. Alguire,  
 B. Austin,  S. A. Baeppler,  G. J. O. Beran,  Y. A. Bernard,  E. Berquist,  
 K. Brandhorst,  K. B. Bravaya,  S. T. Brown,  D. Casanova,  C.-M. Chang,  
 Y. Chen,  S. H. Chien,  K. D. Closser,  M. P. Coons,  D. L. Crittenden,  
 S. Dasgupta,  M. Diedenhofen,  R. A. DiStasio Jr.,  H. Do,  A. D. Dutoi,  
 R. G. Edgar,  P.-T. Fang,  S. Fatehi,  Q. Feng,  L. Fusti-Molnar,  
 A. Ghysels,  A. Golubeva-Zadorozhnaya,  J. Gomes,  A. Gunina,  
 M. W. D. Hanson-Heine,  P. H. P. Harbach,  A. W. Hauser,  J. E. Herr,  
 E. G. Hohenstein,  Z. C. Holden,  K. Hui,  T.-C. Jagau,  H. Ji,  B. Kaduk,  
 K. Khistyaev,  Jaehoon Kim,  Jihan Kim,  R. A. King,  P. Klunzinger,  
 K. Koh,  D. Kosenkov,  T. Kowalczyk,  C. M. Krauter,  A. Kunitsa,  
 K. U. Lao,  A. Laurent,  K. V. Lawler,  J. Lee,  D. Lefrancois,  S. Lehtola,  
 S. V. Levchenko,  C. Y. Lin,  Y.-S. Lin,  F. Liu,  E. Livshits,  
 R. C. Lochan,  A. Luenser,  P. Manohar,  S. F. Manzer,  S.-P. Mao,  Y. Mao,  
 N. Mardirossian,  A. V. Marenich,  L. A. Martinez-Martinez,  S. A. Maurer,  
 N. J. Mayhall,  J.-M. Mewes,  A. F. Morrison,  K. Nanda,  T. S. Nguyen-Beck,  
 C. M. Oana,  R. Olivares-Amaya,  D. P. O'Neill,  J. A. Parkhill,  
 T. M. Perrine,  R. Peverati,  P. A. Pieniazek,  F. Plasser,  A. Prociuk,  
 D. R. Rehn,  E. Rosta,  N. J. Russ,  N. Sergueev,  S. M. Sharada,  
 S. Sharma,  D. W. Small,  A. Sodt,  T. Stauch,  T. Stein,  D. Stuck,  
 Y.-C. Su,  A. J. W. Thom,  T. Tsuchimochi,  L. Vogt,  O. Vydrov,  T. Wang,  
 M. A. Watson,  J. Wenzel,  A. White,  C. F. Williams,  V. Vanovschi,  
 K. Yao,  S. Yeganeh,  S. R. Yost,  Z.-Q. You,  I. Y. Zhang,  X. Zhang,  
 Y. Zhao,  B. R. Brooks,  G. K. L. Chan,  D. M. Chipman,  C. J. Cramer,  
 W. A. Goddard III,  M. S. Gordon,  W. J. Hehre,  A. Klamt,  
 H. F. Schaefer III,  M. W. Schmidt,  C. D. Sherrill,  D. G. Truhlar,  
 A. Warshel,  X. Xu,  A. Aspuru-Guzik,  R. Baer,  A. T. Bell,  N. A. Besley,  
 J.-D. Chai,  A. Dreuw,  B. D. Dunietz,  T. R. Furlani,  S. R. Gwaltney,  
 C.-P. Hsu,  Y. Jung,  J. Kong,  D. S. Lambrecht,  W. Liang,  C. Ochsenfeld,  
 V. A. Rassolov,  L. V. Slipchenko,  J. E. Subotnik,  T. Van Voorhis,  
 J. M. Herbert,  A. I. Krylov,  P. M. W. Gill,  M. Head-Gordon

 Contributors to earlier versions of Q-Chem not listed above: 
 R. D. Adamson,  J. Baker,  E. F. C. Byrd,  A. K. Chakraborty,  C.-L. Cheng,  
 H. Dachsel,  R. J. Doerksen,  G. Hawkins,  A. Heyden,  S. Hirata,  
 G. Kedziora,  F. J. Keil,  C. Kelley,  P. P. Korambath,  W. Kurlancheek,  
 A. M. Lee,  M. S. Lee,  D. Liotard,  I. Lotan,  P. E. Maslen,  N. Nair,  
 D. Neuhauser,  R. Olson,  B. Peters,  J. Ritchie,  N. E. Schultz,  
 N. Shenvi,  A. C. Simmonett,  K. S. Thanthiriwatte,  Q. Wu,  W. Zhang

 Please cite Q-Chem as follows:
 Y. Shao et al., Mol. Phys. 113, 184-215 (2015)
 DOI: 10.1080/00268976.2014.952696

 Q-Chem 4.4.2 for Intel X86 Linux

 Parts of Q-Chem use Armadillo 5.200.1 (Boston Tea Smuggler).
 http://arma.sourceforge.net/

 Q-Chem begins on Sat Oct 13 00:56:56 2018  

Host: 
0

     Scratch files written to /tmpu/cab_g/afmv_a/scratch_qchem/qchem36500//
 Dec716 11556_ 22328  22283 4050   
Processing $rem in /tmpu/appuserlic/qchem4.4/serial-multicore/config/preferences.
 MEM_TOTAL  2000 
FILE_GEOM_ORG=        593

Checking the input file for inconsistencies... 	...done.

--------------------------------------------------------------
User input:
--------------------------------------------------------------
$comment
SP
$end

$rem
MEM_STATIC 5000
MEM_TOTAL 20000
JOBTYPE SP
EXCHANGE B3LYP
BASIS 6-31g(d,p)
$end

$molecule
0 1
C          26.700000    -15.465000     -0.878000
C          25.545000    -15.994000     -1.600000
N          26.972000    -14.155000     -0.974000
C          24.753000    -15.158000     -2.379000
C          26.188000    -13.411000     -1.740000
C          25.126000    -13.819000     -2.507000
C          24.307000    -12.829000     -3.203000
C          23.913000    -11.596000     -2.628000
C          23.917000    -12.905000     -4.592000
N          23.209000    -10.650000     -3.207000
N          24.237000    -13.988000     -5.308000
C          23.169000    -11.892000     -5.237000
C          22.914000    -10.692000     -4.470000
S          23.754000    -13.628000     -6.830000
N          22.959000    -12.195000     -6.586000
C          22.121000     -9.586000     -5.049000
S          21.770000     -9.396000     -6.737000
C          21.519000     -8.514000     -4.371000
C          20.875000     -7.912000     -6.502000
S          21.608000     -8.036000     -2.685000
C          20.819000     -7.581000     -5.156000
C          20.189000     -7.169000     -7.482000
C          20.738000     -6.511000     -3.044000
C          20.461000     -6.333000     -4.373000
N          19.988000     -7.836000     -8.572000
S          19.718000     -5.543000     -7.307000
C          19.317000     -6.958000     -9.341000
C          19.010000     -5.709000     -8.906000
C          27.668000    -16.413000     -0.123000
H          25.243000    -17.036000     -1.556000
H          23.863000    -15.565000     -2.850000
H          26.386000    -12.342000     -1.695000
H          24.225000    -11.378000     -1.608000
H          20.700000     -5.704000     -2.325000
H          19.922000     -5.462000     -4.728000
H          19.101000     -7.164000    -10.381000
H          18.582000     -4.887000     -9.464000
H          27.423000    -17.482000     -0.116000
C          27.984000    -15.916000      1.423000
H          28.644000    -16.341000     -0.619000
H          28.199000    -14.843000      1.350000
H          28.846000    -16.400000      1.898000
C          26.779000    -16.319000      2.244000
H          26.274000    -17.139000      1.719000
C          25.721000    -15.186000      2.322000
H          27.134000    -16.772000      3.178000
H          25.148000    -15.015000      1.402000
H          26.304000    -14.289000      2.566000
C          24.747000    -15.372000      3.473000
H          25.294000    -15.462000      4.420000
C          23.881000    -16.548000      3.213000
H          24.009000    -14.575000      3.322000
H          23.767000    -16.784000      2.148000
H          22.823000    -16.334000      3.408000
H          24.295000    -17.395000      3.774000
C           8.123000    -18.848000     -1.661000
C           9.357000    -18.541000     -1.086000
N           7.869000    -18.915000     -3.033000
C          10.421000    -18.072000     -1.890000
C           8.982000    -18.625000     -3.817000
C          10.205000    -18.045000     -3.297000
C          11.221000    -17.471000     -4.243000
C          12.615000    -17.696000     -3.926000
C          10.963000    -16.645000     -5.361000
N          13.567000    -17.242000     -4.726000
N           9.707000    -16.247000     -5.692000
C          12.015000    -15.994000     -6.045000
C          13.357000    -16.438000     -5.814000
S           9.904000    -14.979000     -6.747000
N          11.580000    -14.939000     -6.841000
C          14.552000    -15.929000     -6.439000
S          14.719000    -14.478000     -7.392000
C          15.797000    -16.529000     -6.294000
C          16.430000    -14.579000     -7.376000
S          16.322000    -18.068000     -5.595000
C          16.841000    -15.830000     -6.810000
C          17.335000    -13.448000     -7.732000
C          17.932000    -17.778000     -6.358000
C          18.040000    -16.538000     -6.921000
N          18.484000    -13.666000     -8.163000
S          16.746000    -11.763000     -7.688000
C          19.054000    -12.495000     -8.610000
C          18.269000    -11.368000     -8.423000
C           6.916000    -19.205000     -0.763000
H           9.458000    -18.673000     -0.013000
H          11.388000    -17.779000     -1.493000
H           8.924000    -18.681000     -4.903000
H          12.971000    -18.385000     -3.161000
H          18.715000    -18.524000     -6.321000
H          18.967000    -16.192000     -7.365000
H          20.111000    -12.515000     -8.838000
H          18.571000    -10.371000     -8.715000
H           6.918000    -18.311000     -0.127000
C           7.063000    -20.578000     -0.063000
H           5.981000    -19.189000     -1.336000
H           7.731000    -20.555000      0.807000
H           7.477000    -21.347000     -0.728000
C           5.825000    -21.035000      0.714000
H           5.003000    -21.168000      0.000000
C           5.294000    -20.095000      1.808000
H           6.046000    -22.005000      1.177000
H           4.465000    -20.666000      2.244000
H           5.007000    -19.156000      1.319000
C           6.349000    -19.725000      2.832000
H           6.744000    -20.670000      3.225000
C           5.563000    -18.999000      3.965000
H           7.199000    -19.171000      2.416000
H           4.712000    -19.623000      4.264000
H           5.089000    -18.058000      3.658000
H           6.098000    -18.825000      4.907000
$end

--------------------------------------------------------------
 ----------------------------------------------------------------
             Standard Nuclear Orientation (Angstroms)
    I     Atom           X                Y                Z
 ----------------------------------------------------------------
    1      C      -7.0664670149     6.3808894848    -1.2033398053
    2      C      -5.8744246439     5.7423918910    -1.7569694726
    3      N      -7.8806598107     5.6537453909    -0.4238197235
    4      C      -5.5979715116     4.4062157480    -1.4901212378
    5      C      -7.5707531399     4.3828787488    -0.2145260701
    6      C      -6.5184945640     3.6747022904    -0.7378185251
    7      C      -6.2753826311     2.3015870359    -0.3010942576
    8      C      -6.3914808333     1.8766498221     1.0450482207
    9      C      -6.0307890220     1.1828709129    -1.1819150126
   10      N      -6.2212211015     0.6559299001     1.4996111931
   11      N      -5.9263979689     1.3913585204    -2.4985700265
   12      C      -5.8562243638    -0.1406454930    -0.7133752561
   13      C      -6.0639740879    -0.3557005185     0.7022183961
   14      S      -5.7979614593    -0.1090638981    -3.1401381281
   15      N      -5.6722819487    -1.0354320665    -1.7722577689
   16      C      -5.8821830082    -1.7000177077     1.2913612464
   17      S      -5.8161615332    -3.1781734877     0.3861863159
   18      C      -5.7322959314    -2.0303935866     2.6477010426
   19      C      -5.6233468629    -4.1760245579     1.8094297050
   20      S      -5.8488185923    -1.0307958011     4.0851389497
   21      C      -5.5805807424    -3.3940611761     2.9544700224
   22      C      -5.4223658213    -5.5692330395     1.8497006332
   23      C      -5.7551419894    -2.4811669859     5.1334967704
   24      C      -5.7147278168    -3.6615131775     4.4408182283
   25      N      -5.0650458541    -6.0606745316     0.7076858781
   26      S      -5.6771899528    -6.5422781801     3.2225042668
   27      C      -4.9142696318    -7.3706283226     0.9792988315
   28      C      -5.1293133954    -7.8770430066     2.2205785532
   29      C      -7.4555331365     7.8262939144    -1.6097713346
   30      H      -5.1530748039     6.2664919448    -2.3765479922
   31      H      -4.6711988741     3.9767608884    -1.8592431713
   32      H      -8.2013522636     3.8719059058     0.5102093981
   33      H      -6.6634675600     2.6140357872     1.7984094614
   34      H      -5.9945516696    -2.4285875788     6.1868592013
   35      H      -5.6383300703    -4.6153823818     4.9502138756
   36      H      -4.7356556472    -8.0955429621     0.1961718878
   37      H      -5.1518969659    -8.9129347719     2.5314647589
   38      H      -6.7775303673     8.3588954582    -2.2876229707
   39      C      -7.7980645536     8.7924352965    -0.3112244321
   40      H      -8.4125784090     7.7661039170    -2.1428918749
   41      H      -8.4573965353     8.1982263123     0.3330426095
   42      H      -8.3182195011     9.7270657428    -0.5537729006
   43      C      -6.4613575475     9.2010817633     0.2673059863
   44      H      -5.7092248365     9.1060301017    -0.5253550803
   45      C      -5.9876148790     8.2313549780     1.3828035641
   46      H      -6.4935657903    10.2760694854     0.4839947642
   47      H      -5.6375491175     7.2513285900     1.0349929238
   48      H      -6.8707346575     8.1027358670     2.0212317755
   49      C      -4.9183949096     8.8405845591     2.2736913092
   50      H      -5.2770553346     9.7847125967     2.7027635037
   51      C      -3.6632897169     9.0172314656     1.5029521667
   52      H      -4.6112497581     8.0089108449     2.9191637632
   53      H      -3.5659743000     8.3273776152     0.6558698952
   54      H      -2.7848593333     8.6620165690     2.0555527805
   55      H      -3.6171374175    10.0647307908     1.1802431197
   56      C      10.9925437953     1.1475223800     0.7062947936
   57      C       9.8098343129     1.8333505110     0.9864162939
   58      N      11.1127944731     0.0844876571    -0.1919735141
   59      C       8.5732715997     1.3491948002     0.5016700673
   60      C       9.9107548570    -0.2646200535    -0.8008655961
   61      C       8.6156951532     0.2198297674    -0.3642218802
   62      C       7.3632121792    -0.4464066929    -0.8582495909
   63      C       6.2385918946     0.4119139388    -1.1629870328
   64      C       7.1304276778    -1.8369662857    -0.9627454993
   65      N       5.1094667780    -0.1004673436    -1.6266268635
   66      N       8.0556819997    -2.7560174786    -0.5822847990
   67      C       5.8387562197    -2.3415539971    -1.2372215197
   68      C       4.8459536164    -1.4392121014    -1.7388021155
   69      S       7.2313498670    -4.1925431676    -0.4537216637
   70      N       5.6991152870    -3.6892980349    -0.9210689956
   71      C       3.4924117737    -1.7678732954    -2.1097971288
   72      S       2.6269227548    -3.2450694067    -1.7776534751
   73      C       2.6449123103    -0.8737142689    -2.7526612628
   74      C       1.1344983983    -2.5672558389    -2.2788683068
   75      S       2.9010340347     0.7127299712    -3.4945125520
   76      C       1.3566267715    -1.2849044265    -2.8792946896
   77      C      -0.1977328075    -3.1582287691    -1.9613261680
   78      C       1.2545657688     0.5556980391    -4.2175977626
   79      C       0.5711555850    -0.5337050001    -3.7567457918
   80      N      -1.1797072309    -2.9423346055    -2.6979413605
   81      S      -0.3848185867    -4.3036770612    -0.6044808852
   82      C      -2.2371322615    -3.7424106408    -2.3268879380
   83      C      -1.9952420740    -4.5313410965    -1.2131550826
   84      C      12.3190409645     1.5857722729     1.3688989677
   85      H       9.8823814649     2.7360204896     1.5854804143
   86      H       7.6187075526     1.8169955849     0.7219356017
   87      H       9.8786848151    -1.0535246587    -1.5508636204
   88      H       6.2895911222     1.4983483604    -1.2241534150
   89      H       0.8738290071     1.2900159529    -4.9153016538
   90      H      -0.4538736609    -0.7304812241    -4.0513220342
   91      H      -3.2009199375    -3.5233928680    -2.7659523193
   92      H      -2.7220387472    -5.2123734966    -0.7907353080
   93      H      11.9982218790     1.5413752393     2.4171546702
   94      C      12.8438736928     2.9432182814     0.8410458240
   95      H      13.0951782835     0.8219895508     1.2382972243
   96      H      12.3205087628     3.8086281570     1.2662609429
   97      H      12.7345985409     3.0422007837    -0.2467240990
   98      C      14.2289427088     3.3387477673     1.3610095215
   99      H      14.9532430239     2.5968364069     1.0030631750
  100      C      14.4129147243     3.4161099542     2.8850063685
  101      H      14.4913391404     4.3161383313     0.9367857620
  102      H      15.4453294619     3.7711487590     2.9919888743
  103      H      14.2204840229     2.4139232369     3.2872540643
  104      C      13.4087855744     4.3330764950     3.5553779172
  105      H      13.4971935842     5.3063261349     3.0569121088
  106      C      13.9172638862     4.4715917238     5.0219468170
  107      H      12.3667657109     4.0100136105     3.4444861824
  108      H      14.9784705547     4.7482973560     5.0060597221
  109      H      13.9101052498     3.5359609701     5.5954883120
  110      H      13.4559791130     5.2560144299     5.6349414143
 ----------------------------------------------------------------
 Molecular Point Group                 C1    NOp =  1
 Largest Abelian Subgroup              C1    NOp =  1
 Nuclear Repulsion Energy = 10766.4939645344 hartrees
 There are      270 alpha and      270 beta electrons
 Requested basis set is 6-31G(d,p)
 There are 406 shells and 1262 basis functions

 Total QAlloc Memory Limit  20000 MB
 Mega-Array Size      4888 MB
 MEM_STATIC part      5000 MB
 A cutoff of  1.0D-08 yielded  12979 shell pairs
 There are    134630 function pairs
 
 -------------------------------------------------------
 OpenMP Integral Computing Module                       
 Release: version 1.0, May 2013, Q-Chem Inc. Pittsburgh 
 -------------------------------------------------------
 Integral Job Info:
 Integral job number is                      11
 Integral operator is                         1
 short-range coefficients                     0
 long-range coefficients              100000000
 Omega coefficients                           0
 if combine SR and LR in K                    0
 Integral screening is                        0
 Integral computing path is                   2
 max size of driver memory is            800000
 size of driver memory is                593474
 size of scratch memory is             15166112
 max col of scratch BK array               1296
 max len of scratch array in speh3          155
 max len of scratch index in speh4           18
 max int batch size is                      520
 min int batch size is                       52
 fixed nKL is                                52
 max L of basis functions is                  2
 order of int derivative is                   0
 number of shells is                        406
 number of basis is                        1262
 number of cartesian basis is              1262
 number of contracted shell pairs         12979
 number of primitive shell pairs          42157
 maxK2 (contraction) of shell pair           36
 max number of K2 of shell pair               1
 max number of CS2 of shell pair           1289
 max number of PS2 of shell pair           7620
 mem total for path MDJ                  279544
 -------------------------------------------------------
 Smallest overlap matrix eigenvalue = 4.86E-04

 Scale SEOQF with 1.000000e-02/1.000000e-02/1.000000e-02

 Standard Electronic Orientation quadrupole field applied
 Nucleus-field energy     =     0.0000001318 hartrees
 Guess from superposition of atomic densities
 Warning:  Energy on first SCF cycle will be non-variational
 A restricted hybrid HF-DFT SCF calculation will be
 performed using Pulay DIIS extrapolation
 Exchange:     0.2000 Hartree-Fock + 0.0800 Slater + 0.7200 B88
 Correlation:  0.1900 VWN1RPA + 0.8100 LYP
 Using SG-1 standard quadrature grid
 SCF converges when DIIS error is below 1.0E-05
 using 16 threads for integral computing 
 -------------------------------------------------------
 OpenMP BLAS3 based DFT computing Module                
 Release: version 1.0, May 2013, Q-Chem Inc. Pittsburgh 
 -------------------------------------------------------
 ---------------------------------------
  Cycle       Energy         DIIS Error
 ---------------------------------------
    1   -5680.0573213382      2.15E-02
    2   -5662.4693561999      2.15E-03
    3   -5661.0784910840      3.30E-03
    4   -5663.3366793513      7.95E-04
    5   -5663.4520093363      3.58E-04
    6   -5663.4662076777      2.49E-04
    7   -5663.4775966319      8.14E-05
    8   -5663.4787875285      2.88E-05
    9   -5663.4789323530      1.12E-05
   10   -5663.4789560195      4.20E-06 Convergence criterion met
 ---------------------------------------
 SCF time:  CPU 1032.55 s  wall 85.45 s
 SCF   energy in the final basis set = -5663.4789560195
 Total energy in the final basis set = -5663.4789560195
 
 --------------------------------------------------------------
 
                    Orbital Energies (a.u.)
 --------------------------------------------------------------
 
 Alpha MOs
 -- Occupied --
-88.990 -88.985 -88.935 -88.928 -88.928 -88.921 -88.912 -88.906
-14.397 -14.389 -14.386 -14.381 -14.350 -14.350 -14.341 -14.338
-14.336 -14.333 -10.270 -10.268 -10.265 -10.264 -10.261 -10.259
-10.257 -10.254 -10.245 -10.243 -10.242 -10.239 -10.238 -10.238
-10.236 -10.236 -10.233 -10.231 -10.229 -10.228 -10.227 -10.226
-10.225 -10.223 -10.223 -10.223 -10.223 -10.219 -10.219 -10.216
-10.215 -10.214 -10.212 -10.211 -10.204 -10.203 -10.199 -10.197
-10.191 -10.186 -10.181 -10.181 -10.181 -10.175 -10.173 -10.173
-10.171 -10.168 -10.167 -10.163  -8.046  -8.040  -7.998  -7.988
 -7.987  -7.982  -7.971  -7.965  -6.011  -6.005  -6.005  -6.004
 -5.999  -5.997  -5.961  -5.958  -5.955  -5.952  -5.951  -5.948
 -5.947  -5.946  -5.945  -5.944  -5.943  -5.939  -5.936  -5.932
 -5.930  -5.928  -5.926  -5.921  -1.033  -1.016  -1.002  -0.984
 -0.978  -0.950  -0.948  -0.915  -0.915  -0.913  -0.902  -0.889
 -0.847  -0.846  -0.839  -0.828  -0.821  -0.811  -0.810  -0.807
 -0.806  -0.802  -0.801  -0.789  -0.785  -0.779  -0.773  -0.759
 -0.753  -0.743  -0.740  -0.734  -0.732  -0.727  -0.711  -0.707
 -0.694  -0.686  -0.678  -0.668  -0.658  -0.652  -0.650  -0.638
 -0.637  -0.631  -0.626  -0.618  -0.616  -0.610  -0.607  -0.600
 -0.596  -0.591  -0.583  -0.582  -0.580  -0.568  -0.555  -0.551
 -0.547  -0.546  -0.545  -0.534  -0.530  -0.518  -0.517  -0.514
 -0.506  -0.505  -0.500  -0.496  -0.494  -0.480  -0.477  -0.475
 -0.475  -0.472  -0.471  -0.467  -0.461  -0.457  -0.453  -0.451
 -0.451  -0.448  -0.447  -0.446  -0.437  -0.435  -0.434  -0.432
 -0.426  -0.426  -0.425  -0.423  -0.421  -0.419  -0.419  -0.415
 -0.414  -0.408  -0.407  -0.404  -0.402  -0.399  -0.398  -0.394
 -0.391  -0.391  -0.390  -0.387  -0.387  -0.386  -0.382  -0.381
 -0.374  -0.373  -0.372  -0.370  -0.370  -0.366  -0.356  -0.355
 -0.353  -0.351  -0.347  -0.347  -0.346  -0.345  -0.343  -0.343
 -0.341  -0.338  -0.338  -0.332  -0.330  -0.327  -0.323  -0.317
 -0.316  -0.312  -0.311  -0.308  -0.306  -0.302  -0.301  -0.299
 -0.298  -0.296  -0.294  -0.291  -0.287  -0.284  -0.282  -0.278
 -0.275  -0.269  -0.266  -0.260  -0.258  -0.253  -0.251  -0.249
 -0.246  -0.245  -0.240  -0.227  -0.201  -0.188
 -- Virtual --
 -0.116  -0.113  -0.076  -0.069  -0.040  -0.035  -0.028  -0.024
 -0.016  -0.014  -0.012  -0.010  -0.008  -0.005  -0.001   0.001
  0.003   0.004   0.019   0.021   0.027   0.032   0.035   0.039
  0.050   0.057   0.057   0.063   0.069   0.077   0.085   0.085
  0.089   0.091   0.094   0.097   0.101   0.103   0.106   0.107
  0.113   0.115   0.116   0.117   0.119   0.121   0.122   0.122
  0.127   0.131   0.132   0.135   0.136   0.136   0.140   0.147
  0.147   0.149   0.152   0.154   0.154   0.158   0.160   0.162
  0.164   0.169   0.170   0.171   0.172   0.173   0.179   0.180
  0.184   0.189   0.189   0.190   0.193   0.194   0.196   0.198
  0.200   0.202   0.207   0.209   0.209   0.213   0.218   0.219
  0.226   0.228   0.230   0.231   0.233   0.236   0.238   0.241
  0.247   0.249   0.251   0.252   0.255   0.255   0.257   0.258
  0.259   0.262   0.264   0.268   0.269   0.270   0.271   0.280
  0.281   0.285   0.288   0.291   0.293   0.295   0.302   0.302
  0.304   0.305   0.308   0.311   0.318   0.320   0.321   0.323
  0.324   0.326   0.327   0.333   0.336   0.338   0.341   0.342
  0.345   0.349   0.353   0.356   0.362   0.365   0.366   0.367
  0.369   0.370   0.373   0.377   0.384   0.385   0.391   0.393
  0.397   0.399   0.409   0.416   0.424   0.426   0.427   0.428
  0.440   0.447   0.449   0.453   0.460   0.464   0.467   0.469
  0.474   0.477   0.480   0.481   0.487   0.493   0.495   0.501
  0.502   0.502   0.508   0.510   0.512   0.513   0.516   0.517
  0.518   0.520   0.522   0.523   0.524   0.528   0.530   0.532
  0.534   0.535   0.538   0.541   0.541   0.544   0.547   0.549
  0.550   0.552   0.554   0.556   0.557   0.557   0.560   0.563
  0.566   0.569   0.570   0.574   0.576   0.578   0.581   0.583
  0.584   0.585   0.587   0.589   0.589   0.593   0.599   0.601
  0.603   0.604   0.606   0.607   0.608   0.610   0.614   0.615
  0.618   0.620   0.622   0.624   0.626   0.628   0.629   0.631
  0.634   0.636   0.639   0.639   0.643   0.644   0.647   0.651
  0.654   0.655   0.657   0.660   0.662   0.666   0.669   0.671
  0.674   0.679   0.680   0.684   0.686   0.688   0.691   0.694
  0.695   0.697   0.701   0.702   0.703   0.709   0.712   0.717
  0.717   0.721   0.723   0.725   0.734   0.736   0.738   0.740
  0.745   0.747   0.752   0.756   0.759   0.763   0.763   0.767
  0.770   0.772   0.775   0.780   0.783   0.784   0.785   0.789
  0.792   0.792   0.795   0.795   0.799   0.802   0.803   0.806
  0.807   0.811   0.814   0.815   0.818   0.820   0.821   0.821
  0.824   0.825   0.826   0.828   0.832   0.833   0.835   0.837
  0.841   0.841   0.842   0.843   0.844   0.846   0.846   0.848
  0.850   0.850   0.851   0.858   0.860   0.868   0.869   0.871
  0.873   0.874   0.874   0.876   0.877   0.878   0.881   0.887
  0.889   0.891   0.893   0.896   0.897   0.898   0.899   0.903
  0.905   0.906   0.907   0.910   0.913   0.915   0.918   0.920
  0.924   0.929   0.932   0.935   0.938   0.939   0.943   0.944
  0.947   0.949   0.951   0.952   0.954   0.956   0.957   0.958
  0.962   0.965   0.969   0.974   0.976   0.978   0.979   0.980
  0.985   0.988   0.989   0.990   0.994   0.995   1.000   1.002
  1.006   1.008   1.010   1.014   1.016   1.020   1.023   1.024
  1.027   1.029   1.031   1.034   1.034   1.037   1.040   1.041
  1.046   1.048   1.054   1.059   1.061   1.069   1.075   1.077
  1.079   1.084   1.086   1.088   1.093   1.095   1.096   1.100
  1.105   1.110   1.113   1.118   1.119   1.123   1.129   1.133
  1.141   1.143   1.144   1.152   1.155   1.156   1.163   1.164
  1.173   1.179   1.183   1.187   1.202   1.204   1.216   1.220
  1.227   1.228   1.234   1.237   1.243   1.246   1.251   1.256
  1.261   1.264   1.269   1.273   1.276   1.280   1.293   1.296
  1.301   1.306   1.309   1.316   1.318   1.321   1.326   1.334
  1.336   1.340   1.343   1.348   1.357   1.360   1.363   1.369
  1.373   1.377   1.379   1.384   1.387   1.387   1.394   1.401
  1.405   1.407   1.412   1.415   1.419   1.422   1.424   1.426
  1.431   1.441   1.444   1.445   1.452   1.455   1.461   1.464
  1.473   1.476   1.478   1.480   1.487   1.499   1.505   1.509
  1.522   1.523   1.527   1.530   1.550   1.555   1.563   1.565
  1.571   1.571   1.588   1.590   1.593   1.596   1.600   1.612
  1.624   1.626   1.631   1.637   1.640   1.641   1.642   1.648
  1.653   1.658   1.667   1.669   1.671   1.673   1.680   1.682
  1.686   1.687   1.691   1.694   1.702   1.703   1.713   1.717
  1.718   1.719   1.722   1.725   1.728   1.728   1.743   1.745
  1.745   1.753   1.758   1.763   1.765   1.767   1.769   1.774
  1.775   1.781   1.784   1.788   1.790   1.796   1.803   1.804
  1.812   1.816   1.817   1.820   1.825   1.827   1.834   1.838
  1.845   1.853   1.856   1.858   1.860   1.865   1.871   1.876
  1.878   1.879   1.884   1.885   1.888   1.888   1.895   1.896
  1.900   1.906   1.909   1.914   1.918   1.919   1.920   1.926
  1.927   1.930   1.930   1.937   1.939   1.947   1.948   1.951
  1.961   1.965   1.971   1.978   1.981   1.982   1.983   1.993
  2.001   2.001   2.006   2.015   2.021   2.023   2.026   2.028
  2.039   2.040   2.043   2.050   2.056   2.057   2.058   2.059
  2.061   2.063   2.074   2.075   2.085   2.091   2.098   2.102
  2.104   2.105   2.108   2.114   2.115   2.122   2.124   2.130
  2.134   2.138   2.144   2.145   2.145   2.149   2.152   2.160
  2.164   2.170   2.173   2.178   2.182   2.184   2.186   2.195
  2.195   2.201   2.203   2.205   2.210   2.218   2.220   2.221
  2.223   2.225   2.231   2.232   2.240   2.241   2.244   2.247
  2.251   2.251   2.254   2.262   2.266   2.272   2.274   2.281
  2.283   2.285   2.285   2.294   2.295   2.302   2.304   2.307
  2.311   2.316   2.317   2.326   2.330   2.332   2.335   2.337
  2.337   2.340   2.341   2.348   2.349   2.352   2.354   2.363
  2.364   2.367   2.373   2.375   2.378   2.380   2.387   2.393
  2.394   2.402   2.403   2.408   2.409   2.410   2.416   2.418
  2.419   2.425   2.432   2.432   2.433   2.435   2.437   2.443
  2.451   2.452   2.459   2.461   2.467   2.467   2.469   2.469
  2.473   2.475   2.479   2.479   2.486   2.487   2.500   2.505
  2.512   2.515   2.521   2.521   2.523   2.525   2.530   2.533
  2.535   2.540   2.541   2.543   2.550   2.552   2.556   2.559
  2.563   2.565   2.571   2.572   2.584   2.592   2.597   2.603
  2.604   2.610   2.615   2.616   2.620   2.621   2.623   2.628
  2.629   2.640   2.642   2.644   2.648   2.657   2.657   2.659
  2.661   2.667   2.668   2.671   2.686   2.693   2.696   2.700
  2.701   2.705   2.707   2.710   2.716   2.716   2.726   2.730
  2.735   2.738   2.746   2.752   2.766   2.770   2.773   2.775
  2.780   2.784   2.790   2.796   2.797   2.813   2.824   2.824
  2.829   2.832   2.845   2.854   2.855   2.856   2.859   2.864
  2.866   2.878   2.888   2.890   2.894   2.895   2.905   2.915
  2.921   2.923   2.924   2.929   2.935   2.943   2.953   2.959
  2.963   2.972   2.973   2.974   2.996   2.997   2.998   3.018
  3.024   3.037   3.044   3.067   3.074   3.090   3.107   3.113
  3.122   3.167   3.172   3.174   3.181   3.216   3.220   3.225
  3.242   3.257   3.258   3.268   3.271   3.274   3.280   3.284
  3.289   3.292   3.297   3.307   3.312   3.316   3.322   3.334
  3.343   3.349   3.350   3.355   3.384   3.411   3.422   3.435
  3.439   3.443   3.462   3.495   3.496   3.506   3.515   3.517
  3.540   3.546   3.555   3.556   3.564   3.567   3.572   3.578
  3.586   3.637   3.702   3.738   3.842   3.842   3.907   3.926
  3.937   3.939   3.943   3.950   3.955   3.958   3.980   3.981
  4.054   4.059   4.076   4.082   4.086   4.097   4.111   4.112
  4.119   4.130   4.135   4.142   4.149   4.163   4.178   4.180
  4.189   4.202   4.219   4.231   4.255   4.263   4.263   4.272
  4.285   4.291   4.328   4.345   4.351   4.378   4.379   4.406
  4.407   4.428   4.428   4.452   4.458   4.464   4.492   4.493
  4.498   4.512   4.536   4.538   4.596   4.653   4.660   4.661
  4.670   4.690   4.692   4.704   4.748   4.763   4.769   4.788
 --------------------------------------------------------------
 
          Ground-State Mulliken Net Atomic Charges

     Atom                 Charge (a.u.)
  ----------------------------------------
      1 C                     0.288541
      2 C                    -0.134628
      3 N                    -0.480067
      4 C                    -0.046599
      5 C                     0.065274
      6 C                     0.066805
      7 C                     0.014126
      8 C                     0.050498
      9 C                     0.193939
     10 N                    -0.505104
     11 N                    -0.541432
     12 C                     0.218085
     13 C                     0.327384
     14 S                     0.606560
     15 N                    -0.558997
     16 C                    -0.225880
     17 S                     0.369104
     18 C                    -0.127630
     19 C                    -0.236469
     20 S                     0.277989
     21 C                     0.106918
     22 C                     0.076394
     23 C                    -0.300382
     24 C                    -0.073553
     25 N                    -0.431772
     26 S                     0.286185
     27 C                     0.119182
     28 C                    -0.306210
     29 C                    -0.248200
     30 H                     0.090156
     31 H                     0.108827
     32 H                     0.095657
     33 H                     0.108213
     34 H                     0.133092
     35 H                     0.123537
     36 H                     0.102038
     37 H                     0.137540
     38 H                     0.104276
     39 C                    -0.186970
     40 H                     0.120322
     41 H                     0.124496
     42 H                     0.086253
     43 C                    -0.173326
     44 H                     0.094281
     45 C                    -0.170548
     46 H                     0.083146
     47 H                     0.098172
     48 H                     0.089436
     49 C                    -0.170644
     50 H                     0.095263
     51 C                    -0.311920
     52 H                     0.089380
     53 H                     0.095007
     54 H                     0.094654
     55 H                     0.101261
     56 C                     0.236078
     57 C                    -0.105587
     58 N                    -0.477366
     59 C                    -0.076183
     60 C                     0.084887
     61 C                     0.037892
     62 C                    -0.006421
     63 C                     0.069648
     64 C                     0.228468
     65 N                    -0.504008
     66 N                    -0.548781
     67 C                     0.188275
     68 C                     0.288531
     69 S                     0.602075
     70 N                    -0.568764
     71 C                    -0.219099
     72 S                     0.342356
     73 C                    -0.098969
     74 C                    -0.233827
     75 S                     0.262683
     76 C                     0.134435
     77 C                     0.076465
     78 C                    -0.316148
     79 C                    -0.036964
     80 N                    -0.403960
     81 S                     0.254048
     82 C                     0.098769
     83 C                    -0.308318
     84 C                    -0.221285
     85 H                     0.092784
     86 H                     0.102986
     87 H                     0.114666
     88 H                     0.121249
     89 H                     0.123085
     90 H                     0.125651
     91 H                     0.122370
     92 H                     0.154089
     93 H                     0.105898
     94 C                    -0.173354
     95 H                     0.120213
     96 H                     0.092273
     97 H                     0.106272
     98 C                    -0.198858
     99 H                     0.086617
    100 C                    -0.161124
    101 H                     0.085434
    102 H                     0.097016
    103 H                     0.098229
    104 C                    -0.175019
    105 H                     0.092546
    106 C                    -0.322004
    107 H                     0.099090
    108 H                     0.102124
    109 H                     0.103759
    110 H                     0.093418
  ----------------------------------------
  Sum of atomic charges =     0.000000

 -----------------------------------------------------------------
                    Cartesian Multipole Moments
 -----------------------------------------------------------------
    Charge (ESU x 10^10)
                 0.0000
    Dipole Moment (Debye)
         X      -3.0243      Y      -1.0801      Z       2.0238
       Tot       3.7959
    Quadrupole Moments (Debye-Ang)
        XX    -474.1628     XY      34.6199     YY    -395.9826
        XZ       8.2459     YZ     -23.3901     ZZ    -430.0330
    Octopole Moments (Debye-Ang^2)
       XXX    -114.3486    XXY      28.8928    XYY    -141.2816
       YYY    -258.3524    XXZ     156.5297    XYZ     137.8264
       YYZ      74.1675    XZZ    -118.8304    YZZ     -59.7043
       ZZZ      65.5263
    Hexadecapole Moments (Debye-Ang^3)
      XXXX -134995.2086   XXXY    3463.2383   XXYY  -27694.9436
      XYYY     801.5811   YYYY  -42344.1839   XXXZ    1585.8123
      XXYZ    -211.5519   XYYZ    -330.2962   YYYZ   -1372.5830
      XXZZ  -23301.6258   XYZZ     423.1303   YYZZ   -9716.8982
      XZZZ    -454.1310   YZZZ    -597.8288   ZZZZ  -13025.5833
 -----------------------------------------------------------------
Archival summary:
1\1\mn246\SP\ProcedureUnspecified\6-31G**\8105042\afmv_a\SatOct1300:58:252018SatOct1300:58:252018\0\\#,ProcedureUnspecified,6-31G**,\\0,1\S\C,1,1.73454\C,2,1.40402,1,107.43\C,3,1.40596,2,116.778,1,0.370557,0\C,4,1.38723,3,111.303,2,0.580394,0\C,5,1.40821,4,121.984,3,-176.536,0\N,6,1.2936,5,112.957,4,158.712,0\C,7,1.34629,6,102.855,5,-179.174,0\H,8,1.08199,7,121.626,6,-172.186,0\C,8,1.35775,7,121.98,6,0.0667553,0\H,10,1.08177,8,128.55,7,-172.259,0\C,2,1.47896,1,124.848,3,-179.967,0\N,12,1.29767,2,118.602,1,-173.634,0\C,13,1.31369,12,121.836,2,179.804,0\H,14,1.0887,13,114.981,12,-171.058,0\C,14,1.41639,13,126.657,12,7.96119,0\C,16,1.44471,14,111.162,13,-4.25794,0\N,17,1.33714,16,119.526,14,-178.342,0\C,17,1.41481,16,122.913,14,3.47408,0\N,19,1.39847,17,111.347,16,-178.326,0\C,16,1.46126,14,123.527,13,-178.145,0\C,21,1.37208,16,119.908,14,40.9371,0\H,22,1.08811,21,117.136,16,0.871163,0\N,22,1.32474,21,127.901,16,-174.922,0\C,24,1.34138,22,118.025,21,2.3234,0\C,21,1.39586,16,122.943,14,-127.218,0\H,26,1.08609,21,122.594,16,-4.47172,0\C,26,1.39032,21,118.422,16,174.53,0\H,28,1.08577,26,116.188,21,177.749,0\C,4,1.51617,3,112.052,2,168.197,0\H,30,1.08406,4,127.563,3,179.727,0\C,30,1.36918,4,110.273,3,8.86302,0\H,32,1.08151,30,122.765,4,-170.643,0\C,25,1.55105,24,120.344,22,-173.358,0\H,34,1.09674,25,117.35,24,177.111,0\H,34,1.09717,25,107.158,24,58.9061,0\S,18,1.63688,17,104.427,16,174.83,0\C,34,1.65438,25,112.984,24,-54.3997,0\H,38,1.09676,34,105.614,25,46.2513,0\H,38,1.09678,34,114.978,25,165.018,0\C,38,1.51277,34,105.961,25,-78.4318,0\H,41,1.09684,38,107.827,34,-22.7617,0\H,41,1.09708,38,108.318,34,-135.135,0\C,41,1.55214,38,112.072,34,92.1047,0\H,44,1.09726,41,115.314,38,-73.2618,0\H,44,1.09728,41,104.225,38,46.9989,0\C,44,1.51923,41,112.688,38,161.228,0\H,47,1.09666,44,103.777,41,173.571,0\H,47,1.09732,44,110.138,41,-55.6239,0\C,47,1.48342,44,109.788,41,68.3604,0\H,50,1.09678,47,113.669,44,25.3837,0\H,50,1.0969,47,112.164,44,133.646,0\H,50,1.09705,47,107.586,44,-98.8322,0\S,6,1.70186,5,124.566,4,-23.726,0\S,3,1.75471,2,130.559,1,173.876,0\H,7,2.90767,6,124.52,5,-57.3419,0\C,56,1.08189,7,157.848,6,41.2017,0\C,57,1.38612,56,123.695,7,76.2957,0\H,58,1.0815,57,126.654,56,-15.2866,0\N,58,1.37694,57,114.408,56,-179.786,0\C,60,1.24639,58,110.19,57,-2.93537,0\C,61,1.49162,60,120.612,58,-170.964,0\C,62,1.43328,61,125.597,60,-34.4805,0\C,63,1.35823,62,112.259,61,-164.959,0\C,64,1.38962,63,115.265,62,-1.52735,0\C,63,1.39685,62,131.083,61,28.6324,0\H,66,1.08452,63,127.194,62,-9.44822,0\C,66,1.3661,63,111.067,62,171.76,0\H,68,1.08212,66,125.637,63,-179.381,0\C,65,1.44143,64,123.028,63,172.128,0\N,70,1.36904,65,115.138,64,-21.6501,0\C,71,1.32379,70,124.846,65,-172.507,0\H,72,1.08935,71,113.972,70,-175.436,0\C,70,1.43229,65,126.682,64,171.239,0\N,74,1.39135,70,128.335,65,4.45857,0\C,74,1.41363,70,118.455,65,-178.223,0\N,76,1.35849,74,115.8,70,175.408,0\C,76,1.41378,74,121.056,70,-15.5938,0\C,78,1.50221,76,126.713,74,-169.663,0\C,79,1.42374,78,121.801,76,137.865,0\H,80,1.08561,79,119.433,78,7.26853,0\C,80,1.41367,79,117.01,78,-175.3,0\H,82,1.0858,80,122.164,79,-174.937,0\C,82,1.39558,80,120.276,79,5.30536,0\N,84,1.39692,82,125.169,80,-9.53085,0\C,85,1.39195,84,113.441,82,0.743039,0\H,86,1.08899,85,120.557,84,-177.617,0\C,84,1.54619,82,120.116,80,173.013,0\H,88,1.09673,84,111.021,82,-166.736,0\H,88,1.09715,84,98.4594,82,-54.7741,0\C,88,1.54814,84,113.157,82,69.9649,0\H,91,1.09711,88,113.439,84,-77.9564,0\H,91,1.09772,88,112.531,84,41.5876,0\C,91,1.53141,88,114.665,84,173.72,0\H,94,1.09689,91,108.163,88,-63.2961,0\H,94,1.09732,91,108.364,88,179.189,0\C,94,1.53701,91,117.253,88,56.6231,0\H,97,1.09691,94,107.255,91,-61.4343,0\H,97,1.09699,94,103.04,91,176.642,0\C,97,1.51608,94,112.929,91,54.8746,0\H,100,1.09657,97,113.983,94,-62.6038,0\H,100,1.09704,97,106.397,94,55.0446,0\C,100,1.55838,97,104.701,94,170.177,0\H,103,1.0968,100,108.935,97,-50.9026,0\H,103,1.09721,100,116.881,97,-167.765,0\H,103,1.09745,100,114.451,97,64.0516,0\S,77,1.66122,76,105.588,74,4.92893,0\S,62,1.71405,61,123.968,60,154.23,0\S,57,1.7366,56,124.656,7,-104.604,0\S,64,1.76996,63,111.686,62,179.823,0\\\@

 Total job time:  88.62s(wall), 1042.15s(cpu) 
 Sat Oct 13 00:58:25 2018

        *************************************************************
        *                                                           *
        *  Thank you very much for using Q-Chem.  Have a nice day.  *
        *                                                           *
        *************************************************************


