
Running Job 1 of 1 ./6/46.qcin
qchem ./6/46.qcin_36579.0 /tmpu/cab_g/afmv_a/scratch_qchem/qchem36579/ 1
/tmpu/appuserlic/qchem4.4/serial-multicore/exe/qcprog.exe_s ./6/46.qcin_36579.0 /tmpu/cab_g/afmv_a/scratch_qchem/qchem36579/
Check license passed

                  Welcome to Q-Chem
     A Quantum Leap Into The Future Of Chemistry


 Q-Chem 4.4, Q-Chem, Inc., Pleasanton, CA (2016)

 Y. Shao,  Z. Gan,  E. Epifanovsky,  A. T. B. Gilbert,  M. Wormit,  
 J. Kussmann,  A. W. Lange,  A. Behn,  J. Deng,  X. Feng,  D. Ghosh,  
 M. Goldey,  P. R. Horn,  L. D. Jacobson,  I. Kaliman,  F. Rob,  
 R. Z. Khaliullin,  T. Kus,  A. Landau,  J. Liu,  E. I. Proynov,  Y. M. Rhee,  
 R. M. Richard,  M. A. Rohrdanz,  R. P. Steele,  E. J. Sundstrom,  
 H. L. Woodcock III,  P. M. Zimmerman,  D. Zuev,  B. Albrecht,  E. Alguire,  
 B. Austin,  S. A. Baeppler,  G. J. O. Beran,  Y. A. Bernard,  E. Berquist,  
 K. Brandhorst,  K. B. Bravaya,  S. T. Brown,  D. Casanova,  C.-M. Chang,  
 Y. Chen,  S. H. Chien,  K. D. Closser,  M. P. Coons,  D. L. Crittenden,  
 S. Dasgupta,  M. Diedenhofen,  R. A. DiStasio Jr.,  H. Do,  A. D. Dutoi,  
 R. G. Edgar,  P.-T. Fang,  S. Fatehi,  Q. Feng,  L. Fusti-Molnar,  
 A. Ghysels,  A. Golubeva-Zadorozhnaya,  J. Gomes,  A. Gunina,  
 M. W. D. Hanson-Heine,  P. H. P. Harbach,  A. W. Hauser,  J. E. Herr,  
 E. G. Hohenstein,  Z. C. Holden,  K. Hui,  T.-C. Jagau,  H. Ji,  B. Kaduk,  
 K. Khistyaev,  Jaehoon Kim,  Jihan Kim,  R. A. King,  P. Klunzinger,  
 K. Koh,  D. Kosenkov,  T. Kowalczyk,  C. M. Krauter,  A. Kunitsa,  
 K. U. Lao,  A. Laurent,  K. V. Lawler,  J. Lee,  D. Lefrancois,  S. Lehtola,  
 S. V. Levchenko,  C. Y. Lin,  Y.-S. Lin,  F. Liu,  E. Livshits,  
 R. C. Lochan,  A. Luenser,  P. Manohar,  S. F. Manzer,  S.-P. Mao,  Y. Mao,  
 N. Mardirossian,  A. V. Marenich,  L. A. Martinez-Martinez,  S. A. Maurer,  
 N. J. Mayhall,  J.-M. Mewes,  A. F. Morrison,  K. Nanda,  T. S. Nguyen-Beck,  
 C. M. Oana,  R. Olivares-Amaya,  D. P. O'Neill,  J. A. Parkhill,  
 T. M. Perrine,  R. Peverati,  P. A. Pieniazek,  F. Plasser,  A. Prociuk,  
 D. R. Rehn,  E. Rosta,  N. J. Russ,  N. Sergueev,  S. M. Sharada,  
 S. Sharma,  D. W. Small,  A. Sodt,  T. Stauch,  T. Stein,  D. Stuck,  
 Y.-C. Su,  A. J. W. Thom,  T. Tsuchimochi,  L. Vogt,  O. Vydrov,  T. Wang,  
 M. A. Watson,  J. Wenzel,  A. White,  C. F. Williams,  V. Vanovschi,  
 K. Yao,  S. Yeganeh,  S. R. Yost,  Z.-Q. You,  I. Y. Zhang,  X. Zhang,  
 Y. Zhao,  B. R. Brooks,  G. K. L. Chan,  D. M. Chipman,  C. J. Cramer,  
 W. A. Goddard III,  M. S. Gordon,  W. J. Hehre,  A. Klamt,  
 H. F. Schaefer III,  M. W. Schmidt,  C. D. Sherrill,  D. G. Truhlar,  
 A. Warshel,  X. Xu,  A. Aspuru-Guzik,  R. Baer,  A. T. Bell,  N. A. Besley,  
 J.-D. Chai,  A. Dreuw,  B. D. Dunietz,  T. R. Furlani,  S. R. Gwaltney,  
 C.-P. Hsu,  Y. Jung,  J. Kong,  D. S. Lambrecht,  W. Liang,  C. Ochsenfeld,  
 V. A. Rassolov,  L. V. Slipchenko,  J. E. Subotnik,  T. Van Voorhis,  
 J. M. Herbert,  A. I. Krylov,  P. M. W. Gill,  M. Head-Gordon

 Contributors to earlier versions of Q-Chem not listed above: 
 R. D. Adamson,  J. Baker,  E. F. C. Byrd,  A. K. Chakraborty,  C.-L. Cheng,  
 H. Dachsel,  R. J. Doerksen,  G. Hawkins,  A. Heyden,  S. Hirata,  
 G. Kedziora,  F. J. Keil,  C. Kelley,  P. P. Korambath,  W. Kurlancheek,  
 A. M. Lee,  M. S. Lee,  D. Liotard,  I. Lotan,  P. E. Maslen,  N. Nair,  
 D. Neuhauser,  R. Olson,  B. Peters,  J. Ritchie,  N. E. Schultz,  
 N. Shenvi,  A. C. Simmonett,  K. S. Thanthiriwatte,  Q. Wu,  W. Zhang

 Please cite Q-Chem as follows:
 Y. Shao et al., Mol. Phys. 113, 184-215 (2015)
 DOI: 10.1080/00268976.2014.952696

 Q-Chem 4.4.2 for Intel X86 Linux

 Parts of Q-Chem use Armadillo 5.200.1 (Boston Tea Smuggler).
 http://arma.sourceforge.net/

 Q-Chem begins on Sat Oct 13 01:00:10 2018  

Host: 
0

     Scratch files written to /tmpu/cab_g/afmv_a/scratch_qchem/qchem36579//
 Dec716 11556_ 22328  22283 4050   
Processing $rem in /tmpu/appuserlic/qchem4.4/serial-multicore/config/preferences.
 MEM_TOTAL  2000 
FILE_GEOM_ORG=        593

Checking the input file for inconsistencies... 	...done.

--------------------------------------------------------------
User input:
--------------------------------------------------------------
$comment
SP
$end

$rem
MEM_STATIC 5000
MEM_TOTAL 20000
JOBTYPE SP
EXCHANGE B3LYP
BASIS 6-31g(d,p)
$end

$molecule
0 1
C         -22.173000    -13.708000     -3.465000
C         -21.912000    -12.358000     -3.245000
N         -23.248000    -14.249000     -2.842000
C         -22.760000    -11.559000     -2.413000
C         -24.071000    -13.545000     -2.030000
C         -23.884000    -12.167000     -1.746000
C         -24.892000    -11.407000     -0.964000
C         -26.234000    -11.805000     -0.889000
C         -24.548000    -10.364000     -0.054000
N         -27.251000    -11.260000     -0.127000
N         -23.326000     -9.748000      0.107000
C         -25.555000     -9.708000      0.633000
C         -26.923000    -10.198000      0.617000
S         -23.590000     -8.622000      1.215000
N         -25.193000     -8.657000      1.413000
C         -27.999000     -9.427000      1.258000
S         -28.002000     -7.758000      1.709000
C         -29.104000    -10.018000      1.880000
C         -29.308000     -7.996000      2.830000
S         -29.484000    -11.723000      1.868000
C         -29.790000     -9.230000      2.694000
C         -29.731000     -6.973000      3.685000
C         -30.750000    -11.349000      3.057000
C         -30.718000     -9.991000      3.425000
N         -30.413000     -7.278000      4.755000
S         -29.349000     -5.280000      3.367000
C         -30.830000     -6.121000      5.370000
C         -30.260000     -4.967000      4.892000
C         -21.438000    -14.582000     -4.530000
H         -21.068000    -11.807000     -3.650000
H         -22.445000    -10.537000     -2.226000
H         -24.918000    -14.087000     -1.612000
H         -26.591000    -12.655000     -1.467000
H         -31.299000    -12.160000      3.517000
H         -31.271000     -9.634000      4.286000
H         -31.378000     -6.164000      6.302000
H         -30.481000     -3.947000      5.177000
H         -20.360000    -14.671000     -4.350000
C         -21.687000    -14.114000     -5.984000
H         -21.777000    -15.624000     -4.476000
H         -21.456000    -13.042000     -6.000000
H         -22.756000    -14.144000     -6.226000
C         -20.864000    -14.847000     -7.119000
H         -19.782000    -14.732000     -6.981000
C         -21.328000    -14.398000     -8.577000
H         -21.087000    -15.921000     -7.139000
H         -21.043000    -13.359000     -8.782000
H         -22.425000    -14.395000     -8.561000
C         -20.843000    -15.290000     -9.706000
H         -19.750000    -15.277000     -9.617000
C         -21.185000    -14.707000    -11.094000
H         -21.105000    -16.354000     -9.644000
H         -22.257000    -14.607000    -11.302000
H         -20.569000    -15.133000    -11.895000
H         -20.922000    -13.643000    -11.137000
C         -31.592000     -5.122000      0.279000
C         -30.819000     -6.008000     -0.481000
N         -31.054000     -3.973000      0.735000
C         -29.533000     -5.706000     -0.855000
C         -29.733000     -3.695000      0.489000
C         -28.908000     -4.540000     -0.305000
C         -27.516000     -4.211000     -0.707000
C         -26.576000     -5.198000     -0.974000
C         -27.090000     -2.915000     -0.898000
N         -25.302000     -5.005000     -1.378000
N         -27.832000     -1.788000     -0.691000
C         -25.790000     -2.603000     -1.323000
C         -24.874000     -3.736000     -1.537000
S         -26.862000     -0.555000     -1.068000
N         -25.449000     -1.323000     -1.328000
C         -23.393000     -3.571000     -1.802000
S         -22.470000     -2.117000     -2.103000
C         -22.464000     -4.617000     -1.654000
C         -20.971000     -2.967000     -2.354000
S         -22.640000     -6.290000     -1.103000
C         -21.161000     -4.222000     -1.911000
C         -19.785000     -2.331000     -2.736000
C         -20.925000     -6.497000     -1.442000
C         -20.214000     -5.313000     -1.782000
N         -19.854000     -1.034000     -2.685000
S         -18.236000     -3.033000     -3.195000
C         -18.588000     -0.522000     -2.849000
C         -17.634000     -1.407000     -3.103000
C         -33.027000     -5.307000      0.345000
H         -31.300000     -6.880000     -0.915000
H         -28.897000     -6.271000     -1.530000
H         -29.338000     -2.805000      0.977000
H         -26.835000     -6.199000     -0.633000
H         -20.546000     -7.510000     -1.427000
H         -19.167000     -5.195000     -2.036000
H         -18.495000      0.552000     -2.763000
H         -16.555000     -1.332000     -3.131000
H         -33.608000     -4.376000      0.333000
C         -33.590000     -6.268000      1.390000
H         -33.274000     -5.828000     -0.589000
H         -34.678000     -6.224000      1.261000
H         -33.287000     -5.835000      2.352000
C         -33.163000     -7.725000      1.216000
H         -33.210000     -7.901000      0.134000
C         -33.895000     -8.824000      2.022000
H         -32.115000     -7.877000      1.503000
H         -33.237000     -9.699000      1.943000
H         -34.797000     -9.057000      1.443000
C         -34.282000     -8.431000      3.448000
H         -33.412000     -7.953000      3.915000
C         -34.617000     -9.677000      4.222000
H         -35.049000     -7.649000      3.513000
H         -35.082000     -9.349000      5.160000
H         -33.783000    -10.345000      4.471000
H         -35.384000    -10.265000      3.703000
$end

--------------------------------------------------------------
 ----------------------------------------------------------------
             Standard Nuclear Orientation (Angstroms)
    I     Atom           X                Y                Z
 ----------------------------------------------------------------
    1      C       5.7840510478    -5.2551112164     0.8338321211
    2      C       5.6215742709    -3.8736485828     0.8985104726
    3      N       4.6676437950    -6.0214526226     0.8866591507
    4      C       4.3231452109    -3.2775973546     0.9908896339
    5      C       3.4182761391    -5.5116096168     0.9935683162
    6      C       3.1550502580    -4.1188353376     1.0670594233
    7      C       1.7621619310    -3.6046581547     1.0411377494
    8      C       0.7079368896    -4.3325429665     0.4721155506
    9      C       1.3400270493    -2.4597196404     1.7795163381
   10      N      -0.6410759147    -4.0290982371     0.4655011685
   11      N       2.1251536768    -1.5398111040     2.4398234361
   12      C       0.0201851844    -2.0507801935     1.6950179342
   13      C      -0.9873152470    -2.8791196125     1.0542553512
   14      S       1.0850825092    -0.4617442803     3.0066213629
   15      N      -0.3165129271    -0.9006046615     2.3335910524
   16      C      -2.3588356191    -2.3797358817     0.8735739788
   17      S      -2.9230272288    -0.7465129522     0.9305098216
   18      C      -3.4896670081    -3.2021263351     0.9192282405
   19      C      -4.5600509321    -1.2532767711     1.2173282774
   20      S      -3.4732067421    -4.9453163479     1.0314184325
   21      C      -4.6448620685    -2.5756294368     1.0840372473
   22      C      -5.5688747289    -0.3296928276     1.5101597071
   23      C      -5.2296392572    -4.8478869819     1.2800252277
   24      C      -5.6613920083    -3.5100023496     1.3453419380
   25      N      -6.6597999187    -0.7419236627     2.0958191380
   26      S      -5.3978182828     1.3843021898     1.1277230814
   27      C      -7.5551424141     0.2992209486     2.1675318583
   28      C      -7.0424595690     1.5335182546     1.8532605413
   29      C       7.1346281798    -5.9656112107     0.5029890034
   30      H       6.4277549803    -3.1456271435     0.9029204234
   31      H       4.2838287323    -2.2001841134     1.1186116843
   32      H       2.6007554455    -6.2310172791     0.9966555384
   33      H       0.8988345218    -5.2765158606    -0.0343489290
   34      H      -5.7791651354    -5.7470128267     1.5256184370
   35      H      -6.6548086566    -3.2619645366     1.7005596266
   36      H      -8.5095487778     0.1667908270     2.6598201435
   37      H      -7.5699336067     2.4752919311     1.7804630018
   38      H       7.9238527827    -5.7617699842     1.2364590305
   39      C       7.6551103370    -5.6589405225    -0.9218592036
   40      H       7.0241065693    -7.0552856648     0.5661994273
   41      H       7.6514518145    -4.5662790706    -1.0160853504
   42      H       6.9298362168    -5.9785915745    -1.6795040119
   43      C       9.0896447499    -6.2145036209    -1.2910524617
   44      H       9.8674999523    -5.8152422759    -0.6288405149
   45      C       9.4418099536    -5.9821676232    -2.8287977766
   46      H       9.1201890532    -7.3089966477    -1.2220810200
   47      H       9.5932072668    -4.9177016661    -3.0450431919
   48      H       8.5441293631    -6.2630820861    -3.3935372050
   49      C      10.6289384767    -6.7784200190    -3.3408895574
   50      H      11.4619630238    -6.4773437694    -2.6942349388
   51      C      11.0159757248    -6.3813754337    -4.7817069524
   52      H      10.5804059109    -7.8688838599    -3.2263592038
   53      H      10.2451445974    -6.5745931604    -5.5373088866
   54      H      12.0398561585    -6.6762929122    -5.0409858338
   55      H      11.0547434304    -5.2896074275    -4.8799601239
   56      C      -5.5247045322     0.7847686104    -2.6427167294
   57      C      -4.3108744759     0.0893294718    -2.6984482190
   58      N      -5.5568224789     2.0572934766    -2.1986109959
   59      C      -3.1177070329     0.6936813842    -2.3886317914
   60      C      -4.4020866540     2.6546258737    -1.7597258379
   61      C      -3.1348643863     2.0103431718    -1.8240183286
   62      C      -1.8453147250     2.6666967366    -1.4867192489
   63      C      -0.7518443214     1.9443208939    -1.0267696666
   64      C      -1.6353961796     4.0163163511    -1.6656999751
   65      N       0.4685986784     2.4388143331    -0.7275437937
   66      N      -2.5612240387     4.9217612563    -2.0976192953
   67      C      -0.4043708842     4.6311391229    -1.3926822445
   68      C       0.6673540473     3.7646797173    -0.8738424142
   69      S      -1.7955911405     6.3415869152    -2.1325386822
   70      N      -0.3638150730     5.9534998809    -1.4591897783
   71      C       1.9832527746     4.2935381288    -0.3451361439
   72      S       2.6273839432     5.9184274768    -0.3835502607
   73      C       2.8478319311     3.5342388145     0.4642021249
   74      C       4.1390511969     5.4740912818     0.3580220284
   75      S       2.7101681234     1.9057978356     1.1444481497
   76      C       3.9723310447     4.2391034056     0.8623863180
   77      C       5.1935147200     6.3740857397     0.5454590954
   78      C       4.3259804908     2.1326414868     1.8052713873
   79      C       4.8704376432     3.4400429039     1.6739513816
   80      N       4.8677700677     7.6095157349     0.3063479320
   81      S       6.8338726683     6.0739866568     1.1129556521
   82      C       5.8887668971     8.4226998494     0.7400449119
   83      C       6.9673458822     7.8030176085     1.1988676373
   84      C      -6.6888798152     0.2376230259    -3.3083995515
   85      H      -4.2964245783    -0.9001175866    -3.1466521002
   86      H      -2.1218780669     0.2768618239    -2.5066662123
   87      H      -4.5195743175     3.6420788650    -1.3154261204
   88      H      -0.9649567724     0.9307183764    -0.6912759713
   89      H       4.8131139562     1.2551147062     2.2086108675
   90      H       5.8375649503     3.8115609735     1.9922092893
   91      H       5.7162318025     9.4870848657     0.6573576809
   92      H       7.8426078502     8.1538065366     1.7294462038
   93      H      -7.3259701277     0.9838307684    -3.8000863816
   94      C      -7.5473966877    -0.7775976936    -2.5568739895
   95      H      -6.2720416650    -0.3801638971    -4.1142477222
   96      H      -8.3647236683    -1.0246177791    -3.2448265200
   97      H      -7.9180913814    -0.2285857332    -1.6817092557
   98      C      -6.8335400582    -2.0811521566    -2.2010531437
   99      H      -6.2366327993    -2.3225339096    -3.0895043656
  100      C      -7.6701813470    -3.2864272067    -1.7105387122
  101      H      -6.1164269833    -1.9399562075    -1.3827686322
  102      H      -6.9305261469    -3.9636620257    -1.2643401186
  103      H      -8.0348830486    -3.7769953849    -2.6212908911
  104      C      -8.8503477278    -2.9295352307    -0.8063653709
  105      H      -8.4948389413    -2.2172070552    -0.0515971461
  106      C      -9.3203665695    -4.1752761287    -0.1056308253
  107      H      -9.6531501353    -2.3710252534    -1.3039725450
  108      H     -10.2799866303    -3.9281285268     0.3652198958
  109      H      -8.6592998990    -4.5892187154     0.6660060012
  110      H      -9.5430563947    -4.9697924547    -0.8285049841
 ----------------------------------------------------------------
 Molecular Point Group                 C1    NOp =  1
 Largest Abelian Subgroup              C1    NOp =  1
 Nuclear Repulsion Energy = 11991.9006289646 hartrees
 There are      270 alpha and      270 beta electrons
 Requested basis set is 6-31G(d,p)
 There are 406 shells and 1262 basis functions

 Total QAlloc Memory Limit  20000 MB
 Mega-Array Size      4888 MB
 MEM_STATIC part      5000 MB
 A cutoff of  1.0D-08 yielded  14832 shell pairs
 There are    153797 function pairs
 
 -------------------------------------------------------
 OpenMP Integral Computing Module                       
 Release: version 1.0, May 2013, Q-Chem Inc. Pittsburgh 
 -------------------------------------------------------
 Integral Job Info:
 Integral job number is                      11
 Integral operator is                         1
 short-range coefficients                     0
 long-range coefficients              100000000
 Omega coefficients                           0
 if combine SR and LR in K                    0
 Integral screening is                        0
 Integral computing path is                   2
 max size of driver memory is            800000
 size of driver memory is                593474
 size of scratch memory is             15166112
 max col of scratch BK array               1296
 max len of scratch array in speh3          155
 max len of scratch index in speh4           18
 max int batch size is                      520
 min int batch size is                       52
 fixed nKL is                                52
 max L of basis functions is                  2
 order of int derivative is                   0
 number of shells is                        406
 number of basis is                        1262
 number of cartesian basis is              1262
 number of contracted shell pairs         14832
 number of primitive shell pairs          46331
 maxK2 (contraction) of shell pair           36
 max number of K2 of shell pair               1
 max number of CS2 of shell pair           1531
 max number of PS2 of shell pair           8682
 mem total for path MDJ                  324680
 -------------------------------------------------------
 Smallest overlap matrix eigenvalue = 4.07E-04

 Scale SEOQF with 1.000000e-02/1.000000e-02/1.000000e-02

 Standard Electronic Orientation quadrupole field applied
 Nucleus-field energy     =     0.0000001022 hartrees
 Guess from superposition of atomic densities
 Warning:  Energy on first SCF cycle will be non-variational
 A restricted hybrid HF-DFT SCF calculation will be
 performed using Pulay DIIS extrapolation
 Exchange:     0.2000 Hartree-Fock + 0.0800 Slater + 0.7200 B88
 Correlation:  0.1900 VWN1RPA + 0.8100 LYP
 Using SG-1 standard quadrature grid
 SCF converges when DIIS error is below 1.0E-05
 using 16 threads for integral computing 
 -------------------------------------------------------
 OpenMP BLAS3 based DFT computing Module                
 Release: version 1.0, May 2013, Q-Chem Inc. Pittsburgh 
 -------------------------------------------------------
 ---------------------------------------
  Cycle       Energy         DIIS Error
 ---------------------------------------
    1   -5680.5786295942      2.17E-02
    2   -5662.5005548299      2.15E-03
    3   -5660.7840401902      3.45E-03
    4   -5663.2349132411      1.07E-03
    5   -5663.4710621012      3.83E-04
    6   -5663.4905114962      2.45E-04
    7   -5663.5021224151      8.97E-05
    8   -5663.5036077486      3.19E-05
    9   -5663.5037879634      1.46E-05
   10   -5663.5038292948      4.51E-06 Convergence criterion met
 ---------------------------------------
 SCF time:  CPU 1202.20 s  wall 97.33 s
 SCF   energy in the final basis set = -5663.5038292948
 Total energy in the final basis set = -5663.5038292948
 
 --------------------------------------------------------------
 
                    Orbital Energies (a.u.)
 --------------------------------------------------------------
 
 Alpha MOs
 -- Occupied --
-88.990 -88.988 -88.931 -88.924 -88.920 -88.919 -88.916 -88.906
-14.390 -14.388 -14.386 -14.382 -14.356 -14.354 -14.342 -14.339
-14.329 -14.326 -10.273 -10.267 -10.266 -10.262 -10.260 -10.258
-10.256 -10.254 -10.244 -10.242 -10.238 -10.237 -10.237 -10.233
-10.231 -10.231 -10.230 -10.230 -10.230 -10.228 -10.228 -10.227
-10.226 -10.226 -10.225 -10.225 -10.223 -10.222 -10.220 -10.216
-10.215 -10.211 -10.210 -10.205 -10.203 -10.196 -10.195 -10.195
-10.191 -10.187 -10.187 -10.181 -10.180 -10.178 -10.178 -10.173
-10.172 -10.170 -10.169 -10.166  -8.045  -8.044  -7.992  -7.985
 -7.980  -7.978  -7.975  -7.966  -6.010  -6.009  -6.005  -6.003
 -6.003  -6.002  -5.956  -5.953  -5.949  -5.949  -5.945  -5.944
 -5.943  -5.942  -5.941  -5.940  -5.939  -5.937  -5.936  -5.935
 -5.932  -5.930  -5.927  -5.922  -1.047  -1.047  -0.985  -0.971
 -0.959  -0.957  -0.932  -0.931  -0.929  -0.918  -0.911  -0.909
 -0.851  -0.846  -0.839  -0.836  -0.816  -0.811  -0.807  -0.806
 -0.800  -0.799  -0.795  -0.793  -0.786  -0.783  -0.771  -0.768
 -0.752  -0.752  -0.743  -0.742  -0.725  -0.721  -0.711  -0.708
 -0.699  -0.694  -0.677  -0.672  -0.655  -0.652  -0.648  -0.648
 -0.637  -0.634  -0.625  -0.623  -0.613  -0.613  -0.606  -0.597
 -0.595  -0.591  -0.587  -0.587  -0.582  -0.579  -0.577  -0.558
 -0.553  -0.549  -0.542  -0.536  -0.532  -0.526  -0.525  -0.508
 -0.506  -0.505  -0.500  -0.498  -0.489  -0.487  -0.482  -0.478
 -0.476  -0.473  -0.472  -0.469  -0.466  -0.464  -0.450  -0.447
 -0.444  -0.442  -0.440  -0.439  -0.437  -0.436  -0.433  -0.431
 -0.430  -0.428  -0.425  -0.423  -0.418  -0.416  -0.415  -0.413
 -0.412  -0.409  -0.405  -0.401  -0.399  -0.399  -0.398  -0.396
 -0.395  -0.394  -0.391  -0.390  -0.389  -0.389  -0.387  -0.384
 -0.383  -0.376  -0.374  -0.371  -0.368  -0.363  -0.362  -0.358
 -0.356  -0.356  -0.353  -0.349  -0.347  -0.347  -0.345  -0.343
 -0.340  -0.338  -0.336  -0.334  -0.331  -0.330  -0.323  -0.320
 -0.317  -0.315  -0.315  -0.309  -0.307  -0.303  -0.302  -0.300
 -0.297  -0.296  -0.294  -0.289  -0.289  -0.287  -0.283  -0.281
 -0.278  -0.275  -0.269  -0.266  -0.259  -0.255  -0.250  -0.245
 -0.244  -0.242  -0.234  -0.231  -0.197  -0.194
 -- Virtual --
 -0.113  -0.109  -0.075  -0.073  -0.043  -0.039  -0.027  -0.026
 -0.023  -0.020  -0.017  -0.012  -0.006  -0.003  -0.002  -0.002
  0.005   0.009   0.025   0.028   0.032   0.033   0.039   0.042
  0.049   0.051   0.061   0.064   0.074   0.076   0.084   0.091
  0.093   0.096   0.100   0.103   0.105   0.107   0.108   0.111
  0.115   0.116   0.118   0.120   0.121   0.124   0.126   0.128
  0.129   0.130   0.131   0.134   0.138   0.139   0.145   0.148
  0.151   0.154   0.155   0.159   0.160   0.161   0.164   0.165
  0.167   0.168   0.169   0.175   0.175   0.177   0.180   0.182
  0.186   0.188   0.189   0.191   0.194   0.197   0.199   0.200
  0.203   0.205   0.206   0.207   0.212   0.214   0.218   0.221
  0.226   0.227   0.229   0.231   0.233   0.234   0.236   0.240
  0.241   0.242   0.245   0.246   0.248   0.252   0.256   0.258
  0.263   0.264   0.268   0.270   0.274   0.276   0.278   0.279
  0.284   0.285   0.288   0.293   0.298   0.301   0.303   0.304
  0.306   0.310   0.314   0.316   0.319   0.323   0.324   0.332
  0.333   0.336   0.339   0.341   0.345   0.347   0.350   0.352
  0.358   0.360   0.362   0.364   0.366   0.367   0.368   0.375
  0.377   0.383   0.387   0.389   0.396   0.401   0.403   0.406
  0.412   0.417   0.420   0.421   0.424   0.439   0.441   0.446
  0.451   0.453   0.457   0.460   0.466   0.470   0.474   0.478
  0.481   0.482   0.487   0.489   0.492   0.494   0.497   0.500
  0.501   0.503   0.507   0.508   0.511   0.515   0.519   0.522
  0.522   0.524   0.526   0.529   0.532   0.533   0.534   0.536
  0.539   0.540   0.543   0.543   0.547   0.548   0.549   0.552
  0.554   0.555   0.558   0.559   0.562   0.563   0.565   0.566
  0.568   0.569   0.571   0.573   0.576   0.578   0.583   0.583
  0.585   0.589   0.592   0.595   0.597   0.597   0.600   0.603
  0.606   0.608   0.609   0.609   0.611   0.616   0.618   0.618
  0.620   0.622   0.623   0.626   0.630   0.631   0.635   0.636
  0.637   0.638   0.640   0.641   0.645   0.647   0.652   0.654
  0.657   0.657   0.662   0.664   0.670   0.670   0.675   0.677
  0.680   0.682   0.686   0.688   0.691   0.694   0.701   0.702
  0.704   0.710   0.715   0.716   0.719   0.721   0.722   0.726
  0.730   0.732   0.738   0.742   0.745   0.749   0.753   0.754
  0.759   0.759   0.760   0.762   0.763   0.766   0.768   0.773
  0.775   0.778   0.782   0.784   0.788   0.791   0.794   0.795
  0.797   0.798   0.802   0.804   0.807   0.809   0.809   0.814
  0.815   0.819   0.820   0.823   0.825   0.826   0.827   0.829
  0.830   0.832   0.832   0.833   0.837   0.839   0.841   0.843
  0.845   0.847   0.848   0.849   0.852   0.855   0.857   0.859
  0.862   0.864   0.866   0.869   0.871   0.874   0.877   0.879
  0.884   0.887   0.889   0.892   0.895   0.897   0.899   0.901
  0.903   0.905   0.908   0.909   0.910   0.912   0.913   0.918
  0.919   0.921   0.926   0.927   0.928   0.930   0.933   0.934
  0.935   0.937   0.939   0.942   0.944   0.946   0.947   0.950
  0.951   0.956   0.960   0.960   0.962   0.964   0.966   0.968
  0.971   0.972   0.974   0.977   0.981   0.985   0.986   0.992
  0.995   0.999   1.006   1.006   1.008   1.011   1.013   1.014
  1.016   1.020   1.020   1.022   1.025   1.027   1.029   1.032
  1.035   1.038   1.047   1.050   1.053   1.054   1.058   1.059
  1.065   1.068   1.070   1.074   1.075   1.081   1.085   1.088
  1.094   1.100   1.106   1.108   1.109   1.117   1.119   1.127
  1.128   1.129   1.138   1.140   1.143   1.147   1.150   1.156
  1.159   1.162   1.165   1.167   1.173   1.179   1.182   1.184
  1.186   1.202   1.205   1.210   1.217   1.218   1.221   1.237
  1.240   1.242   1.244   1.247   1.259   1.261   1.264   1.269
  1.271   1.281   1.283   1.290   1.294   1.299   1.302   1.305
  1.308   1.310   1.315   1.319   1.323   1.324   1.329   1.332
  1.336   1.338   1.347   1.349   1.353   1.363   1.366   1.370
  1.373   1.378   1.383   1.391   1.393   1.399   1.402   1.404
  1.413   1.417   1.419   1.421   1.426   1.429   1.431   1.439
  1.441   1.443   1.447   1.453   1.460   1.466   1.470   1.470
  1.481   1.484   1.489   1.490   1.500   1.506   1.509   1.513
  1.517   1.521   1.524   1.532   1.539   1.545   1.559   1.562
  1.569   1.572   1.576   1.581   1.585   1.593   1.610   1.613
  1.619   1.624   1.626   1.637   1.640   1.640   1.646   1.649
  1.653   1.655   1.661   1.664   1.667   1.667   1.672   1.676
  1.686   1.694   1.696   1.702   1.703   1.708   1.711   1.712
  1.716   1.724   1.729   1.729   1.731   1.732   1.738   1.739
  1.749   1.755   1.756   1.760   1.764   1.770   1.779   1.785
  1.789   1.792   1.793   1.799   1.800   1.803   1.807   1.816
  1.823   1.824   1.826   1.838   1.840   1.843   1.846   1.848
  1.851   1.858   1.861   1.869   1.873   1.877   1.879   1.881
  1.887   1.888   1.890   1.893   1.900   1.901   1.904   1.906
  1.909   1.911   1.918   1.920   1.921   1.924   1.924   1.930
  1.933   1.935   1.939   1.944   1.944   1.947   1.955   1.955
  1.956   1.959   1.964   1.971   1.978   1.981   1.985   1.989
  2.000   2.010   2.014   2.018   2.020   2.024   2.029   2.032
  2.035   2.039   2.042   2.050   2.055   2.056   2.061   2.066
  2.071   2.078   2.088   2.089   2.091   2.096   2.098   2.100
  2.106   2.110   2.116   2.118   2.126   2.132   2.138   2.144
  2.148   2.149   2.154   2.155   2.158   2.162   2.163   2.167
  2.170   2.173   2.176   2.177   2.179   2.186   2.189   2.192
  2.193   2.197   2.200   2.203   2.213   2.215   2.218   2.219
  2.224   2.229   2.233   2.233   2.245   2.246   2.248   2.251
  2.253   2.256   2.267   2.269   2.273   2.276   2.276   2.280
  2.285   2.289   2.292   2.296   2.297   2.301   2.304   2.305
  2.308   2.310   2.322   2.322   2.323   2.331   2.332   2.335
  2.336   2.341   2.344   2.347   2.348   2.352   2.352   2.359
  2.363   2.364   2.369   2.384   2.386   2.392   2.393   2.397
  2.400   2.404   2.408   2.414   2.418   2.420   2.425   2.425
  2.426   2.427   2.434   2.440   2.443   2.448   2.450   2.453
  2.456   2.458   2.461   2.463   2.467   2.468   2.471   2.475
  2.477   2.481   2.488   2.490   2.492   2.495   2.496   2.509
  2.513   2.514   2.515   2.524   2.527   2.533   2.537   2.540
  2.549   2.550   2.552   2.553   2.561   2.562   2.566   2.568
  2.571   2.575   2.580   2.590   2.593   2.597   2.602   2.606
  2.611   2.612   2.620   2.624   2.628   2.636   2.645   2.649
  2.652   2.655   2.656   2.660   2.664   2.666   2.674   2.675
  2.681   2.683   2.689   2.692   2.696   2.698   2.704   2.711
  2.713   2.716   2.718   2.724   2.736   2.737   2.742   2.752
  2.755   2.758   2.765   2.772   2.780   2.785   2.791   2.793
  2.797   2.799   2.805   2.816   2.823   2.827   2.832   2.832
  2.840   2.844   2.849   2.851   2.854   2.861   2.863   2.864
  2.870   2.883   2.890   2.895   2.897   2.899   2.901   2.906
  2.907   2.910   2.927   2.934   2.936   2.941   2.945   2.948
  2.950   2.956   2.958   2.966   2.985   2.987   3.001   3.014
  3.044   3.049   3.072   3.079   3.079   3.088   3.132   3.146
  3.160   3.181   3.192   3.195   3.205   3.207   3.231   3.240
  3.241   3.248   3.248   3.258   3.261   3.269   3.270   3.281
  3.289   3.302   3.304   3.312   3.326   3.337   3.341   3.342
  3.350   3.354   3.372   3.383   3.387   3.409   3.410   3.417
  3.433   3.440   3.466   3.475   3.478   3.522   3.525   3.548
  3.553   3.559   3.576   3.578   3.588   3.589   3.593   3.609
  3.644   3.647   3.705   3.751   3.851   3.858   3.909   3.926
  3.928   3.939   3.953   3.954   3.971   3.978   3.983   3.999
  4.020   4.072   4.075   4.083   4.088   4.105   4.120   4.124
  4.126   4.137   4.144   4.155   4.167   4.175   4.197   4.200
  4.216   4.228   4.231   4.240   4.260   4.266   4.267   4.282
  4.287   4.297   4.317   4.358   4.361   4.376   4.381   4.387
  4.411   4.435   4.446   4.463   4.465   4.474   4.478   4.495
  4.504   4.529   4.534   4.546   4.563   4.603   4.643   4.667
  4.675   4.700   4.708   4.741   4.754   4.777   4.799   4.811
 --------------------------------------------------------------
 
          Ground-State Mulliken Net Atomic Charges

     Atom                 Charge (a.u.)
  ----------------------------------------
      1 C                     0.271904
      2 C                    -0.117692
      3 N                    -0.486423
      4 C                    -0.082393
      5 C                     0.072699
      6 C                     0.038191
      7 C                     0.043255
      8 C                     0.030233
      9 C                     0.222931
     10 N                    -0.497686
     11 N                    -0.545321
     12 C                     0.157849
     13 C                     0.279087
     14 S                     0.634167
     15 N                    -0.531463
     16 C                    -0.204729
     17 S                     0.336088
     18 C                    -0.151897
     19 C                    -0.250206
     20 S                     0.274264
     21 C                     0.219924
     22 C                     0.070739
     23 C                    -0.308189
     24 C                    -0.078407
     25 N                    -0.439219
     26 S                     0.263388
     27 C                     0.119032
     28 C                    -0.298265
     29 C                    -0.225186
     30 H                     0.088415
     31 H                     0.119511
     32 H                     0.106708
     33 H                     0.113529
     34 H                     0.130581
     35 H                     0.131646
     36 H                     0.112445
     37 H                     0.131254
     38 H                     0.103072
     39 C                    -0.181003
     40 H                     0.120119
     41 H                     0.093692
     42 H                     0.105459
     43 C                    -0.187630
     44 H                     0.092688
     45 C                    -0.173861
     46 H                     0.098142
     47 H                     0.092223
     48 H                     0.092191
     49 C                    -0.174049
     50 H                     0.093513
     51 C                    -0.324693
     52 H                     0.095865
     53 H                     0.104985
     54 H                     0.102062
     55 H                     0.098671
     56 C                     0.321611
     57 C                    -0.115971
     58 N                    -0.500014
     59 C                    -0.068627
     60 C                     0.077232
     61 C                     0.027788
     62 C                     0.064176
     63 C                     0.034495
     64 C                     0.223258
     65 N                    -0.527647
     66 N                    -0.546470
     67 C                     0.204242
     68 C                     0.296978
     69 S                     0.603800
     70 N                    -0.548115
     71 C                    -0.236462
     72 S                     0.353162
     73 C                    -0.116920
     74 C                    -0.228330
     75 S                     0.303959
     76 C                     0.127116
     77 C                     0.081362
     78 C                    -0.327544
     79 C                    -0.068634
     80 N                    -0.434039
     81 S                     0.262232
     82 C                     0.133162
     83 C                    -0.307543
     84 C                    -0.255656
     85 H                     0.093118
     86 H                     0.103905
     87 H                     0.117270
     88 H                     0.115286
     89 H                     0.131911
     90 H                     0.107790
     91 H                     0.114647
     92 H                     0.137539
     93 H                     0.116550
     94 C                    -0.167730
     95 H                     0.099867
     96 H                     0.092654
     97 H                     0.109053
     98 C                    -0.196798
     99 H                     0.077068
    100 C                    -0.178191
    101 H                     0.102790
    102 H                     0.103189
    103 H                     0.084043
    104 C                    -0.175977
    105 H                     0.103090
    106 C                    -0.317561
    107 H                     0.096704
    108 H                     0.091039
    109 H                     0.104098
    110 H                     0.099835
  ----------------------------------------
  Sum of atomic charges =     0.000000

 -----------------------------------------------------------------
                    Cartesian Multipole Moments
 -----------------------------------------------------------------
    Charge (ESU x 10^10)
                 0.0000
    Dipole Moment (Debye)
         X       2.4333      Y       2.1697      Z       0.9054
       Tot       3.3836
    Quadrupole Moments (Debye-Ang)
        XX    -399.3140     XY      16.8384     YY    -444.3053
        XZ       6.6671     YZ      12.0926     ZZ    -445.5507
    Octopole Moments (Debye-Ang^2)
       XXX     235.4311    XXY     152.4970    XYY      65.6445
       YYY     275.8661    XXZ     119.1149    XYZ      59.9644
       YYZ      48.6293    XZZ      -5.4248    YZZ      22.6316
       ZZZ     -15.1796
    Hexadecapole Moments (Debye-Ang^3)
      XXXX  -67837.7025   XXXY     966.6531   XXYY  -18153.5245
      XYYY    1924.3175   YYYY  -45692.9633   XXXZ     135.6107
      XXYZ     807.0499   XYYZ     281.3194   YYYZ     349.8900
      XXZZ  -13412.6337   XYZZ     164.4287   YYZZ   -9298.4655
      XZZZ     159.7552   YZZZ     -28.6923   ZZZZ   -8508.0303
 -----------------------------------------------------------------
Archival summary:
1\1\mn246\SP\ProcedureUnspecified\6-31G**\8105042\afmv_a\SatOct1301:01:502018SatOct1301:01:502018\0\\#,ProcedureUnspecified,6-31G**,\\0,1\S\C,1,1.72886\C,2,1.399,1,106.886\C,3,1.32444,2,115.532,1,4.48789,0\C,4,1.33176,3,115.252,2,1.65818,0\C,5,1.39874,4,129.098,3,174.295,0\N,6,1.30501,5,119.229,4,-21.5484,0\C,7,1.37505,6,109.181,5,174.236,0\H,8,1.08202,7,120.358,6,177.407,0\C,8,1.37299,7,115.189,6,11.1023,0\H,10,1.08188,8,128.018,7,-175.738,0\C,4,1.40523,3,109.85,2,169.799,0\H,12,1.08378,4,124.879,3,-167.859,0\C,12,1.40734,4,113.675,3,3.93005,0\H,14,1.082,12,128.582,4,-173.791,0\C,2,1.47075,1,128.392,3,166.93,0\N,16,1.33752,2,118.637,1,153.116,0\C,17,1.38274,16,116.048,2,-169.153,0\H,18,1.08813,17,111.058,16,179.452,0\C,18,1.40178,17,128.441,16,-1.47061,0\C,20,1.42628,18,113.853,17,-4.78706,0\N,21,1.37792,20,127.978,18,179.23,0\C,21,1.38432,20,119.191,18,10.2701,0\N,23,1.35796,21,117.252,20,175.233,0\C,20,1.48499,18,122.189,17,-174.658,0\C,25,1.41933,20,120.852,18,23.8951,0\H,26,1.08899,25,120.59,20,4.88784,0\N,26,1.35362,25,123.016,20,-173.582,0\C,28,1.35515,26,123.398,25,0.290117,0\C,29,1.39249,28,117.587,26,-0.222698,0\H,30,1.08626,29,125.345,28,-177.686,0\C,30,1.43169,29,121.456,28,1.208,0\H,32,1.08567,30,116.975,29,-175.157,0\C,29,1.56151,28,117.613,26,171.31,0\H,34,1.09654,29,113.341,28,126.887,0\H,34,1.09709,29,110.646,28,12.2403,0\C,34,1.54762,29,113.315,28,-107.269,0\H,37,1.09646,34,110.851,29,59.626,0\H,37,1.09672,34,105.986,29,-51.713,0\C,37,1.58204,34,116.758,29,-173.867,0\H,40,1.09681,37,111.984,34,60.019,0\H,40,1.09709,37,111.156,34,-60.6078,0\C,40,1.59457,37,111.971,34,-173.388,0\H,43,1.09671,40,111.227,37,-69.3316,0\H,43,1.09712,40,106.164,37,44.4315,0\C,43,1.5184,40,114.929,37,165.476,0\H,46,1.09669,43,104.539,40,57.8826,0\H,46,1.09754,43,116.824,40,-56.6089,0\C,46,1.54383,43,112.08,40,173.203,0\H,49,1.09656,46,114.932,43,62.8653,0\H,49,1.0966,46,112.679,43,-160.471,0\H,49,1.09687,46,110.392,43,-46.7536,0\S,22,1.60164,21,104.415,20,-177.233,0\S,3,1.74687,2,125.527,1,174.269,0\S,6,1.76445,5,121.743,4,159.265,0\H,13,2.61723,12,117.155,4,-139.704,0\C,56,1.09717,13,123.239,12,102.253,0\H,57,1.09699,56,108.21,13,-140.375,0\H,57,1.09711,56,108.069,13,105.763,0\C,57,1.5046,56,116.853,13,-14.4418,0\H,60,1.09703,57,108.567,56,46.8892,0\H,60,1.09729,57,113.833,56,160.498,0\C,60,1.52895,57,108.861,56,-70.3967,0\H,63,1.09687,60,109.802,57,-77.2181,0\H,63,1.09765,60,115.072,57,43.0219,0\C,63,1.54702,60,115.03,57,164.164,0\H,66,1.09717,63,102.548,60,-86.207,0\H,66,1.09723,63,112.306,60,160.362,0\C,66,1.52822,63,119.063,60,37.6001,0\H,69,1.0965,66,107.584,63,50.8165,0\H,69,1.09761,66,113.501,63,-72.6176,0\C,69,1.52726,66,114.772,63,167.346,0\H,72,1.09748,69,110.25,66,-162.055,0\H,72,1.09764,69,101.572,66,-50.0991,0\C,72,1.44838,69,118.475,66,63.188,0\N,75,1.34818,72,119.263,69,106.585,0\C,76,1.37217,75,119.749,72,169.745,0\H,77,1.08916,76,115.745,75,173.604,0\C,75,1.40004,72,119.402,69,-85.7085,0\H,79,1.08632,75,118.711,72,6.71804,0\C,79,1.37291,75,121.725,72,-163.471,0\H,81,1.08598,79,127.118,75,172.652,0\C,77,1.42306,76,122.537,75,-3.80262,0\C,83,1.48577,77,124.238,76,-173.679,0\C,84,1.37752,83,122.383,77,30.2087,0\N,85,1.36512,84,125.987,83,-3.33639,0\C,84,1.38891,83,121.92,77,-152.801,0\H,87,1.08874,84,115.604,83,14.9008,0\N,87,1.35039,84,126.474,83,-178.15,0\C,89,1.34864,87,117.98,84,-0.452818,0\C,85,1.40284,84,122.536,83,177.7,0\N,91,1.32465,85,117.04,84,172.652,0\C,90,1.51354,89,115.706,87,-171.817,0\C,93,1.40679,90,123.14,89,11.3956,0\C,94,1.3856,93,112.925,90,178.094,0\C,95,1.34439,94,117.396,93,4.94516,0\C,96,1.39893,95,129.361,94,177.278,0\N,97,1.29983,96,113.448,95,158.219,0\C,98,1.37543,97,108.536,96,-169.636,0\H,99,1.08144,98,116.063,97,176.195,0\C,99,1.32584,98,115.891,97,-4.28543,0\H,101,1.08197,99,132.552,98,169.446,0\C,95,1.45042,94,112.524,93,178.845,0\H,103,1.08381,95,121.87,94,-174.38,0\C,103,1.42231,95,108.726,94,-0.911612,0\H,105,1.08168,103,127.427,95,-169.428,0\S,86,1.61348,85,105.586,84,179.794,0\S,101,1.7363,99,112.692,98,-0.985772,0\S,96,1.74141,95,106.649,94,-12.9759,0\S,105,1.7604,103,115.795,95,6.57313,0\\\@

 Total job time:  100.59s(wall), 1212.19s(cpu) 
 Sat Oct 13 01:01:50 2018

        *************************************************************
        *                                                           *
        *  Thank you very much for using Q-Chem.  Have a nice day.  *
        *                                                           *
        *************************************************************


