
Running Job 1 of 1 ./6/51.qcin
qchem ./6/51.qcin_36836.0 /tmpu/cab_g/afmv_a/scratch_qchem/qchem36836/ 1
/tmpu/appuserlic/qchem4.4/serial-multicore/exe/qcprog.exe_s ./6/51.qcin_36836.0 /tmpu/cab_g/afmv_a/scratch_qchem/qchem36836/
Check license passed

                  Welcome to Q-Chem
     A Quantum Leap Into The Future Of Chemistry


 Q-Chem 4.4, Q-Chem, Inc., Pleasanton, CA (2016)

 Y. Shao,  Z. Gan,  E. Epifanovsky,  A. T. B. Gilbert,  M. Wormit,  
 J. Kussmann,  A. W. Lange,  A. Behn,  J. Deng,  X. Feng,  D. Ghosh,  
 M. Goldey,  P. R. Horn,  L. D. Jacobson,  I. Kaliman,  F. Rob,  
 R. Z. Khaliullin,  T. Kus,  A. Landau,  J. Liu,  E. I. Proynov,  Y. M. Rhee,  
 R. M. Richard,  M. A. Rohrdanz,  R. P. Steele,  E. J. Sundstrom,  
 H. L. Woodcock III,  P. M. Zimmerman,  D. Zuev,  B. Albrecht,  E. Alguire,  
 B. Austin,  S. A. Baeppler,  G. J. O. Beran,  Y. A. Bernard,  E. Berquist,  
 K. Brandhorst,  K. B. Bravaya,  S. T. Brown,  D. Casanova,  C.-M. Chang,  
 Y. Chen,  S. H. Chien,  K. D. Closser,  M. P. Coons,  D. L. Crittenden,  
 S. Dasgupta,  M. Diedenhofen,  R. A. DiStasio Jr.,  H. Do,  A. D. Dutoi,  
 R. G. Edgar,  P.-T. Fang,  S. Fatehi,  Q. Feng,  L. Fusti-Molnar,  
 A. Ghysels,  A. Golubeva-Zadorozhnaya,  J. Gomes,  A. Gunina,  
 M. W. D. Hanson-Heine,  P. H. P. Harbach,  A. W. Hauser,  J. E. Herr,  
 E. G. Hohenstein,  Z. C. Holden,  K. Hui,  T.-C. Jagau,  H. Ji,  B. Kaduk,  
 K. Khistyaev,  Jaehoon Kim,  Jihan Kim,  R. A. King,  P. Klunzinger,  
 K. Koh,  D. Kosenkov,  T. Kowalczyk,  C. M. Krauter,  A. Kunitsa,  
 K. U. Lao,  A. Laurent,  K. V. Lawler,  J. Lee,  D. Lefrancois,  S. Lehtola,  
 S. V. Levchenko,  C. Y. Lin,  Y.-S. Lin,  F. Liu,  E. Livshits,  
 R. C. Lochan,  A. Luenser,  P. Manohar,  S. F. Manzer,  S.-P. Mao,  Y. Mao,  
 N. Mardirossian,  A. V. Marenich,  L. A. Martinez-Martinez,  S. A. Maurer,  
 N. J. Mayhall,  J.-M. Mewes,  A. F. Morrison,  K. Nanda,  T. S. Nguyen-Beck,  
 C. M. Oana,  R. Olivares-Amaya,  D. P. O'Neill,  J. A. Parkhill,  
 T. M. Perrine,  R. Peverati,  P. A. Pieniazek,  F. Plasser,  A. Prociuk,  
 D. R. Rehn,  E. Rosta,  N. J. Russ,  N. Sergueev,  S. M. Sharada,  
 S. Sharma,  D. W. Small,  A. Sodt,  T. Stauch,  T. Stein,  D. Stuck,  
 Y.-C. Su,  A. J. W. Thom,  T. Tsuchimochi,  L. Vogt,  O. Vydrov,  T. Wang,  
 M. A. Watson,  J. Wenzel,  A. White,  C. F. Williams,  V. Vanovschi,  
 K. Yao,  S. Yeganeh,  S. R. Yost,  Z.-Q. You,  I. Y. Zhang,  X. Zhang,  
 Y. Zhao,  B. R. Brooks,  G. K. L. Chan,  D. M. Chipman,  C. J. Cramer,  
 W. A. Goddard III,  M. S. Gordon,  W. J. Hehre,  A. Klamt,  
 H. F. Schaefer III,  M. W. Schmidt,  C. D. Sherrill,  D. G. Truhlar,  
 A. Warshel,  X. Xu,  A. Aspuru-Guzik,  R. Baer,  A. T. Bell,  N. A. Besley,  
 J.-D. Chai,  A. Dreuw,  B. D. Dunietz,  T. R. Furlani,  S. R. Gwaltney,  
 C.-P. Hsu,  Y. Jung,  J. Kong,  D. S. Lambrecht,  W. Liang,  C. Ochsenfeld,  
 V. A. Rassolov,  L. V. Slipchenko,  J. E. Subotnik,  T. Van Voorhis,  
 J. M. Herbert,  A. I. Krylov,  P. M. W. Gill,  M. Head-Gordon

 Contributors to earlier versions of Q-Chem not listed above: 
 R. D. Adamson,  J. Baker,  E. F. C. Byrd,  A. K. Chakraborty,  C.-L. Cheng,  
 H. Dachsel,  R. J. Doerksen,  G. Hawkins,  A. Heyden,  S. Hirata,  
 G. Kedziora,  F. J. Keil,  C. Kelley,  P. P. Korambath,  W. Kurlancheek,  
 A. M. Lee,  M. S. Lee,  D. Liotard,  I. Lotan,  P. E. Maslen,  N. Nair,  
 D. Neuhauser,  R. Olson,  B. Peters,  J. Ritchie,  N. E. Schultz,  
 N. Shenvi,  A. C. Simmonett,  K. S. Thanthiriwatte,  Q. Wu,  W. Zhang

 Please cite Q-Chem as follows:
 Y. Shao et al., Mol. Phys. 113, 184-215 (2015)
 DOI: 10.1080/00268976.2014.952696

 Q-Chem 4.4.2 for Intel X86 Linux

 Parts of Q-Chem use Armadillo 5.200.1 (Boston Tea Smuggler).
 http://arma.sourceforge.net/

 Q-Chem begins on Sat Oct 13 01:09:57 2018  

Host: 
0

     Scratch files written to /tmpu/cab_g/afmv_a/scratch_qchem/qchem36836//
 Dec716 11556_ 22328  22283 4050   
Processing $rem in /tmpu/appuserlic/qchem4.4/serial-multicore/config/preferences.
 MEM_TOTAL  2000 
FILE_GEOM_ORG=        593

Checking the input file for inconsistencies... 	...done.

--------------------------------------------------------------
User input:
--------------------------------------------------------------
$comment
SP
$end

$rem
MEM_STATIC 5000
MEM_TOTAL 20000
JOBTYPE SP
EXCHANGE B3LYP
BASIS 6-31g(d,p)
$end

$molecule
0 1
C         -27.129000     20.070000     -4.964000
C         -26.271000     19.040000     -5.459000
N         -27.905000     20.805000     -5.804000
C         -26.319000     18.784000     -6.858000
C         -27.831000     20.612000     -7.166000
C         -27.007000     19.588000     -7.745000
C         -26.833000     19.406000     -9.171000
C         -26.712000     18.145000     -9.808000
C         -26.748000     20.515000    -10.062000
N         -26.535000     17.931000    -11.123000
N         -26.732000     21.765000     -9.704000
C         -26.459000     20.316000    -11.429000
C         -26.356000     18.997000    -11.908000
S         -26.352000     22.656000    -11.043000
N         -26.203000     21.459000    -12.125000
C         -26.056000     18.661000    -13.296000
S         -25.089000     17.339000    -13.940000
C         -26.588000     19.336000    -14.381000
C         -25.384000     17.745000    -15.597000
S         -27.842000     20.476000    -14.378000
C         -26.144000     18.900000    -15.595000
C         -24.712000     17.204000    -16.728000
C         -27.658000     20.669000    -16.078000
C         -26.797000     19.686000    -16.614000
N         -25.209000     17.556000    -17.883000
S         -23.096000     16.692000    -16.655000
C         -24.319000     17.243000    -18.853000
C         -23.159000     16.722000    -18.436000
C         -27.072000     20.590000     -3.534000
H         -25.507000     18.618000     -4.813000
H         -25.580000     18.122000     -7.299000
H         -28.554000     21.176000     -7.756000
H         -26.897000     17.238000     -9.234000
H         -28.351000     21.366000    -16.530000
H         -26.764000     19.459000    -17.673000
H         -24.531000     17.423000    -19.898000
H         -22.339000     16.243000    -18.956000
H         -28.114000     20.698000     -3.209000
C         -26.227000     21.840000     -3.514000
H         -26.644000     19.847000     -2.850000
H         -26.557000     22.547000     -2.743000
H         -26.388000     22.412000     -4.436000
C         -24.688000     21.471000     -3.414000
H         -24.567000     20.669000     -2.675000
C         -24.008000     22.761000     -2.847000
H         -24.314000     21.020000     -4.341000
H         -24.448000     22.956000     -1.861000
H         -24.196000     23.542000     -3.594000
C         -22.453000     22.623000     -2.616000
H         -22.209000     21.863000     -1.864000
C         -21.855000     23.972000     -2.103000
H         -21.993000     22.324000     -3.567000
H         -22.158000     24.328000     -1.111000
H         -22.140000     24.788000     -2.778000
H         -20.759000     23.995000     -2.148000
C         -23.853000     22.864000     -7.530000
C         -22.954000     22.217000     -6.671000
N         -23.969000     22.497000     -8.807000
C         -22.213000     21.170000     -7.124000
C         -23.292000     21.446000     -9.265000
C         -22.450000     20.647000     -8.468000
C         -21.550000     19.585000     -9.061000
C         -20.121000     19.741000     -9.021000
C         -22.085000     18.595000     -9.907000
N         -19.296000     18.771000     -9.633000
N         -23.423000     18.461000    -10.136000
C         -21.251000     17.644000    -10.363000
C         -19.821000     17.756000    -10.264000
S         -23.523000     16.986000    -10.809000
N         -21.954000     16.638000    -10.859000
C         -18.756000     16.912000    -10.820000
S         -17.093000     16.890000    -10.213000
C         -18.809000     16.277000    -11.996000
C         -16.525000     16.140000    -11.702000
S         -20.089000     16.286000    -13.212000
C         -17.613000     15.801000    -12.507000
C         -15.090000     15.952000    -11.998000
C         -18.926000     15.670000    -14.463000
C         -17.681000     15.396000    -13.897000
N         -14.261000     16.501000    -11.141000
S         -14.332000     15.182000    -13.358000
C         -12.950000     16.373000    -11.527000
C         -12.824000     15.581000    -12.661000
C         -24.634000     24.065000     -7.063000
H         -22.839000     22.580000     -5.654000
H         -21.369000     20.773000     -6.568000
H         -23.493000     21.279000    -10.322000
H         -19.623000     20.520000     -8.446000
H         -19.276000     15.653000    -15.487000
H         -16.831000     15.123000    -14.512000
H         -12.279000     16.840000    -10.818000
H         -11.883000     15.333000    -13.133000
H         -24.939000     23.853000     -6.031000
C         -25.953000     24.321000     -7.764000
H         -23.947000     24.919000     -7.073000
H         -26.673000     23.511000     -7.595000
H         -25.795000     24.529000     -8.829000
C         -26.691000     25.556000     -7.258000
H         -26.807000     25.674000     -6.174000
C         -28.110000     25.562000     -7.956000
H         -26.192000     26.512000     -7.457000
H         -28.716000     24.873000     -7.356000
H         -28.100000     25.211000     -8.995000
C         -28.717000     26.992000     -7.912000
H         -28.557000     27.507000     -6.957000
C         -30.208000     26.865000     -8.234000
H         -28.243000     27.577000     -8.710000
H         -30.321000     26.343000     -9.192000
H         -30.672000     27.859000     -8.260000
H         -30.585000     26.233000     -7.420000
$end

--------------------------------------------------------------
 ----------------------------------------------------------------
             Standard Nuclear Orientation (Angstroms)
    I     Atom           X                Y                Z
 ----------------------------------------------------------------
    1      C      -5.8083203436    -1.8527696982    -2.9937636370
    2      C      -4.4324237928    -1.9848604679    -3.3564614591
    3      N      -6.2675303482    -0.7383880065    -2.3650501754
    4      C      -3.5887900478    -0.8716392237    -3.0843189125
    5      C      -5.3957827967     0.2659905541    -2.0058163886
    6      C      -4.0011855039     0.2198887997    -2.3460604469
    7      C      -3.0350061764     1.2088968224    -1.9156691852
    8      C      -1.9511370735     1.6663032877    -2.7072107781
    9      C      -3.0933433415     1.7971352187    -0.6189196473
   10      N      -1.0247803264     2.5694250077    -2.3430894575
   11      N      -3.9328372312     1.4663763434     0.3174395657
   12      C      -2.0730518955     2.6678484013    -0.1799721345
   13      C      -1.0540703889     3.0177251093    -1.0849991940
   14      S      -3.4430838631     2.2172844580     1.7057769317
   15      N      -2.1390134337     2.9957314722     1.1408392704
   16      C       0.0570472571     3.9025318674    -0.7503731677
   17      S       1.7384768466     3.8256323985    -1.2645618561
   18      C      -0.0788451113     5.0507418895     0.0105611327
   19      C       2.2047348204     5.2706494225    -0.4326728599
   20      S      -1.5154584954     5.8098322750     0.4922755413
   21      C       1.0886624864     5.7135180724     0.2528042763
   22      C       3.5351848285     5.7275709249    -0.2216005580
   23      C      -0.5958833157     6.9888258803     1.3440152713
   24      C       0.7788546844     6.8845351665     1.0372174909
   25      N       3.6302887724     6.9189173834     0.3043146973
   26      S       4.8399628979     4.6552356417    -0.0585661132
   27      C       4.8997627629     7.1043301796     0.7344622096
   28      C       5.7245793373     6.0605645503     0.5889942423
   29      C      -6.8019216942    -3.0052309136    -3.0497859811
   30      H      -4.0439782432    -2.9542490391    -3.6539372615
   31      H      -2.5149729812    -0.9824396679    -3.2004488794
   32      H      -5.8616952013     1.1609467002    -1.5924108641
   33      H      -1.8982352566     1.3778490174    -3.7561843391
   34      H      -1.1851925779     7.7538301395     1.8317089015
   35      H       1.4810436995     7.6840164097     1.2418130155
   36      H       5.2167769039     8.0350611686     1.1845853712
   37      H       6.7972384584     5.9517518740     0.6880054104
   38      H      -7.7226868528    -2.5910157794    -3.4783537647
   39      C      -6.9122565858    -3.6077607747    -1.6707613336
   40      H      -6.4869650890    -3.7767468213    -3.7629861922
   41      H      -7.9129427551    -4.0137222062    -1.4783749862
   42      H      -6.8336601393    -2.8184414847    -0.9131422625
   43      C      -5.7484644912    -4.6567350703    -1.4259698147
   44      H      -5.6352232168    -5.2716176890    -2.3276691987
   45      C      -6.2788847179    -5.5746052704    -0.2752493105
   46      H      -4.7713443748    -4.1687053570    -1.3276373319
   47      H      -7.1957224257    -6.0562092568    -0.6375850911
   48      H      -6.4212712556    -4.9098974002     0.5856824645
   49      C      -5.2958789522    -6.7427940589     0.1240809025
   50      H      -5.1300622212    -7.4479799134    -0.6992402513
   51      C      -5.8833494113    -7.5688858270     1.3127881206
   52      H      -4.3293116184    -6.2970272139     0.3932305061
   53      H      -6.7975132444    -8.1487627582     1.1376989120
   54      H      -6.1467227486    -6.8985549640     2.1398292437
   55      H      -5.1441213521    -8.2372707422     1.7716709831
   56      C      -3.7527377168    -2.0856874387     1.5716823862
   57      C      -3.2684406553    -3.2966641699     1.0581819357
   58      N      -2.9601231050    -1.0184080965     1.6791574203
   59      C      -1.9834500884    -3.3853998559     0.6206613977
   60      C      -1.7128590813    -1.0621657320     1.2153560355
   61      C      -1.1532565908    -2.1834915645     0.5734468285
   62      C       0.3192856268    -2.2661418857     0.2353915940
   63      C       1.1643038333    -3.2179166341     0.9047540213
   64      C       0.9350086990    -1.2381720335    -0.5036646160
   65      N       2.5484822803    -3.2413305447     0.6226710273
   66      N       0.2387687467    -0.2005284080    -1.0506441726
   67      C       2.2325822197    -1.3877051414    -0.8227818484
   68      C       3.0703051926    -2.3837588783    -0.2117645215
   69      S       1.3080871461     0.4339158135    -2.0959157595
   70      N       2.5600571791    -0.5199926317    -1.7672902662
   71      C       4.5175793471    -2.6084894175    -0.3146756796
   72      S       5.3120322914    -4.1385219932     0.0882471871
   73      C       5.4402339284    -1.6491912557    -0.4468330120
   74      C       6.8733234005    -3.3327094300     0.2118642794
   75      S       5.2291168653     0.1031030103    -0.4919039669
   76      C       6.7561520885    -2.0058688083    -0.2034125539
   77      C       8.0819220923    -4.0179708448     0.7137517126
   78      C       6.9886478687     0.3403065177    -0.1113633726
   79      C       7.6605030637    -0.8812665960    -0.0686231708
   80      N       7.8886464855    -5.2265048120     1.1882843142
   81      S       9.7116637683    -3.4320770059     0.8469225771
   82      C       9.0308317732    -5.7655079294     1.7258616648
   83      C      10.1330779237    -4.9473187507     1.5144003404
   84      C      -5.1530880437    -1.9877242625     2.1192891594
   85      H      -3.9220434461    -4.1637289556     1.0412985406
   86      H      -1.5074934454    -4.3379192499     0.4079336890
   87      H      -1.1987822173    -0.1165308359     1.3797902812
   88      H       0.7789265712    -4.0065710044     1.5489423867
   89      H       7.3070673380     1.3505636070     0.1107957033
   90      H       8.6944564078    -0.9439952106     0.2511573839
   91      H       8.8543147110    -6.7563010561     2.1235823039
   92      H      11.1385684867    -5.1789417084     1.8386048024
   93      H      -5.7895189886    -2.5761377691     1.4471893174
   94      C      -5.7931276598    -0.6145397021     2.0817198532
   95      H      -5.1431272767    -2.4514888580     3.1123693088
   96      H      -5.9323762531    -0.2532100502     1.0555075399
   97      H      -5.2347082523     0.0934952901     2.7056647347
   98      C      -7.2035379258    -0.5752836313     2.6606039887
   99      H      -7.9164399158    -1.3367701671     2.3224546009
  100      C      -7.7794086975     0.8688389100     2.3713222230
  101      H      -7.2722972690    -0.7774009638     3.7362241525
  102      H      -8.1349693763     0.8221112487     1.3352960991
  103      H      -7.0375279783     1.6722672263     2.4546165142
  104      C      -8.9614887708     1.1713852689     3.3338384052
  105      H      -9.6327569410     0.3174677037     3.4857391473
  106      C      -9.7137925952     2.3781113408     2.7674947434
  107      H      -8.5338270176     1.4583585983     4.3025781706
  108      H      -9.0060364270     3.2044806771     2.6288876497
  109      H     -10.5334532434     2.6587640428     3.4408434514
  110      H     -10.0606840391     2.0184574018     1.7905278195
 ----------------------------------------------------------------
 Molecular Point Group                 C1    NOp =  1
 Largest Abelian Subgroup              C1    NOp =  1
 Nuclear Repulsion Energy = 12384.7050059016 hartrees
 There are      270 alpha and      270 beta electrons
 Requested basis set is 6-31G(d,p)
 There are 406 shells and 1262 basis functions

 Total QAlloc Memory Limit  20000 MB
 Mega-Array Size      4888 MB
 MEM_STATIC part      5000 MB
 A cutoff of  1.0D-08 yielded  15783 shell pairs
 There are    163079 function pairs
 
 -------------------------------------------------------
 OpenMP Integral Computing Module                       
 Release: version 1.0, May 2013, Q-Chem Inc. Pittsburgh 
 -------------------------------------------------------
 Integral Job Info:
 Integral job number is                      11
 Integral operator is                         1
 short-range coefficients                     0
 long-range coefficients              100000000
 Omega coefficients                           0
 if combine SR and LR in K                    0
 Integral screening is                        0
 Integral computing path is                   2
 max size of driver memory is            800000
 size of driver memory is                593474
 size of scratch memory is             15166112
 max col of scratch BK array               1296
 max len of scratch array in speh3          155
 max len of scratch index in speh4           18
 max int batch size is                      520
 min int batch size is                       52
 fixed nKL is                                52
 max L of basis functions is                  2
 order of int derivative is                   0
 number of shells is                        406
 number of basis is                        1262
 number of cartesian basis is              1262
 number of contracted shell pairs         15783
 number of primitive shell pairs          48266
 maxK2 (contraction) of shell pair           36
 max number of K2 of shell pair               1
 max number of CS2 of shell pair           1688
 max number of PS2 of shell pair           9102
 mem total for path MDJ                  357336
 -------------------------------------------------------
 Smallest overlap matrix eigenvalue = 4.10E-04

 Scale SEOQF with 1.000000e-02/1.000000e-02/1.000000e-01

 Standard Electronic Orientation quadrupole field applied
 Nucleus-field energy     =    -0.0000000339 hartrees
 Guess from superposition of atomic densities
 Warning:  Energy on first SCF cycle will be non-variational
 A restricted hybrid HF-DFT SCF calculation will be
 performed using Pulay DIIS extrapolation
 Exchange:     0.2000 Hartree-Fock + 0.0800 Slater + 0.7200 B88
 Correlation:  0.1900 VWN1RPA + 0.8100 LYP
 Using SG-1 standard quadrature grid
 SCF converges when DIIS error is below 1.0E-05
 using 16 threads for integral computing 
 -------------------------------------------------------
 OpenMP BLAS3 based DFT computing Module                
 Release: version 1.0, May 2013, Q-Chem Inc. Pittsburgh 
 -------------------------------------------------------
 ---------------------------------------
  Cycle       Energy         DIIS Error
 ---------------------------------------
    1   -5680.6270739110      2.17E-02
    2   -5662.4373200796      2.20E-03
    3   -5660.8479235705      3.49E-03
    4   -5663.3108506738      9.00E-04
    5   -5663.4478132725      4.05E-04
    6   -5663.4655807049      2.75E-04
    7   -5663.4802726682      6.98E-05
    8   -5663.4811476896      2.28E-05
    9   -5663.4812487144      6.60E-06 Convergence criterion met
 ---------------------------------------
 SCF time:  CPU 1157.64 s  wall 93.24 s
 SCF   energy in the final basis set = -5663.4812487144
 Total energy in the final basis set = -5663.4812487144
 
 --------------------------------------------------------------
 
                    Orbital Energies (a.u.)
 --------------------------------------------------------------
 
 Alpha MOs
 -- Occupied --
-88.987 -88.983 -88.932 -88.923 -88.922 -88.918 -88.903 -88.900
-14.382 -14.377 -14.376 -14.369 -14.347 -14.345 -14.336 -14.335
-14.331 -14.325 -10.266 -10.261 -10.260 -10.256 -10.249 -10.249
-10.247 -10.247 -10.245 -10.240 -10.235 -10.235 -10.233 -10.233
-10.232 -10.230 -10.230 -10.229 -10.229 -10.228 -10.227 -10.225
-10.225 -10.224 -10.222 -10.222 -10.221 -10.218 -10.215 -10.213
-10.212 -10.210 -10.209 -10.209 -10.205 -10.199 -10.195 -10.193
-10.189 -10.187 -10.185 -10.185 -10.184 -10.182 -10.177 -10.174
-10.173 -10.171 -10.171 -10.167  -8.042  -8.038  -7.994  -7.986
 -7.982  -7.976  -7.963  -7.963  -6.007  -6.003  -6.002  -6.000
 -5.997  -5.995  -5.958  -5.954  -5.951  -5.949  -5.946  -5.946
 -5.943  -5.943  -5.941  -5.939  -5.937  -5.933  -5.928  -5.927
 -5.924  -5.923  -5.919  -5.919  -1.047  -1.035  -0.983  -0.971
 -0.960  -0.956  -0.944  -0.928  -0.919  -0.910  -0.904  -0.901
 -0.851  -0.839  -0.834  -0.830  -0.812  -0.808  -0.807  -0.806
 -0.806  -0.804  -0.795  -0.794  -0.785  -0.779  -0.768  -0.766
 -0.750  -0.748  -0.738  -0.738  -0.725  -0.722  -0.710  -0.708
 -0.691  -0.690  -0.673  -0.668  -0.652  -0.651  -0.644  -0.644
 -0.635  -0.633  -0.628  -0.624  -0.609  -0.608  -0.601  -0.595
 -0.594  -0.588  -0.584  -0.581  -0.578  -0.575  -0.574  -0.571
 -0.548  -0.546  -0.541  -0.537  -0.524  -0.524  -0.518  -0.512
 -0.507  -0.506  -0.504  -0.500  -0.485  -0.484  -0.482  -0.476
 -0.475  -0.474  -0.471  -0.469  -0.463  -0.461  -0.452  -0.450
 -0.447  -0.444  -0.441  -0.438  -0.436  -0.433  -0.432  -0.430
 -0.428  -0.428  -0.424  -0.421  -0.419  -0.416  -0.415  -0.414
 -0.412  -0.407  -0.404  -0.403  -0.403  -0.398  -0.396  -0.395
 -0.394  -0.393  -0.389  -0.388  -0.383  -0.382  -0.381  -0.381
 -0.379  -0.376  -0.376  -0.373  -0.369  -0.364  -0.356  -0.356
 -0.352  -0.349  -0.347  -0.346  -0.343  -0.341  -0.340  -0.338
 -0.336  -0.335  -0.332  -0.331  -0.330  -0.328  -0.325  -0.324
 -0.320  -0.311  -0.306  -0.304  -0.302  -0.301  -0.295  -0.294
 -0.292  -0.291  -0.290  -0.288  -0.285  -0.283  -0.283  -0.278
 -0.278  -0.272  -0.264  -0.263  -0.252  -0.251  -0.249  -0.248
 -0.244  -0.241  -0.232  -0.223  -0.193  -0.191
 -- Virtual --
 -0.108  -0.104  -0.071  -0.069  -0.036  -0.033  -0.032  -0.021
 -0.020  -0.014  -0.011  -0.005  -0.004  -0.001   0.004   0.007
  0.008   0.012   0.017   0.023   0.028   0.037   0.038   0.046
  0.055   0.058   0.058   0.060   0.066   0.073   0.079   0.081
  0.093   0.095   0.096   0.099   0.103   0.105   0.108   0.110
  0.113   0.115   0.119   0.122   0.123   0.125   0.127   0.129
  0.129   0.131   0.133   0.136   0.137   0.140   0.142   0.143
  0.147   0.151   0.155   0.156   0.159   0.161   0.162   0.163
  0.164   0.172   0.172   0.173   0.175   0.179   0.181   0.184
  0.188   0.189   0.189   0.192   0.193   0.194   0.198   0.201
  0.204   0.207   0.210   0.212   0.214   0.217   0.221   0.222
  0.224   0.226   0.228   0.230   0.233   0.234   0.241   0.243
  0.243   0.248   0.250   0.252   0.254   0.256   0.259   0.263
  0.266   0.270   0.272   0.277   0.277   0.280   0.282   0.285
  0.289   0.293   0.295   0.296   0.299   0.301   0.304   0.309
  0.314   0.316   0.320   0.323   0.325   0.328   0.331   0.333
  0.335   0.336   0.337   0.342   0.346   0.349   0.351   0.354
  0.358   0.361   0.362   0.365   0.369   0.374   0.375   0.380
  0.387   0.389   0.391   0.394   0.397   0.403   0.405   0.409
  0.413   0.419   0.422   0.425   0.434   0.437   0.439   0.443
  0.445   0.454   0.458   0.459   0.463   0.469   0.472   0.479
  0.481   0.483   0.489   0.494   0.495   0.496   0.501   0.506
  0.507   0.511   0.513   0.515   0.521   0.521   0.522   0.525
  0.526   0.528   0.530   0.531   0.534   0.536   0.538   0.539
  0.540   0.541   0.543   0.545   0.550   0.552   0.552   0.555
  0.557   0.558   0.558   0.560   0.561   0.565   0.568   0.569
  0.570   0.573   0.575   0.576   0.577   0.583   0.585   0.587
  0.589   0.590   0.592   0.594   0.594   0.596   0.600   0.602
  0.603   0.604   0.608   0.611   0.612   0.615   0.616   0.618
  0.621   0.623   0.624   0.626   0.631   0.632   0.633   0.633
  0.635   0.637   0.638   0.643   0.643   0.645   0.647   0.652
  0.653   0.656   0.661   0.662   0.665   0.668   0.671   0.673
  0.676   0.678   0.686   0.690   0.691   0.693   0.696   0.703
  0.707   0.709   0.712   0.716   0.719   0.722   0.729   0.730
  0.732   0.735   0.739   0.740   0.740   0.743   0.745   0.749
  0.753   0.757   0.761   0.763   0.766   0.768   0.771   0.774
  0.776   0.778   0.784   0.787   0.788   0.790   0.791   0.796
  0.801   0.803   0.804   0.806   0.808   0.809   0.811   0.814
  0.816   0.817   0.820   0.823   0.825   0.825   0.827   0.828
  0.829   0.831   0.833   0.835   0.840   0.844   0.845   0.846
  0.846   0.847   0.849   0.850   0.853   0.856   0.857   0.859
  0.861   0.864   0.865   0.866   0.870   0.875   0.877   0.878
  0.882   0.884   0.886   0.887   0.892   0.893   0.895   0.898
  0.903   0.905   0.907   0.908   0.913   0.914   0.917   0.920
  0.922   0.926   0.928   0.930   0.932   0.933   0.935   0.939
  0.940   0.942   0.943   0.946   0.948   0.949   0.951   0.953
  0.956   0.957   0.961   0.963   0.965   0.969   0.971   0.973
  0.978   0.978   0.981   0.983   0.987   0.987   0.989   0.992
  0.998   1.001   1.004   1.006   1.008   1.011   1.015   1.018
  1.022   1.023   1.026   1.028   1.030   1.035   1.037   1.039
  1.041   1.045   1.047   1.049   1.053   1.056   1.059   1.063
  1.065   1.068   1.073   1.076   1.080   1.083   1.084   1.092
  1.095   1.096   1.098   1.103   1.108   1.116   1.116   1.122
  1.125   1.128   1.132   1.135   1.143   1.145   1.151   1.155
  1.161   1.163   1.167   1.171   1.173   1.176   1.182   1.187
  1.193   1.196   1.200   1.208   1.213   1.217   1.220   1.222
  1.227   1.234   1.237   1.245   1.252   1.254   1.261   1.269
  1.272   1.279   1.282   1.289   1.290   1.295   1.298   1.299
  1.308   1.313   1.316   1.320   1.323   1.325   1.328   1.337
  1.342   1.343   1.349   1.353   1.355   1.356   1.362   1.375
  1.379   1.382   1.385   1.386   1.389   1.395   1.405   1.412
  1.419   1.421   1.421   1.431   1.434   1.437   1.441   1.445
  1.447   1.449   1.455   1.458   1.465   1.468   1.471   1.482
  1.489   1.490   1.495   1.497   1.505   1.507   1.513   1.525
  1.526   1.533   1.539   1.543   1.548   1.551   1.555   1.564
  1.570   1.581   1.587   1.595   1.601   1.611   1.614   1.619
  1.625   1.630   1.635   1.637   1.644   1.650   1.654   1.656
  1.660   1.663   1.668   1.669   1.672   1.677   1.681   1.683
  1.685   1.696   1.700   1.701   1.706   1.708   1.714   1.715
  1.719   1.728   1.729   1.736   1.741   1.745   1.749   1.756
  1.760   1.761   1.764   1.768   1.776   1.782   1.783   1.787
  1.788   1.791   1.794   1.798   1.801   1.804   1.811   1.813
  1.818   1.819   1.825   1.828   1.835   1.838   1.849   1.854
  1.859   1.862   1.865   1.866   1.873   1.876   1.877   1.878
  1.880   1.884   1.887   1.894   1.897   1.902   1.905   1.907
  1.909   1.916   1.923   1.925   1.926   1.927   1.930   1.933
  1.938   1.944   1.945   1.950   1.953   1.957   1.962   1.967
  1.971   1.972   1.977   1.988   1.992   1.997   2.005   2.006
  2.009   2.016   2.019   2.020   2.022   2.028   2.030   2.033
  2.039   2.044   2.048   2.053   2.059   2.063   2.068   2.072
  2.076   2.080   2.083   2.085   2.088   2.089   2.096   2.100
  2.100   2.105   2.108   2.112   2.117   2.121   2.123   2.129
  2.131   2.135   2.136   2.139   2.146   2.147   2.149   2.152
  2.157   2.162   2.167   2.172   2.179   2.184   2.187   2.190
  2.192   2.198   2.202   2.204   2.208   2.222   2.226   2.228
  2.231   2.239   2.241   2.243   2.251   2.254   2.254   2.257
  2.261   2.267   2.267   2.270   2.277   2.280   2.285   2.287
  2.291   2.292   2.296   2.302   2.305   2.308   2.309   2.314
  2.315   2.325   2.329   2.331   2.338   2.339   2.341   2.343
  2.345   2.350   2.353   2.356   2.363   2.363   2.365   2.370
  2.378   2.380   2.388   2.390   2.393   2.395   2.399   2.400
  2.401   2.405   2.409   2.416   2.416   2.423   2.425   2.427
  2.429   2.433   2.434   2.436   2.442   2.444   2.447   2.449
  2.455   2.457   2.462   2.464   2.469   2.470   2.475   2.477
  2.479   2.481   2.489   2.491   2.497   2.502   2.504   2.505
  2.508   2.509   2.522   2.526   2.530   2.536   2.537   2.543
  2.547   2.548   2.549   2.556   2.563   2.564   2.569   2.575
  2.579   2.585   2.594   2.595   2.606   2.607   2.610   2.614
  2.616   2.623   2.625   2.628   2.636   2.642   2.645   2.652
  2.655   2.660   2.666   2.666   2.669   2.673   2.675   2.676
  2.677   2.679   2.684   2.691   2.693   2.698   2.701   2.705
  2.711   2.713   2.721   2.725   2.730   2.735   2.737   2.746
  2.755   2.758   2.764   2.776   2.779   2.782   2.786   2.794
  2.796   2.807   2.812   2.817   2.821   2.824   2.831   2.836
  2.838   2.850   2.855   2.856   2.860   2.864   2.867   2.872
  2.879   2.880   2.882   2.895   2.897   2.902   2.903   2.907
  2.910   2.921   2.925   2.927   2.933   2.933   2.944   2.946
  2.946   2.953   2.970   2.976   2.986   2.990   3.009   3.026
  3.037   3.041   3.050   3.055   3.083   3.107   3.108   3.126
  3.138   3.169   3.180   3.193   3.199   3.208   3.242   3.248
  3.254   3.266   3.272   3.274   3.274   3.279   3.283   3.285
  3.288   3.296   3.305   3.307   3.318   3.328   3.333   3.336
  3.340   3.342   3.353   3.363   3.384   3.416   3.421   3.428
  3.432   3.461   3.475   3.477   3.478   3.487   3.542   3.546
  3.550   3.553   3.557   3.574   3.592   3.593   3.605   3.615
  3.623   3.627   3.708   3.753   3.874   3.894   3.919   3.930
  3.943   3.951   3.954   3.967   3.978   4.002   4.004   4.013
  4.027   4.064   4.087   4.091   4.098   4.100   4.126   4.135
  4.142   4.145   4.154   4.161   4.166   4.178   4.179   4.193
  4.209   4.223   4.237   4.252   4.259   4.277   4.290   4.298
  4.303   4.318   4.328   4.348   4.371   4.377   4.396   4.413
  4.426   4.445   4.452   4.458   4.477   4.489   4.502   4.514
  4.517   4.529   4.533   4.555   4.586   4.606   4.652   4.655
  4.686   4.700   4.716   4.723   4.765   4.773   4.815   4.816
 --------------------------------------------------------------
 
          Ground-State Mulliken Net Atomic Charges

     Atom                 Charge (a.u.)
  ----------------------------------------
      1 C                     0.252420
      2 C                    -0.122217
      3 N                    -0.481013
      4 C                    -0.093643
      5 C                     0.094379
      6 C                     0.050007
      7 C                     0.073796
      8 C                     0.041050
      9 C                     0.258766
     10 N                    -0.515989
     11 N                    -0.569457
     12 C                     0.202171
     13 C                     0.247055
     14 S                     0.631534
     15 N                    -0.543928
     16 C                    -0.203153
     17 S                     0.307238
     18 C                    -0.115520
     19 C                    -0.239115
     20 S                     0.273907
     21 C                     0.160537
     22 C                     0.067808
     23 C                    -0.296119
     24 C                    -0.082560
     25 N                    -0.431446
     26 S                     0.265821
     27 C                     0.140716
     28 C                    -0.314356
     29 C                    -0.215735
     30 H                     0.097562
     31 H                     0.103527
     32 H                     0.116734
     33 H                     0.107514
     34 H                     0.131339
     35 H                     0.120569
     36 H                     0.112054
     37 H                     0.130144
     38 H                     0.114276
     39 C                    -0.183939
     40 H                     0.093136
     41 H                     0.093918
     42 H                     0.122747
     43 C                    -0.196287
     44 H                     0.087715
     45 C                    -0.172622
     46 H                     0.103771
     47 H                     0.101784
     48 H                     0.098862
     49 C                    -0.187262
     50 H                     0.097536
     51 C                    -0.325288
     52 H                     0.091896
     53 H                     0.106242
     54 H                     0.099575
     55 H                     0.099322
     56 C                     0.294065
     57 C                    -0.113381
     58 N                    -0.491256
     59 C                    -0.089718
     60 C                     0.102250
     61 C                     0.012639
     62 C                    -0.018106
     63 C                     0.062220
     64 C                     0.230696
     65 N                    -0.509360
     66 N                    -0.569302
     67 C                     0.217744
     68 C                     0.313029
     69 S                     0.634227
     70 N                    -0.557809
     71 C                    -0.215079
     72 S                     0.353656
     73 C                    -0.111253
     74 C                    -0.225800
     75 S                     0.256682
     76 C                     0.119948
     77 C                     0.068800
     78 C                    -0.304034
     79 C                    -0.076093
     80 N                    -0.421740
     81 S                     0.286080
     82 C                     0.120114
     83 C                    -0.325546
     84 C                    -0.248477
     85 H                     0.094831
     86 H                     0.097693
     87 H                     0.106331
     88 H                     0.120683
     89 H                     0.135973
     90 H                     0.111479
     91 H                     0.120680
     92 H                     0.133395
     93 H                     0.112868
     94 C                    -0.167649
     95 H                     0.117561
     96 H                     0.130136
     97 H                     0.103647
     98 C                    -0.193185
     99 H                     0.085947
    100 C                    -0.178236
    101 H                     0.083715
    102 H                     0.100224
    103 H                     0.091435
    104 C                    -0.184326
    105 H                     0.092469
    106 C                    -0.308845
    107 H                     0.091784
    108 H                     0.100183
    109 H                     0.094264
    110 H                     0.103973
  ----------------------------------------
  Sum of atomic charges =     0.000000

 -----------------------------------------------------------------
                    Cartesian Multipole Moments
 -----------------------------------------------------------------
    Charge (ESU x 10^10)
                 0.0000
    Dipole Moment (Debye)
         X       2.1359      Y      -1.3261      Z       1.6155
       Tot       2.9884
    Quadrupole Moments (Debye-Ang)
        XX    -396.9448     XY      17.2965     YY    -427.5135
        XZ       9.5296     YZ      10.5116     ZZ    -447.4293
    Octopole Moments (Debye-Ang^2)
       XXX     728.0102    XXY     -75.2119    XYY      39.2667
       YYY      17.1015    XXZ     180.9319    XYZ     -49.5425
       YYZ     105.1465    XZZ     -29.7473    YZZ     -22.9019
       ZZZ       1.8683
    Hexadecapole Moments (Debye-Ang^3)
      XXXX  -63148.8676   XXXY    -689.9939   XXYY  -15720.5053
      XYYY     154.6630   YYYY  -35764.4851   XXXZ    1256.0299
      XXYZ    -329.8093   XYYZ     552.7019   YYYZ     537.5162
      XXZZ  -12788.4679   XYZZ     -37.5637   YYZZ   -7192.4094
      XZZZ     -33.6294   YZZZ      77.8668   ZZZZ   -6759.9325
 -----------------------------------------------------------------
Archival summary:
1\1\mn246\SP\ProcedureUnspecified\6-31G**\8105042\afmv_a\SatOct1301:11:342018SatOct1301:11:342018\0\\#,ProcedureUnspecified,6-31G**,\\0,1\S\N,1,1.60791\C,2,1.32373,1,110.004\C,3,1.34458,2,109.584,1,-3.61616,0\N,4,1.36405,3,118.816,2,6.57565,0\C,4,1.40785,3,117.739,2,-164.978,0\C,3,1.43779,2,127.821,1,177.842,0\N,7,1.30538,3,119.594,2,173.754,0\C,8,1.41282,7,120.556,3,-1.50224,0\H,9,1.08879,8,116.93,7,-175.423,0\C,7,1.46823,3,130.585,2,-9.02918,0\C,11,1.33754,7,125.248,3,-34.2929,0\C,12,1.38496,11,116.959,7,-164.68,0\C,13,1.39524,12,112.149,11,2.96331,0\C,13,1.4494,12,114.165,11,166.921,0\H,15,1.08409,13,125.284,12,-171.45,0\C,15,1.3948,13,112.095,12,-4.63894,0\H,17,1.0823,15,132.029,13,-168.776,0\C,14,1.47722,13,127.66,12,172.062,0\N,19,1.31267,14,115.432,13,-172.243,0\C,20,1.37263,19,112.37,14,175.52,0\H,21,1.08213,20,111.576,19,-179.316,0\C,21,1.38892,20,111.68,19,5.86185,0\H,23,1.08156,21,124.471,20,179.084,0\C,6,1.51311,4,120.2,3,177.365,0\C,25,1.40804,6,122.15,4,53.4252,0\H,26,1.08882,25,124.949,6,-10.1411,0\N,26,1.33143,25,123.869,6,171.212,0\C,28,1.33374,26,120.155,25,-1.27214,0\C,29,1.40167,28,121.033,26,-4.46556,0\H,30,1.08595,29,119.18,28,-176.226,0\C,30,1.36033,29,120.037,28,2.07681,0\H,32,1.08585,30,122.295,29,-167.215,0\C,29,1.5068,28,118.098,26,-179.657,0\H,34,1.09608,29,107.057,28,98.3193,0\H,34,1.09681,29,106.361,28,-144.705,0\C,34,1.51549,29,116.257,28,-30.6707,0\H,37,1.09656,34,110.847,29,62.8888,0\H,37,1.09684,34,112.043,29,-63.8273,0\C,37,1.52509,34,113.859,29,179.46,0\H,40,1.09656,37,117.795,34,48.5418,0\H,40,1.0966,37,115.186,34,-65.973,0\C,40,1.58139,37,106.908,34,172.814,0\H,43,1.09634,40,104.599,37,-81.7307,0\H,43,1.09673,40,114.127,37,37.0636,0\C,43,1.55412,40,109.966,37,159.845,0\H,46,1.09675,43,113.562,40,41.0253,0\H,46,1.09713,43,107.535,40,-79.2293,0\C,46,1.53065,43,107.347,40,164.566,0\H,49,1.09682,46,108.88,43,54.9343,0\H,49,1.09727,46,109.983,43,177.408,0\H,49,1.09734,46,103.085,43,-61.5963,0\S,23,1.70853,21,112.717,20,-7.83908,0\S,14,1.76132,13,109.861,12,-6.87759,0\S,12,1.76554,11,129.188,7,-1.82107,0\H,31,2.26646,30,149.783,29,-171.477,0\C,56,1.09791,31,127.622,30,145.97,0\H,57,1.09665,56,108.181,31,-143.166,0\C,57,1.56223,56,111.052,31,100.006,0\H,59,1.09664,57,118.138,56,173.909,0\H,59,1.09668,57,109.933,56,-66.9094,0\H,59,1.09716,57,112.769,56,46.9548,0\C,57,1.57811,56,108.051,31,-21.2992,0\H,63,1.09696,57,109.318,56,61.6066,0\H,63,1.09719,57,106.21,56,-174.217,0\C,63,1.56461,57,114.154,56,-56.1574,0\H,66,1.09663,63,119.814,57,55.2082,0\H,66,1.09725,63,108.097,57,-62.6641,0\C,66,1.58577,63,104.643,57,-178.315,0\H,69,1.0969,66,108.469,63,-81.1218,0\H,69,1.0969,66,113.43,63,31.6257,0\C,69,1.50895,66,110.582,63,158.427,0\H,72,1.09684,69,116.519,66,-156.681,0\H,72,1.09685,69,109.534,66,-38.2165,0\C,72,1.52268,69,108.44,66,83.8521,0\N,75,1.35941,72,114.647,69,73.0099,0\C,76,1.3776,75,120.299,72,-166.778,0\H,77,1.09038,76,115.27,75,-174.473,0\C,75,1.42902,72,123.297,69,-96.6484,0\H,79,1.08586,75,119.768,72,2.43458,0\C,79,1.42304,75,116.741,72,171.875,0\H,81,1.08575,79,119.081,75,-170.664,0\C,81,1.38077,79,122.929,75,-8.7081,0\C,83,1.44806,81,119.97,79,-169.585,0\C,84,1.41793,83,124.363,81,-39.2552,0\H,85,1.0892,84,119.296,83,-9.07294,0\N,85,1.34401,84,126.327,83,179.22,0\C,87,1.3359,85,117.744,84,-5.27742,0\C,88,1.40706,87,122.56,85,5.48617,0\N,89,1.3625,88,126.78,87,-175.041,0\C,89,1.41132,88,118.484,87,-0.730902,0\N,91,1.30035,89,113.559,88,-175.605,0\C,88,1.45926,87,113.749,85,-174.911,0\C,93,1.38415,88,123.662,87,-139.007,0\C,94,1.3642,93,114.621,88,-177.659,0\C,95,1.38262,94,116.563,93,-8.67512,0\C,96,1.42247,95,125.348,94,173.023,0\N,97,1.30573,96,114.896,95,23.8478,0\C,98,1.35313,97,108.747,96,-165.982,0\H,99,1.08137,98,121.688,97,-178.435,0\C,99,1.33826,98,115.9,97,2.68824,0\H,101,1.0827,99,132.771,98,-168.973,0\C,95,1.44311,94,107.88,93,-179.35,0\H,103,1.08356,95,124.21,94,169.548,0\C,103,1.41241,95,112.764,94,-1.27659,0\H,105,1.08183,103,132.87,95,174.362,0\S,90,1.62041,89,105.149,88,174.902,0\S,94,1.69473,93,127.665,88,10.7091,0\S,97,1.69674,96,122.039,95,-132.67,0\S,96,1.73133,95,106.749,94,6.97867,0\\\@

 Total job time:  96.51s(wall), 1166.93s(cpu) 
 Sat Oct 13 01:11:34 2018

        *************************************************************
        *                                                           *
        *  Thank you very much for using Q-Chem.  Have a nice day.  *
        *                                                           *
        *************************************************************


