
Running Job 1 of 1 ./6/56.qcin
qchem ./6/56.qcin_37040.0 /tmpu/cab_g/afmv_a/scratch_qchem/qchem37040/ 1
/tmpu/appuserlic/qchem4.4/serial-multicore/exe/qcprog.exe_s ./6/56.qcin_37040.0 /tmpu/cab_g/afmv_a/scratch_qchem/qchem37040/
Check license passed

                  Welcome to Q-Chem
     A Quantum Leap Into The Future Of Chemistry


 Q-Chem 4.4, Q-Chem, Inc., Pleasanton, CA (2016)

 Y. Shao,  Z. Gan,  E. Epifanovsky,  A. T. B. Gilbert,  M. Wormit,  
 J. Kussmann,  A. W. Lange,  A. Behn,  J. Deng,  X. Feng,  D. Ghosh,  
 M. Goldey,  P. R. Horn,  L. D. Jacobson,  I. Kaliman,  F. Rob,  
 R. Z. Khaliullin,  T. Kus,  A. Landau,  J. Liu,  E. I. Proynov,  Y. M. Rhee,  
 R. M. Richard,  M. A. Rohrdanz,  R. P. Steele,  E. J. Sundstrom,  
 H. L. Woodcock III,  P. M. Zimmerman,  D. Zuev,  B. Albrecht,  E. Alguire,  
 B. Austin,  S. A. Baeppler,  G. J. O. Beran,  Y. A. Bernard,  E. Berquist,  
 K. Brandhorst,  K. B. Bravaya,  S. T. Brown,  D. Casanova,  C.-M. Chang,  
 Y. Chen,  S. H. Chien,  K. D. Closser,  M. P. Coons,  D. L. Crittenden,  
 S. Dasgupta,  M. Diedenhofen,  R. A. DiStasio Jr.,  H. Do,  A. D. Dutoi,  
 R. G. Edgar,  P.-T. Fang,  S. Fatehi,  Q. Feng,  L. Fusti-Molnar,  
 A. Ghysels,  A. Golubeva-Zadorozhnaya,  J. Gomes,  A. Gunina,  
 M. W. D. Hanson-Heine,  P. H. P. Harbach,  A. W. Hauser,  J. E. Herr,  
 E. G. Hohenstein,  Z. C. Holden,  K. Hui,  T.-C. Jagau,  H. Ji,  B. Kaduk,  
 K. Khistyaev,  Jaehoon Kim,  Jihan Kim,  R. A. King,  P. Klunzinger,  
 K. Koh,  D. Kosenkov,  T. Kowalczyk,  C. M. Krauter,  A. Kunitsa,  
 K. U. Lao,  A. Laurent,  K. V. Lawler,  J. Lee,  D. Lefrancois,  S. Lehtola,  
 S. V. Levchenko,  C. Y. Lin,  Y.-S. Lin,  F. Liu,  E. Livshits,  
 R. C. Lochan,  A. Luenser,  P. Manohar,  S. F. Manzer,  S.-P. Mao,  Y. Mao,  
 N. Mardirossian,  A. V. Marenich,  L. A. Martinez-Martinez,  S. A. Maurer,  
 N. J. Mayhall,  J.-M. Mewes,  A. F. Morrison,  K. Nanda,  T. S. Nguyen-Beck,  
 C. M. Oana,  R. Olivares-Amaya,  D. P. O'Neill,  J. A. Parkhill,  
 T. M. Perrine,  R. Peverati,  P. A. Pieniazek,  F. Plasser,  A. Prociuk,  
 D. R. Rehn,  E. Rosta,  N. J. Russ,  N. Sergueev,  S. M. Sharada,  
 S. Sharma,  D. W. Small,  A. Sodt,  T. Stauch,  T. Stein,  D. Stuck,  
 Y.-C. Su,  A. J. W. Thom,  T. Tsuchimochi,  L. Vogt,  O. Vydrov,  T. Wang,  
 M. A. Watson,  J. Wenzel,  A. White,  C. F. Williams,  V. Vanovschi,  
 K. Yao,  S. Yeganeh,  S. R. Yost,  Z.-Q. You,  I. Y. Zhang,  X. Zhang,  
 Y. Zhao,  B. R. Brooks,  G. K. L. Chan,  D. M. Chipman,  C. J. Cramer,  
 W. A. Goddard III,  M. S. Gordon,  W. J. Hehre,  A. Klamt,  
 H. F. Schaefer III,  M. W. Schmidt,  C. D. Sherrill,  D. G. Truhlar,  
 A. Warshel,  X. Xu,  A. Aspuru-Guzik,  R. Baer,  A. T. Bell,  N. A. Besley,  
 J.-D. Chai,  A. Dreuw,  B. D. Dunietz,  T. R. Furlani,  S. R. Gwaltney,  
 C.-P. Hsu,  Y. Jung,  J. Kong,  D. S. Lambrecht,  W. Liang,  C. Ochsenfeld,  
 V. A. Rassolov,  L. V. Slipchenko,  J. E. Subotnik,  T. Van Voorhis,  
 J. M. Herbert,  A. I. Krylov,  P. M. W. Gill,  M. Head-Gordon

 Contributors to earlier versions of Q-Chem not listed above: 
 R. D. Adamson,  J. Baker,  E. F. C. Byrd,  A. K. Chakraborty,  C.-L. Cheng,  
 H. Dachsel,  R. J. Doerksen,  G. Hawkins,  A. Heyden,  S. Hirata,  
 G. Kedziora,  F. J. Keil,  C. Kelley,  P. P. Korambath,  W. Kurlancheek,  
 A. M. Lee,  M. S. Lee,  D. Liotard,  I. Lotan,  P. E. Maslen,  N. Nair,  
 D. Neuhauser,  R. Olson,  B. Peters,  J. Ritchie,  N. E. Schultz,  
 N. Shenvi,  A. C. Simmonett,  K. S. Thanthiriwatte,  Q. Wu,  W. Zhang

 Please cite Q-Chem as follows:
 Y. Shao et al., Mol. Phys. 113, 184-215 (2015)
 DOI: 10.1080/00268976.2014.952696

 Q-Chem 4.4.2 for Intel X86 Linux

 Parts of Q-Chem use Armadillo 5.200.1 (Boston Tea Smuggler).
 http://arma.sourceforge.net/

 Q-Chem begins on Sat Oct 13 01:17:35 2018  

Host: 
0

     Scratch files written to /tmpu/cab_g/afmv_a/scratch_qchem/qchem37040//
 Dec716 11556_ 22328  22283 4050   
Processing $rem in /tmpu/appuserlic/qchem4.4/serial-multicore/config/preferences.
 MEM_TOTAL  2000 
FILE_GEOM_ORG=        593

Checking the input file for inconsistencies... 	...done.

--------------------------------------------------------------
User input:
--------------------------------------------------------------
$comment
SP
$end

$rem
MEM_STATIC 5000
MEM_TOTAL 20000
JOBTYPE SP
EXCHANGE B3LYP
BASIS 6-31g(d,p)
$end

$molecule
0 1
C          10.797000      1.155000     -8.930000
C           9.849000      1.855000     -9.637000
N          11.949000      1.657000     -8.503000
C          10.071000      3.199000     -9.963000
C          12.130000      2.951000     -8.805000
C          11.363000      3.696000     -9.626000
C          11.791000      5.067000    -10.059000
C          10.927000      6.089000    -10.039000
C          13.156000      5.511000    -10.221000
N          11.188000      7.407000    -10.053000
N          14.189000      4.638000    -10.264000
C          13.447000      6.850000    -10.252000
C          12.436000      7.824000    -10.206000
S          15.490000      5.642000    -10.270000
N          14.773000      7.108000    -10.410000
C          12.663000      9.265000    -10.202000
S          14.227000     10.018000    -10.659000
C          11.767000     10.297000     -9.869000
C          13.636000     11.636000    -10.394000
S          10.175000     10.172000     -9.256000
C          12.316000     11.563000    -10.024000
C          14.354000     12.860000    -10.560000
C          10.222000     11.890000     -9.256000
C          11.410000     12.479000     -9.632000
N          13.729000     13.961000    -10.915000
S          16.022000     13.000000    -10.005000
C          14.613000     15.045000    -10.725000
C          15.878000     14.724000    -10.206000
C          10.601000     -0.309000     -8.638000
H           8.946000      1.395000    -10.027000
H           9.311000      3.862000    -10.366000
H          13.092000      3.311000     -8.445000
H           9.870000      5.916000     -9.844000
H           9.399000     12.500000     -8.908000
H          11.549000     13.553000     -9.685000
H          14.286000     16.023000    -11.052000
H          16.792000     15.297000    -10.124000
H          10.642000     -0.377000     -7.544000
C          11.663000     -1.301000     -9.268000
H           9.604000     -0.632000     -8.963000
H          12.665000     -0.943000     -9.002000
H          11.603000     -1.193000    -10.358000
C          11.486000     -2.752000     -8.736000
H          10.506000     -3.060000     -9.119000
C          11.678000     -3.023000     -7.227000
H          12.165000     -3.361000     -9.345000
H          10.921000     -2.543000     -6.595000
H          12.666000     -2.587000     -7.035000
C          11.719000     -4.478000     -6.812000
H          11.666000     -4.601000     -5.723000
C          12.952000     -5.279000     -7.295000
H          10.803000     -4.954000     -7.185000
H          12.830000     -6.369000     -7.263000
H          13.805000     -5.022000     -6.654000
H          13.332000     -4.904000     -8.253000
C           8.808000      0.305000     -5.524000
C           8.683000     -1.040000     -5.395000
N           8.158000      0.922000     -6.540000
C           7.916000     -1.843000     -6.286000
C           7.456000      0.193000     -7.464000
C           7.261000     -1.252000     -7.336000
C           6.514000     -2.135000     -8.328000
C           6.254000     -1.734000     -9.649000
C           5.838000     -3.341000     -7.966000
N           5.528000     -2.349000    -10.578000
N           5.891000     -3.968000     -6.763000
C           5.022000     -4.034000     -8.865000
C           4.903000     -3.526000    -10.208000
S           5.106000     -5.334000     -6.889000
N           4.456000     -5.165000     -8.330000
C           3.956000     -4.086000    -11.165000
S           2.614000     -5.240000    -10.815000
C           4.002000     -3.875000    -12.519000
C           2.060000     -5.234000    -12.495000
S           5.109000     -3.027000    -13.581000
C           3.021000     -4.553000    -13.205000
C           0.913000     -5.901000    -13.013000
C           4.119000     -3.611000    -14.977000
C           3.086000     -4.377000    -14.559000
N           0.951000     -6.620000    -14.134000
S          -0.599000     -5.856000    -12.244000
C          -0.189000     -7.213000    -14.365000
C          -1.125000     -6.985000    -13.380000
C           9.828000      1.089000     -4.613000
H           9.366000     -1.419000     -4.641000
H           7.872000     -2.920000     -6.161000
H           7.009000      0.788000     -8.258000
H           6.863000     -0.915000    -10.029000
H           4.443000     -3.248000    -15.944000
H           2.433000     -4.880000    -15.264000
H          -0.233000     -7.756000    -15.300000
H          -2.077000     -7.443000    -13.146000
H          10.807000      0.603000     -4.517000
C           9.301000      1.410000     -3.186000
H          10.147000      1.928000     -5.244000
H           8.444000      2.090000     -3.263000
H          10.195000      1.836000     -2.713000
C           8.904000      0.201000     -2.298000
H           8.022000     -0.275000     -2.745000
C           8.707000      0.698000     -0.824000
H           9.692000     -0.562000     -2.308000
H           7.920000      1.462000     -0.796000
H           9.640000      1.207000     -0.551000
C           8.497000     -0.411000      0.105000
H           8.241000      0.069000      1.058000
C           9.772000     -1.176000      0.455000
H           7.724000     -1.102000     -0.252000
H          10.338000     -1.589000     -0.390000
H           9.514000     -2.076000      1.028000
H          10.466000     -0.548000      1.026000
$end

--------------------------------------------------------------
 ----------------------------------------------------------------
             Standard Nuclear Orientation (Angstroms)
    I     Atom           X                Y                Z
 ----------------------------------------------------------------
    1      C      -0.6387038338     1.0645746596    -1.5335666449
    2      C      -0.6780391232    -0.1054308838    -0.8137800352
    3      N      -1.7051812830     1.7227825562    -1.9704021003
    4      C      -1.9106357056    -0.6913863819    -0.4987279452
    5      C      -2.8745170068     1.1572241602    -1.6369374605
    6      C      -3.0457724923    -0.0606107813    -1.0847557749
    7      C      -4.4091672031    -0.6740075985    -0.9614139443
    8      C      -4.7931068242    -1.2584367377     0.1798191382
    9      C      -5.5197140980    -0.4447033072    -1.8562380255
   10      N      -6.0378336623    -1.5458900808     0.5963124443
   11      N      -5.3518226332     0.1390915482    -3.0653960065
   12      C      -6.7977122387    -0.7422055584    -1.4602883283
   13      C      -7.0622449562    -1.3436835506    -0.2188538088
   14      S      -6.9022345319     0.3262423825    -3.5771093145
   15      N      -7.7314976513    -0.4713282839    -2.4113268688
   16      C      -8.3920358578    -1.6621075032     0.2893669548
   17      S      -9.8579164932    -1.7089042586    -0.7455040644
   18      C      -8.7794839538    -1.9831535209     1.6029659908
   19      C     -10.8995082189    -2.1436815019     0.5824588213
   20      S      -7.8300257907    -1.9844811638     3.0257749850
   21      C     -10.1323318873    -2.2761344030     1.7131779311
   22      C     -12.3090849166    -2.3729934648     0.5404402915
   23      C      -9.2930911763    -2.4499115464     3.7981396893
   24      C     -10.4196434745    -2.5158674131     3.0068301779
   25      N     -12.8745482595    -3.2253492788     1.3666314159
   26      S     -13.3597034327    -1.3112796756    -0.3970102745
   27      C     -14.2720202427    -3.0387581963     1.2968616211
   28      C     -14.7153546281    -2.0264916323     0.4300294424
   29      C       0.6814617924     1.6635365293    -1.9402402218
   30      H       0.2157959615    -0.6517761070    -0.5279921096
   31      H      -2.0339631069    -1.5125595453     0.2013027597
   32      H      -3.7157031446     1.7265444369    -2.0279928326
   33      H      -4.0788649605    -1.4222354074     0.9849474236
   34      H      -9.3679454740    -2.6124810569     4.8651453071
   35      H     -11.3920114889    -2.8139001481     3.3827063988
   36      H     -14.8984782069    -3.7230229034     1.8533454303
   37      H     -15.6973220501    -1.7812994925     0.0478386565
   38      H       0.6718465698     2.6687788853    -1.5014505761
   39      C       0.9567455121     1.7702303314    -3.4964032294
   40      H       1.5093979076     1.1021292089    -1.4893448795
   41      H       0.0991739930     2.2712533027    -3.9616677476
   42      H       0.9431110965     0.7503737105    -3.9002232085
   43      C       2.2459786768     2.5855279668    -3.8012336951
   44      H       3.0544176719     1.9746184364    -3.3827018125
   45      C       2.3069924959     4.0712755476    -3.3814510847
   46      H       2.4091772177     2.4635974567    -4.8788710121
   47      H       2.2934021611     4.2214114554    -2.2951051398
   48      H       1.3947920707     4.4795901542    -3.8334174179
   49      C       3.4852126972     4.8633386627    -3.9062026250
   50      H       3.5731610403     5.8453082688    -3.4246844201
   51      C       3.5013609310     5.1092460970    -5.4340925975
   52      H       4.3988499002     4.3318380223    -3.6103392602
   53      H       4.4786765343     5.3993306748    -5.8399412752
   54      H       2.7945593955     5.9171995943    -5.6625258166
   55      H       3.0186742675     4.2920472156    -5.9836274674
   56      C       1.0215675562     3.6015622648     1.1285095754
   57      C       2.2099604303     4.0482909427     0.6495034531
   58      N       0.9013598063     2.2892435038     1.4428574188
   59      C       3.3366870067     3.2031344830     0.4417132207
   60      C       1.9319989992     1.4177120030     1.2057146407
   61      C       3.2423346924     1.8661121496     0.7320146515
   62      C       4.4291426532     0.9610594765     0.4252109308
   63      C       4.2889249209    -0.4191092822     0.2040431549
   64      C       5.7928145524     1.3746305658     0.5339027221
   65      N       5.2374952073    -1.3358542691     0.0363081233
   66      N       6.2399458869     2.6380316918     0.7507855583
   67      C       6.8545955221     0.4736031216     0.4111154383
   68      C       6.5487236417    -0.9047267130     0.1238468183
   69      S       7.8167006698     2.6235741364     0.6426544634
   70      N       8.0884566578     1.0598050044     0.5514580564
   71      C       7.5731224080    -1.9423792161     0.1357820796
   72      S       9.2575584728    -1.7969667161     0.7656315447
   73      C       7.4260565809    -3.1868716048    -0.4206020835
   74      C       9.6228904839    -3.4921080425     0.4158024358
   75      S       6.1547135654    -3.9641104340    -1.3436317360
   76      C       8.5568261755    -3.9632013917    -0.3142386224
   77      C      10.8283561252    -4.1829296561     0.7295540665
   78      C       7.2403818168    -5.4004224467    -1.5118704062
   79      C       8.4286653634    -5.1909330107    -0.9014071485
   80      N      11.4543645535    -4.9622668694    -0.1512370300
   81      S      11.5855925129    -4.0643442216     2.2435093326
   82      C      12.5825206319    -5.4165398565     0.3236418136
   83      C      12.8633107973    -4.9475304866     1.5883520943
   84      C      -0.2282641567     4.5620830519     1.1457579560
   85      H       2.1235807145     5.0732049381     0.3020328116
   86      H       4.2567702417     3.6005750347     0.0258071634
   87      H       1.7103622199     0.3826882051     1.4584454772
   88      H       3.2863658833    -0.7643904402    -0.0443482660
   89      H       6.7986867467    -6.2426642630    -2.0289469847
   90      H       9.2346221507    -5.9136598222    -0.9688060575
   91      H      13.0985663151    -6.1101007391    -0.3272653647
   92      H      13.7570761721    -4.9583581923     2.1981801156
   93      H      -0.3602712001     5.1408742563     0.2230294574
   94      C      -0.2665133697     5.5465188454     2.3484724551
   95      H      -1.0790297514     3.8825941377     1.0103485084
   96      H      -0.3642253764     4.9745968012     3.2791364863
   97      H      -1.1303325596     6.1728144509     2.0915459645
   98      C       0.9260614577     6.5296394074     2.4865783631
   99      H       1.8241108488     5.9448462124     2.7228688839
  100      C       0.5584090073     7.6267176063     3.5447584523
  101      H       1.1344144980     7.0224767645     1.5290224378
  102      H       0.3479472621     7.1499434060     4.5102848453
  103      H      -0.3880917481     8.0663748718     3.2057351361
  104      C       1.5635195836     8.6863478367     3.6076750978
  105      H       1.2633260571     9.3041701175     4.4634346879
  106      C       1.4930173450     9.6769492503     2.4470337778
  107      H       2.5782844697     8.2815968240     3.7019504579
  108      H       1.5634690992     9.2492444854     1.4385422387
  109      H       2.3638384877    10.3443311265     2.4811654162
  110      H       0.5654852429    10.2605605923     2.4808420778
 ----------------------------------------------------------------
 Molecular Point Group                 C1    NOp =  1
 Largest Abelian Subgroup              C1    NOp =  1
 Nuclear Repulsion Energy = 10869.1970624678 hartrees
 There are      270 alpha and      270 beta electrons
 Requested basis set is 6-31G(d,p)
 There are 406 shells and 1262 basis functions

 Total QAlloc Memory Limit  20000 MB
 Mega-Array Size      4888 MB
 MEM_STATIC part      5000 MB
 A cutoff of  1.0D-08 yielded  14202 shell pairs
 There are    142981 function pairs
 
 -------------------------------------------------------
 OpenMP Integral Computing Module                       
 Release: version 1.0, May 2013, Q-Chem Inc. Pittsburgh 
 -------------------------------------------------------
 Integral Job Info:
 Integral job number is                      11
 Integral operator is                         1
 short-range coefficients                     0
 long-range coefficients              100000000
 Omega coefficients                           0
 if combine SR and LR in K                    0
 Integral screening is                        0
 Integral computing path is                   2
 max size of driver memory is            800000
 size of driver memory is                593474
 size of scratch memory is             15166112
 max col of scratch BK array               1296
 max len of scratch array in speh3          155
 max len of scratch index in speh4           18
 max int batch size is                      520
 min int batch size is                       52
 fixed nKL is                                52
 max L of basis functions is                  2
 order of int derivative is                   0
 number of shells is                        406
 number of basis is                        1262
 number of cartesian basis is              1262
 number of contracted shell pairs         14202
 number of primitive shell pairs          44492
 maxK2 (contraction) of shell pair           36
 max number of K2 of shell pair               1
 max number of CS2 of shell pair           1377
 max number of PS2 of shell pair           7890
 mem total for path MDJ                  292648
 -------------------------------------------------------
 Smallest overlap matrix eigenvalue = 3.89E-04

 Scale SEOQF with 1.000000e-02/1.000000e-02/1.000000e-02

 Standard Electronic Orientation quadrupole field applied
 Nucleus-field energy     =     0.0000001332 hartrees
 Guess from superposition of atomic densities
 Warning:  Energy on first SCF cycle will be non-variational
 A restricted hybrid HF-DFT SCF calculation will be
 performed using Pulay DIIS extrapolation
 Exchange:     0.2000 Hartree-Fock + 0.0800 Slater + 0.7200 B88
 Correlation:  0.1900 VWN1RPA + 0.8100 LYP
 Using SG-1 standard quadrature grid
 SCF converges when DIIS error is below 1.0E-05
 using 16 threads for integral computing 
 -------------------------------------------------------
 OpenMP BLAS3 based DFT computing Module                
 Release: version 1.0, May 2013, Q-Chem Inc. Pittsburgh 
 -------------------------------------------------------
 ---------------------------------------
  Cycle       Energy         DIIS Error
 ---------------------------------------
    1   -5680.9444653233      2.19E-02
    2   -5662.4372678400      2.21E-03
    3   -5660.7627492340      3.50E-03
    4   -5663.3245753814      8.98E-04
    5   -5663.4708042651      3.87E-04
    6   -5663.4860809953      2.68E-04
    7   -5663.4993222171      7.67E-05
    8   -5663.5003765927      2.57E-05
    9   -5663.5004991465      9.83E-06 Convergence criterion met
 ---------------------------------------
 SCF time:  CPU 1016.54 s  wall 83.46 s
 SCF   energy in the final basis set = -5663.5004991465
 Total energy in the final basis set = -5663.5004991465
 
 --------------------------------------------------------------
 
                    Orbital Energies (a.u.)
 --------------------------------------------------------------
 
 Alpha MOs
 -- Occupied --
-88.995 -88.984 -88.933 -88.926 -88.922 -88.920 -88.912 -88.907
-14.387 -14.386 -14.384 -14.378 -14.354 -14.346 -14.342 -14.341
-14.330 -14.320 -10.268 -10.266 -10.265 -10.259 -10.258 -10.256
-10.253 -10.250 -10.242 -10.239 -10.239 -10.238 -10.237 -10.235
-10.233 -10.231 -10.230 -10.229 -10.228 -10.227 -10.225 -10.224
-10.223 -10.223 -10.222 -10.215 -10.215 -10.212 -10.210 -10.210
-10.206 -10.205 -10.199 -10.194 -10.191 -10.190 -10.188 -10.187
-10.183 -10.181 -10.178 -10.177 -10.176 -10.175 -10.174 -10.174
-10.174 -10.172 -10.171 -10.170  -8.052  -8.040  -7.996  -7.985
 -7.984  -7.979  -7.972  -7.966  -6.017  -6.011  -6.010  -6.005
 -5.999  -5.998  -5.959  -5.956  -5.953  -5.949  -5.947  -5.945
 -5.944  -5.944  -5.942  -5.941  -5.940  -5.937  -5.936  -5.933
 -5.931  -5.929  -5.927  -5.922  -1.052  -1.038  -0.992  -0.965
 -0.963  -0.957  -0.943  -0.929  -0.919  -0.919  -0.906  -0.904
 -0.850  -0.846  -0.834  -0.833  -0.827  -0.813  -0.810  -0.807
 -0.805  -0.800  -0.798  -0.796  -0.785  -0.782  -0.769  -0.766
 -0.751  -0.750  -0.743  -0.742  -0.725  -0.718  -0.709  -0.706
 -0.696  -0.690  -0.675  -0.670  -0.658  -0.654  -0.649  -0.643
 -0.637  -0.636  -0.629  -0.623  -0.613  -0.609  -0.604  -0.596
 -0.596  -0.591  -0.581  -0.581  -0.578  -0.575  -0.565  -0.559
 -0.555  -0.554  -0.541  -0.541  -0.530  -0.524  -0.522  -0.511
 -0.510  -0.507  -0.501  -0.497  -0.488  -0.483  -0.478  -0.477
 -0.472  -0.471  -0.469  -0.465  -0.460  -0.452  -0.449  -0.447
 -0.443  -0.443  -0.441  -0.440  -0.438  -0.437  -0.433  -0.433
 -0.428  -0.423  -0.422  -0.420  -0.419  -0.418  -0.416  -0.414
 -0.411  -0.409  -0.405  -0.404  -0.403  -0.401  -0.396  -0.395
 -0.394  -0.393  -0.391  -0.391  -0.387  -0.386  -0.384  -0.381
 -0.378  -0.374  -0.373  -0.367  -0.366  -0.364  -0.360  -0.357
 -0.350  -0.350  -0.350  -0.346  -0.346  -0.341  -0.340  -0.337
 -0.336  -0.334  -0.333  -0.333  -0.332  -0.324  -0.322  -0.316
 -0.314  -0.312  -0.308  -0.307  -0.305  -0.303  -0.302  -0.299
 -0.299  -0.298  -0.293  -0.289  -0.288  -0.286  -0.285  -0.281
 -0.280  -0.274  -0.268  -0.264  -0.255  -0.253  -0.252  -0.249
 -0.245  -0.242  -0.234  -0.227  -0.197  -0.191
 -- Virtual --
 -0.114  -0.108  -0.072  -0.069  -0.039  -0.034  -0.030  -0.025
 -0.022  -0.015  -0.013  -0.005  -0.004   0.001   0.003   0.007
  0.011   0.015   0.015   0.024   0.034   0.035   0.036   0.042
  0.046   0.050   0.064   0.069   0.074   0.083   0.086   0.090
  0.092   0.099   0.104   0.106   0.109   0.109   0.111   0.114
  0.114   0.117   0.121   0.124   0.125   0.127   0.127   0.128
  0.131   0.132   0.135   0.136   0.141   0.143   0.146   0.149
  0.152   0.155   0.157   0.157   0.161   0.163   0.163   0.168
  0.169   0.172   0.173   0.178   0.179   0.183   0.184   0.186
  0.187   0.190   0.193   0.195   0.196   0.198   0.204   0.205
  0.208   0.209   0.212   0.212   0.215   0.218   0.219   0.222
  0.223   0.225   0.230   0.232   0.233   0.237   0.237   0.241
  0.244   0.246   0.248   0.249   0.253   0.258   0.261   0.264
  0.265   0.270   0.273   0.273   0.275   0.276   0.279   0.279
  0.280   0.287   0.290   0.297   0.303   0.305   0.307   0.309
  0.313   0.315   0.317   0.321   0.322   0.327   0.329   0.331
  0.332   0.333   0.334   0.336   0.339   0.343   0.350   0.354
  0.357   0.359   0.363   0.364   0.365   0.366   0.367   0.370
  0.372   0.382   0.385   0.388   0.389   0.393   0.396   0.402
  0.407   0.408   0.418   0.422   0.424   0.429   0.432   0.436
  0.442   0.453   0.454   0.461   0.465   0.467   0.469   0.469
  0.475   0.479   0.484   0.487   0.493   0.496   0.498   0.500
  0.502   0.504   0.506   0.509   0.511   0.512   0.514   0.515
  0.519   0.520   0.523   0.525   0.529   0.530   0.533   0.534
  0.536   0.538   0.540   0.541   0.543   0.545   0.547   0.552
  0.553   0.556   0.558   0.560   0.561   0.564   0.565   0.569
  0.571   0.572   0.573   0.576   0.576   0.580   0.581   0.585
  0.585   0.589   0.590   0.595   0.597   0.599   0.603   0.604
  0.605   0.608   0.609   0.610   0.612   0.614   0.619   0.619
  0.621   0.622   0.626   0.627   0.628   0.631   0.632   0.634
  0.636   0.639   0.640   0.641   0.644   0.646   0.648   0.650
  0.655   0.657   0.663   0.668   0.671   0.674   0.676   0.678
  0.679   0.681   0.683   0.686   0.688   0.691   0.692   0.696
  0.697   0.700   0.706   0.707   0.709   0.715   0.720   0.722
  0.723   0.732   0.735   0.738   0.741   0.744   0.747   0.750
  0.753   0.755   0.759   0.765   0.765   0.773   0.774   0.776
  0.779   0.781   0.785   0.787   0.788   0.791   0.792   0.794
  0.797   0.799   0.802   0.803   0.805   0.809   0.810   0.812
  0.812   0.814   0.817   0.818   0.821   0.824   0.825   0.827
  0.829   0.832   0.834   0.835   0.837   0.838   0.839   0.841
  0.843   0.843   0.846   0.847   0.850   0.853   0.854   0.858
  0.860   0.861   0.864   0.866   0.868   0.869   0.872   0.875
  0.879   0.880   0.881   0.883   0.889   0.891   0.892   0.893
  0.895   0.897   0.902   0.910   0.912   0.915   0.917   0.918
  0.919   0.921   0.925   0.927   0.929   0.934   0.937   0.940
  0.942   0.944   0.946   0.946   0.948   0.949   0.952   0.954
  0.957   0.958   0.962   0.962   0.969   0.971   0.973   0.975
  0.979   0.981   0.983   0.988   0.989   0.991   0.992   0.994
  0.997   1.000   1.004   1.006   1.007   1.008   1.014   1.016
  1.017   1.022   1.024   1.025   1.026   1.029   1.030   1.030
  1.036   1.041   1.044   1.045   1.046   1.053   1.056   1.059
  1.060   1.063   1.068   1.071   1.074   1.077   1.080   1.084
  1.084   1.088   1.094   1.098   1.099   1.103   1.107   1.109
  1.115   1.116   1.122   1.130   1.144   1.145   1.153   1.155
  1.158   1.161   1.165   1.169   1.174   1.177   1.181   1.190
  1.195   1.196   1.205   1.215   1.220   1.224   1.230   1.231
  1.243   1.249   1.251   1.257   1.260   1.269   1.271   1.275
  1.280   1.286   1.288   1.289   1.295   1.300   1.303   1.305
  1.314   1.317   1.318   1.319   1.323   1.329   1.335   1.338
  1.342   1.347   1.350   1.355   1.358   1.359   1.364   1.370
  1.371   1.376   1.380   1.387   1.392   1.396   1.402   1.407
  1.409   1.413   1.416   1.421   1.426   1.429   1.431   1.439
  1.443   1.444   1.449   1.459   1.464   1.469   1.470   1.475
  1.482   1.491   1.493   1.500   1.508   1.514   1.515   1.522
  1.526   1.535   1.537   1.540   1.565   1.566   1.572   1.575
  1.578   1.584   1.592   1.593   1.597   1.598   1.602   1.611
  1.622   1.627   1.629   1.631   1.637   1.643   1.645   1.651
  1.652   1.657   1.667   1.672   1.681   1.687   1.690   1.693
  1.697   1.698   1.698   1.705   1.711   1.721   1.722   1.725
  1.728   1.733   1.734   1.735   1.740   1.748   1.749   1.757
  1.760   1.760   1.765   1.769   1.772   1.776   1.782   1.783
  1.789   1.792   1.802   1.806   1.817   1.819   1.821   1.827
  1.828   1.832   1.835   1.840   1.843   1.845   1.846   1.849
  1.857   1.859   1.860   1.863   1.869   1.872   1.873   1.879
  1.884   1.885   1.888   1.892   1.897   1.901   1.906   1.906
  1.909   1.914   1.917   1.922   1.924   1.926   1.929   1.933
  1.936   1.945   1.949   1.956   1.959   1.961   1.963   1.967
  1.969   1.973   1.976   1.979   1.987   1.987   1.999   2.000
  2.006   2.010   2.014   2.016   2.022   2.026   2.027   2.030
  2.032   2.036   2.046   2.051   2.058   2.065   2.067   2.069
  2.076   2.078   2.081   2.084   2.091   2.095   2.098   2.113
  2.118   2.124   2.125   2.127   2.130   2.134   2.137   2.143
  2.146   2.148   2.152   2.153   2.155   2.157   2.163   2.167
  2.168   2.168   2.172   2.185   2.187   2.189   2.193   2.197
  2.200   2.203   2.209   2.216   2.220   2.223   2.227   2.229
  2.231   2.237   2.238   2.244   2.248   2.255   2.255   2.257
  2.264   2.266   2.267   2.272   2.274   2.276   2.279   2.282
  2.285   2.288   2.297   2.301   2.309   2.311   2.313   2.316
  2.319   2.324   2.325   2.326   2.328   2.334   2.345   2.347
  2.351   2.354   2.355   2.356   2.361   2.364   2.365   2.371
  2.376   2.376   2.380   2.386   2.389   2.389   2.395   2.398
  2.401   2.402   2.404   2.408   2.413   2.418   2.420   2.429
  2.433   2.436   2.437   2.442   2.448   2.451   2.454   2.458
  2.459   2.460   2.461   2.464   2.468   2.474   2.480   2.485
  2.488   2.489   2.491   2.496   2.499   2.504   2.513   2.513
  2.516   2.522   2.523   2.527   2.528   2.532   2.535   2.540
  2.544   2.549   2.551   2.559   2.560   2.564   2.571   2.574
  2.581   2.582   2.587   2.589   2.592   2.599   2.604   2.607
  2.610   2.617   2.625   2.629   2.633   2.635   2.640   2.645
  2.649   2.657   2.664   2.667   2.670   2.673   2.682   2.688
  2.689   2.697   2.700   2.706   2.708   2.713   2.714   2.719
  2.721   2.728   2.736   2.739   2.741   2.742   2.745   2.747
  2.752   2.759   2.767   2.771   2.776   2.790   2.790   2.793
  2.801   2.804   2.805   2.820   2.823   2.831   2.833   2.834
  2.843   2.851   2.855   2.857   2.863   2.872   2.874   2.876
  2.889   2.890   2.893   2.895   2.897   2.901   2.905   2.912
  2.922   2.927   2.928   2.933   2.938   2.946   2.948   2.949
  2.954   2.966   2.974   2.998   3.005   3.016   3.018   3.029
  3.043   3.049   3.065   3.093   3.100   3.106   3.129   3.142
  3.156   3.189   3.201   3.210   3.222   3.225   3.235   3.240
  3.242   3.253   3.254   3.267   3.285   3.286   3.287   3.302
  3.305   3.312   3.315   3.328   3.333   3.335   3.341   3.350
  3.358   3.365   3.376   3.388   3.398   3.410   3.426   3.440
  3.441   3.464   3.466   3.491   3.499   3.517   3.527   3.529
  3.555   3.564   3.580   3.587   3.591   3.596   3.615   3.646
  3.657   3.672   3.743   3.767   3.841   3.863   3.917   3.920
  3.946   3.951   3.954   3.967   3.968   3.980   3.982   3.987
  4.057   4.070   4.080   4.090   4.105   4.112   4.115   4.123
  4.131   4.138   4.140   4.149   4.174   4.174   4.200   4.211
  4.219   4.231   4.242   4.251   4.261   4.264   4.270   4.278
  4.290   4.302   4.338   4.356   4.373   4.383   4.396   4.410
  4.420   4.447   4.461   4.464   4.475   4.487   4.497   4.500
  4.502   4.544   4.550   4.557   4.613   4.629   4.666   4.673
  4.681   4.713   4.731   4.738   4.748   4.769   4.804   4.812
 --------------------------------------------------------------
 
          Ground-State Mulliken Net Atomic Charges

     Atom                 Charge (a.u.)
  ----------------------------------------
      1 C                     0.287414
      2 C                    -0.108559
      3 N                    -0.481962
      4 C                    -0.078203
      5 C                     0.069941
      6 C                     0.051544
      7 C                     0.077209
      8 C                     0.040696
      9 C                     0.192981
     10 N                    -0.542343
     11 N                    -0.537812
     12 C                     0.209286
     13 C                     0.327382
     14 S                     0.595231
     15 N                    -0.555329
     16 C                    -0.238464
     17 S                     0.319046
     18 C                    -0.108729
     19 C                    -0.227277
     20 S                     0.301589
     21 C                     0.201163
     22 C                     0.053490
     23 C                    -0.304042
     24 C                    -0.085869
     25 N                    -0.422978
     26 S                     0.269412
     27 C                     0.099714
     28 C                    -0.302986
     29 C                    -0.221758
     30 H                     0.084623
     31 H                     0.105806
     32 H                     0.101203
     33 H                     0.099481
     34 H                     0.113996
     35 H                     0.118085
     36 H                     0.114547
     37 H                     0.140016
     38 H                     0.122695
     39 C                    -0.189074
     40 H                     0.082972
     41 H                     0.112021
     42 H                     0.089750
     43 C                    -0.178641
     44 H                     0.085112
     45 C                    -0.174204
     46 H                     0.091401
     47 H                     0.096920
     48 H                     0.093620
     49 C                    -0.173785
     50 H                     0.089577
     51 C                    -0.325292
     52 H                     0.088738
     53 H                     0.102872
     54 H                     0.100545
     55 H                     0.106433
     56 C                     0.265322
     57 C                    -0.106173
     58 N                    -0.485880
     59 C                    -0.080704
     60 C                     0.056027
     61 C                     0.050734
     62 C                     0.057718
     63 C                     0.044414
     64 C                     0.212373
     65 N                    -0.501137
     66 N                    -0.551291
     67 C                     0.192423
     68 C                     0.266944
     69 S                     0.622010
     70 N                    -0.551287
     71 C                    -0.230182
     72 S                     0.315668
     73 C                    -0.088179
     74 C                    -0.210026
     75 S                     0.257606
     76 C                     0.163299
     77 C                     0.011633
     78 C                    -0.322114
     79 C                    -0.039790
     80 N                    -0.397784
     81 S                     0.299849
     82 C                     0.134243
     83 C                    -0.325193
     84 C                    -0.246793
     85 H                     0.086474
     86 H                     0.126418
     87 H                     0.106649
     88 H                     0.104436
     89 H                     0.132958
     90 H                     0.120888
     91 H                     0.113939
     92 H                     0.135034
     93 H                     0.107647
     94 C                    -0.170292
     95 H                     0.123153
     96 H                     0.107685
     97 H                     0.095672
     98 C                    -0.188235
     99 H                     0.099322
    100 C                    -0.161255
    101 H                     0.088899
    102 H                     0.090884
    103 H                     0.088250
    104 C                    -0.169207
    105 H                     0.092610
    106 C                    -0.321023
    107 H                     0.094149
    108 H                     0.099051
    109 H                     0.099668
    110 H                     0.103298
  ----------------------------------------
  Sum of atomic charges =     0.000000

 -----------------------------------------------------------------
                    Cartesian Multipole Moments
 -----------------------------------------------------------------
    Charge (ESU x 10^10)
                 0.0000
    Dipole Moment (Debye)
         X       2.6323      Y       0.5954      Z       1.2110
       Tot       2.9581
    Quadrupole Moments (Debye-Ang)
        XX    -349.8037     XY     -18.3434     YY    -425.6368
        XZ      13.8192     YZ      -2.4551     ZZ    -443.2503
    Octopole Moments (Debye-Ang^2)
       XXX    -137.8681    XXY    -270.5967    XYY     254.2174
       YYY      12.1466    XXZ     212.9838    XYZ     -22.1049
       YYZ       1.0385    XZZ     -40.4210    YZZ     -29.7252
       ZZZ      40.6861
    Hexadecapole Moments (Debye-Ang^3)
      XXXX -121671.7088   XXXY   -3075.6942   XXYY  -28741.7785
      XYYY   -1442.6290   YYYY  -31165.3315   XXXZ    2707.0249
      XXYZ   -1223.3043   XYYZ      20.2664   YYYZ     327.8883
      XXZZ  -26435.8937   XYZZ     -33.2133   YYZZ   -7091.7932
      XZZZ     -26.9635   YZZZ    -142.4347   ZZZZ  -10793.8294
 -----------------------------------------------------------------
Archival summary:
1\1\mn246\SP\ProcedureUnspecified\6-31G**\8105042\afmv_a\SatOct1301:19:022018SatOct1301:19:022018\0\\#,ProcedureUnspecified,6-31G**,\\0,1\S\C,1,1.769\C,2,1.37528,1,105.851\C,3,1.36694,2,127.471,1,-174.591,0\H,4,1.08464,3,123.745,2,8.49596,0\C,4,1.35225,3,114.548,2,-177.322,0\H,6,1.08251,4,134.005,3,177.461,0\C,3,1.37573,2,119.005,1,10.35,0\C,8,1.37111,3,113.12,2,-6.05463,0\C,2,1.42437,1,126.582,3,-175.065,0\N,10,1.33231,2,122.394,1,133.767,0\C,11,1.30561,10,111.659,2,-175.576,0\H,12,1.08213,11,114.6,10,-176.009,0\C,12,1.37779,11,113.05,10,1.94154,0\H,14,1.08205,12,133.021,11,166.842,0\C,9,1.45817,8,124.557,3,-177.891,0\N,16,1.38306,9,116.406,8,-26.0737,0\C,17,1.32979,16,116.962,9,-171.256,0\H,18,1.08906,17,114.163,16,-169.83,0\C,18,1.40479,17,128.753,16,-2.00926,0\C,20,1.42915,18,113.049,17,2.96155,0\N,21,1.35763,20,126.563,18,179.782,0\C,21,1.39796,20,122.109,18,-0.73655,0\N,23,1.37322,21,113.474,20,179.729,0\C,20,1.52373,18,122.515,17,173.995,0\C,25,1.37142,20,118.873,18,155.476,0\H,26,1.08512,25,119.772,20,1.63297,0\C,26,1.42372,25,119.564,20,-176.356,0\H,28,1.08565,26,125.217,25,169.241,0\C,28,1.35694,26,123.311,25,-0.0209993,0\N,30,1.35479,28,118.588,26,-0.892446,0\C,31,1.37041,30,120.607,28,3.89575,0\H,32,1.08824,31,114.3,30,177.569,0\C,30,1.57638,28,119.843,26,171.802,0\H,34,1.0972,30,103.655,28,-148.926,0\H,34,1.0972,30,114.055,28,-44.1819,0\C,34,1.5547,30,114.443,28,81.2777,0\H,37,1.09671,34,109.175,30,64.2368,0\H,37,1.09747,34,101.514,30,-173.672,0\C,37,1.55172,34,116.815,30,-59.7753,0\H,40,1.09691,37,110.668,34,-48.3705,0\H,40,1.09741,37,108.088,34,67.0317,0\C,40,1.56796,37,108.854,34,-167.674,0\H,43,1.0972,40,109.562,37,-59.4981,0\H,43,1.09731,40,105.907,37,54.7594,0\C,43,1.46186,40,112.024,37,172.772,0\H,46,1.09657,43,111.865,40,49.6632,0\H,46,1.09734,43,104.689,40,172.619,0\C,46,1.52753,43,113.931,40,-76.3248,0\H,49,1.09639,46,111.15,43,-66.4314,0\H,49,1.09768,46,109.514,43,171.473,0\H,49,1.0977,46,116.259,43,56.0906,0\S,22,1.58052,21,108.006,20,174.173,0\S,14,1.68577,12,112.372,11,-6.82238,0\S,8,1.75283,3,112.746,2,178.241,0\H,33,2.69254,32,107.886,31,-78.5732,0\C,56,1.08587,33,117.244,32,52.7103,0\C,57,1.37425,56,122.864,33,-74.0682,0\N,58,1.32719,57,124.864,56,-175.877,0\C,59,1.34104,58,114.184,57,-0.767299,0\H,60,1.08841,59,111.344,58,179.291,0\C,60,1.34809,59,126.413,58,9.55579,0\C,57,1.40068,56,117.045,33,110.329,0\H,63,1.08608,57,124.139,56,-15.0876,0\C,62,1.5001,60,121.234,59,169.963,0\C,65,1.33842,62,120.622,60,134.532,0\H,66,1.08867,65,120.537,62,8.65113,0\N,66,1.34367,65,128.569,62,-161.307,0\C,68,1.32469,66,119.537,65,-5.7165,0\C,69,1.4046,68,117.62,66,4.43958,0\N,70,1.36007,69,125.03,68,-179.671,0\C,70,1.37061,69,121.593,68,-3.8265,0\N,72,1.35317,70,117.871,69,179.745,0\C,69,1.45878,68,117.209,66,179.48,0\C,74,1.40667,69,128.773,68,-10.0006,0\C,75,1.38859,74,112.993,69,177.884,0\C,76,1.34668,75,108.763,74,177.509,0\H,77,1.08425,76,124.979,75,177.12,0\C,76,1.37282,75,117.304,74,3.53093,0\C,77,1.37827,76,111.631,75,2.37088,0\H,80,1.08191,77,120.164,76,-179.48,0\C,79,1.42873,76,124.061,75,178.307,0\N,82,1.31486,79,120.654,76,28.6665,0\C,83,1.4116,82,107.999,79,-167.711,0\H,84,1.08182,83,117.662,82,-174.749,0\C,84,1.4045,83,115.993,82,1.09835,0\H,86,1.08187,84,131.903,83,-167.561,0\C,58,1.50565,57,120.348,56,1.25892,0\H,88,1.09688,58,104.409,57,122.148,0\H,88,1.09725,58,110.308,57,6.19662,0\C,88,1.58392,58,116.395,57,-117.113,0\H,91,1.09678,88,108.159,58,-51.6743,0\H,91,1.09698,88,107.271,58,61.1071,0\C,91,1.55556,88,111.831,58,-171.701,0\H,94,1.09634,91,104.14,88,-65.3603,0\H,94,1.09672,91,104.928,88,-171.876,0\C,94,1.54512,91,118.912,88,62.5105,0\H,97,1.09676,94,113.594,91,-66.0115,0\H,97,1.09686,94,102.308,91,52.8515,0\C,97,1.51358,94,116.088,91,170.225,0\H,100,1.09721,97,112.246,94,169.182,0\H,100,1.09762,97,107.524,94,54.9432,0\C,100,1.54764,97,115.693,94,-67.8101,0\H,103,1.09672,100,111.82,97,30.6155,0\H,103,1.09727,100,114.611,97,162.042,0\H,103,1.09751,100,108.405,97,-77.7928,0\S,71,1.63794,70,104.304,69,-175.578,0\S,75,1.71051,74,128.613,69,-5.03366,0\S,86,1.74164,84,110.081,83,-2.6296,0\S,79,1.74282,76,108.522,75,-3.3681,0\\\@

 Total job time:  86.67s(wall), 1026.10s(cpu) 
 Sat Oct 13 01:19:02 2018

        *************************************************************
        *                                                           *
        *  Thank you very much for using Q-Chem.  Have a nice day.  *
        *                                                           *
        *************************************************************


