
Running Job 1 of 1 ./6/71.qcin
qchem ./6/71.qcin_37729.0 /tmpu/cab_g/afmv_a/scratch_qchem/qchem37729/ 1
/tmpu/appuserlic/qchem4.4/serial-multicore/exe/qcprog.exe_s ./6/71.qcin_37729.0 /tmpu/cab_g/afmv_a/scratch_qchem/qchem37729/
Check license passed

                  Welcome to Q-Chem
     A Quantum Leap Into The Future Of Chemistry


 Q-Chem 4.4, Q-Chem, Inc., Pleasanton, CA (2016)

 Y. Shao,  Z. Gan,  E. Epifanovsky,  A. T. B. Gilbert,  M. Wormit,  
 J. Kussmann,  A. W. Lange,  A. Behn,  J. Deng,  X. Feng,  D. Ghosh,  
 M. Goldey,  P. R. Horn,  L. D. Jacobson,  I. Kaliman,  F. Rob,  
 R. Z. Khaliullin,  T. Kus,  A. Landau,  J. Liu,  E. I. Proynov,  Y. M. Rhee,  
 R. M. Richard,  M. A. Rohrdanz,  R. P. Steele,  E. J. Sundstrom,  
 H. L. Woodcock III,  P. M. Zimmerman,  D. Zuev,  B. Albrecht,  E. Alguire,  
 B. Austin,  S. A. Baeppler,  G. J. O. Beran,  Y. A. Bernard,  E. Berquist,  
 K. Brandhorst,  K. B. Bravaya,  S. T. Brown,  D. Casanova,  C.-M. Chang,  
 Y. Chen,  S. H. Chien,  K. D. Closser,  M. P. Coons,  D. L. Crittenden,  
 S. Dasgupta,  M. Diedenhofen,  R. A. DiStasio Jr.,  H. Do,  A. D. Dutoi,  
 R. G. Edgar,  P.-T. Fang,  S. Fatehi,  Q. Feng,  L. Fusti-Molnar,  
 A. Ghysels,  A. Golubeva-Zadorozhnaya,  J. Gomes,  A. Gunina,  
 M. W. D. Hanson-Heine,  P. H. P. Harbach,  A. W. Hauser,  J. E. Herr,  
 E. G. Hohenstein,  Z. C. Holden,  K. Hui,  T.-C. Jagau,  H. Ji,  B. Kaduk,  
 K. Khistyaev,  Jaehoon Kim,  Jihan Kim,  R. A. King,  P. Klunzinger,  
 K. Koh,  D. Kosenkov,  T. Kowalczyk,  C. M. Krauter,  A. Kunitsa,  
 K. U. Lao,  A. Laurent,  K. V. Lawler,  J. Lee,  D. Lefrancois,  S. Lehtola,  
 S. V. Levchenko,  C. Y. Lin,  Y.-S. Lin,  F. Liu,  E. Livshits,  
 R. C. Lochan,  A. Luenser,  P. Manohar,  S. F. Manzer,  S.-P. Mao,  Y. Mao,  
 N. Mardirossian,  A. V. Marenich,  L. A. Martinez-Martinez,  S. A. Maurer,  
 N. J. Mayhall,  J.-M. Mewes,  A. F. Morrison,  K. Nanda,  T. S. Nguyen-Beck,  
 C. M. Oana,  R. Olivares-Amaya,  D. P. O'Neill,  J. A. Parkhill,  
 T. M. Perrine,  R. Peverati,  P. A. Pieniazek,  F. Plasser,  A. Prociuk,  
 D. R. Rehn,  E. Rosta,  N. J. Russ,  N. Sergueev,  S. M. Sharada,  
 S. Sharma,  D. W. Small,  A. Sodt,  T. Stauch,  T. Stein,  D. Stuck,  
 Y.-C. Su,  A. J. W. Thom,  T. Tsuchimochi,  L. Vogt,  O. Vydrov,  T. Wang,  
 M. A. Watson,  J. Wenzel,  A. White,  C. F. Williams,  V. Vanovschi,  
 K. Yao,  S. Yeganeh,  S. R. Yost,  Z.-Q. You,  I. Y. Zhang,  X. Zhang,  
 Y. Zhao,  B. R. Brooks,  G. K. L. Chan,  D. M. Chipman,  C. J. Cramer,  
 W. A. Goddard III,  M. S. Gordon,  W. J. Hehre,  A. Klamt,  
 H. F. Schaefer III,  M. W. Schmidt,  C. D. Sherrill,  D. G. Truhlar,  
 A. Warshel,  X. Xu,  A. Aspuru-Guzik,  R. Baer,  A. T. Bell,  N. A. Besley,  
 J.-D. Chai,  A. Dreuw,  B. D. Dunietz,  T. R. Furlani,  S. R. Gwaltney,  
 C.-P. Hsu,  Y. Jung,  J. Kong,  D. S. Lambrecht,  W. Liang,  C. Ochsenfeld,  
 V. A. Rassolov,  L. V. Slipchenko,  J. E. Subotnik,  T. Van Voorhis,  
 J. M. Herbert,  A. I. Krylov,  P. M. W. Gill,  M. Head-Gordon

 Contributors to earlier versions of Q-Chem not listed above: 
 R. D. Adamson,  J. Baker,  E. F. C. Byrd,  A. K. Chakraborty,  C.-L. Cheng,  
 H. Dachsel,  R. J. Doerksen,  G. Hawkins,  A. Heyden,  S. Hirata,  
 G. Kedziora,  F. J. Keil,  C. Kelley,  P. P. Korambath,  W. Kurlancheek,  
 A. M. Lee,  M. S. Lee,  D. Liotard,  I. Lotan,  P. E. Maslen,  N. Nair,  
 D. Neuhauser,  R. Olson,  B. Peters,  J. Ritchie,  N. E. Schultz,  
 N. Shenvi,  A. C. Simmonett,  K. S. Thanthiriwatte,  Q. Wu,  W. Zhang

 Please cite Q-Chem as follows:
 Y. Shao et al., Mol. Phys. 113, 184-215 (2015)
 DOI: 10.1080/00268976.2014.952696

 Q-Chem 4.4.2 for Intel X86 Linux

 Parts of Q-Chem use Armadillo 5.200.1 (Boston Tea Smuggler).
 http://arma.sourceforge.net/

 Q-Chem begins on Sat Oct 13 01:45:15 2018  

Host: 
0

     Scratch files written to /tmpu/cab_g/afmv_a/scratch_qchem/qchem37729//
 Dec716 11556_ 22328  22283 4050   
Processing $rem in /tmpu/appuserlic/qchem4.4/serial-multicore/config/preferences.
 MEM_TOTAL  2000 
FILE_GEOM_ORG=        593

Checking the input file for inconsistencies... 	...done.

--------------------------------------------------------------
User input:
--------------------------------------------------------------
$comment
SP
$end

$rem
MEM_STATIC 5000
MEM_TOTAL 20000
JOBTYPE SP
EXCHANGE B3LYP
BASIS 6-31g(d,p)
$end

$molecule
0 1
C          10.913000     23.372000      2.705000
C          11.901000     23.622000      3.661000
N           9.735000     22.771000      3.015000
C          11.637000     23.244000      4.988000
C           9.519000     22.365000      4.290000
C          10.437000     22.604000      5.339000
C          10.235000     22.070000      6.776000
C          10.887000     22.741000      7.826000
C           9.390000     21.000000      7.130000
N          10.772000     22.408000      9.106000
N           8.629000     20.218000      6.214000
C           9.322000     20.600000      8.495000
C           9.983000     21.317000      9.487000
S           7.962000     19.081000      7.234000
N           8.482000     19.510000      8.612000
C           9.683000     21.077000     10.940000
S           8.312000     20.128000     11.605000
C          10.232000     21.810000     11.960000
C           8.554000     20.810000     13.217000
S          11.492000     23.036000     11.934000
C           9.633000     21.651000     13.187000
C           7.683000     20.762000     14.375000
C          11.272000     23.287000     13.704000
C          10.297000     22.442000     14.193000
N           8.113000     20.975000     15.583000
S           5.942000     20.429000     14.272000
C           7.077000     20.839000     16.471000
C           5.867000     20.719000     15.967000
C          11.019000     23.962000      1.271000
H          12.820000     24.094000      3.327000
H          12.384000     23.409000      5.759000
H           8.613000     21.821000      4.557000
H          11.469000     23.659000      7.745000
H          11.841000     23.909000     14.382000
H          10.022000     22.441000     15.241000
H           7.116000     20.820000     17.552000
H           4.920000     20.686000     16.491000
H          11.457000     24.967000      1.248000
C           9.672000     24.000000      0.446000
H          11.791000     23.396000      0.736000
H           9.083000     24.844000      0.826000
H           9.135000     23.062000      0.636000
C           9.942000     24.301000     -1.075000
H          10.550000     25.211000     -1.155000
C           8.672000     24.539000     -1.984000
H          10.656000     23.516000     -1.352000
H           8.390000     25.564000     -1.711000
H           7.826000     23.999000     -1.541000
C           8.893000     24.418000     -3.522000
H           9.453000     25.287000     -3.888000
C           7.514000     24.402000     -4.306000
H           9.446000     23.479000     -3.654000
H           7.087000     25.361000     -3.987000
H           6.925000     23.553000     -3.939000
H           7.784000     24.307000     -5.366000
C          19.787000     26.072000      7.791000
C          18.493000     26.543000      7.577000
N          20.236000     25.577000      8.943000
C          17.586000     26.409000      8.612000
C          19.350000     25.448000      9.974000
C          17.990000     25.817000      9.872000
C          17.003000     25.698000     10.982000
C          16.019000     26.700000     11.241000
C          16.844000     24.525000     11.778000
N          15.153000     26.729000     12.290000
N          17.508000     23.362000     11.620000
C          15.928000     24.505000     12.827000
C          15.168000     25.660000     13.100000
S          16.881000     22.350000     12.733000
N          15.970000     23.351000     13.523000
C          14.225000     25.690000     14.273000
S          14.418000     24.799000     15.771000
C          13.113000     26.523000     14.339000
C          12.862000     25.425000     16.351000
S          12.400000     27.653000     13.242000
C          12.363000     26.386000     15.562000
C          12.138000     24.744000     17.355000
C          11.095000     27.919000     14.431000
C          11.204000     27.186000     15.593000
N          11.140000     25.416000     18.004000
S          12.512000     23.119000     17.955000
C          10.478000     24.521000     18.871000
C          11.078000     23.277000     18.939000
C          20.879000     26.209000      6.787000
H          18.224000     27.085000      6.675000
H          16.573000     26.793000      8.534000
H          19.816000     24.993000     10.847000
H          15.877000     27.572000     10.604000
H          10.257000     28.552000     14.169000
H          10.410000     27.133000     16.329000
H           9.562000     24.826000     19.360000
H          10.667000     22.465000     19.524000
H          20.396000     26.748000      5.963000
C          21.365000     24.796000      6.234000
H          21.761000     26.716000      7.200000
H          20.545000     24.068000      6.227000
H          22.178000     24.379000      6.842000
C          21.997000     24.855000      4.831000
H          22.859000     25.528000      4.921000
C          20.993000     25.292000      3.708000
H          22.371000     23.837000      4.667000
H          20.696000     26.346000      3.773000
H          20.099000     24.655000      3.737000
C          21.681000     25.126000      2.326000
H          22.073000     24.103000      2.259000
C          22.945000     26.119000      2.179000
H          20.951000     25.318000      1.530000
H          23.760000     25.905000      2.881000
H          22.715000     27.181000      2.331000
H          23.342000     25.989000      1.165000
$end

--------------------------------------------------------------
 ----------------------------------------------------------------
             Standard Nuclear Orientation (Angstroms)
    I     Atom           X                Y                Z
 ----------------------------------------------------------------
    1      C       6.6156886487    -3.3212260851    -0.4583989670
    2      C       5.9190350792    -2.1161478389    -0.3357603730
    3      N       6.0146539367    -4.5291888574    -0.3016564528
    4      C       4.5439056349    -2.1817122481    -0.0560653254
    5      C       4.6987639477    -4.5725180052     0.0203266555
    6      C       3.8954898204    -3.4136622325     0.1300990307
    7      C       2.4163062129    -3.4508728453     0.5790536226
    8      C       1.5830452259    -2.3863853045     0.1912554751
    9      C       1.8136492311    -4.5057523566     1.2919875458
   10      N       0.2894115238    -2.3115578610     0.4800922774
   11      N       2.4850333412    -5.6768096799     1.7475850898
   12      C       0.4430489610    -4.3915249143     1.6611162377
   13      C      -0.3286624301    -3.3164001681     1.2325811646
   14      S       1.2686911101    -6.4396746198     2.5941113212
   15      N       0.0707926297    -5.5030420737     2.3914201664
   16      C      -1.8249449191    -3.3386618360     1.3720520618
   17      S      -2.8374829299    -4.7601375991     1.7923381926
   18      C      -2.6473963408    -2.3537012723     0.8898525730
   19      C      -4.3069338867    -3.9366123572     1.2587165463
   20      S      -2.2623056025    -0.7920650915     0.1796768467
   21      C      -3.9838272847    -2.6725425013     0.8462222758
   22      C      -5.6283519739    -4.4811610889     1.0153445724
   23      C      -4.0161937567    -0.5007511733    -0.1089640091
   24      C      -4.7634777404    -1.5661569451     0.3495642770
   25      N      -6.6952220297    -3.7394234692     0.9814832716
   26      S      -5.9327580520    -6.2051814380     0.7192537498
   27      C      -7.7960452850    -4.5263529680     0.7595235352
   28      C      -7.5791846092    -5.7855946102     0.4436154257
   29      C       8.0746925564    -3.3516484853    -0.9932578968
   30      H       6.4778305887    -1.1938338428    -0.4621940358
   31      H       3.9686471432    -1.2677497610     0.0598020119
   32      H       4.2031370082    -5.5229832588     0.2178886423
   33      H       1.8519643713    -1.5605566849    -0.4673024830
   34      H      -4.5089442858     0.3860282059    -0.4846610264
   35      H      -5.8438644222    -1.5767515653     0.2684324599
   36      H      -8.8408721659    -4.2494071855     0.8051395678
   37      H      -8.2992134619    -6.5396623768     0.1513582535
   38      H       8.2614766175    -2.6139738032    -1.7827803968
   39      C       8.5846439361    -4.7552919361    -1.5092158926
   40      H       8.7263254052    -2.9644973010    -0.2007595745
   41      H       8.1429117160    -4.9161242297    -2.5005092997
   42      H       8.2181547778    -5.5219597278    -0.8147958511
   43      C      10.1446701623    -4.7550931716    -1.7172065991
   44      H      10.4177775837    -3.9080797971    -2.3591915519
   45      C      10.7668612708    -6.0394119109    -2.3948706754
   46      H      10.5175942171    -4.4365495392    -0.7362847858
   47      H      10.5089311930    -5.8831082415    -3.4501996468
   48      H      10.1133781490    -6.8934717289    -2.1778300414
   49      C      12.3040061176    -6.2321348359    -2.2246661093
   50      H      12.8421472645    -5.5084766658    -2.8487173563
   51      C      12.7633628658    -7.6740096456    -2.7006297747
   52      H      12.4900153327    -6.0797339119    -1.1536252463
   53      H      12.4243610728    -7.6618665801    -3.7440382902
   54      H      12.2192440366    -8.4170222703    -2.1054172587
   55      H      13.8478083416    -7.7035661679    -2.5314274634
   56      C       3.7963611913     6.8552385264     0.1710712066
   57      C       3.7527029591     5.7881479565    -0.7241855579
   58      N       2.7400543581     7.3592304872     0.8066323584
   59      C       2.5372526950     5.1531648625    -0.9011237557
   60      C       1.5334448736     6.7441767540     0.6322750896
   61      C       1.3593684354     5.6077336105    -0.1889187823
   62      C       0.0543886968     4.9221826021    -0.4068125565
   63      C      -0.3455172030     4.4277139504    -1.6854512951
   64      C      -0.8349200596     4.5585430669     0.6475698335
   65      N      -1.5545207287     3.8890670730    -2.0006782233
   66      N      -0.6144703161     4.7294958786     1.9668901308
   67      C      -2.0582245356     3.9575704194     0.3608381891
   68      C      -2.4122078306     3.7227744358    -0.9829328750
   69      S      -1.9040548304     4.0671727745     2.7114315240
   70      N      -2.8048112224     3.7606578695     1.4661570421
   71      C      -3.7587235593     3.1427410265    -1.3243045736
   72      S      -5.2348599230     3.3573261884    -0.4022912093
   73      C      -4.0103606982     2.4295549209    -2.4917091004
   74      C      -6.0982441872     2.2866067286    -1.5236918740
   75      S      -3.0223640760     1.9148502654    -3.8136848158
   76      C      -5.3745373700     1.9797250795    -2.6086412258
   77      C      -7.2805365735     1.6241355832    -1.1246057996
   78      C      -4.4478488236     1.0893548594    -4.5021995717
   79      C      -5.6046658950     1.2043941535    -3.7619602698
   80      N      -8.0855091077     1.0934512155    -2.0937199937
   81      S      -7.8928445259     1.5466044003     0.5365892182
   82      C      -9.1354016444     0.3828463518    -1.4742650808
   83      C      -9.1544558898     0.5195972724    -0.0983667846
   84      C       5.0224384805     7.6669373206     0.4100869981
   85      H       4.6083856330     5.5215921116    -1.3377685949
   86      H       2.4169788674     4.3435589409    -1.6151135722
   87      H       0.7551257161     7.2133609048     1.2326046005
   88      H       0.3025425117     4.4505565459    -2.5605591867
   89      H      -4.3337234661     0.4822059568    -5.3909754787
   90      H      -6.4988122429     0.6315226847    -3.9793575760
   91      H      -9.7915971126    -0.2353649309    -2.0729505721
   92      H      -9.8691729282     0.0014385254     0.5270779116
   93      H       5.7550454238     7.2222368520    -0.2742481244
   94      C       5.5712800635     7.4995742793     1.8964707067
   95      H       4.8484685306     8.7388199868     0.2477786298
   96      H       5.3486942979     6.5016901486     2.2928491099
   97      H       5.1295983614     8.2371874457     2.5786481697
   98      C       7.0794508349     7.7739127891     2.0430084361
   99      H       7.2267348080     8.8102874051     1.7139064966
  100      C       7.9818093929     6.7509885947     1.2687416053
  101      H       7.2519586703     7.7288354785     3.1252769254
  102      H       7.9249964146     6.8558439453     0.1782703122
  103      H       7.7141320267     5.7250607445     1.5545157710
  104      C       9.4665409936     7.0041970609     1.6459438671
  105      H       9.5482526151     6.9960567302     2.7404478397
  106      C       9.9544415466     8.4620165298     1.1539383320
  107      H      10.0941193255     6.2221271284     1.2010932652
  108      H       9.4355061125     9.2924584968     1.6477977803
  109      H       9.8282002795     8.6506139664     0.0804663252
  110      H      11.0196062261     8.5467632163     1.4008132084
 ----------------------------------------------------------------
 Molecular Point Group                 C1    NOp =  1
 Largest Abelian Subgroup              C1    NOp =  1
 Nuclear Repulsion Energy = 11286.9053084572 hartrees
 There are      270 alpha and      270 beta electrons
 Requested basis set is 6-31G(d,p)
 There are 406 shells and 1262 basis functions

 Total QAlloc Memory Limit  20000 MB
 Mega-Array Size      4888 MB
 MEM_STATIC part      5000 MB
 A cutoff of  1.0D-08 yielded  12920 shell pairs
 There are    135710 function pairs
 
 -------------------------------------------------------
 OpenMP Integral Computing Module                       
 Release: version 1.0, May 2013, Q-Chem Inc. Pittsburgh 
 -------------------------------------------------------
 Integral Job Info:
 Integral job number is                      11
 Integral operator is                         1
 short-range coefficients                     0
 long-range coefficients              100000000
 Omega coefficients                           0
 if combine SR and LR in K                    0
 Integral screening is                        0
 Integral computing path is                   2
 max size of driver memory is            800000
 size of driver memory is                593474
 size of scratch memory is             15166112
 max col of scratch BK array               1296
 max len of scratch array in speh3          155
 max len of scratch index in speh4           18
 max int batch size is                      520
 min int batch size is                       52
 fixed nKL is                                52
 max L of basis functions is                  2
 order of int derivative is                   0
 number of shells is                        406
 number of basis is                        1262
 number of cartesian basis is              1262
 number of contracted shell pairs         12920
 number of primitive shell pairs          42219
 maxK2 (contraction) of shell pair           36
 max number of K2 of shell pair               1
 max number of CS2 of shell pair           1317
 max number of PS2 of shell pair           7794
 mem total for path MDJ                  280168
 -------------------------------------------------------
 Smallest overlap matrix eigenvalue = 4.19E-04

 Scale SEOQF with 1.000000e-02/1.000000e-02/1.000000e-02

 Standard Electronic Orientation quadrupole field applied
 Nucleus-field energy     =     0.0000001287 hartrees
 Guess from superposition of atomic densities
 Warning:  Energy on first SCF cycle will be non-variational
 A restricted hybrid HF-DFT SCF calculation will be
 performed using Pulay DIIS extrapolation
 Exchange:     0.2000 Hartree-Fock + 0.0800 Slater + 0.7200 B88
 Correlation:  0.1900 VWN1RPA + 0.8100 LYP
 Using SG-1 standard quadrature grid
 SCF converges when DIIS error is below 1.0E-05
 using 16 threads for integral computing 
 -------------------------------------------------------
 OpenMP BLAS3 based DFT computing Module                
 Release: version 1.0, May 2013, Q-Chem Inc. Pittsburgh 
 -------------------------------------------------------
 ---------------------------------------
  Cycle       Energy         DIIS Error
 ---------------------------------------
    1   -5679.8486688287      2.14E-02
    2   -5662.5135817660      2.15E-03
    3   -5660.1196469337      3.71E-03
    4   -5662.0197848429      1.84E-03
    5   -5663.4517099866      5.27E-04
    6   -5663.4849974473      4.10E-04
    7   -5663.5130623125      1.86E-04
    8   -5663.5191632943      7.61E-05
    9   -5663.5202207795      3.24E-05
   10   -5663.5204113736      1.21E-05
   11   -5663.5204322418      8.82E-06 Convergence criterion met
 ---------------------------------------
 SCF time:  CPU 1169.16 s  wall 100.48 s
 SCF   energy in the final basis set = -5663.5204322418
 Total energy in the final basis set = -5663.5204322418
 
 --------------------------------------------------------------
 
                    Orbital Energies (a.u.)
 --------------------------------------------------------------
 
 Alpha MOs
 -- Occupied --
-88.996 -88.992 -88.930 -88.929 -88.925 -88.921 -88.912 -88.905
-14.388 -14.385 -14.383 -14.377 -14.356 -14.352 -14.345 -14.344
-14.328 -14.326 -10.273 -10.269 -10.269 -10.264 -10.262 -10.259
-10.255 -10.253 -10.245 -10.244 -10.243 -10.241 -10.241 -10.234
-10.233 -10.232 -10.232 -10.231 -10.230 -10.229 -10.228 -10.227
-10.225 -10.225 -10.224 -10.222 -10.222 -10.222 -10.217 -10.217
-10.215 -10.212 -10.209 -10.203 -10.201 -10.200 -10.197 -10.188
-10.188 -10.184 -10.183 -10.180 -10.180 -10.179 -10.178 -10.176
-10.175 -10.175 -10.175 -10.174  -8.052  -8.048  -7.990  -7.987
 -7.984  -7.983  -7.972  -7.964  -6.016  -6.013  -6.011  -6.010
 -6.007  -6.006  -5.954  -5.952  -5.951  -5.949  -5.948  -5.947
 -5.947  -5.945  -5.944  -5.943  -5.941  -5.940  -5.936  -5.933
 -5.928  -5.928  -5.924  -5.920  -1.052  -1.041  -0.981  -0.961
 -0.953  -0.951  -0.939  -0.930  -0.913  -0.913  -0.906  -0.895
 -0.847  -0.837  -0.833  -0.825  -0.816  -0.813  -0.811  -0.802
 -0.801  -0.797  -0.794  -0.790  -0.784  -0.778  -0.765  -0.765
 -0.746  -0.745  -0.739  -0.736  -0.725  -0.725  -0.708  -0.704
 -0.692  -0.689  -0.678  -0.676  -0.661  -0.651  -0.648  -0.645
 -0.638  -0.633  -0.627  -0.623  -0.612  -0.606  -0.595  -0.589
 -0.588  -0.586  -0.584  -0.582  -0.576  -0.573  -0.567  -0.556
 -0.550  -0.549  -0.543  -0.542  -0.522  -0.518  -0.514  -0.510
 -0.508  -0.506  -0.500  -0.499  -0.488  -0.482  -0.480  -0.478
 -0.473  -0.472  -0.470  -0.463  -0.460  -0.457  -0.454  -0.448
 -0.444  -0.443  -0.440  -0.440  -0.436  -0.433  -0.430  -0.428
 -0.427  -0.426  -0.423  -0.422  -0.419  -0.417  -0.413  -0.413
 -0.410  -0.406  -0.404  -0.403  -0.401  -0.400  -0.397  -0.395
 -0.394  -0.393  -0.390  -0.388  -0.386  -0.382  -0.380  -0.379
 -0.378  -0.378  -0.370  -0.368  -0.367  -0.363  -0.358  -0.353
 -0.351  -0.349  -0.348  -0.348  -0.345  -0.343  -0.341  -0.338
 -0.336  -0.333  -0.333  -0.331  -0.330  -0.328  -0.321  -0.315
 -0.314  -0.312  -0.312  -0.309  -0.305  -0.301  -0.300  -0.298
 -0.298  -0.294  -0.291  -0.289  -0.288  -0.287  -0.282  -0.281
 -0.279  -0.274  -0.272  -0.268  -0.253  -0.253  -0.252  -0.248
 -0.245  -0.244  -0.234  -0.232  -0.196  -0.195
 -- Virtual --
 -0.114  -0.111  -0.075  -0.071  -0.037  -0.034  -0.027  -0.026
 -0.020  -0.018  -0.017  -0.016  -0.004  -0.001   0.003   0.006
  0.006   0.008   0.023   0.027   0.033   0.034   0.037   0.042
  0.044   0.053   0.061   0.070   0.077   0.079   0.090   0.092
  0.092   0.092   0.099   0.100   0.101   0.103   0.105   0.107
  0.110   0.113   0.115   0.117   0.120   0.121   0.122   0.125
  0.126   0.130   0.132   0.134   0.135   0.138   0.147   0.147
  0.149   0.153   0.154   0.154   0.157   0.160   0.164   0.167
  0.168   0.169   0.172   0.174   0.174   0.176   0.180   0.180
  0.184   0.185   0.188   0.189   0.189   0.191   0.192   0.200
  0.201   0.202   0.203   0.207   0.210   0.215   0.217   0.219
  0.221   0.224   0.227   0.228   0.228   0.234   0.236   0.238
  0.239   0.242   0.243   0.245   0.246   0.250   0.251   0.254
  0.255   0.256   0.259   0.264   0.265   0.266   0.268   0.273
  0.277   0.279   0.287   0.289   0.291   0.296   0.304   0.305
  0.307   0.312   0.314   0.316   0.317   0.318   0.321   0.323
  0.329   0.330   0.332   0.334   0.336   0.338   0.341   0.344
  0.348   0.351   0.354   0.360   0.361   0.365   0.367   0.372
  0.374   0.379   0.384   0.388   0.390   0.393   0.398   0.401
  0.403   0.408   0.412   0.418   0.422   0.426   0.432   0.437
  0.442   0.451   0.453   0.458   0.462   0.465   0.470   0.472
  0.475   0.477   0.479   0.484   0.491   0.496   0.498   0.500
  0.501   0.501   0.507   0.509   0.511   0.514   0.516   0.517
  0.522   0.523   0.524   0.529   0.529   0.531   0.533   0.534
  0.535   0.539   0.543   0.544   0.546   0.548   0.549   0.552
  0.554   0.555   0.555   0.557   0.561   0.563   0.564   0.565
  0.570   0.571   0.571   0.572   0.574   0.575   0.579   0.583
  0.585   0.586   0.589   0.590   0.592   0.594   0.595   0.599
  0.600   0.603   0.604   0.609   0.612   0.612   0.613   0.614
  0.616   0.620   0.621   0.621   0.624   0.627   0.627   0.628
  0.629   0.631   0.633   0.634   0.636   0.638   0.640   0.643
  0.644   0.646   0.650   0.653   0.655   0.658   0.661   0.663
  0.670   0.671   0.674   0.678   0.681   0.682   0.685   0.688
  0.692   0.695   0.696   0.697   0.701   0.705   0.709   0.712
  0.721   0.724   0.726   0.729   0.733   0.736   0.741   0.745
  0.747   0.749   0.755   0.757   0.760   0.763   0.768   0.769
  0.774   0.775   0.778   0.781   0.783   0.788   0.789   0.791
  0.793   0.795   0.798   0.799   0.800   0.802   0.808   0.810
  0.811   0.813   0.814   0.817   0.817   0.822   0.822   0.823
  0.825   0.825   0.829   0.831   0.832   0.833   0.835   0.836
  0.837   0.841   0.842   0.843   0.844   0.849   0.852   0.852
  0.854   0.856   0.859   0.860   0.864   0.864   0.867   0.870
  0.871   0.873   0.881   0.882   0.884   0.886   0.887   0.889
  0.890   0.892   0.896   0.898   0.898   0.906   0.910   0.913
  0.913   0.915   0.915   0.918   0.920   0.925   0.927   0.927
  0.931   0.932   0.936   0.937   0.939   0.944   0.945   0.947
  0.951   0.952   0.954   0.956   0.957   0.961   0.962   0.966
  0.969   0.972   0.973   0.976   0.977   0.983   0.989   0.990
  0.993   0.996   0.998   0.999   1.000   1.002   1.008   1.009
  1.010   1.012   1.014   1.017   1.020   1.026   1.026   1.028
  1.032   1.034   1.038   1.042   1.046   1.049   1.051   1.053
  1.060   1.065   1.066   1.069   1.078   1.079   1.082   1.082
  1.087   1.088   1.089   1.097   1.102   1.106   1.108   1.113
  1.120   1.124   1.126   1.129   1.131   1.134   1.136   1.140
  1.157   1.159   1.162   1.166   1.172   1.179   1.180   1.182
  1.190   1.195   1.197   1.207   1.208   1.214   1.217   1.227
  1.231   1.238   1.248   1.254   1.257   1.262   1.263   1.268
  1.272   1.281   1.285   1.286   1.290   1.292   1.299   1.303
  1.306   1.311   1.316   1.319   1.323   1.329   1.331   1.343
  1.345   1.349   1.354   1.362   1.369   1.369   1.371   1.373
  1.376   1.379   1.381   1.388   1.391   1.394   1.399   1.403
  1.408   1.413   1.416   1.420   1.422   1.428   1.430   1.432
  1.437   1.440   1.445   1.447   1.448   1.454   1.458   1.466
  1.468   1.472   1.476   1.483   1.488   1.491   1.495   1.500
  1.509   1.516   1.520   1.523   1.527   1.542   1.543   1.547
  1.551   1.560   1.562   1.565   1.576   1.592   1.592   1.599
  1.607   1.611   1.627   1.628   1.639   1.640   1.648   1.649
  1.654   1.661   1.662   1.670   1.671   1.673   1.678   1.680
  1.682   1.685   1.687   1.693   1.695   1.703   1.706   1.708
  1.714   1.714   1.720   1.721   1.726   1.729   1.735   1.735
  1.741   1.747   1.752   1.753   1.758   1.761   1.762   1.771
  1.772   1.783   1.788   1.789   1.792   1.795   1.801   1.805
  1.813   1.815   1.820   1.821   1.824   1.825   1.830   1.831
  1.840   1.841   1.846   1.854   1.856   1.862   1.869   1.872
  1.875   1.877   1.879   1.881   1.884   1.884   1.891   1.891
  1.898   1.902   1.904   1.906   1.908   1.917   1.919   1.923
  1.927   1.928   1.931   1.933   1.935   1.943   1.948   1.951
  1.955   1.956   1.962   1.967   1.974   1.978   1.985   1.987
  1.990   1.996   2.004   2.006   2.008   2.011   2.021   2.026
  2.028   2.034   2.039   2.047   2.051   2.053   2.058   2.058
  2.062   2.072   2.073   2.081   2.089   2.090   2.095   2.100
  2.102   2.103   2.104   2.109   2.110   2.117   2.120   2.120
  2.125   2.130   2.132   2.136   2.142   2.144   2.146   2.153
  2.154   2.157   2.162   2.166   2.172   2.175   2.180   2.183
  2.190   2.195   2.198   2.202   2.207   2.210   2.214   2.218
  2.218   2.221   2.224   2.228   2.232   2.244   2.249   2.252
  2.257   2.257   2.260   2.266   2.270   2.275   2.276   2.278
  2.281   2.285   2.287   2.294   2.295   2.297   2.303   2.307
  2.311   2.316   2.319   2.321   2.321   2.327   2.329   2.331
  2.334   2.336   2.339   2.341   2.350   2.353   2.358   2.361
  2.362   2.363   2.372   2.377   2.380   2.384   2.388   2.389
  2.390   2.393   2.399   2.399   2.407   2.415   2.418   2.420
  2.421   2.429   2.432   2.433   2.435   2.439   2.442   2.444
  2.447   2.451   2.454   2.460   2.467   2.468   2.470   2.473
  2.474   2.489   2.492   2.495   2.496   2.501   2.504   2.512
  2.517   2.519   2.520   2.524   2.525   2.530   2.535   2.536
  2.542   2.546   2.546   2.552   2.555   2.556   2.562   2.565
  2.571   2.577   2.582   2.587   2.589   2.596   2.599   2.602
  2.613   2.613   2.621   2.623   2.628   2.633   2.635   2.636
  2.640   2.646   2.653   2.656   2.660   2.661   2.668   2.671
  2.672   2.674   2.678   2.680   2.682   2.684   2.688   2.692
  2.698   2.699   2.706   2.708   2.717   2.721   2.726   2.726
  2.741   2.746   2.748   2.750   2.752   2.752   2.774   2.775
  2.781   2.784   2.787   2.807   2.813   2.815   2.825   2.827
  2.830   2.834   2.842   2.847   2.849   2.851   2.853   2.861
  2.863   2.868   2.876   2.883   2.883   2.892   2.896   2.903
  2.903   2.903   2.909   2.917   2.924   2.926   2.926   2.933
  2.952   2.962   2.967   2.969   2.972   2.982   3.002   3.010
  3.030   3.034   3.045   3.048   3.061   3.070   3.089   3.090
  3.149   3.166   3.177   3.194   3.203   3.212   3.232   3.237
  3.244   3.247   3.252   3.262   3.267   3.274   3.280   3.286
  3.292   3.296   3.303   3.316   3.317   3.328   3.331   3.336
  3.344   3.356   3.359   3.378   3.378   3.408   3.414   3.435
  3.445   3.449   3.452   3.460   3.483   3.484   3.497   3.531
  3.532   3.541   3.549   3.554   3.559   3.560   3.589   3.590
  3.622   3.627   3.731   3.738   3.860   3.863   3.902   3.905
  3.940   3.946   3.951   3.954   3.957   3.976   3.978   3.980
  4.019   4.067   4.072   4.083   4.091   4.097   4.107   4.116
  4.117   4.124   4.142   4.152   4.162   4.167   4.179   4.187
  4.199   4.218   4.236   4.236   4.245   4.249   4.259   4.264
  4.276   4.291   4.298   4.313   4.364   4.382   4.384   4.396
  4.415   4.436   4.442   4.450   4.460   4.469   4.475   4.485
  4.501   4.505   4.514   4.544   4.561   4.591   4.632   4.646
  4.675   4.695   4.698   4.718   4.737   4.742   4.786   4.788
 --------------------------------------------------------------
 
          Ground-State Mulliken Net Atomic Charges

     Atom                 Charge (a.u.)
  ----------------------------------------
      1 C                     0.281060
      2 C                    -0.112959
      3 N                    -0.501719
      4 C                    -0.088382
      5 C                     0.087019
      6 C                     0.045369
      7 C                     0.028204
      8 C                     0.061452
      9 C                     0.202213
     10 N                    -0.519176
     11 N                    -0.569271
     12 C                     0.185688
     13 C                     0.294137
     14 S                     0.633958
     15 N                    -0.520526
     16 C                    -0.228235
     17 S                     0.322942
     18 C                    -0.114619
     19 C                    -0.238593
     20 S                     0.274928
     21 C                     0.166010
     22 C                     0.061637
     23 C                    -0.299918
     24 C                    -0.063611
     25 N                    -0.436332
     26 S                     0.247174
     27 C                     0.128568
     28 C                    -0.287880
     29 C                    -0.254052
     30 H                     0.090782
     31 H                     0.095212
     32 H                     0.127705
     33 H                     0.121634
     34 H                     0.131340
     35 H                     0.132238
     36 H                     0.108157
     37 H                     0.134029
     38 H                     0.107214
     39 C                    -0.173437
     40 H                     0.108725
     41 H                     0.094802
     42 H                     0.127468
     43 C                    -0.189632
     44 H                     0.084495
     45 C                    -0.183975
     46 H                     0.085448
     47 H                     0.089222
     48 H                     0.095161
     49 C                    -0.184994
     50 H                     0.097017
     51 C                    -0.313305
     52 H                     0.097592
     53 H                     0.107459
     54 H                     0.109157
     55 H                     0.103213
     56 C                     0.280058
     57 C                    -0.118499
     58 N                    -0.476325
     59 C                    -0.072952
     60 C                     0.078730
     61 C                     0.033666
     62 C                     0.027125
     63 C                     0.045168
     64 C                     0.230694
     65 N                    -0.514213
     66 N                    -0.559525
     67 C                     0.214544
     68 C                     0.289386
     69 S                     0.619855
     70 N                    -0.533315
     71 C                    -0.224395
     72 S                     0.297618
     73 C                    -0.101784
     74 C                    -0.253385
     75 S                     0.282722
     76 C                     0.162635
     77 C                     0.041451
     78 C                    -0.310600
     79 C                    -0.034713
     80 N                    -0.442884
     81 S                     0.286671
     82 C                     0.120652
     83 C                    -0.304936
     84 C                    -0.214671
     85 H                     0.096007
     86 H                     0.097285
     87 H                     0.113168
     88 H                     0.111060
     89 H                     0.129020
     90 H                     0.134222
     91 H                     0.117038
     92 H                     0.127204
     93 H                     0.086835
     94 C                    -0.179700
     95 H                     0.120525
     96 H                     0.092410
     97 H                     0.104797
     98 C                    -0.175462
     99 H                     0.095441
    100 C                    -0.168472
    101 H                     0.091966
    102 H                     0.093848
    103 H                     0.087301
    104 C                    -0.177293
    105 H                     0.096115
    106 C                    -0.326510
    107 H                     0.088296
    108 H                     0.107865
    109 H                     0.100583
    110 H                     0.099859
  ----------------------------------------
  Sum of atomic charges =     0.000000

 -----------------------------------------------------------------
                    Cartesian Multipole Moments
 -----------------------------------------------------------------
    Charge (ESU x 10^10)
                 0.0000
    Dipole Moment (Debye)
         X      -1.7481      Y      -1.5480      Z      -0.1405
       Tot       2.3392
    Quadrupole Moments (Debye-Ang)
        XX    -402.4664     XY      42.2484     YY    -451.8539
        XZ      -9.5435     YZ      -0.3184     ZZ    -442.0524
    Octopole Moments (Debye-Ang^2)
       XXX    -461.7515    XXY    -120.7945    XYY    -189.0720
       YYY    -204.5000    XXZ       6.5790    XYZ     -90.1000
       YYZ      49.8739    XZZ      11.4701    YZZ     -22.0038
       ZZZ       2.5619
    Hexadecapole Moments (Debye-Ang^3)
      XXXX  -81647.3267   XXXY    3440.1437   XXYY  -23866.3909
      XYYY    1576.0026   YYYY  -57649.6920   XXXZ    -597.8844
      XXYZ     283.5984   XYYZ     -31.5984   YYYZ    -486.3091
      XXZZ  -15884.7674   XYZZ      69.5698   YYZZ  -10957.7437
      XZZZ      91.9447   YZZZ     162.1839   ZZZZ   -7669.3426
 -----------------------------------------------------------------
Archival summary:
1\1\mn246\SP\ProcedureUnspecified\6-31G**\8105042\afmv_a\SatOct1301:46:592018SatOct1301:46:592018\0\\#,ProcedureUnspecified,6-31G**,\\0,1\S\C,1,1.75822\C,2,1.3708,1,130.456\C,2,1.37463,1,113.962,3,173.858,0\C,4,1.36836,2,115.738,1,-173.344,0\C,4,1.44174,2,111.019,1,6.23401,0\H,6,1.08348,4,123.884,2,177.367,0\C,6,1.37977,4,114.466,2,-6.80893,0\H,8,1.08182,6,120.111,4,178.843,0\C,5,1.4498,4,120.77,2,167.766,0\N,10,1.29982,5,122.557,4,31.6487,0\C,11,1.37125,10,109.612,5,178.837,0\H,12,1.08187,11,128.431,10,-171.1,0\C,12,1.31625,11,117.104,10,9.16658,0\H,14,1.08281,12,128.423,11,174.349,0\C,3,1.50293,2,123.644,1,7.38636,0\C,16,1.39107,3,120.815,2,175.468,0\N,17,1.38108,16,129.449,3,9.09733,0\N,16,1.39927,3,120.02,2,5.64071,0\C,19,1.3276,16,120.46,3,170.373,0\H,20,1.08996,19,109.218,16,-175.237,0\C,20,1.40636,19,124.056,16,-1.08693,0\C,22,1.40863,20,116.93,19,-1.43261,0\N,23,1.42468,22,125.155,20,-178.837,0\S,18,1.53406,17,110.535,16,-178.593,0\C,22,1.54626,20,117.938,19,-178.24,0\C,26,1.40456,22,120.08,20,-30.0475,0\H,27,1.08613,26,118.648,22,3.8482,0\C,27,1.40482,26,121.28,22,-173.713,0\H,29,1.08577,27,124.514,26,178.262,0\C,29,1.39735,27,117.726,26,-1.67454,0\N,31,1.3583,29,122.427,27,0.800487,0\C,32,1.3554,31,119.041,29,1.78508,0\H,33,1.08998,32,120.823,31,175.913,0\C,31,1.55425,29,121.003,27,-169.847,0\H,35,1.09654,31,113.235,29,36.2396,0\H,35,1.09662,31,107.59,29,-73.8477,0\C,35,1.58002,31,115.641,29,161.502,0\H,38,1.09711,35,107.178,31,-77.1226,0\H,38,1.09741,35,107.831,31,40.7576,0\C,38,1.57383,35,111.282,31,167.117,0\H,41,1.0967,38,102.644,35,-55.1299,0\H,41,1.09734,38,108.912,35,52.8797,0\C,41,1.57982,38,116.549,35,172.9,0\H,44,1.09707,41,108.266,38,27.0178,0\H,44,1.09758,41,101.778,38,-76.9938,0\C,44,1.5585,41,116.239,38,162.583,0\H,47,1.09668,44,109.891,41,72.7926,0\H,47,1.0977,44,104.864,41,-48.1795,0\C,47,1.58636,44,111.422,41,-169.19,0\H,50,1.09655,47,108.019,44,58.7449,0\H,50,1.09716,47,100.708,44,-58.5073,0\H,50,1.09796,47,105.321,44,179.568,0\S,14,1.72126,12,110.632,11,-12.1414,0\S,5,1.76698,4,108.978,2,-2.15774,0\C,9,2.68657,8,169.628,6,26.746,0\C,56,1.33979,9,80.3052,8,94.227,0\C,57,1.40863,56,134.495,9,-101.646,0\H,58,1.08395,57,126.148,56,2.34279,0\C,58,1.37819,57,110.4,56,172.706,0\H,60,1.08239,58,125.195,57,-174.898,0\C,56,1.41278,9,93.1003,8,-30.7531,0\N,62,1.36704,56,118.33,9,111.506,0\C,63,1.41101,62,108.809,56,-174.835,0\H,64,1.08222,63,119.735,62,170.657,0\C,64,1.38281,63,113.408,62,-6.12321,0\H,66,1.08189,64,122.476,63,177.148,0\C,57,1.44118,56,111.969,9,70.3411,0\C,68,1.39097,57,113.539,56,3.34825,0\C,69,1.50535,68,123.347,57,179.545,0\N,70,1.3413,69,116.595,68,-19.6065,0\C,71,1.36059,70,116.199,69,-179.29,0\H,72,1.08918,71,110.54,70,-175.652,0\C,70,1.40931,69,120.338,68,155.007,0\N,74,1.34829,70,128.189,69,1.98072,0\C,74,1.39279,70,119.261,69,176.713,0\N,76,1.34849,74,113.56,70,-179.94,0\C,76,1.42647,74,120.358,70,0.513951,0\C,78,1.49011,76,123.723,74,-177.935,0\C,79,1.41286,78,124.26,76,47.9642,0\H,80,1.08918,79,125.367,78,-3.27265,0\N,80,1.3655,79,123.051,78,179.496,0\C,82,1.33181,80,117.999,79,0.145854,0\C,83,1.39358,82,124.854,80,-3.88555,0\H,84,1.08615,83,121.745,82,-169.705,0\C,84,1.38269,83,117.477,82,4.26233,0\H,86,1.08614,84,121.586,83,-177.202,0\C,83,1.48971,82,111.716,80,-177.426,0\H,88,1.09672,83,103.223,82,172.375,0\H,88,1.09797,83,112.197,82,48.998,0\S,75,1.56717,74,107.733,70,-175.468,0\C,88,1.59329,83,112.083,82,-71.6276,0\H,92,1.09656,88,111.278,83,-30.8455,0\H,92,1.09751,88,111.755,83,89.6911,0\C,92,1.53991,88,114.044,83,-154.725,0\H,95,1.09686,92,103.922,88,-173.643,0\H,95,1.0973,92,105.734,88,-59.7175,0\C,95,1.56848,92,113.596,88,64.7543,0\H,98,1.09697,95,113.49,92,-69.9718,0\H,98,1.09811,95,109.914,92,53.1468,0\C,98,1.55268,95,108.896,92,172.241,0\H,101,1.09699,98,109.407,95,-173.524,0\H,101,1.09758,98,108.194,95,-52.6163,0\C,101,1.61411,98,111.24,95,64.3312,0\H,104,1.09668,101,107.143,98,176.79,0\H,104,1.09673,101,113.803,98,-64.5996,0\H,104,1.0972,101,114.752,98,56.1604,0\S,68,1.72878,57,112.705,56,-174.609,0\S,66,1.7463,64,114.204,63,-0.628833,0\S,69,1.75361,68,110.593,57,3.70251,0\\\@

 Total job time:  104.45s(wall), 1179.89s(cpu) 
 Sat Oct 13 01:46:59 2018

        *************************************************************
        *                                                           *
        *  Thank you very much for using Q-Chem.  Have a nice day.  *
        *                                                           *
        *************************************************************


