
Running Job 1 of 1 ./6/82.qcin
qchem ./6/82.qcin_38224.0 /tmpu/cab_g/afmv_a/scratch_qchem/qchem38224/ 1
/tmpu/appuserlic/qchem4.4/serial-multicore/exe/qcprog.exe_s ./6/82.qcin_38224.0 /tmpu/cab_g/afmv_a/scratch_qchem/qchem38224/
Check license passed

                  Welcome to Q-Chem
     A Quantum Leap Into The Future Of Chemistry


 Q-Chem 4.4, Q-Chem, Inc., Pleasanton, CA (2016)

 Y. Shao,  Z. Gan,  E. Epifanovsky,  A. T. B. Gilbert,  M. Wormit,  
 J. Kussmann,  A. W. Lange,  A. Behn,  J. Deng,  X. Feng,  D. Ghosh,  
 M. Goldey,  P. R. Horn,  L. D. Jacobson,  I. Kaliman,  F. Rob,  
 R. Z. Khaliullin,  T. Kus,  A. Landau,  J. Liu,  E. I. Proynov,  Y. M. Rhee,  
 R. M. Richard,  M. A. Rohrdanz,  R. P. Steele,  E. J. Sundstrom,  
 H. L. Woodcock III,  P. M. Zimmerman,  D. Zuev,  B. Albrecht,  E. Alguire,  
 B. Austin,  S. A. Baeppler,  G. J. O. Beran,  Y. A. Bernard,  E. Berquist,  
 K. Brandhorst,  K. B. Bravaya,  S. T. Brown,  D. Casanova,  C.-M. Chang,  
 Y. Chen,  S. H. Chien,  K. D. Closser,  M. P. Coons,  D. L. Crittenden,  
 S. Dasgupta,  M. Diedenhofen,  R. A. DiStasio Jr.,  H. Do,  A. D. Dutoi,  
 R. G. Edgar,  P.-T. Fang,  S. Fatehi,  Q. Feng,  L. Fusti-Molnar,  
 A. Ghysels,  A. Golubeva-Zadorozhnaya,  J. Gomes,  A. Gunina,  
 M. W. D. Hanson-Heine,  P. H. P. Harbach,  A. W. Hauser,  J. E. Herr,  
 E. G. Hohenstein,  Z. C. Holden,  K. Hui,  T.-C. Jagau,  H. Ji,  B. Kaduk,  
 K. Khistyaev,  Jaehoon Kim,  Jihan Kim,  R. A. King,  P. Klunzinger,  
 K. Koh,  D. Kosenkov,  T. Kowalczyk,  C. M. Krauter,  A. Kunitsa,  
 K. U. Lao,  A. Laurent,  K. V. Lawler,  J. Lee,  D. Lefrancois,  S. Lehtola,  
 S. V. Levchenko,  C. Y. Lin,  Y.-S. Lin,  F. Liu,  E. Livshits,  
 R. C. Lochan,  A. Luenser,  P. Manohar,  S. F. Manzer,  S.-P. Mao,  Y. Mao,  
 N. Mardirossian,  A. V. Marenich,  L. A. Martinez-Martinez,  S. A. Maurer,  
 N. J. Mayhall,  J.-M. Mewes,  A. F. Morrison,  K. Nanda,  T. S. Nguyen-Beck,  
 C. M. Oana,  R. Olivares-Amaya,  D. P. O'Neill,  J. A. Parkhill,  
 T. M. Perrine,  R. Peverati,  P. A. Pieniazek,  F. Plasser,  A. Prociuk,  
 D. R. Rehn,  E. Rosta,  N. J. Russ,  N. Sergueev,  S. M. Sharada,  
 S. Sharma,  D. W. Small,  A. Sodt,  T. Stauch,  T. Stein,  D. Stuck,  
 Y.-C. Su,  A. J. W. Thom,  T. Tsuchimochi,  L. Vogt,  O. Vydrov,  T. Wang,  
 M. A. Watson,  J. Wenzel,  A. White,  C. F. Williams,  V. Vanovschi,  
 K. Yao,  S. Yeganeh,  S. R. Yost,  Z.-Q. You,  I. Y. Zhang,  X. Zhang,  
 Y. Zhao,  B. R. Brooks,  G. K. L. Chan,  D. M. Chipman,  C. J. Cramer,  
 W. A. Goddard III,  M. S. Gordon,  W. J. Hehre,  A. Klamt,  
 H. F. Schaefer III,  M. W. Schmidt,  C. D. Sherrill,  D. G. Truhlar,  
 A. Warshel,  X. Xu,  A. Aspuru-Guzik,  R. Baer,  A. T. Bell,  N. A. Besley,  
 J.-D. Chai,  A. Dreuw,  B. D. Dunietz,  T. R. Furlani,  S. R. Gwaltney,  
 C.-P. Hsu,  Y. Jung,  J. Kong,  D. S. Lambrecht,  W. Liang,  C. Ochsenfeld,  
 V. A. Rassolov,  L. V. Slipchenko,  J. E. Subotnik,  T. Van Voorhis,  
 J. M. Herbert,  A. I. Krylov,  P. M. W. Gill,  M. Head-Gordon

 Contributors to earlier versions of Q-Chem not listed above: 
 R. D. Adamson,  J. Baker,  E. F. C. Byrd,  A. K. Chakraborty,  C.-L. Cheng,  
 H. Dachsel,  R. J. Doerksen,  G. Hawkins,  A. Heyden,  S. Hirata,  
 G. Kedziora,  F. J. Keil,  C. Kelley,  P. P. Korambath,  W. Kurlancheek,  
 A. M. Lee,  M. S. Lee,  D. Liotard,  I. Lotan,  P. E. Maslen,  N. Nair,  
 D. Neuhauser,  R. Olson,  B. Peters,  J. Ritchie,  N. E. Schultz,  
 N. Shenvi,  A. C. Simmonett,  K. S. Thanthiriwatte,  Q. Wu,  W. Zhang

 Please cite Q-Chem as follows:
 Y. Shao et al., Mol. Phys. 113, 184-215 (2015)
 DOI: 10.1080/00268976.2014.952696

 Q-Chem 4.4.2 for Intel X86 Linux

 Parts of Q-Chem use Armadillo 5.200.1 (Boston Tea Smuggler).
 http://arma.sourceforge.net/

 Q-Chem begins on Sat Oct 13 02:03:43 2018  

Host: 
0

     Scratch files written to /tmpu/cab_g/afmv_a/scratch_qchem/qchem38224//
 Dec716 11556_ 22328  22283 4050   
Processing $rem in /tmpu/appuserlic/qchem4.4/serial-multicore/config/preferences.
 MEM_TOTAL  2000 
FILE_GEOM_ORG=        593

Checking the input file for inconsistencies... 	...done.

--------------------------------------------------------------
User input:
--------------------------------------------------------------
$comment
SP
$end

$rem
MEM_STATIC 5000
MEM_TOTAL 20000
JOBTYPE SP
EXCHANGE B3LYP
BASIS 6-31g(d,p)
$end

$molecule
0 1
C          10.913000     23.372000      2.705000
C          11.901000     23.622000      3.661000
N           9.735000     22.771000      3.015000
C          11.637000     23.244000      4.988000
C           9.519000     22.365000      4.290000
C          10.437000     22.604000      5.339000
C          10.235000     22.070000      6.776000
C          10.887000     22.741000      7.826000
C           9.390000     21.000000      7.130000
N          10.772000     22.408000      9.106000
N           8.629000     20.218000      6.214000
C           9.322000     20.600000      8.495000
C           9.983000     21.317000      9.487000
S           7.962000     19.081000      7.234000
N           8.482000     19.510000      8.612000
C           9.683000     21.077000     10.940000
S           8.312000     20.128000     11.605000
C          10.232000     21.810000     11.960000
C           8.554000     20.810000     13.217000
S          11.492000     23.036000     11.934000
C           9.633000     21.651000     13.187000
C           7.683000     20.762000     14.375000
C          11.272000     23.287000     13.704000
C          10.297000     22.442000     14.193000
N           8.113000     20.975000     15.583000
S           5.942000     20.429000     14.272000
C           7.077000     20.839000     16.471000
C           5.867000     20.719000     15.967000
C          11.019000     23.962000      1.271000
H          12.820000     24.094000      3.327000
H          12.384000     23.409000      5.759000
H           8.613000     21.821000      4.557000
H          11.469000     23.659000      7.745000
H          11.841000     23.909000     14.382000
H          10.022000     22.441000     15.241000
H           7.116000     20.820000     17.552000
H           4.920000     20.686000     16.491000
H          11.457000     24.967000      1.248000
C           9.672000     24.000000      0.446000
H          11.791000     23.396000      0.736000
H           9.083000     24.844000      0.826000
H           9.135000     23.062000      0.636000
C           9.942000     24.301000     -1.075000
H          10.550000     25.211000     -1.155000
C           8.672000     24.539000     -1.984000
H          10.656000     23.516000     -1.352000
H           8.390000     25.564000     -1.711000
H           7.826000     23.999000     -1.541000
C           8.893000     24.418000     -3.522000
H           9.453000     25.287000     -3.888000
C           7.514000     24.402000     -4.306000
H           9.446000     23.479000     -3.654000
H           7.087000     25.361000     -3.987000
H           6.925000     23.553000     -3.939000
H           7.784000     24.307000     -5.366000
C          -7.003000     27.352000      8.610000
C          -5.934000     26.916000      7.812000
N          -6.884000     27.590000      9.933000
C          -4.733000     26.634000      8.485000
C          -5.755000     27.278000     10.548000
C          -4.645000     26.808000      9.917000
C          -3.481000     26.246000     10.708000
C          -2.702000     25.222000     10.233000
C          -3.145000     26.717000     11.964000
N          -1.610000     24.776000     10.911000
N          -3.741000     27.754000     12.606000
C          -2.082000     26.200000     12.730000
C          -1.315000     25.183000     12.135000
S          -3.096000     27.888000     14.108000
N          -1.870000     26.803000     13.964000
C          -0.211000     24.558000     12.903000
S          -0.104000     24.688000     14.713000
C           0.675000     23.600000     12.496000
C           1.436000     23.822000     14.724000
S           0.730000     22.733000     10.940000
C           1.628000     23.246000     13.424000
C           2.335000     23.544000     15.814000
C           2.258000     22.055000     11.548000
C           2.438000     22.184000     12.913000
N           3.622000     23.373000     15.561000
S           1.851000     24.066000     17.434000
C           4.289000     23.576000     16.777000
C           3.476000     23.822000     17.826000
C          -8.286000     27.507000      7.853000
H          -6.087000     26.742000      6.751000
H          -3.865000     26.394000      7.879000
H          -5.845000     27.266000     11.633000
H          -2.963000     24.730000      9.297000
H           2.860000     21.520000     10.826000
H           3.259000     21.826000     13.523000
H           5.369000     23.623000     16.805000
H           3.752000     24.027000     18.852000
H          -7.966000     27.669000      6.816000
C          -9.435000     28.396000      8.337000
H          -8.770000     26.524000      7.901000
H          -9.387000     28.664000      9.400000
H         -10.439000     27.981000      8.180000
C          -9.377000     29.764000      7.600000
H          -8.408000     30.254000      7.762000
C         -10.568000     30.689000      8.005000
H          -9.455000     29.614000      6.517000
H         -10.611000     30.895000      9.081000
H         -11.534000     30.323000      7.635000
C         -10.552000     32.056000      7.324000
H          -9.474000     32.261000      7.295000
C         -11.455000     33.079000      8.062000
H         -10.879000     32.021000      6.278000
H         -11.110000     34.116000      7.974000
H         -11.595000     32.689000      9.078000
H         -12.450000     33.031000      7.602000
$end

--------------------------------------------------------------
 ----------------------------------------------------------------
             Standard Nuclear Orientation (Angstroms)
    I     Atom           X                Y                Z
 ----------------------------------------------------------------
    1      C       8.7274991054    -5.7585674719    -0.9941363402
    2      C       9.3467209584    -4.7661869506    -1.7585480080
    3      N       7.7821799241    -5.4753390887    -0.0607884263
    4      C       8.9487910602    -3.4354535296    -1.5480501259
    5      C       7.4487631781    -4.1813751380     0.1663845644
    6      C       7.9876415799    -3.1064148277    -0.5781397129
    7      C       7.6755340804    -1.6240773875    -0.2679887465
    8      C       7.8251454607    -0.6879169701    -1.3067693334
    9      C       7.1837996827    -1.1408476622     0.9603952793
   10      N       7.5588512992     0.6069586072    -1.1847092705
   11      N       6.9428833459    -1.9362560332     2.1175408372
   12      C       6.9650211855     0.2581858734     1.1110277302
   13      C       7.1198037450     1.1287559170     0.0371449812
   14      S       6.4951852537    -0.7726838125     3.2237614777
   15      N       6.5350419759     0.5190829603     2.3972779350
   16      C       6.6157073382     2.5425777746     0.1133261325
   17      S       5.5344775609     3.2245963424     1.3735879473
   18      C       6.6563833278     3.4210827549    -0.9381796750
   19      C       5.1845154507     4.6429275661     0.3795582389
   20      S       7.4067662902     3.2717316237    -2.5212057801
   21      C       5.8988440289     4.5577936096    -0.7844472988
   22      C       4.1548188012     5.6498817080     0.5459227964
   23      C       6.7438371698     4.8830836434    -2.9776821212
   24      C       6.0285679880     5.4244431726    -1.9293067791
   25      N       4.2207588613     6.8179832024    -0.0204020286
   26      S       2.6908599068     5.3956328511     1.5179109004
   27      C       3.1266603028     7.5642525635     0.3350784701
   28      C       2.1638702838     6.9451135807     0.9848617413
   29      C       8.9320825842    -7.2644515153    -1.3199443330
   30      H      10.1027650756    -5.0764838865    -2.4734005133
   31      H       9.4147670483    -2.6330431433    -2.1125666892
   32      H       6.7430723101    -3.9164221108     0.9536972673
   33      H       8.0684224642    -0.9077393692    -2.3462419941
   34      H       6.9129223977     5.4622210846    -3.8756459344
   35      H       5.5534373083     6.3949047353    -2.0092141784
   36      H       2.9386858374     8.6131923960     0.1484402423
   37      H       1.1943737380     7.3287648718     1.2770297315
   38      H       9.0016770697    -7.4688882620    -2.3950072261
   39      C       7.8588960082    -8.2486323542    -0.7066445293
   40      H       9.9443295566    -7.5383762146    -0.9991853487
   41      H       6.9542931780    -8.1657785411    -1.3218566595
   42      H       7.6404188567    -7.9131472155     0.3151335562
   43      C       8.3294709114    -9.7465318999    -0.8152641016
   44      H       8.5990783265    -9.9599570957    -1.8573416071
   45      C       7.2777154850   -10.8491148723    -0.3981953877
   46      H       9.3070540588    -9.7276646889    -0.3185496783
   47      H       6.6168751299   -10.8711253418    -1.2742567808
   48      H       6.5882720025   -10.4078363877     0.3322195515
   49      C       7.8485487861   -12.2685642795    -0.1011453538
   50      H       8.1487544466   -12.7535384340    -1.0378382762
   51      C       6.7553887401   -13.2046814053     0.5661168439
   52      H       8.6991962480   -12.0950647085     0.5706066797
   53      H       5.9738427818   -13.1862081378    -0.2036984932
   54      H       6.4216472799   -12.7274711406     1.4952551550
   55      H       7.2606991334   -14.1642833451     0.7374367888
   56      C     -10.3057426492    -3.4599125042     1.0416373834
   57      C      -9.0085849627    -3.9777506753     1.1790657829
   58      N     -10.5580630354    -2.2293021196     0.5486196312
   59      C      -7.9551399477    -3.1007713490     0.8692031333
   60      C      -9.5482742553    -1.4105949859     0.3031501856
   61      C      -8.2376373954    -1.7541944483     0.4269703408
   62      C      -7.1493116103    -0.7015002609     0.3653024120
   63      C      -5.9897307743    -0.8067403679     1.0901050089
   64      C      -7.2664225054     0.4380372821    -0.4093021492
   65      N      -4.9823430150     0.0997273306     0.9694807410
   66      N      -8.2979890953     0.7254101189    -1.2435900031
   67      C      -6.2805568566     1.4422378605    -0.4698341303
   68      C      -5.1087894200     1.2183448014     0.2740986439
   69      S      -8.0708365388     2.2241553859    -1.8698082882
   70      N      -6.5510657331     2.5121501076    -1.3144770912
   71      C      -4.0494860722     2.2559622724     0.2962662134
   72      S      -4.3802576885     3.9790303881    -0.1792076624
   73      C      -2.8283401928     2.2146850983     0.9090532369
   74      C      -2.6788301379     4.4058204672     0.0321487161
   75      S      -2.1556808585     0.9347760194     1.9507884095
   76      C      -2.0326001085     3.3205711956     0.7127813392
   77      C      -1.9926340431     5.6418668702    -0.2415467516
   78      C      -0.6554469956     1.8886274399     1.8908065444
   79      C      -0.8241569078     3.1940474009     1.4669177725
   80      N      -0.7003780266     5.6136816428    -0.5224363750
   81      S      -2.9568236359     7.0082322179    -0.8199273925
   82      C      -0.4153028004     6.8239026168    -1.1696236042
   83      C      -1.4672234025     7.6632664617    -1.2736302513
   84      C     -11.3739363605    -4.3981971499     1.5125377111
   85      H      -8.8647183254    -4.9764900295     1.5805979647
   86      H      -6.9490739842    -3.5083141451     0.8695857774
   87      H      -9.8578258766    -0.3769244689     0.1576439789
   88      H      -5.8648756205    -1.6234986090     1.7997515168
   89      H       0.2302086460     1.4045280303     2.2796186407
   90      H      -0.0805039909     3.9773819978     1.3793263998
   91      H       0.5540258445     6.9854656761    -1.6209464998
   92      H      -1.5011701365     8.6375338490    -1.7432339962
   93      H     -10.9138775891    -5.3906947295     1.4270539029
   94      C     -12.8296634523    -4.3018623904     1.0473966054
   95      H     -11.4984472383    -4.1812323416     2.5803730511
   96      H     -13.1018511263    -3.3379790289     0.5991335848
   97      H     -13.5783034213    -4.4887199604     1.8281093856
   98      C     -13.0785755571    -5.3312111712    -0.0912169601
   99      H     -12.3882843532    -5.1623006164    -0.9280396882
  100      C     -14.5681052433    -5.3251414973    -0.5596136649
  101      H     -12.8692548997    -6.3467304885     0.2642804079
  102      H     -14.9057622031    -4.3461595244    -0.9196734851
  103      H     -15.2529703263    -5.7233842100     0.1995796965
  104      C     -14.8671451028    -6.3060959179    -1.6914306055
  105      H     -13.9405344125    -6.2375636809    -2.2759354911
  106      C     -16.1961699346    -5.9645650089    -2.4150545649
  107      H     -14.9327848442    -7.3473334013    -1.3541089084
  108      H     -16.2088164304    -6.2517399356    -3.4731229123
  109      H     -16.4100747216    -4.9131379645    -2.1854855941
  110      H     -16.9951927101    -6.5296584745    -1.9189084379
 ----------------------------------------------------------------
 Molecular Point Group                 C1    NOp =  1
 Largest Abelian Subgroup              C1    NOp =  1
 Nuclear Repulsion Energy = 10442.5349479457 hartrees
 There are      270 alpha and      270 beta electrons
 Requested basis set is 6-31G(d,p)
 There are 406 shells and 1262 basis functions

 Total QAlloc Memory Limit  20000 MB
 Mega-Array Size      4888 MB
 MEM_STATIC part      5000 MB
 A cutoff of  1.0D-08 yielded  12433 shell pairs
 There are    130472 function pairs
 
 -------------------------------------------------------
 OpenMP Integral Computing Module                       
 Release: version 1.0, May 2013, Q-Chem Inc. Pittsburgh 
 -------------------------------------------------------
 Integral Job Info:
 Integral job number is                      11
 Integral operator is                         1
 short-range coefficients                     0
 long-range coefficients              100000000
 Omega coefficients                           0
 if combine SR and LR in K                    0
 Integral screening is                        0
 Integral computing path is                   2
 max size of driver memory is            800000
 size of driver memory is                593474
 size of scratch memory is             15166112
 max col of scratch BK array               1296
 max len of scratch array in speh3          155
 max len of scratch index in speh4           18
 max int batch size is                      520
 min int batch size is                       52
 fixed nKL is                                52
 max L of basis functions is                  2
 order of int derivative is                   0
 number of shells is                        406
 number of basis is                        1262
 number of cartesian basis is              1262
 number of contracted shell pairs         12433
 number of primitive shell pairs          41126
 maxK2 (contraction) of shell pair           36
 max number of K2 of shell pair               1
 max number of CS2 of shell pair           1250
 max number of PS2 of shell pair           7500
 mem total for path MDJ                  278920
 -------------------------------------------------------
 Smallest overlap matrix eigenvalue = 3.62E-04

 Scale SEOQF with 1.000000e-03/1.000000e-02/1.000000e-01

 Standard Electronic Orientation quadrupole field applied
 Nucleus-field energy     =    -0.0000000034 hartrees
 Guess from superposition of atomic densities
 Warning:  Energy on first SCF cycle will be non-variational
 A restricted hybrid HF-DFT SCF calculation will be
 performed using Pulay DIIS extrapolation
 Exchange:     0.2000 Hartree-Fock + 0.0800 Slater + 0.7200 B88
 Correlation:  0.1900 VWN1RPA + 0.8100 LYP
 Using SG-1 standard quadrature grid
 SCF converges when DIIS error is below 1.0E-05
 using 16 threads for integral computing 
 -------------------------------------------------------
 OpenMP BLAS3 based DFT computing Module                
 Release: version 1.0, May 2013, Q-Chem Inc. Pittsburgh 
 -------------------------------------------------------
 ---------------------------------------
  Cycle       Energy         DIIS Error
 ---------------------------------------
    1   -5679.8966751561      2.14E-02
    2   -5662.4541353947      2.17E-03
    3   -5660.5532495063      3.58E-03
    4   -5663.2569640730      9.92E-04
    5   -5663.4530459461      3.79E-04
    6   -5663.4645060797      2.88E-04
    7   -5663.4799011257      9.56E-05
    8   -5663.4815903038      2.90E-05
    9   -5663.4817377785      1.38E-05
   10   -5663.4817793678      4.23E-06 Convergence criterion met
 ---------------------------------------
 SCF time:  CPU 999.93 s  wall 83.22 s
 SCF   energy in the final basis set = -5663.4817793678
 Total energy in the final basis set = -5663.4817793678
 
 --------------------------------------------------------------
 
                    Orbital Energies (a.u.)
 --------------------------------------------------------------
 
 Alpha MOs
 -- Occupied --
-88.997 -88.990 -88.930 -88.927 -88.924 -88.920 -88.908 -88.908
-14.389 -14.389 -14.386 -14.379 -14.352 -14.352 -14.348 -14.345
-14.328 -14.326 -10.273 -10.272 -10.269 -10.262 -10.262 -10.260
-10.254 -10.253 -10.246 -10.243 -10.243 -10.241 -10.240 -10.239
-10.232 -10.231 -10.231 -10.230 -10.227 -10.227 -10.225 -10.224
-10.224 -10.222 -10.222 -10.222 -10.221 -10.218 -10.217 -10.215
-10.214 -10.211 -10.206 -10.205 -10.201 -10.199 -10.197 -10.193
-10.188 -10.188 -10.180 -10.179 -10.177 -10.176 -10.175 -10.174
-10.174 -10.172 -10.171 -10.170  -8.053  -8.045  -7.990  -7.989
 -7.982  -7.982  -7.967  -7.966  -6.017  -6.012  -6.011  -6.010
 -6.004  -6.003  -5.953  -5.953  -5.950  -5.949  -5.947  -5.947
 -5.946  -5.945  -5.943  -5.942  -5.939  -5.939  -5.932  -5.931
 -5.929  -5.927  -5.923  -5.922  -1.042  -1.028  -0.981  -0.974
 -0.961  -0.954  -0.943  -0.930  -0.915  -0.908  -0.896  -0.895
 -0.840  -0.838  -0.832  -0.826  -0.821  -0.817  -0.811  -0.809
 -0.807  -0.794  -0.794  -0.790  -0.788  -0.777  -0.770  -0.765
 -0.751  -0.747  -0.740  -0.736  -0.727  -0.722  -0.708  -0.705
 -0.694  -0.692  -0.678  -0.673  -0.661  -0.651  -0.645  -0.644
 -0.637  -0.634  -0.626  -0.623  -0.611  -0.607  -0.595  -0.593
 -0.590  -0.588  -0.578  -0.576  -0.575  -0.573  -0.568  -0.566
 -0.550  -0.550  -0.543  -0.541  -0.526  -0.518  -0.516  -0.514
 -0.510  -0.506  -0.500  -0.493  -0.483  -0.483  -0.478  -0.478
 -0.473  -0.471  -0.468  -0.465  -0.462  -0.460  -0.454  -0.452
 -0.448  -0.443  -0.442  -0.437  -0.436  -0.435  -0.431  -0.428
 -0.427  -0.426  -0.422  -0.422  -0.419  -0.417  -0.414  -0.414
 -0.412  -0.406  -0.404  -0.403  -0.402  -0.398  -0.398  -0.397
 -0.396  -0.394  -0.390  -0.389  -0.387  -0.383  -0.382  -0.380
 -0.378  -0.376  -0.371  -0.369  -0.368  -0.363  -0.355  -0.352
 -0.352  -0.351  -0.350  -0.349  -0.346  -0.342  -0.342  -0.339
 -0.337  -0.334  -0.332  -0.328  -0.328  -0.325  -0.319  -0.314
 -0.313  -0.308  -0.308  -0.306  -0.304  -0.304  -0.300  -0.298
 -0.297  -0.294  -0.293  -0.291  -0.289  -0.287  -0.284  -0.281
 -0.274  -0.272  -0.268  -0.268  -0.255  -0.252  -0.250  -0.249
 -0.244  -0.242  -0.234  -0.231  -0.197  -0.191
 -- Virtual --
 -0.114  -0.113  -0.077  -0.072  -0.040  -0.034  -0.027  -0.026
 -0.022  -0.019  -0.017  -0.016  -0.012  -0.006   0.002   0.003
  0.004   0.008   0.014   0.025   0.030   0.033   0.036   0.041
  0.051   0.055   0.060   0.061   0.079   0.083   0.090   0.090
  0.091   0.093   0.097   0.101   0.102   0.104   0.106   0.107
  0.107   0.114   0.116   0.119   0.120   0.122   0.124   0.125
  0.128   0.131   0.133   0.134   0.136   0.138   0.140   0.147
  0.149   0.153   0.154   0.157   0.158   0.160   0.165   0.168
  0.168   0.171   0.174   0.175   0.176   0.179   0.183   0.185
  0.186   0.188   0.191   0.191   0.192   0.198   0.200   0.201
  0.202   0.204   0.204   0.211   0.215   0.216   0.217   0.222
  0.223   0.224   0.227   0.228   0.232   0.234   0.236   0.238
  0.240   0.243   0.245   0.246   0.248   0.254   0.255   0.258
  0.260   0.261   0.264   0.267   0.270   0.273   0.276   0.278
  0.281   0.283   0.287   0.291   0.292   0.294   0.304   0.306
  0.308   0.315   0.316   0.317   0.320   0.324   0.326   0.327
  0.327   0.330   0.333   0.336   0.341   0.343   0.346   0.352
  0.353   0.358   0.358   0.361   0.363   0.364   0.366   0.369
  0.371   0.373   0.376   0.380   0.388   0.394   0.401   0.402
  0.405   0.407   0.416   0.419   0.421   0.424   0.431   0.437
  0.445   0.449   0.451   0.453   0.459   0.459   0.462   0.465
  0.474   0.478   0.482   0.485   0.487   0.491   0.497   0.499
  0.499   0.501   0.502   0.506   0.507   0.509   0.515   0.515
  0.517   0.522   0.525   0.527   0.528   0.530   0.531   0.532
  0.537   0.539   0.542   0.543   0.547   0.548   0.552   0.554
  0.555   0.556   0.557   0.558   0.560   0.562   0.564   0.565
  0.565   0.569   0.571   0.573   0.575   0.578   0.578   0.583
  0.585   0.589   0.589   0.592   0.592   0.594   0.597   0.599
  0.602   0.603   0.603   0.606   0.607   0.608   0.612   0.613
  0.615   0.618   0.620   0.621   0.623   0.623   0.629   0.630
  0.630   0.631   0.635   0.637   0.637   0.640   0.647   0.648
  0.649   0.653   0.656   0.658   0.661   0.669   0.671   0.673
  0.678   0.678   0.680   0.684   0.688   0.690   0.693   0.693
  0.697   0.698   0.700   0.705   0.708   0.719   0.722   0.725
  0.731   0.732   0.733   0.735   0.736   0.737   0.739   0.742
  0.743   0.748   0.753   0.753   0.764   0.766   0.766   0.769
  0.772   0.775   0.777   0.780   0.781   0.789   0.790   0.791
  0.796   0.796   0.798   0.800   0.803   0.804   0.808   0.809
  0.813   0.814   0.815   0.816   0.820   0.822   0.823   0.824
  0.827   0.828   0.829   0.830   0.833   0.834   0.837   0.840
  0.841   0.843   0.846   0.848   0.851   0.851   0.853   0.854
  0.856   0.859   0.860   0.863   0.864   0.865   0.868   0.869
  0.871   0.874   0.877   0.886   0.887   0.889   0.890   0.890
  0.896   0.898   0.900   0.901   0.903   0.908   0.911   0.913
  0.915   0.917   0.917   0.923   0.924   0.925   0.927   0.928
  0.930   0.932   0.933   0.938   0.942   0.943   0.945   0.949
  0.951   0.954   0.955   0.956   0.959   0.960   0.963   0.964
  0.968   0.970   0.972   0.973   0.974   0.979   0.980   0.986
  0.991   0.993   0.995   0.997   0.999   1.001   1.002   1.006
  1.009   1.012   1.013   1.014   1.017   1.020   1.022   1.024
  1.028   1.032   1.037   1.039   1.041   1.043   1.044   1.047
  1.055   1.058   1.060   1.061   1.067   1.073   1.078   1.081
  1.083   1.086   1.091   1.092   1.098   1.098   1.107   1.109
  1.114   1.119   1.121   1.127   1.132   1.135   1.142   1.145
  1.155   1.161   1.163   1.169   1.170   1.174   1.175   1.179
  1.187   1.193   1.201   1.205   1.206   1.210   1.219   1.223
  1.228   1.236   1.243   1.246   1.248   1.251   1.262   1.265
  1.271   1.273   1.281   1.286   1.288   1.290   1.292   1.296
  1.299   1.306   1.308   1.311   1.316   1.319   1.325   1.327
  1.330   1.337   1.342   1.351   1.360   1.364   1.367   1.371
  1.375   1.376   1.379   1.380   1.386   1.390   1.391   1.393
  1.398   1.400   1.407   1.413   1.417   1.421   1.432   1.434
  1.439   1.442   1.446   1.448   1.451   1.463   1.466   1.468
  1.475   1.484   1.487   1.491   1.495   1.495   1.505   1.514
  1.518   1.526   1.537   1.538   1.542   1.549   1.555   1.558
  1.563   1.569   1.576   1.581   1.592   1.600   1.610   1.612
  1.614   1.625   1.627   1.631   1.643   1.647   1.650   1.654
  1.658   1.662   1.669   1.671   1.674   1.680   1.685   1.686
  1.690   1.694   1.694   1.704   1.704   1.706   1.708   1.715
  1.715   1.721   1.721   1.722   1.728   1.730   1.735   1.745
  1.747   1.751   1.752   1.756   1.762   1.770   1.772   1.775
  1.781   1.781   1.789   1.791   1.797   1.801   1.806   1.808
  1.815   1.819   1.821   1.825   1.831   1.834   1.840   1.843
  1.846   1.849   1.852   1.855   1.858   1.860   1.868   1.871
  1.873   1.877   1.881   1.883   1.884   1.888   1.889   1.890
  1.896   1.900   1.904   1.905   1.908   1.916   1.919   1.921
  1.924   1.928   1.934   1.938   1.944   1.944   1.951   1.954
  1.957   1.960   1.961   1.963   1.972   1.973   1.985   1.986
  1.995   1.995   2.002   2.004   2.005   2.007   2.011   2.017
  2.028   2.032   2.035   2.039   2.041   2.050   2.052   2.056
  2.058   2.072   2.080   2.080   2.083   2.090   2.091   2.099
  2.100   2.105   2.113   2.116   2.118   2.125   2.129   2.131
  2.133   2.139   2.141   2.144   2.151   2.153   2.155   2.156
  2.157   2.160   2.166   2.169   2.176   2.176   2.178   2.182
  2.194   2.196   2.198   2.200   2.206   2.208   2.215   2.220
  2.222   2.225   2.227   2.235   2.241   2.249   2.255   2.257
  2.259   2.260   2.265   2.268   2.272   2.276   2.277   2.278
  2.278   2.282   2.285   2.294   2.294   2.295   2.303   2.304
  2.311   2.320   2.322   2.322   2.328   2.328   2.333   2.335
  2.336   2.341   2.344   2.347   2.350   2.356   2.362   2.365
  2.366   2.371   2.374   2.382   2.384   2.386   2.388   2.391
  2.397   2.400   2.407   2.408   2.411   2.412   2.419   2.420
  2.429   2.431   2.433   2.436   2.438   2.441   2.445   2.448
  2.453   2.456   2.456   2.460   2.466   2.467   2.474   2.478
  2.483   2.490   2.492   2.492   2.496   2.500   2.501   2.506
  2.512   2.513   2.517   2.522   2.526   2.535   2.539   2.542
  2.546   2.547   2.554   2.558   2.562   2.570   2.571   2.572
  2.578   2.581   2.585   2.587   2.596   2.602   2.603   2.607
  2.612   2.613   2.621   2.627   2.635   2.636   2.638   2.646
  2.649   2.657   2.659   2.660   2.666   2.666   2.669   2.671
  2.675   2.676   2.681   2.682   2.683   2.693   2.697   2.701
  2.702   2.707   2.712   2.716   2.721   2.726   2.728   2.734
  2.742   2.746   2.748   2.752   2.760   2.770   2.775   2.781
  2.784   2.786   2.797   2.802   2.816   2.821   2.825   2.826
  2.826   2.831   2.833   2.846   2.848   2.851   2.861   2.866
  2.876   2.883   2.890   2.895   2.902   2.903   2.910   2.912
  2.916   2.922   2.925   2.927   2.936   2.941   2.953   2.956
  2.962   2.969   2.971   2.979   2.990   2.998   3.010   3.036
  3.043   3.043   3.048   3.062   3.073   3.085   3.091   3.097
  3.150   3.165   3.171   3.189   3.204   3.213   3.233   3.234
  3.244   3.246   3.258   3.264   3.266   3.273   3.280   3.284
  3.288   3.290   3.296   3.318   3.322   3.328   3.337   3.343
  3.346   3.353   3.358   3.361   3.379   3.394   3.407   3.415
  3.445   3.452   3.456   3.463   3.474   3.485   3.517   3.532
  3.541   3.554   3.573   3.577   3.583   3.590   3.593   3.596
  3.606   3.644   3.732   3.743   3.850   3.862   3.902   3.906
  3.940   3.950   3.953   3.955   3.957   3.966   3.976   3.991
  4.028   4.068   4.072   4.073   4.079   4.100   4.107   4.120
  4.125   4.132   4.137   4.147   4.163   4.166   4.170   4.191
  4.194   4.211   4.235   4.245   4.246   4.250   4.256   4.265
  4.266   4.291   4.298   4.330   4.363   4.377   4.382   4.391
  4.415   4.416   4.441   4.450   4.460   4.472   4.473   4.500
  4.504   4.512   4.524   4.531   4.561   4.601   4.632   4.643
  4.674   4.688   4.695   4.706   4.743   4.761   4.788   4.810
 --------------------------------------------------------------
 
          Ground-State Mulliken Net Atomic Charges

     Atom                 Charge (a.u.)
  ----------------------------------------
      1 C                     0.280837
      2 C                    -0.112568
      3 N                    -0.501482
      4 C                    -0.088124
      5 C                     0.086996
      6 C                     0.044800
      7 C                     0.028780
      8 C                     0.061754
      9 C                     0.201653
     10 N                    -0.519499
     11 N                    -0.568185
     12 C                     0.185355
     13 C                     0.294971
     14 S                     0.633377
     15 N                    -0.520659
     16 C                    -0.227022
     17 S                     0.326168
     18 C                    -0.114845
     19 C                    -0.237869
     20 S                     0.279841
     21 C                     0.166681
     22 C                     0.058560
     23 C                    -0.310611
     24 C                    -0.055681
     25 N                    -0.439576
     26 S                     0.257728
     27 C                     0.117550
     28 C                    -0.281004
     29 C                    -0.254092
     30 H                     0.092217
     31 H                     0.096171
     32 H                     0.127465
     33 H                     0.123073
     34 H                     0.128708
     35 H                     0.125455
     36 H                     0.109877
     37 H                     0.140904
     38 H                     0.107937
     39 C                    -0.173466
     40 H                     0.108824
     41 H                     0.094985
     42 H                     0.127180
     43 C                    -0.189823
     44 H                     0.084822
     45 C                    -0.184272
     46 H                     0.085482
     47 H                     0.089466
     48 H                     0.095041
     49 C                    -0.184915
     50 H                     0.097163
     51 C                    -0.313448
     52 H                     0.097576
     53 H                     0.107503
     54 H                     0.108993
     55 H                     0.103164
     56 C                     0.301049
     57 C                    -0.116488
     58 N                    -0.499898
     59 C                    -0.104872
     60 C                     0.092723
     61 C                     0.051779
     62 C                     0.076334
     63 C                     0.041589
     64 C                     0.226232
     65 N                    -0.550954
     66 N                    -0.564963
     67 C                     0.182767
     68 C                     0.342966
     69 S                     0.610063
     70 N                    -0.567837
     71 C                    -0.230534
     72 S                     0.328064
     73 C                    -0.113527
     74 C                    -0.216234
     75 S                     0.275128
     76 C                     0.156676
     77 C                     0.044537
     78 C                    -0.295481
     79 C                    -0.082243
     80 N                    -0.423366
     81 S                     0.276869
     82 C                     0.104879
     83 C                    -0.299791
     84 C                    -0.244304
     85 H                     0.096678
     86 H                     0.102892
     87 H                     0.117022
     88 H                     0.114948
     89 H                     0.127816
     90 H                     0.127539
     91 H                     0.124259
     92 H                     0.131083
     93 H                     0.101336
     94 C                    -0.179340
     95 H                     0.124407
     96 H                     0.125140
     97 H                     0.092529
     98 C                    -0.186096
     99 H                     0.097910
    100 C                    -0.177094
    101 H                     0.088175
    102 H                     0.092452
    103 H                     0.091198
    104 C                    -0.182094
    105 H                     0.087563
    106 C                    -0.322918
    107 H                     0.089801
    108 H                     0.107430
    109 H                     0.103292
    110 H                     0.102996
  ----------------------------------------
  Sum of atomic charges =     0.000000

 -----------------------------------------------------------------
                    Cartesian Multipole Moments
 -----------------------------------------------------------------
    Charge (ESU x 10^10)
                 0.0000
    Dipole Moment (Debye)
         X      -0.8512      Y       1.8477      Z      -0.2274
       Tot       2.0470
    Quadrupole Moments (Debye-Ang)
        XX    -448.9195     XY      -3.2718     YY    -403.4473
        XZ     -18.6405     YZ      -8.0564     ZZ    -435.0135
    Octopole Moments (Debye-Ang^2)
       XXX     174.8175    XXY    -199.6681    XYY    -203.8013
       YYY     370.1430    XXZ     -46.2798    XYZ     133.7552
       YYZ    -123.1688    XZZ      75.4381    YZZ      11.3233
       ZZZ      -8.9307
    Hexadecapole Moments (Debye-Ang^3)
      XXXX -148164.1723   XXXY    -991.4853   XXYY  -34543.6376
      XYYY     -46.8299   YYYY  -64403.3549   XXXZ   -2368.8066
      XXYZ    -317.6646   XYYZ    -934.6611   YYYZ    -377.0025
      XXZZ  -24781.7843   XYZZ     -34.9513   YYZZ  -11877.5538
      XZZZ      33.4250   YZZZ    -239.1789   ZZZZ   -5273.7757
 -----------------------------------------------------------------
Archival summary:
1\1\mn246\SP\ProcedureUnspecified\6-31G**\8105042\afmv_a\SatOct1302:05:092018SatOct1302:05:092018\0\\#,ProcedureUnspecified,6-31G**,\\0,1\S\C,1,1.76698\C,2,1.36836,1,108.978\C,3,1.37463,2,115.738,1,-2.15774,0\C,4,1.3708,3,115.329,2,1.48842,0\C,3,1.44174,2,133.24,1,178.383,0\H,6,1.08348,3,123.884,2,-3.15495,0\C,6,1.37977,3,114.466,2,172.669,0\H,8,1.08182,6,120.111,3,178.843,0\C,2,1.4498,1,129.317,3,-168.795,0\N,10,1.29982,2,122.557,1,-160.7,0\C,11,1.37125,10,109.612,2,178.837,0\H,12,1.08187,11,128.431,10,-171.1,0\C,12,1.31625,11,117.104,10,9.16658,0\H,14,1.08281,12,128.423,11,174.349,0\C,5,1.50293,4,123.644,3,-166.403,0\C,16,1.39107,5,120.815,4,175.468,0\N,17,1.38108,16,129.449,5,9.09733,0\N,16,1.39927,5,120.02,4,5.64071,0\C,19,1.3276,16,120.46,5,170.373,0\H,20,1.08996,19,109.218,16,-175.237,0\C,20,1.40636,19,124.056,16,-1.08693,0\C,22,1.40863,20,116.93,19,-1.43261,0\N,23,1.42468,22,125.155,20,-178.837,0\S,18,1.53406,17,110.535,16,-178.593,0\C,22,1.54626,20,117.938,19,-178.24,0\C,26,1.40456,22,120.08,20,-30.0475,0\H,27,1.08613,26,118.648,22,3.8482,0\C,27,1.40482,26,121.28,22,-173.713,0\H,29,1.08577,27,124.514,26,178.262,0\C,29,1.39735,27,117.726,26,-1.67454,0\N,31,1.3583,29,122.427,27,0.800487,0\C,32,1.3554,31,119.041,29,1.78508,0\H,33,1.08998,32,120.823,31,175.913,0\C,31,1.55425,29,121.003,27,-169.847,0\H,35,1.09654,31,113.235,29,36.2396,0\H,35,1.09662,31,107.59,29,-73.8477,0\C,35,1.58002,31,115.641,29,161.502,0\H,38,1.09711,35,107.178,31,-77.1226,0\H,38,1.09741,35,107.831,31,40.7576,0\C,38,1.57383,35,111.282,31,167.117,0\H,41,1.0967,38,102.644,35,-55.1299,0\H,41,1.09734,38,108.912,35,52.8797,0\C,41,1.57982,38,116.549,35,172.9,0\H,44,1.09707,41,108.266,38,27.0178,0\H,44,1.09758,41,101.778,38,-76.9938,0\C,44,1.5585,41,116.239,38,162.583,0\H,47,1.09668,44,109.891,41,72.7926,0\H,47,1.0977,44,104.864,41,-48.1795,0\C,47,1.58636,44,111.422,41,-169.19,0\H,50,1.09655,47,108.019,44,58.7449,0\H,50,1.09716,47,100.708,44,-58.5073,0\H,50,1.09796,47,105.321,44,179.568,0\S,14,1.72126,12,110.632,11,-12.1414,0\S,4,1.75822,3,113.962,2,-173.344,0\C,15,2.97188,14,101.691,12,-85.7956,0\H,56,1.08138,15,80.3694,14,30.908,0\C,56,1.34977,15,112.328,14,154.906,0\H,58,1.08207,56,128.155,15,-88.9459,0\N,56,1.4017,15,82.9182,14,-91.5183,0\C,60,1.32273,56,106.161,15,-113.825,0\C,61,1.43999,60,119.184,56,-160.419,0\C,62,1.4348,61,121.654,60,-34.659,0\C,63,1.37648,62,114.516,61,-179.377,0\C,64,1.3669,63,115.358,62,-7.25974,0\C,63,1.43006,62,134.241,61,-13.6364,0\H,66,1.08365,63,118.25,62,16.1267,0\C,66,1.38285,63,110.381,62,178.803,0\H,68,1.08163,66,129.242,63,-164.855,0\C,65,1.48299,64,128.587,63,-177.789,0\N,70,1.3232,65,121.023,64,-4.31401,0\C,71,1.36054,70,122.621,65,-172.683,0\H,72,1.08917,71,118.197,70,170.726,0\C,72,1.37151,71,121.873,70,-8.13978,0\C,74,1.38285,72,115.522,71,4.94806,0\N,75,1.35748,74,125.666,72,-177.252,0\C,70,1.40592,65,119.46,64,177.348,0\N,77,1.38972,70,127.333,65,-5.7729,0\C,74,1.51539,72,122.167,71,-175.958,0\C,79,1.36057,74,120.843,72,-146.918,0\H,80,1.08879,79,121.721,74,0.0511042,0\N,80,1.32296,79,124.201,74,169.162,0\C,82,1.34949,80,119.301,79,-4.78042,0\C,83,1.40345,82,123.029,80,6.97461,0\H,84,1.086,83,119.866,82,179.878,0\C,84,1.40529,83,116.168,82,-4.78555,0\H,86,1.08548,84,117.413,83,173.875,0\C,83,1.49772,82,123.559,80,-172.141,0\H,88,1.09674,83,105.258,82,90.6133,0\H,88,1.09728,83,104.071,82,-156.339,0\C,88,1.53127,83,122.896,82,-22.5243,0\H,91,1.09731,88,114.53,83,17.8013,0\H,91,1.09767,88,114.937,83,140.525,0\C,91,1.55498,88,109.448,83,-98.5578,0\H,94,1.09612,91,110.197,88,-59.1879,0\H,94,1.09786,91,110.833,88,57.3906,0\C,94,1.56145,91,111.702,88,-177.288,0\H,97,1.09639,94,113.314,91,-58.3551,0\H,97,1.09727,94,112.733,91,68.8379,0\C,97,1.52732,94,113.99,91,-179.245,0\H,100,1.09648,97,113.182,94,-76.2992,0\H,100,1.0977,97,100.907,94,36.3858,0\C,100,1.55132,97,111.839,94,162.052,0\H,103,1.09642,100,113.726,97,-150,0\H,103,1.09724,100,107.431,97,91.7364,0\H,103,1.09725,100,106.283,97,-20.1194,0\S,76,1.64012,75,108.836,74,-175.865,0\S,58,1.68933,56,115.174,15,101.071,0\S,62,1.76683,61,130.053,60,153.194,0\S,68,1.7788,66,114.434,63,21.9578,0\\\@

 Total job time:  86.33s(wall), 1009.59s(cpu) 
 Sat Oct 13 02:05:09 2018

        *************************************************************
        *                                                           *
        *  Thank you very much for using Q-Chem.  Have a nice day.  *
        *                                                           *
        *************************************************************


