
Running Job 1 of 1 ./6/86.qcin
qchem ./6/86.qcin_38383.0 /tmpu/cab_g/afmv_a/scratch_qchem/qchem38383/ 1
/tmpu/appuserlic/qchem4.4/serial-multicore/exe/qcprog.exe_s ./6/86.qcin_38383.0 /tmpu/cab_g/afmv_a/scratch_qchem/qchem38383/
Check license passed

                  Welcome to Q-Chem
     A Quantum Leap Into The Future Of Chemistry


 Q-Chem 4.4, Q-Chem, Inc., Pleasanton, CA (2016)

 Y. Shao,  Z. Gan,  E. Epifanovsky,  A. T. B. Gilbert,  M. Wormit,  
 J. Kussmann,  A. W. Lange,  A. Behn,  J. Deng,  X. Feng,  D. Ghosh,  
 M. Goldey,  P. R. Horn,  L. D. Jacobson,  I. Kaliman,  F. Rob,  
 R. Z. Khaliullin,  T. Kus,  A. Landau,  J. Liu,  E. I. Proynov,  Y. M. Rhee,  
 R. M. Richard,  M. A. Rohrdanz,  R. P. Steele,  E. J. Sundstrom,  
 H. L. Woodcock III,  P. M. Zimmerman,  D. Zuev,  B. Albrecht,  E. Alguire,  
 B. Austin,  S. A. Baeppler,  G. J. O. Beran,  Y. A. Bernard,  E. Berquist,  
 K. Brandhorst,  K. B. Bravaya,  S. T. Brown,  D. Casanova,  C.-M. Chang,  
 Y. Chen,  S. H. Chien,  K. D. Closser,  M. P. Coons,  D. L. Crittenden,  
 S. Dasgupta,  M. Diedenhofen,  R. A. DiStasio Jr.,  H. Do,  A. D. Dutoi,  
 R. G. Edgar,  P.-T. Fang,  S. Fatehi,  Q. Feng,  L. Fusti-Molnar,  
 A. Ghysels,  A. Golubeva-Zadorozhnaya,  J. Gomes,  A. Gunina,  
 M. W. D. Hanson-Heine,  P. H. P. Harbach,  A. W. Hauser,  J. E. Herr,  
 E. G. Hohenstein,  Z. C. Holden,  K. Hui,  T.-C. Jagau,  H. Ji,  B. Kaduk,  
 K. Khistyaev,  Jaehoon Kim,  Jihan Kim,  R. A. King,  P. Klunzinger,  
 K. Koh,  D. Kosenkov,  T. Kowalczyk,  C. M. Krauter,  A. Kunitsa,  
 K. U. Lao,  A. Laurent,  K. V. Lawler,  J. Lee,  D. Lefrancois,  S. Lehtola,  
 S. V. Levchenko,  C. Y. Lin,  Y.-S. Lin,  F. Liu,  E. Livshits,  
 R. C. Lochan,  A. Luenser,  P. Manohar,  S. F. Manzer,  S.-P. Mao,  Y. Mao,  
 N. Mardirossian,  A. V. Marenich,  L. A. Martinez-Martinez,  S. A. Maurer,  
 N. J. Mayhall,  J.-M. Mewes,  A. F. Morrison,  K. Nanda,  T. S. Nguyen-Beck,  
 C. M. Oana,  R. Olivares-Amaya,  D. P. O'Neill,  J. A. Parkhill,  
 T. M. Perrine,  R. Peverati,  P. A. Pieniazek,  F. Plasser,  A. Prociuk,  
 D. R. Rehn,  E. Rosta,  N. J. Russ,  N. Sergueev,  S. M. Sharada,  
 S. Sharma,  D. W. Small,  A. Sodt,  T. Stauch,  T. Stein,  D. Stuck,  
 Y.-C. Su,  A. J. W. Thom,  T. Tsuchimochi,  L. Vogt,  O. Vydrov,  T. Wang,  
 M. A. Watson,  J. Wenzel,  A. White,  C. F. Williams,  V. Vanovschi,  
 K. Yao,  S. Yeganeh,  S. R. Yost,  Z.-Q. You,  I. Y. Zhang,  X. Zhang,  
 Y. Zhao,  B. R. Brooks,  G. K. L. Chan,  D. M. Chipman,  C. J. Cramer,  
 W. A. Goddard III,  M. S. Gordon,  W. J. Hehre,  A. Klamt,  
 H. F. Schaefer III,  M. W. Schmidt,  C. D. Sherrill,  D. G. Truhlar,  
 A. Warshel,  X. Xu,  A. Aspuru-Guzik,  R. Baer,  A. T. Bell,  N. A. Besley,  
 J.-D. Chai,  A. Dreuw,  B. D. Dunietz,  T. R. Furlani,  S. R. Gwaltney,  
 C.-P. Hsu,  Y. Jung,  J. Kong,  D. S. Lambrecht,  W. Liang,  C. Ochsenfeld,  
 V. A. Rassolov,  L. V. Slipchenko,  J. E. Subotnik,  T. Van Voorhis,  
 J. M. Herbert,  A. I. Krylov,  P. M. W. Gill,  M. Head-Gordon

 Contributors to earlier versions of Q-Chem not listed above: 
 R. D. Adamson,  J. Baker,  E. F. C. Byrd,  A. K. Chakraborty,  C.-L. Cheng,  
 H. Dachsel,  R. J. Doerksen,  G. Hawkins,  A. Heyden,  S. Hirata,  
 G. Kedziora,  F. J. Keil,  C. Kelley,  P. P. Korambath,  W. Kurlancheek,  
 A. M. Lee,  M. S. Lee,  D. Liotard,  I. Lotan,  P. E. Maslen,  N. Nair,  
 D. Neuhauser,  R. Olson,  B. Peters,  J. Ritchie,  N. E. Schultz,  
 N. Shenvi,  A. C. Simmonett,  K. S. Thanthiriwatte,  Q. Wu,  W. Zhang

 Please cite Q-Chem as follows:
 Y. Shao et al., Mol. Phys. 113, 184-215 (2015)
 DOI: 10.1080/00268976.2014.952696

 Q-Chem 4.4.2 for Intel X86 Linux

 Parts of Q-Chem use Armadillo 5.200.1 (Boston Tea Smuggler).
 http://arma.sourceforge.net/

 Q-Chem begins on Sat Oct 13 02:09:27 2018  

Host: 
0

     Scratch files written to /tmpu/cab_g/afmv_a/scratch_qchem/qchem38383//
 Dec716 11556_ 22328  22283 4050   
Processing $rem in /tmpu/appuserlic/qchem4.4/serial-multicore/config/preferences.
 MEM_TOTAL  2000 
FILE_GEOM_ORG=        593

Checking the input file for inconsistencies... 	...done.

--------------------------------------------------------------
User input:
--------------------------------------------------------------
$comment
SP
$end

$rem
MEM_STATIC 5000
MEM_TOTAL 20000
JOBTYPE SP
EXCHANGE B3LYP
BASIS 6-31g(d,p)
$end

$molecule
0 1
C          13.860000     19.931000     15.414000
C          12.597000     19.817000     14.952000
N          14.906000     19.745000     14.682000
C          12.385000     19.620000     13.568000
C          14.699000     19.581000     13.329000
C          13.426000     19.576000     12.686000
C          13.187000     19.459000     11.158000
C          12.071000     18.781000     10.642000
C          13.919000     20.181000     10.163000
N          11.875000     18.528000      9.309000
N          14.840000     21.064000     10.479000
C          13.742000     19.948000      8.838000
C          12.688000     19.150000      8.405000
S          15.585000     21.498000      9.069000
N          14.620000     20.641000      8.020000
C          12.286000     19.006000      7.021000
S          12.880000     19.921000      5.674000
C          11.366000     18.060000      6.609000
C          11.935000     19.003000      4.509000
S          10.430000     16.760000      7.412000
C          11.186000     18.068000      5.219000
C          11.724000     19.355000      3.128000
C           9.879000     16.201000      5.824000
C          10.237000     17.106000      4.799000
N          10.576000     19.159000      2.489000
S          12.940000     20.238000      2.246000
C          10.688000     19.676000      1.182000
C          11.862000     20.347000      0.896000
C          14.160000     19.880000     16.904000
H          11.761000     19.898000     15.640000
H          11.370000     19.472000     13.211000
H          15.492000     19.378000     12.610000
H          11.416000     18.208000     11.296000
H           9.311000     15.280000      5.794000
H           9.828000     17.032000      3.798000
H           9.883000     19.582000      0.465000
H          12.217000     20.717000     -0.057000
H          14.982000     20.532000     17.223000
C          14.584000     18.396000     17.390000
H          13.252000     20.216000     17.419000
H          15.489000     18.088000     16.852000
H          13.818000     17.692000     17.042000
C          14.743000     18.270000     18.907000
H          15.490000     18.965000     19.311000
C          15.058000     16.841000     19.440000
H          13.792000     18.527000     19.391000
H          15.351000     16.915000     20.495000
H          15.998000     16.518000     18.977000
C          13.912000     15.828000     19.324000
H          13.073000     16.165000     19.946000
C          14.331000     14.468000     19.896000
H          13.547000     15.839000     18.290000
H          15.390000     14.317000     19.655000
H          13.784000     13.682000     19.361000
H          14.145000     14.391000     20.974000
C          13.978000      8.633000      3.324000
C          15.110000      8.839000      4.103000
N          13.617000      9.580000      2.453000
C          15.758000     10.064000      4.156000
C          14.244000     10.779000      2.540000
C          15.284000     11.098000      3.387000
C          15.875000     12.477000      3.468000
C          17.202000     12.801000      3.446000
C          15.003000     13.602000      3.580000
N          17.724000     14.039000      3.510000
N          13.696000     13.540000      3.673000
C          15.488000     14.906000      3.655000
C          16.900000     15.132000      3.655000
S          13.096000     15.034000      3.949000
N          14.517000     15.801000      3.872000
C          17.607000     16.454000      3.497000
S          19.020000     16.731000      2.491000
C          17.218000     17.661000      4.111000
C          19.013000     18.491000      2.898000
S          16.013000     17.897000      5.393000
C          17.995000     18.783000      3.775000
C          20.199000     19.326000      2.656000
C          16.592000     19.576000      5.512000
C          17.647000     19.881000      4.631000
N          21.319000     18.672000      2.434000
S          20.282000     21.063000      2.956000
C          22.352000     19.579000      2.457000
C          22.006000     20.841000      2.857000
C          13.329000      7.290000      3.299000
H          15.568000      8.051000      4.694000
H          16.573000     10.355000      4.811000
H          13.737000     11.575000      1.996000
H          17.929000     11.993000      3.381000
H          16.145000     20.204000      6.271000
H          18.093000     20.867000      4.588000
H          23.297000     19.182000      2.111000
H          22.664000     21.674000      3.067000
H          12.846000      7.124000      2.328000
C          12.190000      7.209000      4.299000
H          14.070000      6.483000      3.355000
H          11.572000      8.113000      4.233000
H          12.706000      7.144000      5.265000
C          11.372000      5.925000      4.104000
H          10.755000      5.936000      3.197000
C          10.297000      5.721000      5.225000
H          12.001000      5.027000      4.064000
H          10.755000      5.794000      6.219000
H           9.848000      4.721000      5.254000
C           9.161000      6.729000      5.107000
H           8.588000      6.583000      6.031000
C           8.191000      6.606000      3.924000
H           9.577000      7.742000      5.047000
H           7.918000      5.545000      3.868000
H           8.584000      7.040000      2.997000
H           7.299000      7.198000      4.162000
$end

--------------------------------------------------------------
 ----------------------------------------------------------------
             Standard Nuclear Orientation (Angstroms)
    I     Atom           X                Y                Z
 ----------------------------------------------------------------
    1      C      -9.2297628509    -1.4490321700     0.1487029861
    2      C      -8.7732344956    -1.9192996949    -1.0311441717
    3      N      -8.5005324249    -0.7871422002     0.9821660348
    4      C      -7.4733480778    -1.5627501499    -1.4582000495
    5      C      -7.2439100631    -0.4164390610     0.5534080348
    6      C      -6.6840599724    -0.7280476719    -0.7207469595
    7      C      -5.2986681198    -0.2592673443    -1.2370108640
    8      C      -4.5159282173    -1.0722943564    -2.0722960384
    9      C      -4.7906237238     1.0719729068    -1.1073062547
   10      N      -3.2326254607    -0.7738260855    -2.4509313856
   11      N      -5.5012405830     2.0402681548    -0.5732519578
   12      C      -3.5241506106     1.3911421868    -1.4753005810
   13      C      -2.7540769515     0.4780087741    -2.1883103496
   14      S      -4.4900363988     3.3375172763    -0.4117223493
   15      N      -3.1554008992     2.6900896466    -1.1638264295
   16      C      -1.4806230251     0.7873992361    -2.8050668976
   17      S      -0.7623770887     2.3576691578    -2.9562130119
   18      C      -0.6554071399    -0.1868984669    -3.3349939951
   19      C       0.7032666060     1.7233431901    -3.6927543394
   20      S      -0.7107704907    -1.9737589365    -3.4573441556
   21      C       0.5482691888     0.3450295021    -3.8174667213
   22      C       1.7288384785     2.5019848756    -4.3389009635
   23      C       0.9451789447    -1.9636859204    -4.0862765856
   24      C       1.3883244249    -0.6515186906    -4.3685056489
   25      N       2.3798745942     2.0993670155    -5.4245767137
   26      S       2.0595256241     4.1318813340    -3.8189465937
   27      C       3.2598270954     3.1222772777    -5.8337468388
   28      C       3.1775033510     4.3082227132    -5.1287154741
   29      C     -10.4989242773    -2.0023362630     0.7778173275
   30      H      -9.4120421771    -2.5455471389    -1.6464001224
   31      H      -7.0909677115    -1.9903741073    -2.3804261642
   32      H      -6.5178312077     0.1094922041     1.1724595675
   33      H      -4.8013245941    -2.1036551590    -2.2720804300
   34      H       1.4264608943    -2.9231107885    -4.2264072661
   35      H       2.2943226789    -0.4592803428    -4.9315061654
   36      H       3.9285237162     2.9912647391    -6.6743600340
   37      H       3.8228619088     5.1752906669    -5.1820023928
   38      H     -11.0979276300    -1.2591628555     1.3176666304
   39      C     -10.1863234933    -3.1622120288     1.8618823430
   40      H     -11.1136853562    -2.3896661437    -0.0435409251
   41      H      -9.5654376199    -2.7446215382     2.6640368881
   42      H      -9.5363257269    -3.9068035340     1.3858966351
   43      C     -11.4419774904    -3.8504248394     2.4023841161
   44      H     -12.1362018649    -3.1461060372     2.8780284608
   45      C     -11.1975531267    -5.0390037692     3.3785459152
   46      H     -11.9907487760    -4.3049441619     1.5675378658
   47      H     -12.1505974529    -5.3086259439     3.8511561091
   48      H     -10.6343768345    -4.6496268634     4.2350014536
   49      C     -10.5966244195    -6.2992916356     2.7433292729
   50      H     -11.3047836828    -6.7007863337     2.0073357503
   51      C     -10.4201273758    -7.4036414342     3.7929031464
   52      H      -9.7039722137    -6.0067324315     2.1775703566
   53      H     -10.1348548596    -6.9239327106     4.7367580780
   54      H      -9.5668219037    -8.0280383009     3.5009642415
   55      H     -11.3189341723    -8.0214981031     3.9069578669
   56      C       6.8674094480    -4.8001834839     2.0135506610
   57      C       6.0897555293    -4.4586219628     3.1132283911
   58      N       7.1551874298    -3.8561171314     1.1126102882
   59      C       5.4381185757    -3.2380294887     3.2073628311
   60      C       6.4868519973    -2.6801793807     1.2064034444
   61      C       5.5940868643    -2.3239682697     2.1947627220
   62      C       4.8418419603    -1.0234028810     2.1829189886
   63      C       4.7020164001    -0.1496172863     3.2237535323
   64      C       4.1868134908    -0.6096219157     0.9836375301
   65      N       4.0342532712     1.0178187733     3.2035186493
   66      N       4.1352976039    -1.3034169590    -0.1284490454
   67      C       3.4767882468     0.5867045928     0.9066113133
   68      C       3.3664380987     1.4147150569     2.0672324901
   69      S       3.1554281020    -0.5512659567    -1.1972505372
   70      N       2.8442464602     0.7314358334    -0.2638154277
   71      C       2.8502034193     2.8298224839     2.1261368688
   72      S       3.5887675413     4.1384335803     3.0357488939
   73      C       1.7188972206     3.3104688582     1.4374487335
   74      C       2.3640495597     5.3127220382     2.4157404397
   75      S       0.4868348508     2.3724447519     0.5694751779
   76      C       1.4563914782     4.6819185694     1.5978402068
   77      C       2.1623390031     6.6112869456     3.0756093907
   78      C      -0.4469172856     3.8819173692     0.4351533060
   79      C       0.1687911376     4.9915309256     1.0449663045
   80      N       2.6801091511     6.7234130622     4.2800768282
   81      S       1.0420763565     7.8564251539     2.5200012150
   82      C       2.2123328578     7.8904632536     4.8363557062
   83      C       1.2398052122     8.5271732278     4.1144482417
   84      C       7.5531150783    -6.1244151062     1.9723997300
   85      H       5.9666923100    -5.1125742197     3.9718266031
   86      H       4.7258084635    -2.9234496938     3.9633951431
   87      H       6.5650636146    -2.0633523569     0.3119715768
   88      H       5.1591622387    -0.4069311701     4.1779155978
   89      H      -1.4177252105     3.8261066936    -0.0388626657
   90      H      -0.2813573755     5.9765223773     1.0340504394
   91      H       2.7104722236     8.1738753256     5.7538984953
   92      H       0.6457622679     9.3816038743     4.4111201996
   93      H       8.4784987245    -6.0504687969     1.3876920675
   94      C       6.7230523336    -7.1525101739     1.2254737820
   95      H       7.9046391089    -6.4274995707     2.9664000636
   96      H       6.3323416087    -6.7133540082     0.2992000690
   97      H       5.9163740201    -7.3869428816     1.9311283746
   98      C       7.5270981450    -8.4350562426     0.9717201319
   99      H       8.3091270831    -8.3148529162     0.2118248100
  100      C       6.6528362999    -9.5812949690     0.3587886444
  101      H       8.0069587359    -8.8180447847     1.8809498004
  102      H       5.7534676263    -9.7485440936     0.9640098595
  103      H       7.1220756097   -10.5723261241     0.3694525840
  104      C       6.2552886364    -9.2791187103    -1.0803532401
  105      H       5.5240364877   -10.0618677596    -1.3169863336
  106      C       7.3430886031    -9.3046748967    -2.1627376976
  107      H       5.8065174933    -8.2797701494    -1.1326209646
  108      H       7.9165647734   -10.2239449740    -1.9911171656
  109      H       7.9342204916    -8.3820977668    -2.2020890612
  110      H       6.8423425352    -9.3659889847    -3.1365271810
 ----------------------------------------------------------------
 Molecular Point Group                 C1    NOp =  1
 Largest Abelian Subgroup              C1    NOp =  1
 Nuclear Repulsion Energy = 11512.9329367916 hartrees
 There are      270 alpha and      270 beta electrons
 Requested basis set is 6-31G(d,p)
 There are 406 shells and 1262 basis functions

 Total QAlloc Memory Limit  20000 MB
 Mega-Array Size      4888 MB
 MEM_STATIC part      5000 MB
 A cutoff of  1.0D-08 yielded  12962 shell pairs
 There are    138324 function pairs
 
 -------------------------------------------------------
 OpenMP Integral Computing Module                       
 Release: version 1.0, May 2013, Q-Chem Inc. Pittsburgh 
 -------------------------------------------------------
 Integral Job Info:
 Integral job number is                      11
 Integral operator is                         1
 short-range coefficients                     0
 long-range coefficients              100000000
 Omega coefficients                           0
 if combine SR and LR in K                    0
 Integral screening is                        0
 Integral computing path is                   2
 max size of driver memory is            800000
 size of driver memory is                593474
 size of scratch memory is             15166112
 max col of scratch BK array               1296
 max len of scratch array in speh3          155
 max len of scratch index in speh4           18
 max int batch size is                      520
 min int batch size is                       52
 fixed nKL is                                52
 max L of basis functions is                  2
 order of int derivative is                   0
 number of shells is                        406
 number of basis is                        1262
 number of cartesian basis is              1262
 number of contracted shell pairs         12962
 number of primitive shell pairs          42452
 maxK2 (contraction) of shell pair           36
 max number of K2 of shell pair               1
 max number of CS2 of shell pair           1372
 max number of PS2 of shell pair           8028
 mem total for path MDJ                  291608
 -------------------------------------------------------
 Smallest overlap matrix eigenvalue = 4.48E-04

 Scale SEOQF with 1.000000e-02/1.000000e-02/1.000000e-02

 Standard Electronic Orientation quadrupole field applied
 Nucleus-field energy     =     0.0000000857 hartrees
 Guess from superposition of atomic densities
 Warning:  Energy on first SCF cycle will be non-variational
 A restricted hybrid HF-DFT SCF calculation will be
 performed using Pulay DIIS extrapolation
 Exchange:     0.2000 Hartree-Fock + 0.0800 Slater + 0.7200 B88
 Correlation:  0.1900 VWN1RPA + 0.8100 LYP
 Using SG-1 standard quadrature grid
 SCF converges when DIIS error is below 1.0E-05
 using 16 threads for integral computing 
 -------------------------------------------------------
 OpenMP BLAS3 based DFT computing Module                
 Release: version 1.0, May 2013, Q-Chem Inc. Pittsburgh 
 -------------------------------------------------------
 ---------------------------------------
  Cycle       Energy         DIIS Error
 ---------------------------------------
    1   -5680.1863816859      2.15E-02
    2   -5662.5002207235      2.16E-03
    3   -5661.1443290765      3.30E-03
    4   -5663.3507432502      8.97E-04
    5   -5663.4934575036      3.79E-04
    6   -5663.5119235710      2.34E-04
    7   -5663.5219131041      7.64E-05
    8   -5663.5229476570      2.78E-05
    9   -5663.5230864346      1.16E-05
   10   -5663.5231127699      3.86E-06 Convergence criterion met
 ---------------------------------------
 SCF time:  CPU 1054.11 s  wall 87.39 s
 SCF   energy in the final basis set = -5663.5231127699
 Total energy in the final basis set = -5663.5231127699
 
 --------------------------------------------------------------
 
                    Orbital Energies (a.u.)
 --------------------------------------------------------------
 
 Alpha MOs
 -- Occupied --
-88.999 -88.985 -88.933 -88.927 -88.926 -88.919 -88.916 -88.905
-14.402 -14.389 -14.374 -14.367 -14.358 -14.352 -14.346 -14.337
-14.331 -14.325 -10.274 -10.267 -10.266 -10.265 -10.261 -10.260
-10.250 -10.247 -10.247 -10.246 -10.245 -10.238 -10.236 -10.236
-10.235 -10.235 -10.234 -10.233 -10.232 -10.231 -10.227 -10.225
-10.225 -10.224 -10.224 -10.221 -10.220 -10.219 -10.216 -10.213
-10.212 -10.207 -10.204 -10.204 -10.203 -10.202 -10.196 -10.192
-10.186 -10.183 -10.182 -10.179 -10.178 -10.177 -10.177 -10.175
-10.173 -10.172 -10.172 -10.171  -8.054  -8.040  -7.993  -7.988
 -7.988  -7.977  -7.975  -7.964  -6.019  -6.014  -6.012  -6.006
 -6.000  -5.998  -5.957  -5.953  -5.952  -5.952  -5.949  -5.949
 -5.948  -5.945  -5.945  -5.941  -5.939  -5.937  -5.935  -5.933
 -5.931  -5.929  -5.926  -5.921  -1.045  -1.039  -0.968  -0.967
 -0.960  -0.952  -0.948  -0.939  -0.918  -0.909  -0.903  -0.896
 -0.848  -0.837  -0.835  -0.829  -0.819  -0.810  -0.810  -0.806
 -0.806  -0.804  -0.800  -0.791  -0.784  -0.784  -0.770  -0.766
 -0.750  -0.746  -0.744  -0.738  -0.730  -0.715  -0.711  -0.708
 -0.697  -0.693  -0.683  -0.671  -0.659  -0.655  -0.652  -0.642
 -0.640  -0.635  -0.630  -0.625  -0.613  -0.608  -0.601  -0.598
 -0.595  -0.590  -0.589  -0.583  -0.582  -0.571  -0.562  -0.555
 -0.550  -0.546  -0.541  -0.535  -0.524  -0.521  -0.517  -0.516
 -0.515  -0.509  -0.505  -0.501  -0.494  -0.489  -0.483  -0.478
 -0.476  -0.470  -0.467  -0.464  -0.458  -0.458  -0.456  -0.452
 -0.448  -0.443  -0.441  -0.439  -0.434  -0.432  -0.431  -0.430
 -0.428  -0.426  -0.422  -0.421  -0.421  -0.418  -0.416  -0.415
 -0.410  -0.407  -0.406  -0.404  -0.403  -0.400  -0.398  -0.396
 -0.395  -0.393  -0.391  -0.388  -0.386  -0.384  -0.381  -0.380
 -0.376  -0.376  -0.375  -0.370  -0.369  -0.363  -0.361  -0.357
 -0.356  -0.355  -0.352  -0.350  -0.348  -0.344  -0.343  -0.341
 -0.339  -0.337  -0.332  -0.331  -0.329  -0.323  -0.320  -0.319
 -0.318  -0.315  -0.309  -0.307  -0.305  -0.301  -0.298  -0.297
 -0.294  -0.292  -0.292  -0.290  -0.289  -0.287  -0.286  -0.284
 -0.281  -0.271  -0.269  -0.265  -0.259  -0.255  -0.254  -0.245
 -0.243  -0.239  -0.237  -0.234  -0.201  -0.191
 -- Virtual --
 -0.124  -0.107  -0.079  -0.067  -0.038  -0.032  -0.029  -0.024
 -0.021  -0.021  -0.018  -0.011  -0.008  -0.006  -0.004   0.001
  0.001   0.010   0.018   0.019   0.026   0.030   0.032   0.034
  0.041   0.052   0.058   0.070   0.073   0.080   0.084   0.089
  0.095   0.097   0.099   0.101   0.103   0.108   0.110   0.111
  0.113   0.116   0.117   0.118   0.121   0.122   0.124   0.125
  0.129   0.130   0.131   0.137   0.138   0.142   0.145   0.148
  0.149   0.151   0.152   0.153   0.157   0.161   0.161   0.165
  0.167   0.169   0.171   0.173   0.174   0.176   0.178   0.184
  0.186   0.187   0.187   0.191   0.195   0.197   0.199   0.201
  0.204   0.206   0.207   0.208   0.213   0.216   0.217   0.218
  0.220   0.222   0.223   0.226   0.229   0.233   0.235   0.239
  0.241   0.245   0.246   0.250   0.252   0.253   0.260   0.261
  0.263   0.265   0.269   0.270   0.272   0.275   0.278   0.281
  0.284   0.286   0.289   0.294   0.295   0.298   0.302   0.305
  0.305   0.312   0.314   0.320   0.321   0.325   0.328   0.329
  0.332   0.334   0.335   0.339   0.342   0.344   0.346   0.348
  0.351   0.356   0.358   0.359   0.364   0.366   0.369   0.373
  0.375   0.378   0.384   0.385   0.389   0.390   0.395   0.399
  0.403   0.406   0.410   0.418   0.425   0.433   0.436   0.441
  0.444   0.448   0.452   0.455   0.464   0.466   0.469   0.471
  0.479   0.481   0.485   0.490   0.493   0.496   0.496   0.498
  0.500   0.504   0.506   0.510   0.511   0.513   0.514   0.518
  0.520   0.521   0.523   0.525   0.526   0.528   0.532   0.533
  0.535   0.537   0.540   0.543   0.543   0.546   0.548   0.550
  0.551   0.552   0.555   0.558   0.562   0.565   0.567   0.567
  0.568   0.570   0.571   0.574   0.575   0.577   0.580   0.584
  0.586   0.586   0.588   0.590   0.592   0.594   0.596   0.597
  0.601   0.606   0.607   0.608   0.611   0.615   0.615   0.618
  0.619   0.621   0.623   0.626   0.629   0.632   0.634   0.635
  0.636   0.638   0.638   0.641   0.643   0.643   0.645   0.651
  0.652   0.654   0.658   0.663   0.664   0.668   0.669   0.671
  0.675   0.677   0.679   0.686   0.688   0.690   0.691   0.695
  0.696   0.699   0.704   0.709   0.712   0.714   0.717   0.722
  0.723   0.726   0.727   0.731   0.735   0.740   0.745   0.745
  0.747   0.752   0.753   0.754   0.761   0.763   0.764   0.770
  0.776   0.778   0.778   0.782   0.785   0.791   0.792   0.793
  0.795   0.797   0.801   0.802   0.803   0.804   0.807   0.810
  0.812   0.813   0.813   0.814   0.815   0.818   0.821   0.824
  0.826   0.828   0.829   0.830   0.831   0.834   0.837   0.837
  0.838   0.839   0.841   0.843   0.844   0.850   0.851   0.852
  0.856   0.857   0.858   0.862   0.865   0.867   0.869   0.871
  0.873   0.874   0.875   0.876   0.878   0.880   0.884   0.886
  0.889   0.894   0.896   0.898   0.900   0.901   0.903   0.905
  0.910   0.914   0.917   0.918   0.922   0.926   0.927   0.929
  0.930   0.933   0.934   0.936   0.937   0.939   0.941   0.943
  0.945   0.947   0.950   0.953   0.954   0.960   0.963   0.964
  0.966   0.970   0.974   0.976   0.979   0.981   0.983   0.986
  0.990   0.992   0.994   0.996   0.998   1.002   1.005   1.007
  1.008   1.011   1.014   1.016   1.016   1.017   1.018   1.021
  1.027   1.028   1.033   1.034   1.036   1.040   1.044   1.044
  1.047   1.050   1.053   1.054   1.060   1.064   1.067   1.068
  1.073   1.076   1.081   1.086   1.090   1.097   1.104   1.104
  1.111   1.118   1.123   1.127   1.132   1.138   1.141   1.145
  1.147   1.152   1.155   1.158   1.164   1.170   1.174   1.179
  1.188   1.191   1.194   1.198   1.206   1.211   1.215   1.225
  1.228   1.232   1.237   1.244   1.250   1.254   1.257   1.260
  1.266   1.277   1.280   1.282   1.288   1.289   1.295   1.303
  1.309   1.311   1.315   1.316   1.323   1.331   1.334   1.338
  1.344   1.348   1.354   1.356   1.360   1.362   1.364   1.368
  1.371   1.373   1.378   1.381   1.387   1.389   1.393   1.394
  1.403   1.404   1.415   1.418   1.420   1.422   1.424   1.429
  1.439   1.443   1.448   1.457   1.458   1.462   1.464   1.467
  1.469   1.475   1.478   1.484   1.491   1.500   1.505   1.506
  1.508   1.514   1.525   1.527   1.543   1.543   1.556   1.562
  1.580   1.580   1.583   1.587   1.591   1.592   1.599   1.606
  1.610   1.612   1.621   1.631   1.636   1.640   1.643   1.646
  1.654   1.660   1.672   1.675   1.677   1.678   1.687   1.689
  1.690   1.693   1.695   1.699   1.700   1.700   1.704   1.705
  1.709   1.721   1.721   1.733   1.736   1.739   1.740   1.744
  1.747   1.762   1.764   1.769   1.772   1.777   1.782   1.785
  1.791   1.791   1.796   1.805   1.806   1.812   1.817   1.818
  1.820   1.829   1.833   1.834   1.838   1.843   1.844   1.845
  1.849   1.850   1.853   1.854   1.859   1.862   1.863   1.871
  1.871   1.873   1.876   1.882   1.888   1.888   1.896   1.901
  1.906   1.907   1.910   1.912   1.917   1.921   1.923   1.926
  1.929   1.930   1.933   1.935   1.942   1.944   1.948   1.956
  1.958   1.965   1.967   1.973   1.977   1.978   1.980   1.987
  1.989   1.990   2.003   2.007   2.007   2.011   2.021   2.022
  2.024   2.030   2.035   2.042   2.049   2.052   2.054   2.071
  2.075   2.082   2.084   2.086   2.086   2.092   2.094   2.096
  2.101   2.104   2.112   2.114   2.116   2.123   2.126   2.130
  2.132   2.133   2.135   2.142   2.147   2.150   2.156   2.156
  2.161   2.162   2.169   2.172   2.174   2.178   2.186   2.192
  2.195   2.196   2.198   2.202   2.207   2.214   2.216   2.218
  2.225   2.231   2.232   2.236   2.244   2.245   2.248   2.251
  2.253   2.253   2.261   2.264   2.265   2.272   2.273   2.278
  2.283   2.292   2.293   2.294   2.299   2.305   2.310   2.313
  2.318   2.318   2.320   2.322   2.328   2.328   2.333   2.336
  2.341   2.346   2.348   2.350   2.354   2.356   2.360   2.363
  2.364   2.365   2.372   2.377   2.378   2.381   2.384   2.387
  2.389   2.391   2.398   2.408   2.409   2.410   2.411   2.413
  2.414   2.420   2.426   2.430   2.432   2.434   2.438   2.442
  2.445   2.452   2.454   2.459   2.460   2.463   2.466   2.469
  2.471   2.476   2.485   2.490   2.493   2.497   2.501   2.502
  2.506   2.512   2.516   2.520   2.521   2.523   2.532   2.538
  2.545   2.548   2.551   2.554   2.555   2.563   2.565   2.569
  2.570   2.574   2.576   2.580   2.581   2.588   2.591   2.597
  2.603   2.618   2.622   2.623   2.628   2.635   2.637   2.643
  2.647   2.651   2.657   2.659   2.660   2.669   2.670   2.672
  2.674   2.680   2.683   2.686   2.687   2.694   2.695   2.706
  2.709   2.710   2.715   2.716   2.719   2.727   2.729   2.737
  2.753   2.755   2.756   2.764   2.779   2.783   2.783   2.789
  2.790   2.796   2.798   2.805   2.814   2.816   2.825   2.825
  2.829   2.831   2.836   2.842   2.859   2.860   2.862   2.869
  2.871   2.883   2.886   2.889   2.896   2.898   2.904   2.904
  2.906   2.914   2.922   2.933   2.941   2.944   2.946   2.952
  2.956   2.958   2.961   2.983   2.991   3.000   3.011   3.021
  3.036   3.048   3.062   3.072   3.078   3.087   3.100   3.114
  3.162   3.189   3.190   3.194   3.200   3.202   3.216   3.232
  3.245   3.246   3.250   3.251   3.265   3.276   3.282   3.290
  3.294   3.304   3.307   3.311   3.313   3.318   3.323   3.331
  3.349   3.355   3.364   3.391   3.392   3.405   3.411   3.417
  3.442   3.449   3.453   3.462   3.479   3.491   3.529   3.532
  3.538   3.560   3.564   3.570   3.572   3.593   3.603   3.606
  3.609   3.628   3.748   3.760   3.846   3.857   3.913   3.928
  3.932   3.941   3.943   3.955   3.967   3.982   3.988   4.002
  4.009   4.051   4.073   4.075   4.084   4.107   4.109   4.119
  4.122   4.127   4.138   4.143   4.156   4.173   4.197   4.200
  4.212   4.216   4.241   4.246   4.257   4.259   4.266   4.271
  4.273   4.279   4.322   4.345   4.352   4.379   4.383   4.396
  4.426   4.442   4.446   4.455   4.460   4.470   4.480   4.493
  4.513   4.515   4.529   4.540   4.578   4.625   4.669   4.685
  4.688   4.693   4.703   4.710   4.741   4.764   4.777   4.813
 --------------------------------------------------------------
 
          Ground-State Mulliken Net Atomic Charges

     Atom                 Charge (a.u.)
  ----------------------------------------
      1 C                     0.278098
      2 C                    -0.109706
      3 N                    -0.480509
      4 C                    -0.089388
      5 C                     0.084326
      6 C                     0.060256
      7 C                     0.029884
      8 C                     0.050203
      9 C                     0.240972
     10 N                    -0.525662
     11 N                    -0.549470
     12 C                     0.238775
     13 C                     0.306751
     14 S                     0.609049
     15 N                    -0.599254
     16 C                    -0.239878
     17 S                     0.353042
     18 C                    -0.098687
     19 C                    -0.219824
     20 S                     0.286588
     21 C                     0.148878
     22 C                     0.056076
     23 C                    -0.316266
     24 C                    -0.075913
     25 N                    -0.434038
     26 S                     0.280545
     27 C                     0.106154
     28 C                    -0.298370
     29 C                    -0.221051
     30 H                     0.091343
     31 H                     0.093010
     32 H                     0.103369
     33 H                     0.114871
     34 H                     0.139910
     35 H                     0.126538
     36 H                     0.116955
     37 H                     0.141676
     38 H                     0.111923
     39 C                    -0.169912
     40 H                     0.083583
     41 H                     0.114869
     42 H                     0.090479
     43 C                    -0.180518
     44 H                     0.089106
     45 C                    -0.180904
     46 H                     0.087505
     47 H                     0.087251
     48 H                     0.089416
     49 C                    -0.173987
     50 H                     0.093004
     51 C                    -0.320905
     52 H                     0.096783
     53 H                     0.105556
     54 H                     0.101253
     55 H                     0.108362
     56 C                     0.283129
     57 C                    -0.130899
     58 N                    -0.485906
     59 C                    -0.067097
     60 C                     0.074322
     61 C                     0.066473
     62 C                     0.050745
     63 C                     0.050265
     64 C                     0.238909
     65 N                    -0.508992
     66 N                    -0.573285
     67 C                     0.226304
     68 C                     0.247255
     69 S                     0.614927
     70 N                    -0.555962
     71 C                    -0.211332
     72 S                     0.353937
     73 C                    -0.134770
     74 C                    -0.256358
     75 S                     0.282472
     76 C                     0.163276
     77 C                     0.062420
     78 C                    -0.302159
     79 C                    -0.092509
     80 N                    -0.413957
     81 S                     0.264904
     82 C                     0.124218
     83 C                    -0.314824
     84 C                    -0.236033
     85 H                     0.084197
     86 H                     0.097595
     87 H                     0.107405
     88 H                     0.107301
     89 H                     0.143831
     90 H                     0.105112
     91 H                     0.114179
     92 H                     0.130893
     93 H                     0.116600
     94 C                    -0.168065
     95 H                     0.102385
     96 H                     0.116342
     97 H                     0.095896
     98 C                    -0.182973
     99 H                     0.100629
    100 C                    -0.179085
    101 H                     0.087625
    102 H                     0.086222
    103 H                     0.080792
    104 C                    -0.175512
    105 H                     0.087644
    106 C                    -0.314387
    107 H                     0.093177
    108 H                     0.100275
    109 H                     0.107863
    110 H                     0.102466
  ----------------------------------------
  Sum of atomic charges =     0.000000

 -----------------------------------------------------------------
                    Cartesian Multipole Moments
 -----------------------------------------------------------------
    Charge (ESU x 10^10)
                 0.0000
    Dipole Moment (Debye)
         X      -2.1018      Y       0.4936      Z      -1.9965
       Tot       2.9406
    Quadrupole Moments (Debye-Ang)
        XX    -451.2334     XY       3.2851     YY    -397.3119
        XZ      -1.2138     YZ      -8.6156     ZZ    -441.9231
    Octopole Moments (Debye-Ang^2)
       XXX    -209.9798    XXY    -101.4307    XYY     -12.2959
       YYY     240.4562    XXZ    -118.6956    XYZ    -135.9196
       YYZ      70.1781    XZZ      93.4814    YZZ      27.8642
       ZZZ       6.6579
    Hexadecapole Moments (Debye-Ang^3)
      XXXX  -76694.1932   XXXY    1725.8065   XXYY  -20232.2282
      XYYY    -537.0520   YYYY  -46248.8420   XXXZ     476.6890
      XXYZ    -596.6650   XYYZ     -22.8254   YYYZ     880.3632
      XXZZ  -15450.6126   XYZZ      48.6021   YYZZ  -10532.5573
      XZZZ    -351.8000   YZZZ     -88.4123   ZZZZ  -19254.5395
 -----------------------------------------------------------------
Archival summary:
1\1\mn246\SP\ProcedureUnspecified\6-31G**\8105042\afmv_a\SatOct1302:10:582018SatOct1302:10:582018\0\\#,ProcedureUnspecified,6-31G**,\\0,1\S\C,1,1.77517\C,2,1.40553,1,116.217\C,3,1.37503,2,113.093,1,-172.468,0\C,2,1.40896,1,128.026,3,-171.638,0\C,3,1.43508,2,109.519,1,-2.5926,0\H,6,1.08303,3,124.961,2,179.963,0\C,6,1.40791,3,112.905,2,3.24736,0\H,8,1.08179,6,128.529,3,-178.687,0\C,4,1.47051,3,125.555,2,161.675,0\N,10,1.31583,4,115.597,3,-143.803,0\C,11,1.37487,10,107.988,4,169.87,0\H,12,1.08183,11,114.134,10,169.557,0\C,12,1.36834,11,115.045,10,-7.81883,0\H,14,1.08211,12,127.803,11,-171.775,0\C,5,1.50748,2,125.177,1,-10.8604,0\N,16,1.37646,5,113.864,2,151.732,0\C,17,1.34507,16,120.235,5,171.035,0\H,18,1.08886,17,115.259,16,177.088,0\C,18,1.36616,17,126.475,16,-2.24317,0\C,20,1.42778,18,114.056,17,0.438954,0\N,21,1.31177,20,125.228,18,177.196,0\C,21,1.39329,20,121.942,18,-0.16409,0\N,23,1.33827,21,112.462,20,174.555,0\C,20,1.50249,18,126.789,17,-179.524,0\C,25,1.37302,20,121.682,18,-47.2923,0\H,26,1.08533,25,113.287,20,-0.555196,0\C,25,1.37868,20,122.834,18,132.313,0\H,28,1.08931,25,119.263,20,8.09327,0\N,28,1.35584,25,126.361,20,176.724,0\C,30,1.33633,28,117.383,25,-4.43288,0\C,26,1.38684,25,118.848,20,-175.57,0\H,32,1.08627,26,115.022,25,-176.848,0\C,31,1.4918,30,120.632,28,-179.603,0\H,34,1.09703,31,111.564,30,-133.395,0\H,34,1.09713,31,110.033,30,-19.2683,0\C,34,1.51785,31,111.313,30,95.679,0\H,37,1.09704,34,109.823,31,-45.0648,0\H,37,1.0971,34,103.316,31,74.0091,0\C,37,1.53486,34,111.153,31,-170.115,0\H,40,1.09702,37,113.353,34,71.8838,0\H,40,1.09711,37,112.57,34,-50.389,0\C,40,1.56649,37,112.567,34,-173.054,0\H,43,1.09656,40,114.751,37,166.992,0\H,43,1.09687,40,110.689,37,52.2473,0\C,43,1.52331,40,111.725,37,-70.3597,0\H,46,1.09673,43,109.425,40,51.7122,0\H,46,1.09701,43,103.663,40,170.813,0\C,46,1.53477,43,118.555,40,-69.6039,0\H,49,1.09642,46,113.168,43,80.8838,0\H,49,1.09671,46,107.669,43,-163.353,0\H,49,1.09699,46,105.911,43,-46.4956,0\S,24,1.61662,23,109.159,21,0.853872,0\S,14,1.74105,12,112.619,11,10.7046,0\S,5,1.75651,2,109.669,1,170.389,0\N,9,2.36127,8,153.379,6,178.971,0\C,56,1.38573,9,138.928,8,-11.6706,0\C,57,1.35692,56,114.073,9,-127.275,0\N,58,1.31445,57,116.199,56,-3.05686,0\C,57,1.39112,56,125.675,9,57.4632,0\N,60,1.36568,57,120.416,56,179.104,0\C,61,1.37088,60,118.326,57,-4.20674,0\H,62,1.08861,61,113.641,60,177.056,0\C,62,1.40406,61,124.063,60,11.0949,0\C,60,1.44838,57,124.385,56,4.99364,0\C,65,1.38241,60,122.516,57,-170.311,0\C,66,1.40163,65,112.155,60,177.107,0\C,67,1.3926,66,116.127,65,0.328272,0\C,67,1.41508,66,112.122,65,179.573,0\H,69,1.08386,67,125.001,66,-170.283,0\C,69,1.41344,67,112.948,66,11.0945,0\H,71,1.08248,69,131.115,67,169.496,0\C,68,1.44069,67,125.029,66,167.605,0\N,73,1.3284,68,123.478,67,-21.5555,0\C,74,1.40999,73,108.853,68,-176.98,0\H,75,1.0821,74,121.551,73,-177.004,0\C,75,1.38214,74,115.931,73,5.28015,0\H,77,1.08219,75,128.818,74,-171.839,0\C,64,1.551,62,121.397,61,173.173,0\C,79,1.36512,64,121.429,62,30.9318,0\H,80,1.08608,79,119.729,64,-6.16125,0\C,80,1.41393,79,121.505,64,175.678,0\H,82,1.08573,80,121.011,79,-177.055,0\C,82,1.34967,80,119.152,79,1.65534,0\N,84,1.29017,82,123.525,80,6.802,0\C,85,1.37853,84,116.889,82,-7.98058,0\H,86,1.0895,85,124.096,84,177.49,0\C,84,1.52076,82,121.141,80,168.327,0\H,88,1.09661,84,114.39,82,144.891,0\H,88,1.09662,84,106.649,82,26.1051,0\C,88,1.61809,84,112.131,82,-95.4812,0\H,91,1.09697,88,109.049,84,-60.4885,0\H,91,1.09703,88,108.078,84,51.8531,0\C,91,1.53051,88,113.605,84,173.603,0\H,94,1.09738,91,112.549,88,58.2398,0\H,94,1.09759,91,109.134,88,-59.4065,0\C,94,1.55736,91,115.835,88,-176.103,0\H,97,1.09649,94,107.408,91,-59.5227,0\H,97,1.09743,94,108.732,91,-168.442,0\C,97,1.53393,94,115.402,91,69.4692,0\H,100,1.09659,97,108.262,94,-51.5294,0\H,100,1.09744,97,108.996,94,63.4285,0\C,100,1.53374,97,110.688,94,179.213,0\H,103,1.09652,100,107.697,97,35.9637,0\H,103,1.09664,100,112.491,97,-87.5867,0\H,103,1.09692,100,108.497,97,150.291,0\S,59,1.65272,58,106.687,57,5.19096,0\S,77,1.73103,75,109.696,74,-4.65545,0\S,65,1.73334,60,126.511,57,8.16006,0\S,71,1.77139,69,111.67,67,-13.193,0\\\@

 Total job time:  90.60s(wall), 1063.73s(cpu) 
 Sat Oct 13 02:10:58 2018

        *************************************************************
        *                                                           *
        *  Thank you very much for using Q-Chem.  Have a nice day.  *
        *                                                           *
        *************************************************************


