
Running Job 1 of 1 ./10/0.qcin
qchem ./10/0.qcin_40581.0 /tmpu/cab_g/afmv_a/scratch_qchem/qchem40581/ 1
/tmpu/appuserlic/qchem4.4/serial-multicore/exe/qcprog.exe_s ./10/0.qcin_40581.0 /tmpu/cab_g/afmv_a/scratch_qchem/qchem40581/
Check license passed

                  Welcome to Q-Chem
     A Quantum Leap Into The Future Of Chemistry


 Q-Chem 4.4, Q-Chem, Inc., Pleasanton, CA (2016)

 Y. Shao,  Z. Gan,  E. Epifanovsky,  A. T. B. Gilbert,  M. Wormit,  
 J. Kussmann,  A. W. Lange,  A. Behn,  J. Deng,  X. Feng,  D. Ghosh,  
 M. Goldey,  P. R. Horn,  L. D. Jacobson,  I. Kaliman,  F. Rob,  
 R. Z. Khaliullin,  T. Kus,  A. Landau,  J. Liu,  E. I. Proynov,  Y. M. Rhee,  
 R. M. Richard,  M. A. Rohrdanz,  R. P. Steele,  E. J. Sundstrom,  
 H. L. Woodcock III,  P. M. Zimmerman,  D. Zuev,  B. Albrecht,  E. Alguire,  
 B. Austin,  S. A. Baeppler,  G. J. O. Beran,  Y. A. Bernard,  E. Berquist,  
 K. Brandhorst,  K. B. Bravaya,  S. T. Brown,  D. Casanova,  C.-M. Chang,  
 Y. Chen,  S. H. Chien,  K. D. Closser,  M. P. Coons,  D. L. Crittenden,  
 S. Dasgupta,  M. Diedenhofen,  R. A. DiStasio Jr.,  H. Do,  A. D. Dutoi,  
 R. G. Edgar,  P.-T. Fang,  S. Fatehi,  Q. Feng,  L. Fusti-Molnar,  
 A. Ghysels,  A. Golubeva-Zadorozhnaya,  J. Gomes,  A. Gunina,  
 M. W. D. Hanson-Heine,  P. H. P. Harbach,  A. W. Hauser,  J. E. Herr,  
 E. G. Hohenstein,  Z. C. Holden,  K. Hui,  T.-C. Jagau,  H. Ji,  B. Kaduk,  
 K. Khistyaev,  Jaehoon Kim,  Jihan Kim,  R. A. King,  P. Klunzinger,  
 K. Koh,  D. Kosenkov,  T. Kowalczyk,  C. M. Krauter,  A. Kunitsa,  
 K. U. Lao,  A. Laurent,  K. V. Lawler,  J. Lee,  D. Lefrancois,  S. Lehtola,  
 S. V. Levchenko,  C. Y. Lin,  Y.-S. Lin,  F. Liu,  E. Livshits,  
 R. C. Lochan,  A. Luenser,  P. Manohar,  S. F. Manzer,  S.-P. Mao,  Y. Mao,  
 N. Mardirossian,  A. V. Marenich,  L. A. Martinez-Martinez,  S. A. Maurer,  
 N. J. Mayhall,  J.-M. Mewes,  A. F. Morrison,  K. Nanda,  T. S. Nguyen-Beck,  
 C. M. Oana,  R. Olivares-Amaya,  D. P. O'Neill,  J. A. Parkhill,  
 T. M. Perrine,  R. Peverati,  P. A. Pieniazek,  F. Plasser,  A. Prociuk,  
 D. R. Rehn,  E. Rosta,  N. J. Russ,  N. Sergueev,  S. M. Sharada,  
 S. Sharma,  D. W. Small,  A. Sodt,  T. Stauch,  T. Stein,  D. Stuck,  
 Y.-C. Su,  A. J. W. Thom,  T. Tsuchimochi,  L. Vogt,  O. Vydrov,  T. Wang,  
 M. A. Watson,  J. Wenzel,  A. White,  C. F. Williams,  V. Vanovschi,  
 K. Yao,  S. Yeganeh,  S. R. Yost,  Z.-Q. You,  I. Y. Zhang,  X. Zhang,  
 Y. Zhao,  B. R. Brooks,  G. K. L. Chan,  D. M. Chipman,  C. J. Cramer,  
 W. A. Goddard III,  M. S. Gordon,  W. J. Hehre,  A. Klamt,  
 H. F. Schaefer III,  M. W. Schmidt,  C. D. Sherrill,  D. G. Truhlar,  
 A. Warshel,  X. Xu,  A. Aspuru-Guzik,  R. Baer,  A. T. Bell,  N. A. Besley,  
 J.-D. Chai,  A. Dreuw,  B. D. Dunietz,  T. R. Furlani,  S. R. Gwaltney,  
 C.-P. Hsu,  Y. Jung,  J. Kong,  D. S. Lambrecht,  W. Liang,  C. Ochsenfeld,  
 V. A. Rassolov,  L. V. Slipchenko,  J. E. Subotnik,  T. Van Voorhis,  
 J. M. Herbert,  A. I. Krylov,  P. M. W. Gill,  M. Head-Gordon

 Contributors to earlier versions of Q-Chem not listed above: 
 R. D. Adamson,  J. Baker,  E. F. C. Byrd,  A. K. Chakraborty,  C.-L. Cheng,  
 H. Dachsel,  R. J. Doerksen,  G. Hawkins,  A. Heyden,  S. Hirata,  
 G. Kedziora,  F. J. Keil,  C. Kelley,  P. P. Korambath,  W. Kurlancheek,  
 A. M. Lee,  M. S. Lee,  D. Liotard,  I. Lotan,  P. E. Maslen,  N. Nair,  
 D. Neuhauser,  R. Olson,  B. Peters,  J. Ritchie,  N. E. Schultz,  
 N. Shenvi,  A. C. Simmonett,  K. S. Thanthiriwatte,  Q. Wu,  W. Zhang

 Please cite Q-Chem as follows:
 Y. Shao et al., Mol. Phys. 113, 184-215 (2015)
 DOI: 10.1080/00268976.2014.952696

 Q-Chem 4.4.2 for Intel X86 Linux

 Parts of Q-Chem use Armadillo 5.200.1 (Boston Tea Smuggler).
 http://arma.sourceforge.net/

 Q-Chem begins on Sat Oct 13 17:48:39 2018  

Host: 
0

     Scratch files written to /tmpu/cab_g/afmv_a/scratch_qchem/qchem40581//
 Dec716 11556_ 22328  22283 4050   
Processing $rem in /tmpu/appuserlic/qchem4.4/serial-multicore/config/preferences.
 MEM_TOTAL  2000 
FILE_GEOM_ORG=        593

Checking the input file for inconsistencies... 	...done.

--------------------------------------------------------------
User input:
--------------------------------------------------------------
$comment
SP
$end

$rem
MEM_STATIC 5000
MEM_TOTAL 20000
JOBTYPE SP
EXCHANGE B3LYP
BASIS 6-31g(d,p)
$end

$molecule
0 1
O          15.868000     11.931000      7.056000
C          14.531000     11.455000      7.549000
H          13.852000     11.387000      6.690000
H          14.162000     12.091000      8.363000
H          14.732000     10.548000      8.132000
O          16.681000     12.158000      9.147000
C          16.828000     12.184000      7.937000
C          18.065000     12.714000      7.228000
H          17.911000     13.601000      6.602000
H          18.414000     11.931000      6.544000
C          19.233000     12.990000      8.162000
H          18.947000     13.770000      8.877000
H          19.461000     12.084000      8.737000
C          20.553000     13.444000      7.497000
H          21.030000     12.595000      6.991000
H          20.512000     14.093000      6.614000
C          21.593000     14.004000      8.510000
C          22.217000     12.814000      9.257000
C          21.646000     12.203000     10.424000
H          20.677000     12.518000     10.801000
C          22.320000     11.264000     11.152000
H          21.747000     10.950000     12.019000
C          23.663000     10.923000     10.788000
H          24.225000     10.177000     11.342000
C          24.244000     11.500000      9.674000
H          25.169000     11.112000      9.257000
C          23.529000     12.458000      8.886000
H          24.006000     12.772000      7.963000
C          22.614000     17.488000     12.645000
C          24.704000     17.361000     11.405000
C          24.740000     21.422000      9.471000
C          18.921000     18.740000      9.319000
C          23.741000     20.263000      6.337000
C          23.571000     16.716000     11.921000
C          20.122000     20.294000      7.229000
C          24.001000     20.740000     11.675000
C          24.194000     16.446000      7.523000
C          19.336000     18.144000      8.090000
C          22.306000     15.290000      8.246000
C          23.177000     16.780000      6.629000
C          20.857000     18.172000      6.393000
C          21.382000     20.843000      6.803000
C          24.094000     15.853000      9.831000
C          23.052000     21.881000      8.043000
C          21.361000     15.275000      9.306000
C          20.188000     16.182000      9.194000
C          23.989000     21.107000      7.411000
C          20.617000     21.233000     11.122000
C          22.549000     22.133000     10.333000
C          22.812000     21.503000     11.604000
C          24.048000     19.512000     12.351000
C          19.823000     16.812000     10.426000
C          23.741000     15.541000      8.535000
C          25.010000     18.729000     11.738000
C          19.942000     18.932000      7.098000
C          25.008000     16.843000     10.140000
C          23.205000     18.071000      5.983000
C          19.570000     19.007000     11.455000
C          24.951000     20.730000     10.663000
C          22.021000     16.121000      7.038000
C          21.676000     19.600000     12.626000
C          22.021000     18.780000      5.912000
C          25.187000     17.376000      7.788000
C          20.801000     21.841000      8.764000
C          19.825000     20.870000      8.446000
C          25.330000     18.608000      7.184000
C          19.158000     18.055000     10.505000
C          19.962000     16.921000      8.032000
C          19.645000     20.226000     10.790000
C          21.813000     15.593000     10.654000
C          25.903000     18.901000      9.357000
C          20.846000     16.896000      6.941000
C          24.293000     18.935000      6.259000
C          20.708000     18.681000     12.308000
C          25.066000     20.802000      8.247000
C          22.883000     18.935000     12.828000
C          23.509000     21.998000      9.352000
C          25.569000     17.604000      9.113000
C          25.723000     19.549000      8.138000
C          23.178000     15.827000     10.947000
C          20.864000     16.449000     11.353000
C          21.182000     22.016000     10.090000
C          25.559000     19.469000     10.631000
C          22.320000     20.059000      6.130000
C          19.204000     20.112000      9.499000
C          21.723000     21.843000      7.705000
C          21.273000     17.346000     12.385000
C          21.603000     20.898000     12.023000
O          31.399000     31.138000     19.900000
C          31.767000     31.077000     21.285000
H          30.926000     31.321000     21.947000
H          32.476000     31.892000     21.479000
H          32.301000     30.172000     21.600000
O          30.322000     29.069000     19.941000
C          30.617000     30.141000     19.373000
C          30.173000     30.523000     18.079000
H          30.887000     31.253000     17.679000
H          29.206000     31.030000     18.180000
C          29.894000     29.403000     17.054000
H          30.739000     28.706000     16.992000
H          29.047000     28.811000     17.422000
C          29.602000     29.992000     15.650000
H          28.537000     30.239000     15.733000
H          30.145000     30.895000     15.344000
C          29.763000     28.903000     14.607000
C          31.257000     28.467000     14.540000
C          32.143000     29.223000     13.833000
H          31.840000     30.025000     13.166000
C          33.515000     29.054000     13.828000
H          34.185000     29.846000     13.505000
C          34.033000     27.932000     14.514000
H          35.083000     27.675000     14.420000
C          33.142000     27.069000     15.172000
H          33.604000     26.228000     15.680000
C          31.771000     27.317000     15.213000
H          31.031000     26.657000     15.656000
C          29.165000     27.436000      9.353000
C          29.070000     25.295000     10.532000
C          24.642000     24.599000      9.992000
C          25.842000     30.690000     11.287000
C          23.768000     25.714000     13.130000
C          29.652000     26.632000     10.387000
C          23.653000     29.215000     12.175000
C          26.198000     25.466000      8.339000
C          27.628000     25.783000     14.297000
C          25.652000     30.361000     12.667000
C          28.619000     27.930000     14.228000
C          26.715000     26.665000     14.807000
C          24.994000     28.865000     14.237000
C          23.080000     27.930000     12.305000
C          29.337000     26.188000     12.608000
C          23.079000     26.010000     10.835000
C          29.037000     29.016000     13.291000
C          28.034000     30.088000     12.881000
C          23.627000     25.174000     11.828000
C          25.009000     28.717000      8.493000
C          24.079000     26.588000      8.735000
C          25.412000     26.562000      8.081000
C          27.582000     25.647000      8.531000
C          28.110000     30.179000     11.458000
C          28.760000     26.544000     13.837000
C          28.083000     24.849000      9.615000
C          24.552000     29.630000     13.135000
C          28.909000     25.019000     11.892000
C          25.327000     26.389000     14.598000
C          26.875000     30.073000      9.365000
C          25.862000     24.469000      9.274000
C          27.176000     27.975000     14.782000
C          27.379000     28.058000      8.027000
C          24.493000     27.502000     14.317000
C          27.156000     24.607000     13.567000
C          23.172000     28.391000     10.120000
C          23.696000     29.547000     10.807000
C          25.772000     24.416000     13.393000
C          27.082000     30.613000     10.659000
C          26.732000     30.032000     13.417000
C          25.518000     29.814000      9.240000
C          29.604000     28.560000     11.969000
C          26.810000     23.895000     11.463000
C          26.327000     29.040000     14.371000
C          24.860000     25.357000     13.898000
C          27.744000     29.120000      8.826000
C          24.517000     24.294000     11.330000
C          28.167000     26.942000      8.405000
C          23.710000     25.601000      9.664000
C          27.790000     24.329000     12.344000
C          25.606000     23.966000     12.060000
C          29.758000     27.156000     11.709000
C          29.021000     29.262000     10.909000
C          23.884000     27.990000      8.995000
C          26.951000     24.125000     10.070000
C          23.537000     27.070000     13.368000
C          24.869000     30.297000     10.346000
C          22.842000     27.402000     11.049000
C          28.899000     28.754000      9.577000
C          25.984000     27.826000      7.941000
$end

--------------------------------------------------------------
 ----------------------------------------------------------------
             Standard Nuclear Orientation (Angstroms)
    I     Atom           X                Y                Z
 ----------------------------------------------------------------
    1      O     -14.1185251706    -1.0894568127    -1.9770466470
    2      C     -15.0006546479    -1.1339525218    -3.1923909262
    3      H     -15.6508452234    -2.0140421187    -3.1133939828
    4      H     -14.4052348816    -1.0975169829    -4.1129346532
    5      H     -15.4653113795    -0.1429001454    -3.2620207257
    6      O     -12.8909033577     0.6158165598    -2.7954392236
    7      C     -13.1743620000    -0.1598508930    -1.8985689984
    8      C     -12.3633573238    -0.3413475912    -0.6245672858
    9      H     -11.9057407797    -1.3285031966    -0.4886558831
   10      H     -13.0484397455    -0.2180054009     0.2228964477
   11      C     -11.2834927434     0.7121563997    -0.4327918203
   12      H     -10.5608284023     0.6420434945    -1.2539260545
   13      H     -11.7367805858     1.7101385966    -0.4775876521
   14      C     -10.4809920623     0.6421608628     0.8869938751
   15      H     -11.1030585195     0.9853469606     1.7234283467
   16      H     -10.2435161860    -0.3379414983     1.3177787052
   17      C      -9.2058301387     1.5339561089     0.8813099029
   18      C      -9.6471030519     2.9950675134     1.0654747194
   19      C     -10.0607171244     3.8556931665    -0.0066716718
   20      H     -10.1534911957     3.4778903431    -1.0210547347
   21      C     -10.2782166257     5.1911970777     0.1806896642
   22      H     -10.5427442520     5.6829406455    -0.7503459948
   23      C     -10.0221505251     5.7718268214     1.4651059724
   24      H     -10.1897038397     6.8288261488     1.6493729222
   25      C      -9.6150937023     4.9709568252     2.5160093896
   26      H      -9.6157579482     5.3398236495     3.5377700390
   27      C      -9.4204585583     3.5641464040     2.3345304668
   28      H      -9.2196626407     2.9877529461     3.2320300942
   29      C      -4.5760700745     2.9727927039    -1.7213796678
   30      C      -4.0561603562     3.1935216456     0.6456441215
   31      C      -1.3138777141    -0.3288699819     1.1988313713
   32      C      -6.3663621654    -1.7706602713    -2.4714044018
   33      C      -3.7183326940    -2.3337431855     2.7358146785
   34      C      -4.9710572337     3.3548371266    -0.4045515836
   35      C      -5.1630244858    -3.4763901112    -0.5047114562
   36      C      -1.5447373835     1.2028361489    -0.6638122183
   37      C      -6.2570086741     0.7764639626     2.9868719700
   38      C      -7.0356810849    -2.0921655890    -1.2521716452
   39      C      -7.8905435420     0.9953350358     1.3414941141
   40      C      -6.7520492958    -0.5088643249     2.7679039903
   41      C      -6.8054291282    -2.5435244989     0.9698304184
   42      C      -4.2374849706    -3.4625404361     0.5969517374
   43      C      -6.0742234444     2.6383652844     1.5075390028
   44      C      -2.1962909354    -2.3719390241     0.8161764410
   45      C      -8.0298824800     1.2783475624    -0.0431858381
   46      C      -7.8882038803     0.1440906298    -0.9942433470
   47      C      -2.5740041287    -1.9351459306     2.0583574009
   48      C      -2.9463489188    -1.0720345445    -2.8685259032
   49      C      -1.5216969526    -1.1758604337    -1.1008347650
   50      C      -1.5159689122     0.1674380013    -1.6271678384
   51      C      -2.3177161369     2.3584949999    -0.8485430145
   52      C      -7.1659747632     0.4731890415    -2.1850532973
   53      C      -6.9025346733     1.7471651682     2.1565627782
   54      C      -2.6848309405     2.8252667840     0.4011180686
   55      C      -6.4058927811    -2.9119221140    -0.3015876499
   56      C      -4.7263703092     2.7514724508     1.7929784792
   57      C      -5.8819609227    -1.6421253609     2.9763425832
   58      C      -5.1711827661    -0.1350189425    -3.4467041748
   59      C      -1.4085521312     0.9688407122     0.6976001780
   60      C      -7.7227375840    -0.4245732428     1.7736418213
   61      C      -3.3053338016     1.3597900137    -2.7816629536
   62      C      -5.8949976051    -2.6457390292     2.0265175205
   63      C      -4.9338131641     0.9299230553     3.3699880739
   64      C      -3.0918259960    -2.9361151516    -1.2976268262
   65      C      -4.4568452837    -3.0955463475    -1.6260245089
   66      C      -4.0434812554    -0.0870832569     3.6458435672
   67      C      -6.4446162166    -0.4683894770    -2.9509428068
   68      C      -7.7529686331    -1.1657694549    -0.5322704188
   69      C      -4.3432635667    -1.2195840757    -3.1782283449
   70      C      -7.1327201292     2.2496237487    -0.6549490981
   71      C      -2.8522110551     1.5233332076     2.5858713407
   72      C      -7.6854574507    -1.4776536781     0.8354036913
   73      C      -4.5635345118    -1.3995345535     3.4338548773
   74      C      -4.6239100077     1.1759101773    -3.1137081227
   75      C      -2.0442610929    -0.6766503897     2.3540114040
   76      C      -3.2044875209     2.4406107950    -1.9090035318
   77      C      -1.4734170718    -1.3157171828     0.2704037784
   78      C      -4.1512826083     1.9007093242     2.7385191916
   79      C      -2.7869854517     0.2458922156     3.1355577355
   80      C      -6.1911820264     2.9798134879     0.1093538168
   81      C      -6.6728487680     1.8085258653    -1.9648685568
   82      C      -2.3528676800    -1.9362842877    -1.9207968277
   83      C      -2.1575728821     1.9251434542     1.3942076573
   84      C      -4.6356348539    -3.0480231266     1.8685967628
   85      C      -5.0503678213    -2.2573694844    -2.6331017370
   86      C      -2.9739249327    -3.2224201079     0.0719343485
   87      C      -5.4204397790     2.2267750796    -2.5065818750
   88      C      -2.4649186659     0.2037538323    -2.6766641582
   89      O      13.0951005472     4.7573139107    -2.5453717319
   90      C      13.6528502225     5.9198821108    -3.1736395727
   91      H      13.6522219376     5.8382320385    -4.2683513479
   92      H      14.7227308626     5.9505966041    -2.9308350505
   93      H      13.2673691079     6.8855671226    -2.8239786395
   94      O      10.8936788651     5.3936672888    -2.9825993110
   95      C      11.7375471112     4.5615253467    -2.5898408975
   96      C      11.4342216230     3.2503600348    -2.1355995816
   97      H      12.2524715284     2.9212077942    -1.4838159558
   98      H      11.4139359825     2.5792340475    -3.0025006152
   99      C      10.0641352558     3.0207362387    -1.4625451569
  100      H       9.8820510327     3.7634320070    -0.6758264452
  101      H       9.2847480662     3.1888764900    -2.2159251836
  102      C       9.9695367484     1.5943393767    -0.8626750755
  103      H       9.6834474742     1.0052031890    -1.7419898539
  104      H      10.8760892803     1.1535246576    -0.4293866145
  105      C       8.8316532550     1.5469274211     0.1386561693
  106      C       9.1750414821     2.4560747822     1.3560947103
  107      C      10.0022884138     1.9843002592     2.3305034097
  108      H      10.3056416660     0.9435884891     2.3997696775
  109      C      10.5246710836     2.7321805400     3.3691378170
  110      H      11.3963590718     2.4011041863     3.9268487630
  111      C      10.0689695194     4.0633984948     3.5032975761
  112      H      10.3362133955     4.6432017456     4.3806765713
  113      C       9.1364751946     4.5572897371     2.5769392356
  114      H       8.8285718021     5.5862839920     2.7355435364
  115      C       8.6904440607     3.7916646244     1.5009743596
  116      H       7.9303153522     4.0998072922     0.7891447152
  117      C       5.7102939145    -1.5556584795     3.4166564129
  118      C       4.2773237548     0.3744566416     2.9647724222
  119      C       1.4021307123    -1.7462683927     0.2045205683
  120      C       7.3712530814    -3.5930679083    -0.8800142128
  121      C       2.8676192150    -0.6148435329    -2.6982998249
  122      C       5.6080834741    -0.1730293629     3.2416399799
  123      C       5.3824270993    -3.2318075031    -2.7957261254
  124      C       2.3499711889    -2.6070482571     2.2699237871
  125      C       5.1498711878     2.0052741989    -0.6507258936
  126      C       7.4386228146    -2.5562865612    -1.8645378323
  127      C       7.3649544698     1.2658935550    -0.2723433924
  128      C       5.5897262084     1.4373476599    -1.8150196740
  129      C       6.3834459053    -0.9787813571    -3.1030688254
  130      C       4.0939356121    -2.7186056730    -3.0656660616
  131      C       5.7820761717     1.4446409127     1.6347574637
  132      C       2.0647822673    -2.6853890286    -1.7508526308
  133      C       8.1650875185     0.2314698222     0.4500440697
  134      C       8.4314148620    -1.1158111638    -0.2111644383
  135      C       1.9530846431    -1.2842302055    -1.8484568986
  136      C       4.4859470710    -4.8414319964     0.7041733802
  137      C       2.3687683274    -3.9635501176     0.2536375053
  138      C       2.7879036126    -3.7585635905     1.6634556270
  139      C       3.2259202882    -1.9083518024     3.1241002557
  140      C       8.1007700422    -2.1074559001     0.7616154547
  141      C       6.1766623533     1.8188757414     0.3407883612
  142      C       3.1509067719    -0.4878720106     2.9254268215
  143      C       6.4543295253    -2.3653304617    -2.8433572685
  144      C       4.3958829243     1.3825827486     2.0049169770
  145      C       4.6287750729     0.7767270048    -2.6436053759
  146      C       6.7678925443    -4.0827489753     1.2502511498
  147      C       1.6616813329    -1.5830169931     1.5926151097
  148      C       6.8772252881     0.9289303447    -1.7005471735
  149      C       4.9457189546    -3.6643641767     2.8655290111
  150      C       5.0503149288    -0.4229243118    -3.2732297628
  151      C       3.7323580703     1.9162505369    -0.3023132802
  152      C       3.8373901237    -4.4279379488    -1.6487759517
  153      C       5.2502767705    -4.3326145797    -1.9272463786
  154      C       2.8538094025     1.2353744541    -1.1664735653
  155      C       7.7118041285    -3.3871454787     0.4539775179
  156      C       7.9234577172    -1.3424365559    -1.5058676748
  157      C       5.8619097280    -4.6799508942     0.3861330996
  158      C       7.6549100308    -0.1571205638     1.8159962807
  159      C       2.3289898582     0.6903605368     0.9551553551
  160      C       7.2118525269    -0.3412192353    -2.2470740765
  161      C       3.3409078460     0.6323877385    -2.3375380926
  162      C       6.2396525104    -3.5172814853     2.4143387686
  163      C       1.5074903354    -0.7201924805    -0.7092417488
  164      C       4.5296354002    -2.4184766470     3.3983730211
  165      C       1.6708735832    -2.9649457062    -0.4457215981
  166      C       3.4310229992     1.5310956198     1.0151926457
  167      C       1.9912786725     0.4836838788    -0.3310413305
  168      C       6.4988302646     0.5019972284     2.3559734194
  169      C       7.6191794146    -1.5482688573     1.9564339843
  170      C       3.5034178799    -4.6412837797    -0.3159908615
  171      C       2.1528611906    -0.3250440584     1.9304308036
  172      C       3.9403909438    -1.2999799229    -3.2714402484
  173      C       6.2875423598    -4.4940115742    -0.9030485913
  174      C       3.1566846346    -3.4095024312    -2.3192169511
  175      C       6.7307055561    -2.2465679003     2.8340242356
  176      C       4.0556110671    -4.2676972660     1.9430637640
 ----------------------------------------------------------------
 Molecular Point Group                 C1    NOp =  1
 Largest Abelian Subgroup              C1    NOp =  1
 Nuclear Repulsion Energy = 33552.4725256254 hartrees
 There are      462 alpha and      462 beta electrons
 Requested basis set is 6-31G(d,p)
 There are 676 shells and 2360 basis functions

 Total QAlloc Memory Limit  20000 MB
 Mega-Array Size      4888 MB
 MEM_STATIC part      5000 MB
 A cutoff of  1.0D-08 yielded  36822 shell pairs
 There are    523022 function pairs
 
 -------------------------------------------------------
 OpenMP Integral Computing Module                       
 Release: version 1.0, May 2013, Q-Chem Inc. Pittsburgh 
 -------------------------------------------------------
 Integral Job Info:
 Integral job number is                      11
 Integral operator is                         1
 short-range coefficients                     0
 long-range coefficients              100000000
 Omega coefficients                           0
 if combine SR and LR in K                    0
 Integral screening is                        0
 Integral computing path is                   2
 max size of driver memory is            800000
 size of driver memory is                593474
 size of scratch memory is              2260544
 max col of scratch BK array               1296
 max len of scratch array in speh3          155
 max len of scratch index in speh4           18
 max int batch size is                      520
 min int batch size is                       52
 fixed nKL is                                52
 max L of basis functions is                  2
 order of int derivative is                   0
 number of shells is                        676
 number of basis is                        2360
 number of cartesian basis is              2360
 number of contracted shell pairs         36822
 number of primitive shell pairs         112508
 maxK2 (contraction) of shell pair           36
 max number of K2 of shell pair               1
 max number of CS2 of shell pair           7165
 max number of PS2 of shell pair          34368
 mem total for path MDJ                 1496552
 -------------------------------------------------------
 Smallest overlap matrix eigenvalue = 2.48E-04

 Scale SEOQF with 1.000000e-02/1.000000e-02/1.000000e-01

 Standard Electronic Orientation quadrupole field applied
 Nucleus-field energy     =    -0.0000002155 hartrees
 Guess from superposition of atomic densities
 Warning:  Energy on first SCF cycle will be non-variational
 A restricted hybrid HF-DFT SCF calculation will be
 performed using Pulay DIIS extrapolation
 Exchange:     0.2000 Hartree-Fock + 0.0800 Slater + 0.7200 B88
 Correlation:  0.1900 VWN1RPA + 0.8100 LYP
 Using SG-1 standard quadrature grid
 SCF converges when DIIS error is below 1.0E-05
 using 16 threads for integral computing 
 -------------------------------------------------------
 OpenMP BLAS3 based DFT computing Module                
 Release: version 1.0, May 2013, Q-Chem Inc. Pittsburgh 
 -------------------------------------------------------
 ---------------------------------------
  Cycle       Energy         DIIS Error
 ---------------------------------------
    1   -5858.6730094748      1.83E-02
    2   -5803.0473192070      1.30E-03
    3   -5802.2145375571      1.81E-03
    4   -5803.8733270721      6.78E-04
    5   -5804.1150685066      3.34E-04
    6   -5804.1860745382      1.66E-04
    7   -5804.2054914729      5.51E-05
    8   -5804.2068283185      3.71E-05
    9   -5804.2077999055      9.13E-06 Convergence criterion met
 ---------------------------------------
 SCF time:  CPU 8258.87 s  wall 856.45 s
 SCF   energy in the final basis set = -5804.2077999055
 Total energy in the final basis set = -5804.2077999055
 
 --------------------------------------------------------------
 
                    Orbital Energies (a.u.)
 --------------------------------------------------------------
 
 Alpha MOs
 -- Occupied --
-19.196 -19.195 -19.133 -19.132 -10.316 -10.313 -10.254 -10.244
-10.238 -10.236 -10.236 -10.234 -10.233 -10.231 -10.231 -10.229
-10.227 -10.225 -10.225 -10.224 -10.224 -10.223 -10.223 -10.223
-10.223 -10.222 -10.221 -10.221 -10.221 -10.220 -10.220 -10.220
-10.219 -10.219 -10.219 -10.219 -10.219 -10.219 -10.219 -10.218
-10.218 -10.218 -10.217 -10.217 -10.217 -10.217 -10.217 -10.216
-10.216 -10.216 -10.216 -10.216 -10.216 -10.216 -10.215 -10.215
-10.215 -10.215 -10.215 -10.215 -10.214 -10.214 -10.214 -10.214
-10.214 -10.214 -10.214 -10.214 -10.214 -10.213 -10.213 -10.213
-10.213 -10.213 -10.213 -10.213 -10.213 -10.212 -10.212 -10.212
-10.212 -10.212 -10.212 -10.212 -10.212 -10.212 -10.211 -10.211
-10.211 -10.211 -10.211 -10.211 -10.211 -10.210 -10.210 -10.210
-10.210 -10.210 -10.210 -10.210 -10.209 -10.209 -10.209 -10.209
-10.208 -10.208 -10.208 -10.208 -10.208 -10.208 -10.208 -10.207
-10.207 -10.207 -10.207 -10.207 -10.206 -10.206 -10.206 -10.206
-10.205 -10.205 -10.205 -10.205 -10.204 -10.204 -10.203 -10.203
-10.203 -10.202 -10.202 -10.202 -10.202 -10.201 -10.200 -10.200
-10.200 -10.199 -10.197 -10.196 -10.196 -10.196 -10.196 -10.196
-10.195 -10.192 -10.190 -10.190  -1.098  -1.088  -1.007  -0.998
 -0.985  -0.982  -0.971  -0.966  -0.963  -0.960  -0.959  -0.957
 -0.941  -0.932  -0.927  -0.926  -0.925  -0.925  -0.921  -0.920
 -0.919  -0.917  -0.898  -0.894  -0.892  -0.890  -0.884  -0.881
 -0.872  -0.870  -0.854  -0.850  -0.841  -0.838  -0.838  -0.836
 -0.835  -0.833  -0.821  -0.820  -0.810  -0.805  -0.797  -0.797
 -0.794  -0.794  -0.792  -0.792  -0.791  -0.790  -0.781  -0.781
 -0.772  -0.770  -0.767  -0.766  -0.765  -0.765  -0.762  -0.761
 -0.751  -0.751  -0.746  -0.742  -0.735  -0.733  -0.718  -0.716
 -0.713  -0.713  -0.713  -0.712  -0.710  -0.708  -0.707  -0.707
 -0.706  -0.705  -0.704  -0.703  -0.702  -0.702  -0.670  -0.670
 -0.659  -0.656  -0.656  -0.653  -0.647  -0.646  -0.631  -0.630
 -0.626  -0.626  -0.624  -0.623  -0.622  -0.621  -0.614  -0.613
 -0.613  -0.611  -0.611  -0.609  -0.608  -0.608  -0.607  -0.605
 -0.604  -0.602  -0.600  -0.599  -0.568  -0.563  -0.562  -0.562
 -0.561  -0.559  -0.558  -0.557  -0.556  -0.554  -0.554  -0.550
 -0.536  -0.535  -0.532  -0.531  -0.527  -0.526  -0.525  -0.523
 -0.522  -0.521  -0.516  -0.516  -0.514  -0.514  -0.512  -0.510
 -0.508  -0.507  -0.503  -0.498  -0.496  -0.491  -0.490  -0.486
 -0.485  -0.483  -0.481  -0.479  -0.478  -0.478  -0.474  -0.473
 -0.472  -0.471  -0.470  -0.469  -0.467  -0.466  -0.466  -0.464
 -0.464  -0.463  -0.462  -0.462  -0.460  -0.459  -0.458  -0.456
 -0.456  -0.454  -0.453  -0.450  -0.446  -0.446  -0.443  -0.441
 -0.441  -0.440  -0.438  -0.437  -0.435  -0.435  -0.433  -0.431
 -0.430  -0.429  -0.429  -0.427  -0.426  -0.425  -0.423  -0.422
 -0.421  -0.421  -0.419  -0.419  -0.418  -0.418  -0.418  -0.417
 -0.416  -0.415  -0.414  -0.414  -0.413  -0.412  -0.411  -0.411
 -0.410  -0.408  -0.405  -0.404  -0.401  -0.398  -0.398  -0.397
 -0.390  -0.390  -0.389  -0.388  -0.387  -0.386  -0.382  -0.381
 -0.376  -0.375  -0.372  -0.368  -0.368  -0.367  -0.366  -0.365
 -0.362  -0.362  -0.361  -0.360  -0.358  -0.357  -0.357  -0.356
 -0.355  -0.355  -0.353  -0.352  -0.351  -0.351  -0.350  -0.349
 -0.348  -0.348  -0.346  -0.345  -0.344  -0.343  -0.341  -0.341
 -0.340  -0.340  -0.339  -0.337  -0.337  -0.336  -0.333  -0.333
 -0.332  -0.329  -0.328  -0.327  -0.326  -0.325  -0.322  -0.320
 -0.307  -0.304  -0.301  -0.298  -0.289  -0.287  -0.273  -0.271
 -0.270  -0.268  -0.266  -0.265  -0.264  -0.263  -0.262  -0.261
 -0.260  -0.259  -0.258  -0.257  -0.256  -0.255  -0.252  -0.251
 -0.248  -0.246  -0.244  -0.241  -0.223  -0.218  -0.214  -0.212
 -0.206  -0.205  -0.203  -0.202  -0.200  -0.198
 -- Virtual --
 -0.122  -0.121  -0.119  -0.117  -0.110  -0.104  -0.076  -0.075
 -0.073  -0.071  -0.064  -0.060  -0.055  -0.054  -0.027  -0.022
 -0.020  -0.019  -0.017  -0.016  -0.015  -0.013  -0.013  -0.011
 -0.008  -0.007  -0.006  -0.005  -0.003  -0.001   0.001   0.007
  0.008   0.010   0.034   0.038   0.042   0.043   0.046   0.048
  0.050   0.053   0.055   0.058   0.063   0.065   0.068   0.070
  0.072   0.073   0.080   0.084   0.084   0.087   0.087   0.090
  0.093   0.093   0.096   0.098   0.100   0.101   0.107   0.107
  0.109   0.112   0.113   0.114   0.117   0.118   0.122   0.124
  0.125   0.127   0.128   0.131   0.133   0.133   0.136   0.140
  0.143   0.145   0.149   0.151   0.151   0.152   0.153   0.155
  0.158   0.159   0.160   0.161   0.162   0.166   0.167   0.169
  0.172   0.174   0.178   0.179   0.179   0.181   0.182   0.184
  0.185   0.186   0.188   0.188   0.188   0.192   0.192   0.194
  0.195   0.197   0.199   0.200   0.202   0.202   0.205   0.208
  0.210   0.211   0.213   0.215   0.217   0.218   0.219   0.222
  0.224   0.225   0.225   0.227   0.228   0.229   0.231   0.231
  0.233   0.234   0.235   0.235   0.239   0.239   0.240   0.240
  0.242   0.247   0.247   0.249   0.249   0.251   0.256   0.261
  0.264   0.266   0.266   0.274   0.277   0.277   0.281   0.283
  0.285   0.286   0.287   0.289   0.296   0.297   0.302   0.306
  0.307   0.309   0.310   0.314   0.316   0.317   0.319   0.321
  0.322   0.326   0.327   0.331   0.332   0.332   0.334   0.335
  0.336   0.340   0.343   0.343   0.346   0.347   0.348   0.351
  0.353   0.357   0.361   0.368   0.378   0.378   0.383   0.390
  0.391   0.392   0.395   0.399   0.403   0.404   0.407   0.409
  0.411   0.413   0.416   0.418   0.419   0.421   0.423   0.425
  0.428   0.430   0.431   0.435   0.437   0.441   0.443   0.446
  0.447   0.447   0.449   0.451   0.455   0.455   0.459   0.460
  0.461   0.466   0.467   0.469   0.471   0.472   0.472   0.474
  0.476   0.478   0.479   0.480   0.483   0.484   0.485   0.485
  0.486   0.486   0.489   0.491   0.492   0.493   0.493   0.496
  0.496   0.498   0.500   0.502   0.503   0.503   0.503   0.505
  0.505   0.506   0.508   0.510   0.511   0.511   0.512   0.513
  0.514   0.516   0.516   0.518   0.518   0.519   0.520   0.520
  0.521   0.522   0.523   0.524   0.525   0.526   0.527   0.527
  0.528   0.528   0.529   0.531   0.531   0.532   0.532   0.533
  0.534   0.534   0.536   0.536   0.537   0.539   0.539   0.540
  0.540   0.541   0.541   0.541   0.543   0.544   0.545   0.546
  0.547   0.547   0.547   0.548   0.549   0.550   0.550   0.551
  0.552   0.553   0.554   0.554   0.555   0.557   0.558   0.559
  0.559   0.560   0.561   0.561   0.562   0.563   0.565   0.565
  0.566   0.567   0.567   0.568   0.570   0.570   0.571   0.572
  0.573   0.574   0.576   0.577   0.577   0.577   0.579   0.579
  0.581   0.583   0.584   0.585   0.585   0.586   0.586   0.588
  0.589   0.590   0.591   0.591   0.592   0.592   0.593   0.594
  0.595   0.596   0.597   0.599   0.600   0.601   0.602   0.603
  0.603   0.604   0.605   0.606   0.606   0.607   0.608   0.609
  0.610   0.611   0.612   0.613   0.614   0.615   0.617   0.618
  0.618   0.620   0.621   0.622   0.623   0.624   0.624   0.626
  0.626   0.628   0.629   0.630   0.631   0.632   0.633   0.634
  0.635   0.635   0.637   0.638   0.639   0.639   0.641   0.642
  0.643   0.644   0.645   0.646   0.646   0.648   0.650   0.650
  0.651   0.652   0.653   0.653   0.654   0.655   0.655   0.657
  0.658   0.658   0.658   0.660   0.661   0.662   0.663   0.664
  0.665   0.666   0.666   0.667   0.669   0.669   0.670   0.671
  0.672   0.672   0.674   0.676   0.677   0.678   0.679   0.679
  0.680   0.681   0.681   0.683   0.684   0.685   0.687   0.688
  0.690   0.691   0.691   0.693   0.693   0.694   0.696   0.697
  0.699   0.699   0.700   0.702   0.703   0.705   0.705   0.706
  0.707   0.708   0.709   0.710   0.711   0.711   0.714   0.715
  0.716   0.717   0.718   0.719   0.723   0.725   0.726   0.727
  0.728   0.728   0.730   0.730   0.731   0.733   0.735   0.736
  0.738   0.739   0.741   0.742   0.743   0.744   0.745   0.748
  0.750   0.753   0.754   0.755   0.756   0.757   0.758   0.759
  0.760   0.761   0.762   0.763   0.764   0.765   0.768   0.768
  0.769   0.771   0.772   0.773   0.774   0.776   0.777   0.778
  0.779   0.780   0.782   0.783   0.784   0.786   0.786   0.788
  0.788   0.790   0.791   0.794   0.795   0.796   0.797   0.798
  0.799   0.801   0.802   0.803   0.803   0.804   0.805   0.807
  0.808   0.809   0.809   0.809   0.810   0.811   0.812   0.813
  0.814   0.815   0.815   0.816   0.817   0.818   0.819   0.820
  0.820   0.821   0.821   0.822   0.823   0.824   0.824   0.826
  0.827   0.829   0.829   0.830   0.832   0.833   0.834   0.835
  0.837   0.841   0.841   0.844   0.846   0.848   0.851   0.852
  0.854   0.856   0.858   0.860   0.863   0.865   0.867   0.871
  0.873   0.874   0.878   0.881   0.887   0.889   0.890   0.891
  0.894   0.895   0.897   0.900   0.901   0.901   0.906   0.908
  0.909   0.913   0.916   0.917   0.919   0.919   0.922   0.924
  0.925   0.928   0.929   0.931   0.933   0.934   0.935   0.935
  0.939   0.940   0.941   0.945   0.948   0.948   0.951   0.952
  0.953   0.955   0.956   0.958   0.961   0.965   0.966   0.967
  0.971   0.977   0.977   0.978   0.980   0.983   0.984   0.988
  0.990   0.990   0.993   0.996   0.998   0.999   1.002   1.004
  1.005   1.007   1.009   1.010   1.014   1.015   1.015   1.016
  1.019   1.020   1.023   1.024   1.025   1.028   1.029   1.030
  1.031   1.032   1.034   1.034   1.037   1.038   1.040   1.041
  1.043   1.045   1.049   1.050   1.051   1.052   1.054   1.058
  1.059   1.061   1.061   1.063   1.064   1.069   1.071   1.072
  1.074   1.076   1.077   1.078   1.081   1.083   1.085   1.086
  1.087   1.088   1.090   1.092   1.094   1.096   1.097   1.098
  1.100   1.100   1.103   1.104   1.106   1.107   1.109   1.111
  1.111   1.114   1.115   1.116   1.118   1.123   1.125   1.126
  1.128   1.130   1.134   1.135   1.139   1.141   1.143   1.145
  1.149   1.151   1.152   1.154   1.156   1.161   1.162   1.165
  1.165   1.168   1.170   1.170   1.172   1.173   1.175   1.175
  1.176   1.177   1.179   1.181   1.181   1.184   1.186   1.187
  1.187   1.190   1.193   1.194   1.195   1.198   1.200   1.202
  1.205   1.210   1.212   1.213   1.214   1.217   1.219   1.220
  1.224   1.230   1.235   1.235   1.241   1.244   1.245   1.249
  1.252   1.256   1.257   1.259   1.259   1.262   1.264   1.265
  1.267   1.268   1.268   1.270   1.272   1.274   1.277   1.279
  1.280   1.285   1.287   1.289   1.292   1.293   1.296   1.296
  1.300   1.301   1.305   1.307   1.308   1.310   1.313   1.316
  1.318   1.321   1.323   1.325   1.325   1.328   1.331   1.332
  1.334   1.336   1.337   1.339   1.343   1.344   1.347   1.350
  1.352   1.354   1.355   1.357   1.360   1.362   1.364   1.367
  1.371   1.371   1.373   1.376   1.377   1.379   1.382   1.386
  1.388   1.391   1.396   1.396   1.401   1.402   1.406   1.409
  1.415   1.417   1.419   1.420   1.423   1.424   1.427   1.434
  1.438   1.440   1.444   1.448   1.448   1.449   1.453   1.455
  1.457   1.458   1.460   1.464   1.466   1.469   1.469   1.470
  1.472   1.474   1.475   1.477   1.479   1.481   1.482   1.484
  1.487   1.489   1.490   1.495   1.496   1.498   1.501   1.504
  1.505   1.507   1.509   1.515   1.516   1.516   1.520   1.522
  1.526   1.527   1.528   1.532   1.538   1.539   1.540   1.542
  1.546   1.548   1.550   1.551   1.554   1.555   1.557   1.559
  1.560   1.564   1.565   1.566   1.570   1.573   1.576   1.579
  1.580   1.582   1.586   1.586   1.587   1.595   1.597   1.601
  1.604   1.606   1.609   1.615   1.616   1.618   1.623   1.627
  1.628   1.630   1.632   1.634   1.640   1.641   1.643   1.647
  1.650   1.652   1.658   1.662   1.663   1.670   1.673   1.674
  1.677   1.687   1.688   1.691   1.696   1.697   1.703   1.704
  1.707   1.709   1.709   1.712   1.714   1.716   1.720   1.722
  1.724   1.725   1.726   1.727   1.729   1.730   1.733   1.734
  1.737   1.738   1.740   1.742   1.745   1.746   1.747   1.749
  1.751   1.753   1.754   1.757   1.758   1.761   1.762   1.763
  1.764   1.765   1.766   1.767   1.768   1.770   1.772   1.774
  1.775   1.776   1.776   1.779   1.779   1.779   1.781   1.783
  1.786   1.787   1.788   1.788   1.789   1.790   1.792   1.793
  1.794   1.794   1.797   1.798   1.801   1.802   1.804   1.804
  1.807   1.807   1.807   1.809   1.810   1.812   1.813   1.814
  1.817   1.817   1.820   1.821   1.822   1.824   1.825   1.826
  1.827   1.831   1.832   1.834   1.836   1.838   1.841   1.843
  1.846   1.848   1.851   1.852   1.853   1.857   1.858   1.860
  1.860   1.861   1.864   1.866   1.867   1.869   1.870   1.872
  1.873   1.874   1.877   1.878   1.880   1.883   1.883   1.886
  1.888   1.889   1.893   1.894   1.898   1.900   1.902   1.905
  1.906   1.910   1.911   1.912   1.916   1.917   1.917   1.920
  1.924   1.927   1.927   1.928   1.931   1.933   1.934   1.935
  1.938   1.942   1.943   1.944   1.947   1.949   1.950   1.950
  1.952   1.956   1.957   1.958   1.960   1.963   1.964   1.966
  1.970   1.972   1.974   1.976   1.978   1.979   1.981   1.982
  1.984   1.987   1.988   1.989   1.990   1.992   1.995   1.995
  1.997   1.998   1.999   2.001   2.001   2.004   2.004   2.006
  2.007   2.009   2.012   2.012   2.014   2.016   2.017   2.019
  2.021   2.023   2.025   2.026   2.026   2.027   2.029   2.030
  2.031   2.033   2.035   2.036   2.037   2.039   2.039   2.041
  2.041   2.043   2.043   2.045   2.046   2.049   2.050   2.052
  2.053   2.053   2.055   2.055   2.057   2.059   2.060   2.062
  2.063   2.064   2.065   2.067   2.069   2.069   2.072   2.074
  2.074   2.075   2.076   2.077   2.080   2.081   2.082   2.083
  2.085   2.086   2.088   2.090   2.092   2.093   2.093   2.095
  2.096   2.098   2.101   2.102   2.107   2.108   2.109   2.112
  2.114   2.116   2.120   2.121   2.123   2.124   2.127   2.128
  2.132   2.135   2.136   2.138   2.142   2.143   2.148   2.152
  2.154   2.156   2.158   2.162   2.164   2.168   2.175   2.176
  2.179   2.180   2.182   2.187   2.190   2.197   2.197   2.205
  2.206   2.208   2.209   2.214   2.217   2.217   2.224   2.226
  2.229   2.232   2.233   2.235   2.238   2.239   2.245   2.246
  2.254   2.254   2.257   2.257   2.259   2.263   2.265   2.266
  2.269   2.270   2.272   2.272   2.274   2.276   2.280   2.281
  2.282   2.285   2.287   2.290   2.292   2.294   2.295   2.298
  2.300   2.302   2.309   2.312   2.314   2.318   2.321   2.323
  2.324   2.326   2.329   2.331   2.331   2.334   2.337   2.340
  2.342   2.344   2.347   2.348   2.351   2.353   2.358   2.359
  2.360   2.365   2.366   2.368   2.369   2.370   2.373   2.374
  2.374   2.376   2.377   2.379   2.380   2.380   2.382   2.388
  2.389   2.391   2.394   2.395   2.396   2.397   2.398   2.399
  2.402   2.402   2.404   2.405   2.406   2.407   2.410   2.414
  2.415   2.416   2.417   2.419   2.421   2.422   2.424   2.426
  2.428   2.428   2.432   2.436   2.438   2.440   2.443   2.446
  2.446   2.450   2.450   2.451   2.452   2.456   2.458   2.462
  2.463   2.465   2.468   2.470   2.471   2.473   2.475   2.477
  2.478   2.482   2.483   2.485   2.492   2.492   2.493   2.494
  2.496   2.496   2.498   2.500   2.503   2.506   2.507   2.508
  2.512   2.513   2.516   2.517   2.518   2.521   2.523   2.528
  2.529   2.532   2.532   2.535   2.535   2.541   2.544   2.546
  2.549   2.551   2.553   2.555   2.557   2.560   2.560   2.567
  2.570   2.574   2.576   2.580   2.582   2.586   2.587   2.592
  2.593   2.596   2.597   2.599   2.601   2.602   2.604   2.605
  2.608   2.611   2.613   2.615   2.617   2.619   2.622   2.623
  2.626   2.627   2.627   2.630   2.633   2.633   2.635   2.636
  2.637   2.638   2.641   2.642   2.644   2.647   2.648   2.649
  2.652   2.654   2.655   2.658   2.659   2.660   2.664   2.665
  2.668   2.669   2.670   2.674   2.675   2.676   2.677   2.680
  2.680   2.682   2.684   2.685   2.685   2.689   2.691   2.696
  2.696   2.698   2.703   2.703   2.705   2.707   2.708   2.711
  2.714   2.717   2.717   2.720   2.722   2.724   2.725   2.726
  2.729   2.734   2.735   2.740   2.742   2.745   2.746   2.749
  2.750   2.755   2.755   2.757   2.760   2.762   2.763   2.764
  2.765   2.767   2.770   2.771   2.772   2.773   2.775   2.778
  2.780   2.782   2.784   2.785   2.788   2.791   2.796   2.798
  2.799   2.801   2.804   2.809   2.811   2.814   2.816   2.819
  2.823   2.824   2.828   2.831   2.834   2.837   2.838   2.841
  2.842   2.846   2.848   2.850   2.854   2.857   2.857   2.860
  2.863   2.864   2.867   2.871   2.872   2.874   2.876   2.878
  2.881   2.882   2.886   2.887   2.890   2.891   2.892   2.894
  2.895   2.898   2.899   2.903   2.905   2.905   2.908   2.908
  2.910   2.911   2.914   2.915   2.917   2.919   2.921   2.923
  2.925   2.928   2.929   2.930   2.933   2.934   2.936   2.936
  2.939   2.939   2.943   2.945   2.946   2.950   2.952   2.953
  2.954   2.957   2.962   2.966   2.968   2.970   2.973   2.975
  2.979   2.983   2.984   2.987   2.992   2.995   3.001   3.002
  3.003   3.009   3.012   3.013   3.015   3.017   3.018   3.023
  3.023   3.031   3.032   3.033   3.035   3.038   3.042   3.043
  3.047   3.050   3.051   3.055   3.059   3.064   3.067   3.068
  3.069   3.074   3.078   3.081   3.086   3.090   3.095   3.101
  3.107   3.118   3.131   3.135   3.142   3.152   3.155   3.163
  3.172   3.173   3.178   3.180   3.182   3.185   3.186   3.190
  3.193   3.195   3.208   3.217   3.231   3.233   3.236   3.238
  3.249   3.255   3.256   3.261   3.262   3.273   3.275   3.281
  3.285   3.301   3.303   3.310   3.317   3.319   3.323   3.329
  3.336   3.337   3.338   3.344   3.354   3.356   3.363   3.373
  3.375   3.404   3.413   3.415   3.420   3.435   3.436   3.440
  3.442   3.445   3.449   3.453   3.467   3.479   3.486   3.487
  3.495   3.496   3.508   3.513   3.516   3.527   3.528   3.532
  3.548   3.553   3.562   3.563   3.571   3.580   3.585   3.591
  3.598   3.607   3.682   3.691   3.848   3.851   3.996   4.009
  4.076   4.077   4.085   4.088   4.090   4.097   4.098   4.101
  4.108   4.113   4.115   4.119   4.120   4.122   4.127   4.129
  4.134   4.136   4.137   4.141   4.149   4.155   4.157   4.160
  4.165   4.172   4.174   4.176   4.181   4.181   4.187   4.192
  4.194   4.198   4.205   4.207   4.208   4.233   4.234   4.240
  4.247   4.248   4.250   4.252   4.257   4.260   4.262   4.272
  4.273   4.275   4.283   4.288   4.297   4.301   4.304   4.310
  4.313   4.318   4.326   4.356   4.374   4.387   4.392   4.398
  4.403   4.404   4.407   4.410   4.412   4.414   4.414   4.422
  4.424   4.428   4.429   4.436   4.442   4.449   4.467   4.477
  4.480   4.490   4.503   4.509   4.535   4.544   4.552   4.559
  4.574   4.576   4.605   4.614   4.623   4.632   4.636   4.639
  4.647   4.654   4.682   4.692   4.693   4.699   4.702   4.705
  4.707   4.709   4.714   4.724   4.758   4.780   4.792   4.826
  4.842   4.858   4.862   4.868   4.869   4.878   4.892   4.899
  4.905   4.913   4.957   4.963   4.970   4.971   4.980   4.983
  4.990   5.002   5.011   5.030   5.148   5.154   5.174   5.180
  5.195   5.206   5.212   5.224   5.307   5.324   5.328   5.336
  5.344   5.354
 --------------------------------------------------------------
 
          Ground-State Mulliken Net Atomic Charges

     Atom                 Charge (a.u.)
  ----------------------------------------
      1 O                    -0.466510
      2 C                    -0.096343
      3 H                     0.135960
      4 H                     0.142917
      5 H                     0.138302
      6 O                    -0.484463
      7 C                     0.612116
      8 C                    -0.276844
      9 H                     0.138373
     10 H                     0.126297
     11 C                    -0.167959
     12 H                     0.117881
     13 H                     0.117969
     14 C                    -0.202726
     15 H                     0.109030
     16 H                     0.098134
     17 C                     0.003852
     18 C                     0.074778
     19 C                    -0.105123
     20 H                     0.102370
     21 C                    -0.083672
     22 H                     0.095436
     23 C                    -0.092015
     24 H                     0.090521
     25 C                    -0.089678
     26 H                     0.090783
     27 C                    -0.112767
     28 H                     0.094098
     29 C                    -0.009736
     30 C                    -0.004642
     31 C                    -0.016332
     32 C                    -0.028777
     33 C                    -0.058836
     34 C                     0.003738
     35 C                    -0.018269
     36 C                     0.042059
     37 C                    -0.002636
     38 C                     0.005620
     39 C                    -0.088139
     40 C                     0.005725
     41 C                     0.017768
     42 C                    -0.003875
     43 C                     0.021054
     44 C                     0.026132
     45 C                    -0.040685
     46 C                     0.015779
     47 C                     0.031040
     48 C                     0.012645
     49 C                    -0.006348
     50 C                    -0.043835
     51 C                     0.011572
     52 C                     0.030249
     53 C                     0.011928
     54 C                    -0.037551
     55 C                     0.000014
     56 C                     0.023832
     57 C                    -0.004165
     58 C                    -0.019769
     59 C                     0.003967
     60 C                     0.019398
     61 C                     0.038386
     62 C                     0.026165
     63 C                     0.012822
     64 C                     0.003110
     65 C                     0.001888
     66 C                    -0.013649
     67 C                    -0.002713
     68 C                    -0.005198
     69 C                     0.008443
     70 C                     0.028447
     71 C                     0.009652
     72 C                    -0.016863
     73 C                    -0.012398
     74 C                    -0.012424
     75 C                    -0.009971
     76 C                    -0.018057
     77 C                     0.043211
     78 C                    -0.007544
     79 C                    -0.009273
     80 C                    -0.004659
     81 C                    -0.009929
     82 C                    -0.007893
     83 C                    -0.008592
     84 C                     0.008856
     85 C                     0.010166
     86 C                    -0.034288
     87 C                    -0.011650
     88 C                    -0.011401
     89 O                    -0.470331
     90 C                    -0.085887
     91 H                     0.122933
     92 H                     0.118433
     93 H                     0.134166
     94 O                    -0.499698
     95 C                     0.625314
     96 C                    -0.263020
     97 H                     0.129431
     98 H                     0.142412
     99 C                    -0.191401
    100 H                     0.120452
    101 H                     0.122312
    102 C                    -0.170975
    103 H                     0.106399
    104 H                     0.111828
    105 C                     0.003433
    106 C                     0.097383
    107 C                    -0.111753
    108 H                     0.084430
    109 C                    -0.091758
    110 H                     0.095632
    111 C                    -0.090237
    112 H                     0.090615
    113 C                    -0.090147
    114 H                     0.091317
    115 C                    -0.111484
    116 H                     0.100230
    117 C                     0.015077
    118 C                    -0.010023
    119 C                    -0.011469
    120 C                    -0.001306
    121 C                    -0.005201
    122 C                    -0.032266
    123 C                     0.021264
    124 C                    -0.000497
    125 C                    -0.015612
    126 C                     0.007803
    127 C                    -0.086595
    128 C                     0.024812
    129 C                    -0.035555
    130 C                    -0.014311
    131 C                     0.009568
    132 C                    -0.003847
    133 C                    -0.091718
    134 C                    -0.001402
    135 C                    -0.000275
    136 C                     0.001203
    137 C                    -0.013406
    138 C                     0.004881
    139 C                    -0.017789
    140 C                     0.019604
    141 C                     0.024047
    142 C                     0.006323
    143 C                     0.007783
    144 C                    -0.002156
    145 C                     0.010548
    146 C                     0.003954
    147 C                     0.001302
    148 C                     0.014854
    149 C                    -0.023098
    150 C                    -0.029637
    151 C                    -0.023462
    152 C                    -0.021322
    153 C                    -0.018427
    154 C                    -0.018300
    155 C                    -0.029113
    156 C                     0.013181
    157 C                     0.018130
    158 C                     0.013177
    159 C                     0.030224
    160 C                     0.029837
    161 C                     0.017752
    162 C                     0.010691
    163 C                     0.049549
    164 C                    -0.007432
    165 C                    -0.010127
    166 C                     0.011628
    167 C                    -0.009865
    168 C                     0.015317
    169 C                     0.023261
    170 C                     0.009809
    171 C                    -0.009135
    172 C                    -0.001798
    173 C                    -0.030963
    174 C                     0.022055
    175 C                     0.000407
    176 C                     0.013757
  ----------------------------------------
  Sum of atomic charges =     0.000000

 -----------------------------------------------------------------
                    Cartesian Multipole Moments
 -----------------------------------------------------------------
    Charge (ESU x 10^10)
                 0.0000
    Dipole Moment (Debye)
         X      -0.9146      Y       0.7655      Z       1.4910
       Tot       1.9093
    Quadrupole Moments (Debye-Ang)
        XX    -670.7124     XY      18.3066     YY    -807.2709
        XZ      -2.9116     YZ      12.5471     ZZ    -807.0805
    Octopole Moments (Debye-Ang^2)
       XXX    -200.9673    XXY     217.3598    XYY     -52.4275
       YYY     220.6608    XXZ    -137.8265    XYZ     -67.3206
       YYZ      27.7236    XZZ      -5.9830    YZZ      65.5798
       ZZZ     -41.4094
    Hexadecapole Moments (Debye-Ang^3)
      XXXX -188047.4706   XXXY    8360.8711   XXYY  -40250.0037
      XYYY    1095.2745   YYYY  -31611.4324   XXXZ    1058.5278
      XXYZ     779.2706   XYYZ      89.2911   YYYZ     196.7946
      XXZZ  -38544.8474   XYZZ     795.7346   YYZZ   -8727.0646
      XZZZ      -2.7008   YZZZ      93.6381   ZZZZ  -20980.1537
 -----------------------------------------------------------------
Archival summary:
1\1\mn251\SP\ProcedureUnspecified\6-31G**\428\afmv_a\SatOct1318:03:112018SatOct1318:03:112018\0\\#,ProcedureUnspecified,6-31G**,\\0,1\C\C,1,1.34704\C,1,1.35145,2,119.423\C,3,1.34576,1,119.611,2,136.232,0\C,1,1.378,2,105.921,3,139.811,0\C,4,1.38741,3,109.496,1,-145.002,0\C,6,1.39017,4,121.156,3,145.589,0\C,7,1.39703,6,120.487,4,-0.165561,0\C,6,1.40534,4,107.207,3,-3.44595,0\C,5,1.4072,1,108.896,2,5.6319,0\C,10,1.39165,5,108.267,1,-5.28911,0\C,10,1.40477,5,118.716,1,-143.368,0\C,9,1.40791,6,108.004,4,3.57059,0\C,13,1.40437,9,120.201,6,135.175,0\C,14,1.33158,13,118.724,9,3.36433,0\C,14,1.38193,13,119.105,9,-138.519,0\C,16,1.39597,14,106.675,13,144.342,0\C,17,1.41462,16,107.408,14,1.40683,0\C,4,1.41888,3,121.056,1,1.6639,0\C,19,1.39208,4,121.58,3,-1.84207,0\C,20,1.40753,19,111.601,4,-139.014,0\C,21,1.37316,20,123.61,19,135.119,0\C,22,1.39445,21,120.501,20,-137.109,0\C,21,1.40893,20,103.59,19,-4.36416,0\C,23,1.41677,22,123.109,21,-1.22199,0\C,25,1.37821,23,114.97,22,133.047,0\C,26,1.39782,25,125.75,23,10.3608,0\C,27,1.38714,26,116.496,25,-9.74266,0\C,28,1.3703,27,108.952,26,-145.921,0\C,29,1.40949,28,108.07,27,8.91224,0\C,30,1.39209,29,107.356,28,-8.24876,0\C,31,1.37242,30,114.965,29,143.069,0\C,32,1.40435,31,117.697,30,-137.746,0\C,33,1.39868,32,107.569,31,156.118,0\C,25,1.41749,23,115.762,22,6.31173,0\C,19,1.41867,4,118.483,3,-140.764,0\C,28,1.42144,27,122.804,26,6.17607,0\C,26,1.42548,25,108.794,23,-139.414,0\C,38,1.36311,26,108.651,25,6.22357,0\C,39,1.39741,38,120.181,26,143.59,0\C,40,1.42601,39,120.031,38,-5.67399,0\C,41,1.38653,40,108.783,39,-138.564,0\C,42,1.4036,41,121.029,40,150.834,0\C,32,1.42793,31,124.087,30,13.5203,0\C,44,1.40913,32,115.517,31,-20.622,0\C,45,1.35541,44,121.071,32,14.9506,0\C,46,1.40121,45,108.305,44,-150.973,0\C,47,1.37914,46,115.863,45,144.387,0\C,48,1.40837,47,125.824,46,5.1207,0\C,47,1.41244,46,107.306,45,-1.80916,0\C,50,1.3511,47,108.419,46,4.55083,0\C,48,1.41296,47,118.292,46,-141.116,0\C,52,1.3831,48,109.476,47,147.627,0\C,53,1.39645,52,107.043,48,4.29116,0\C,54,1.39046,53,117.066,52,-137.069,0\C,51,1.42265,50,121.364,47,143.729,0\C,56,1.38897,51,120.875,50,-12.7106,0\C,57,1.36806,56,112.324,51,-136.747,0\C,43,1.44698,42,121.306,41,1.83279,0\C,59,1.49402,43,119.969,42,-2.687,0\C,60,1.50722,59,62.1387,43,117.246,0\C,61,1.51647,60,119.706,59,112.392,0\H,62,1.09641,61,108.48,60,-45.6615,0\H,62,1.09722,61,110.282,60,72.9703,0\C,62,1.55029,61,109.272,60,-155.552,0\H,65,1.09695,62,111.311,61,77.203,0\H,65,1.09712,62,109.588,61,-39.3708,0\C,65,1.54365,62,111.084,61,-162.456,0\H,68,1.09651,65,103.724,62,-67.7166,0\H,68,1.09667,65,111.005,62,47.4052,0\C,68,1.42039,65,117.794,62,172.511,0\O,71,1.24853,68,124.856,65,29.7763,0\O,71,1.37232,68,109.426,65,-151.05,0\C,73,1.43435,71,119.085,68,-169.231,0\H,74,1.097,73,115.928,71,-57.3305,0\H,74,1.09752,73,107.749,71,-173.718,0\H,74,1.09775,73,112.104,71,73.7615,0\C,61,1.55776,60,116.449,59,-112.272,0\C,78,1.36249,61,119.385,60,-59.1551,0\H,79,1.08623,78,123.156,61,10.9775,0\C,79,1.38238,78,125.411,61,-171.267,0\H,81,1.0865,79,121.6,78,160.938,0\C,81,1.41344,79,117.324,78,-6.11278,0\H,83,1.08507,81,120.04,79,-171.131,0\C,83,1.40414,81,118.866,79,0.873258,0\H,85,1.08572,83,115.171,81,179.939,0\C,85,1.39385,83,121.909,81,2.64518,0\H,87,1.08602,85,125.035,83,-176.267,0\C,5,2.90835,1,88.8761,2,115.478,0\C,89,1.36429,5,90.3941,1,84.4809,0\C,89,1.3792,5,91.5529,1,-42.9467,0\C,89,1.39141,5,114.216,1,-163.241,0\C,92,1.36984,89,104.886,5,-105.463,0\C,92,1.37183,89,123.526,5,107.597,0\C,93,1.38828,92,125.327,89,-150.914,0\C,94,1.3892,92,114.69,89,133.49,0\C,91,1.39335,89,123.41,5,-125.179,0\C,97,1.39071,91,116.464,89,4.2893,0\C,90,1.39436,89,114.875,5,-102.339,0\C,99,1.38807,90,121.072,89,5.01789,0\C,96,1.3955,94,123.542,92,9.17484,0\C,101,1.33145,96,117.884,94,-143.8,0\C,102,1.38187,101,106.98,96,146.238,0\C,93,1.39709,92,111.998,89,3.89294,0\C,102,1.39854,101,123.244,96,3.98484,0\C,105,1.3827,102,119.155,101,-1.97866,0\C,106,1.38007,105,120.301,102,-5.31875,0\C,107,1.37879,106,117.903,105,140.187,0\C,105,1.38874,102,122.803,101,138.047,0\C,99,1.40029,90,119.544,89,-135.461,0\C,100,1.40256,99,108.793,90,-147.695,0\C,111,1.38358,100,107.773,99,1.24845,0\C,111,1.3848,100,120.175,99,143.984,0\C,113,1.3928,111,118.695,100,0.221897,0\C,114,1.37212,113,108.977,111,-140.124,0\C,106,1.40437,105,109.712,102,146.015,0\C,116,1.37513,106,105.831,105,-3.8789,0\C,117,1.39551,116,120.636,106,-144.799,0\C,109,1.41091,105,121.684,102,0.501523,0\C,119,1.39208,109,114.289,105,-4.2342,0\C,120,1.39466,119,107.688,109,-139.256,0\C,121,1.38606,120,118.966,119,148.305,0\C,122,1.37952,121,126.14,120,4.30611,0\C,123,1.39644,122,109.381,121,-140.597,0\C,124,1.39222,123,108.718,122,-3.1077,0\C,125,1.36136,124,104.761,123,2.06881,0\C,126,1.39591,125,119.086,124,148.706,0\C,127,1.38238,126,119.452,125,-148.032,0\C,128,1.37897,127,122.777,126,-2.55042,0\C,127,1.40034,126,123.38,125,-3.27878,0\C,130,1.40213,127,109.737,126,-147.175,0\C,131,1.37603,130,105.515,127,1.25378,0\C,97,1.41327,91,108.143,89,-136.141,0\C,133,1.37703,97,109.045,91,-1.87234,0\C,100,1.41454,99,122.859,90,3.88859,0\C,132,1.41557,131,121.918,130,141.226,0\C,103,1.41648,102,110.804,101,-0.118909,0\C,131,1.42689,130,118.672,127,141.03,0\C,138,1.37333,131,120.192,130,-133.878,0\C,139,1.4272,138,118.797,131,2.01545,0\C,116,1.42754,106,119.954,105,-148.092,0\C,141,1.38996,116,118.638,106,138.141,0\C,142,1.40661,141,107.018,116,-139.546,0\C,143,1.39062,142,106.625,141,3.45254,0\C,144,1.369,143,111.136,142,-4.65753,0\C,142,1.41192,141,117.803,116,-1.17909,0\C,136,1.45689,132,121.787,131,-147.14,0\C,147,1.42016,136,118.807,132,4.30044,0\C,148,1.49394,147,62.7052,136,-120.347,0\C,149,1.53736,148,123.949,147,102.164,0\C,150,1.40916,149,116.457,148,45.3167,0\H,151,1.08538,150,124.054,149,17.2829,0\C,151,1.43176,150,119.281,149,-170.486,0\H,153,1.0863,151,116.933,150,-168.706,0\C,153,1.38257,151,120.854,150,-0.0672851,0\H,155,1.08594,153,118.703,151,-178.068,0\C,155,1.43263,153,119.956,151,-1.14459,0\H,157,1.08564,155,128.965,153,175.953,0\C,157,1.36601,155,119.39,153,2.81456,0\H,159,1.08642,157,117.03,155,172.959,0\C,149,1.55607,148,120.912,147,-110.977,0\H,161,1.09662,149,109.645,148,-3.3949,0\H,161,1.09744,149,106.743,148,-106.187,0\C,161,1.5462,149,113.344,148,132.545,0\H,164,1.09609,161,107.119,149,-44.7644,0\H,164,1.09702,161,106.888,149,70.1707,0\C,164,1.52077,161,116.412,149,-167.297,0\H,167,1.09652,164,108.16,161,53.8681,0\H,167,1.0967,164,105.558,161,-58.5959,0\C,167,1.5211,164,113.675,161,-176.172,0\O,170,1.21917,167,124.617,164,-10.4596,0\O,170,1.32732,167,110.195,164,178.191,0\C,172,1.5024,170,119.093,167,177.283,0\H,173,1.09679,172,105.863,170,56.7686,0\H,173,1.09693,172,111.049,170,-49.0588,0\H,173,1.09706,172,108.27,170,-175.096,0\\\@

 Total job time:  871.91s(wall), 8284.08s(cpu) 
 Sat Oct 13 18:03:11 2018

        *************************************************************
        *                                                           *
        *  Thank you very much for using Q-Chem.  Have a nice day.  *
        *                                                           *
        *************************************************************


