
Running Job 1 of 1 ./10/10.qcin
qchem ./10/10.qcin_40665.0 /tmpu/cab_g/afmv_a/scratch_qchem/qchem40665/ 1
/tmpu/appuserlic/qchem4.4/serial-multicore/exe/qcprog.exe_s ./10/10.qcin_40665.0 /tmpu/cab_g/afmv_a/scratch_qchem/qchem40665/
Check license passed

                  Welcome to Q-Chem
     A Quantum Leap Into The Future Of Chemistry


 Q-Chem 4.4, Q-Chem, Inc., Pleasanton, CA (2016)

 Y. Shao,  Z. Gan,  E. Epifanovsky,  A. T. B. Gilbert,  M. Wormit,  
 J. Kussmann,  A. W. Lange,  A. Behn,  J. Deng,  X. Feng,  D. Ghosh,  
 M. Goldey,  P. R. Horn,  L. D. Jacobson,  I. Kaliman,  F. Rob,  
 R. Z. Khaliullin,  T. Kus,  A. Landau,  J. Liu,  E. I. Proynov,  Y. M. Rhee,  
 R. M. Richard,  M. A. Rohrdanz,  R. P. Steele,  E. J. Sundstrom,  
 H. L. Woodcock III,  P. M. Zimmerman,  D. Zuev,  B. Albrecht,  E. Alguire,  
 B. Austin,  S. A. Baeppler,  G. J. O. Beran,  Y. A. Bernard,  E. Berquist,  
 K. Brandhorst,  K. B. Bravaya,  S. T. Brown,  D. Casanova,  C.-M. Chang,  
 Y. Chen,  S. H. Chien,  K. D. Closser,  M. P. Coons,  D. L. Crittenden,  
 S. Dasgupta,  M. Diedenhofen,  R. A. DiStasio Jr.,  H. Do,  A. D. Dutoi,  
 R. G. Edgar,  P.-T. Fang,  S. Fatehi,  Q. Feng,  L. Fusti-Molnar,  
 A. Ghysels,  A. Golubeva-Zadorozhnaya,  J. Gomes,  A. Gunina,  
 M. W. D. Hanson-Heine,  P. H. P. Harbach,  A. W. Hauser,  J. E. Herr,  
 E. G. Hohenstein,  Z. C. Holden,  K. Hui,  T.-C. Jagau,  H. Ji,  B. Kaduk,  
 K. Khistyaev,  Jaehoon Kim,  Jihan Kim,  R. A. King,  P. Klunzinger,  
 K. Koh,  D. Kosenkov,  T. Kowalczyk,  C. M. Krauter,  A. Kunitsa,  
 K. U. Lao,  A. Laurent,  K. V. Lawler,  J. Lee,  D. Lefrancois,  S. Lehtola,  
 S. V. Levchenko,  C. Y. Lin,  Y.-S. Lin,  F. Liu,  E. Livshits,  
 R. C. Lochan,  A. Luenser,  P. Manohar,  S. F. Manzer,  S.-P. Mao,  Y. Mao,  
 N. Mardirossian,  A. V. Marenich,  L. A. Martinez-Martinez,  S. A. Maurer,  
 N. J. Mayhall,  J.-M. Mewes,  A. F. Morrison,  K. Nanda,  T. S. Nguyen-Beck,  
 C. M. Oana,  R. Olivares-Amaya,  D. P. O'Neill,  J. A. Parkhill,  
 T. M. Perrine,  R. Peverati,  P. A. Pieniazek,  F. Plasser,  A. Prociuk,  
 D. R. Rehn,  E. Rosta,  N. J. Russ,  N. Sergueev,  S. M. Sharada,  
 S. Sharma,  D. W. Small,  A. Sodt,  T. Stauch,  T. Stein,  D. Stuck,  
 Y.-C. Su,  A. J. W. Thom,  T. Tsuchimochi,  L. Vogt,  O. Vydrov,  T. Wang,  
 M. A. Watson,  J. Wenzel,  A. White,  C. F. Williams,  V. Vanovschi,  
 K. Yao,  S. Yeganeh,  S. R. Yost,  Z.-Q. You,  I. Y. Zhang,  X. Zhang,  
 Y. Zhao,  B. R. Brooks,  G. K. L. Chan,  D. M. Chipman,  C. J. Cramer,  
 W. A. Goddard III,  M. S. Gordon,  W. J. Hehre,  A. Klamt,  
 H. F. Schaefer III,  M. W. Schmidt,  C. D. Sherrill,  D. G. Truhlar,  
 A. Warshel,  X. Xu,  A. Aspuru-Guzik,  R. Baer,  A. T. Bell,  N. A. Besley,  
 J.-D. Chai,  A. Dreuw,  B. D. Dunietz,  T. R. Furlani,  S. R. Gwaltney,  
 C.-P. Hsu,  Y. Jung,  J. Kong,  D. S. Lambrecht,  W. Liang,  C. Ochsenfeld,  
 V. A. Rassolov,  L. V. Slipchenko,  J. E. Subotnik,  T. Van Voorhis,  
 J. M. Herbert,  A. I. Krylov,  P. M. W. Gill,  M. Head-Gordon

 Contributors to earlier versions of Q-Chem not listed above: 
 R. D. Adamson,  J. Baker,  E. F. C. Byrd,  A. K. Chakraborty,  C.-L. Cheng,  
 H. Dachsel,  R. J. Doerksen,  G. Hawkins,  A. Heyden,  S. Hirata,  
 G. Kedziora,  F. J. Keil,  C. Kelley,  P. P. Korambath,  W. Kurlancheek,  
 A. M. Lee,  M. S. Lee,  D. Liotard,  I. Lotan,  P. E. Maslen,  N. Nair,  
 D. Neuhauser,  R. Olson,  B. Peters,  J. Ritchie,  N. E. Schultz,  
 N. Shenvi,  A. C. Simmonett,  K. S. Thanthiriwatte,  Q. Wu,  W. Zhang

 Please cite Q-Chem as follows:
 Y. Shao et al., Mol. Phys. 113, 184-215 (2015)
 DOI: 10.1080/00268976.2014.952696

 Q-Chem 4.4.2 for Intel X86 Linux

 Parts of Q-Chem use Armadillo 5.200.1 (Boston Tea Smuggler).
 http://arma.sourceforge.net/

 Q-Chem begins on Sat Oct 13 18:03:12 2018  

Host: 
0

     Scratch files written to /tmpu/cab_g/afmv_a/scratch_qchem/qchem40665//
 Dec716 11556_ 22328  22283 4050   
Processing $rem in /tmpu/appuserlic/qchem4.4/serial-multicore/config/preferences.
 MEM_TOTAL  2000 
FILE_GEOM_ORG=        593

Checking the input file for inconsistencies... 	...done.

--------------------------------------------------------------
User input:
--------------------------------------------------------------
$comment
SP
$end

$rem
MEM_STATIC 5000
MEM_TOTAL 20000
JOBTYPE SP
EXCHANGE B3LYP
BASIS 6-31g(d,p)
$end

$molecule
0 1
O         -18.260000     -4.137000     10.603000
C         -19.583000     -3.540000     10.525000
H         -19.945000     -3.267000     11.524000
H         -20.359000     -4.195000     10.110000
H         -19.447000     -2.602000      9.972000
O         -18.905000     -6.191000     11.278000
C         -18.015000     -5.422000     11.003000
C         -16.597000     -5.872000     10.981000
H         -16.469000     -6.604000     11.788000
H         -15.900000     -5.046000     11.171000
C         -16.164000     -6.467000      9.610000
H         -16.374000     -5.719000      8.836000
H         -15.090000     -6.643000      9.469000
C         -16.874000     -7.815000      9.509000
H         -16.440000     -8.450000     10.292000
H         -17.920000     -7.721000      9.827000
C         -16.902000     -8.414000      8.125000
C         -17.773000     -7.574000      7.241000
C         -17.139000     -6.541000      6.475000
H         -16.060000     -6.423000      6.475000
C         -17.977000     -5.552000      5.914000
H         -17.613000     -4.710000      5.334000
C         -19.398000     -5.682000      5.899000
H         -19.973000     -4.885000      5.435000
C         -20.005000     -6.749000      6.491000
H         -21.091000     -6.740000      6.488000
C         -19.218000     -7.675000      7.242000
H         -19.549000     -8.582000      7.741000
C         -17.186000    -13.210000      5.509000
C         -15.767000    -11.828000      4.103000
C         -11.946000    -13.902000      4.923000
C         -15.441000    -13.287000     10.235000
C         -10.857000    -11.519000      7.327000
C         -16.818000    -11.983000      5.048000
C         -12.649000    -13.078000      9.999000
C         -14.104000    -14.845000      4.504000
C         -13.753000     -8.969000      6.228000
C         -14.789000    -12.083000     10.380000
C         -15.661000     -9.065000      7.688000
C         -13.290000     -9.074000      7.524000
C         -13.077000    -10.696000      9.771000
C         -11.553000    -12.931000      9.210000
C         -15.841000     -9.956000      5.325000
C         -11.209000    -13.960000      7.048000
C         -16.830000     -9.903000      8.131000
C         -16.558000    -10.862000      9.272000
C         -10.815000    -12.691000      6.499000
C         -14.610000    -15.831000      7.907000
C         -12.883000    -15.600000      6.475000
C         -14.007000    -15.611000      5.732000
C         -15.333000    -14.218000      4.209000
C         -17.133000    -12.123000      8.886000
C         -15.151000     -9.149000      6.267000
C         -14.981000    -12.957000      3.748000
C         -13.403000    -11.964000     10.267000
C         -15.172000    -10.577000      4.276000
C         -12.077000     -9.732000      7.819000
C         -16.555000    -14.491000      8.607000
C         -13.082000    -13.998000      4.141000
C         -14.399000     -9.157000      8.436000
C         -16.315000    -15.093000      6.219000
C         -11.976000    -10.546000      8.950000
C         -13.075000     -9.734000      5.167000
C         -12.557000    -14.988000      8.789000
C         -13.292000    -14.357000      9.829000
C         -11.838000    -10.371000      5.427000
C         -16.558000    -13.338000      9.371000
C         -15.343000    -10.900000      9.895000
C         -15.351000    -15.170000      8.922000
C         -17.357000    -10.792000      7.118000
C         -12.921000    -11.579000      3.909000
C         -14.306000    -10.065000      9.487000
C         -11.348000    -10.382000      6.762000
C         -17.039000    -14.461000      7.287000
C         -11.287000    -12.665000      5.181000
C         -16.447000    -14.308000      5.083000
C         -11.920000    -14.668000      6.092000
C         -13.777000    -10.476000      4.191000
C         -11.771000    -11.521000      4.646000
C         -16.867000    -10.812000      5.849000
C         -17.647000    -12.126000      7.598000
C         -13.210000    -15.708000      7.813000
C         -13.591000    -12.807000      3.660000
C         -11.265000    -11.670000      8.655000
C         -14.683000    -14.436000      9.940000
C         -11.575000    -14.018000      8.381000
C         -17.619000    -13.300000      6.796000
C         -15.120000    -15.798000      6.567000
O         -15.788000    -17.740000      2.841000
C         -14.409000    -17.601000      2.497000
H         -13.836000    -18.170000      3.239000
H         -13.993000    -16.586000      2.516000
H         -14.210000    -17.946000      1.475000
O         -16.457000    -15.936000      1.550000
C         -16.672000    -16.864000      2.335000
C         -18.089000    -17.346000      2.702000
H         -18.106000    -18.410000      2.434000
H         -18.709000    -16.775000      2.000000
C         -18.462000    -17.052000      4.195000
H         -17.600000    -17.412000      4.769000
H         -18.568000    -15.970000      4.347000
C         -19.822000    -17.738000      4.643000
H         -20.705000    -17.276000      4.183000
H         -19.937000    -18.779000      4.317000
C         -19.909000    -17.822000      6.155000
C         -18.859000    -18.780000      6.815000
C         -17.700000    -18.269000      7.360000
H         -17.473000    -17.217000      7.213000
C         -16.962000    -18.977000      8.298000
H         -16.110000    -18.539000      8.809000
C         -17.237000    -20.336000      8.506000
H         -16.548000    -21.048000      8.951000
C         -18.429000    -20.840000      7.941000
H         -18.716000    -21.884000      8.035000
C         -19.225000    -20.086000      7.074000
H         -20.161000    -20.487000      6.697000
C         -23.306000    -18.694000     10.359000
C         -21.689000    -17.151000     11.300000
C         -24.540000    -13.440000     11.498000
C         -25.379000    -16.857000      6.076000
C         -23.274000    -12.116000      8.421000
C         -21.992000    -18.184000     10.422000
C         -25.402000    -14.064000      6.343000
C         -24.900000    -15.803000     11.992000
C         -20.208000    -14.749000      8.451000
C         -24.413000    -16.077000      5.475000
C         -20.434000    -16.555000      6.866000
C         -20.757000    -14.290000      7.294000
C         -23.112000    -14.202000      5.610000
C         -25.131000    -12.952000      7.159000
C         -20.471000    -16.876000      9.374000
C         -25.424000    -12.628000      9.539000
C         -21.288000    -17.806000      6.808000
C         -22.654000    -17.683000      6.110000
C         -24.083000    -12.201000      9.606000
C         -26.865000    -16.348000      9.265000
C         -26.442000    -14.566000     10.561000
C         -26.049000    -15.761000     11.215000
C         -24.031000    -16.925000     11.937000
C         -23.659000    -18.458000      6.778000
C         -20.079000    -16.095000      8.223000
C         -22.664000    -16.513000     12.066000
C         -24.414000    -14.680000      5.571000
C         -20.763000    -16.342000     10.608000
C         -21.629000    -13.150000      7.313000
C         -25.733000    -18.053000      7.937000
C         -24.114000    -14.676000     12.124000
C         -20.981000    -15.318000      6.302000
C         -25.473000    -17.929000     10.331000
C         -22.794000    -13.095000      6.440000
C         -20.556000    -14.167000      9.639000
C         -26.686000    -14.214000      8.167000
C         -26.410000    -14.830000      6.968000
C         -21.403000    -13.032000      9.678000
C         -25.023000    -18.011000      6.755000
C         -23.033000    -16.452000      5.511000
C         -26.615000    -16.922000      8.037000
C         -21.725000    -18.548000      8.044000
C         -21.829000    -14.305000     11.558000
C         -22.249000    -15.305000      5.656000
C         -21.952000    -12.454000      8.497000
C         -25.178000    -18.492000      9.103000
C         -23.502000    -12.743000     10.804000
C         -24.340000    -17.966000     11.040000
C         -25.711000    -13.409000     10.662000
C         -20.788000    -14.939000     10.770000
C         -22.157000    -13.126000     10.823000
C         -21.279000    -18.021000      9.209000
C         -23.085000    -19.013000      7.937000
C         -26.975000    -14.954000      9.292000
C         -22.763000    -15.086000     12.237000
C         -23.818000    -12.470000      7.200000
C         -26.427000    -16.216000      6.851000
C         -25.927000    -13.042000      8.282000
C         -23.895000    -19.084000      9.109000
C         -26.386000    -16.877000     10.431000
$end

--------------------------------------------------------------
 ----------------------------------------------------------------
             Standard Nuclear Orientation (Angstroms)
    I     Atom           X                Y                Z
 ----------------------------------------------------------------
    1      O       4.3459472015    -8.8877928260    -0.3599479628
    2      C       3.4831102267    -9.8846204217     0.2521542339
    3      H       3.1492858786   -10.6183812141    -0.4919764025
    4      H       2.5609254243    -9.4859800827     0.6927073753
    5      H       4.1210390302   -10.4248023917     0.9630686318
    6      O       2.7246189352    -7.6479709800    -1.3215624609
    7      C       3.9002587925    -7.8491543404    -1.1305593683
    8      C       4.9292567188    -6.9032003369    -1.6405027876
    9      H       4.5807139697    -6.5251203033    -2.6095386178
   10      H       5.8953870095    -7.3962978175    -1.8067319554
   11      C       5.2287368674    -5.7349496814    -0.6573155997
   12      H       5.5084548905    -6.1707081816     0.3094068822
   13      H       6.1033376770    -5.1129965807    -0.8866205588
   14      C       3.9941897470    -4.8376421439    -0.7035496886
   15      H       3.9612779701    -4.4126327218    -1.7149614771
   16      H       3.0798078830    -5.4431280737    -0.6665551556
   17      C       3.8918007478    -3.8425493773     0.4253204893
   18      C       3.6543456064    -4.5762658310     1.7102221281
   19      C       4.8019553568    -4.9241287727     2.4962146438
   20      H       5.7977981110    -4.5997318815     2.2112078616
   21      C       4.6157722297    -5.8874612009     3.5122916468
   22      H       5.4115236553    -6.2470791010     4.1567407407
   23      C       3.3183551426    -6.3307462371     3.9079850618
   24      H       3.2575096308    -7.0633262750     4.7084563679
   25      C       2.2037956164    -5.8807124203     3.2656233053
   26      H       1.2616734054    -6.3141795960     3.5881104325
   27      C       2.3472292451    -5.0592856781     2.1056530896
   28      H       1.5616819872    -4.6024893653     1.5094453790
   29      C       1.7836371927     1.0458918052     1.6840965737
   30      C       3.8722598982     0.9424944752     2.9199303757
   31      C       6.1138382859     3.9026111724     0.5143218309
   32      C       2.5787510439     0.0912251265    -3.1987750707
   33      C       7.8264408098     1.4477810260    -1.4052165374
   34      C       2.7455229979     0.3193084531     2.3168100398
   35      C       5.1449933384     1.0972779638    -3.7436596223
   36      C       3.8527494412     4.0029454420     1.2883917701
   37      C       6.6545928887    -1.4505318850     1.1094746404
   38      C       3.6889743704    -0.7229874993    -3.2131613575
   39      C       4.7331083878    -2.6464084476     0.2976516550
   40      C       6.8198742590    -1.6474928452    -0.2465852583
   41      C       5.9189807823    -1.0030941903    -2.7957818605
   42      C       6.2844387102     1.6886138483    -3.2994388254
   43      C       4.5046363492    -1.1107744430     2.2975713363
   44      C       6.4189052768     3.4744028502    -1.6733092540
   45      C       3.2574396958    -2.5571941189     0.0157000364
   46      C       2.8795147475    -2.0510878011    -1.3614619470
   47      C       7.4359479655     2.7542849539    -0.9563347881
   48      C       2.4536117210     3.4095872895    -1.9518213005
   49      C       4.2763382389     4.4100344726    -1.0781580502
   50      C       3.3998019082     4.2456364243    -0.0681068917
   51      C       3.1175787256     3.0960253329     2.0806132887
   52      C       1.8449609581    -1.0714143254    -1.1622627053
   53      C       5.3459612519    -1.8619816822     1.4358445282
   54      C       4.0814141667     2.3343988303     2.7267497393
   55      C       4.9694275749    -0.2379594112    -3.4835561521
   56      C       4.9506790850     0.0560202794     2.9085041915
   57      C       7.5266007137    -0.7206467728    -1.0421052619
   58      C       1.2823288873     1.2590836012    -1.6833899134
   59      C       5.1927899296     3.8194548561     1.5419360350
   60      C       5.6810595312    -2.3424582859    -0.7838357138
   61      C       1.5587973113     2.7244544158     0.2911484089
   62      C       7.0688610471    -0.4007796614    -2.3227759568
   63      C       7.0429000248    -0.1540900038     1.6917855682
   64      C       4.5087880245     3.1854277448    -3.1473901443
   65      C       4.0111971600     1.9874781201    -3.7281706779
   66      C       7.7854803428     0.7770647771     0.9268912975
   67      C       1.7072835945     0.0070796909    -2.0896087035
   68      C       3.8299962669    -1.7661640736    -2.3001852027
   69      C       1.9684689222     2.1929319885    -2.5001034752
   70      C       2.5302427060    -1.6469344499     0.8740885690
   71      C       6.4981495483     1.9207897539     2.3308676517
   72      C       5.1840740733    -1.9173673375    -2.0126632608
   73      C       8.0125590402     0.4971479228    -0.4488004630
   74      C       1.0671747983     1.5198772616    -0.3183802487
   75      C       7.2290929451     3.0224570088     0.4022964162
   76      C       1.9766811739     2.4187296570     1.5780246458
   77      C       5.6076094273     4.1386853151    -0.7670814397
   78      C       6.2264726824     0.5497024735     2.6050580049
   79      C       7.4202058696     2.0578279083     1.3308348099
   80      C       3.1333886331    -0.9793563649     1.8945862374
   81      C       1.5835491641    -0.8060571921     0.1735510788
   82      C       3.7453657721     3.8898786478    -2.2427795154
   83      C       5.3761992200     2.7857599360     2.4401335881
   84      C       7.2062066179     0.9357552613    -2.5480149288
   85      C       2.7453809905     1.4673791133    -3.4441822132
   86      C       5.8780429255     2.8984357247    -2.8090639755
   87      C       1.1761190868     0.4872498762     0.6020619411
   88      C       2.2201144769     3.6648413109    -0.5600190798
   89      O       1.2738068005     6.3893954614     2.5675951008
   90      C       2.5912435398     6.9381348593     2.5171618646
   91      H       2.7163601201     7.3767729990     1.5198673125
   92      H       3.4257477244     6.2364551378     2.6391878216
   93      H       2.7526571266     7.6770059563     3.3115957234
   94      O       1.7226553142     5.0667589344     4.4163313257
   95      C       0.9866505761     5.4836891392     3.5173873732
   96      C      -0.5276594145     5.2017770123     3.4695041291
   97      H      -1.0008672013     6.1916274342     3.4476058921
   98      H      -0.6986565415     4.7285328785     4.4442066336
   99      C      -0.9333953145     4.2676289260     2.2789749474
  100      H      -0.4340681779     4.7037723798     1.4057216632
  101      H      -0.5420613845     3.2560701965     2.4482991691
  102      C      -2.5052319511     4.1514076257     2.0873445817
  103      H      -2.9918197425     3.5796022347     2.8879717833
  104      H      -3.0446507835     5.1042151574     2.1534288527
  105      C      -2.8411615253     3.6425033496     0.6984829043
  106      C      -2.4701199209     4.6272303302    -0.4627685333
  107      C      -1.3003566142     4.4540144020    -1.1720477791
  108      H      -0.5890785868     3.7066588406    -0.8323637604
  109      C      -1.1250130355     5.0043243383    -2.4338582258
  110      H      -0.2520600929     4.7844240361    -3.0408722431
  111      C      -2.0305980522     5.9704157784    -2.8946760930
  112      H      -1.8278474470     6.6827877490    -3.6890993854
  113      C      -3.2229366811     6.1319574448    -2.1555293659
  114      H      -3.9750417197     6.8680895332    -2.4268014791
  115      C      -3.4377033051     5.4943181324    -0.9303304414
  116      H      -4.3861545492     5.6015396687    -0.4126724658
  117      C      -6.8243247750     1.5270880570    -2.4052306241
  118      C      -4.8305480103     0.5182535070    -3.3476350295
  119      C      -5.6096910587    -3.8123387327    -1.7420718997
  120      C      -7.1471075641     0.7045179633     2.6182319976
  121      C      -3.4375488120    -3.3237073287     1.0626916216
  122      C      -5.4495119790     1.5896252678    -2.7161066014
  123      C      -5.9001478620    -1.7628751406     3.0975333352
  124      C      -7.1006134668    -2.1338303367    -2.6997591858
  125      C      -2.0001949034     0.0974722131    -0.5383984085
  126      C      -5.8524602814     0.6415759449     3.0901257525
  127      C      -2.8102374034     2.1080080929     0.5229750526
  128      C      -2.0952196432    -0.0889166849     0.8058338920
  129      C      -3.8612235122    -0.4813364953     3.0678820848
  130      C      -5.2630868577    -2.8912574816     2.5527879183
  131      C      -3.3588491241     1.4596914121    -1.8588697495
  132      C      -5.7145844613    -4.1394779918     0.5295923094
  133      C      -4.1312453820     2.8511537630     0.5041752240
  134      C      -5.1626693498     2.4620551462     1.5779796126
  135      C      -4.3556280259    -3.9975787022     0.1857885889
  136      C      -8.6702926255    -1.4611561053     0.2461525096
  137      C      -7.6575248258    -3.2696379168    -0.6127793394
  138      C      -7.9691967451    -2.3406056893    -1.6374498888
  139      C      -6.8596376302    -0.8234975124    -3.1917231436
  140      C      -6.4987629787     2.4812538330     1.0570580971
  141      C      -2.4838248696     1.3687634221    -0.7123573619
  142      C      -5.4940826983    -0.6810698562    -3.6040920206
  143      C      -5.2141164708    -0.5748803909     3.3613768588
  144      C      -3.5439229475     0.4479070206    -2.7727712896
  145      C      -2.3251368249    -1.4026573289     1.3364642812
  146      C      -8.2867419528     0.9050752048     0.6998829020
  147      C      -5.9076763131    -2.8255541207    -2.7611444770
  148      C      -2.6263258526     1.0504309189     1.5205626741
  149      C      -8.3517014366     0.0383380298    -1.5492855966
  150      C      -3.1875706564    -1.5920664847     2.4952183785
  151      C      -2.2049268702    -0.9603168490    -1.3812145936
  152      C      -7.3560397874    -2.7991537161     1.7541653978
  153      C      -7.2283689754    -1.7369465960     2.6194105640
  154      C      -2.4183078880    -2.2672196262    -0.8775989941
  155      C      -7.4755152202     1.5753081029     1.5918958226
  156      C      -4.8299907013     1.4882306855     2.5571597986
  157      C      -8.5414143139    -0.4342216461     1.1565128765
  158      C      -5.0396770362     2.8607296752    -0.6974441964
  159      C      -3.6594912187    -2.0367082983    -2.8122135467
  160      C      -3.6313436255     0.7741148682     2.4895300193
  161      C      -2.4541835722    -2.5455817629     0.5193524926
  162      C      -8.1784487952     1.0736608612    -0.6492477324
  163      C      -4.2775039766    -3.7432168009    -1.2269129565
  164      C      -7.4847984841     0.2591387308    -2.5429984934
  165      C      -6.4939813202    -3.9971651028    -0.6218183810
  166      C      -2.9333349336    -0.8068804410    -2.5537537025
  167      C      -3.2868053892    -2.8974202170    -1.7360489378
  168      C      -4.5745633647     2.1698995285    -1.7652892137
  169      C      -6.4271248973     2.7579342501    -0.3210195249
  170      C      -8.1183007705    -2.6930217893     0.6120444726
  171      C      -4.9380994237    -1.9884936523    -3.3655619054
  172      C      -3.8990258376    -2.7974937508     2.2552649842
  173      C      -7.8741947636    -0.5292893524     2.3755929406
  174      C      -6.1631165554    -3.5334115888     1.7279063233
  175      C      -7.3376310705     2.0765224458    -1.1820546354
  176      C      -8.6703396983    -1.2463372272    -1.1039181727
 ----------------------------------------------------------------
 Molecular Point Group                 C1    NOp =  1
 Largest Abelian Subgroup              C1    NOp =  1
 Nuclear Repulsion Energy = 35388.1174858803 hartrees
 There are      462 alpha and      462 beta electrons
 Requested basis set is 6-31G(d,p)
 There are 676 shells and 2360 basis functions

 Total QAlloc Memory Limit  20000 MB
 Mega-Array Size      4888 MB
 MEM_STATIC part      5000 MB
 A cutoff of  1.0D-08 yielded  38821 shell pairs
 There are    540741 function pairs
 
 -------------------------------------------------------
 OpenMP Integral Computing Module                       
 Release: version 1.0, May 2013, Q-Chem Inc. Pittsburgh 
 -------------------------------------------------------
 Integral Job Info:
 Integral job number is                      11
 Integral operator is                         1
 short-range coefficients                     0
 long-range coefficients              100000000
 Omega coefficients                           0
 if combine SR and LR in K                    0
 Integral screening is                        0
 Integral computing path is                   2
 max size of driver memory is            800000
 size of driver memory is                593474
 size of scratch memory is              2260544
 max col of scratch BK array               1296
 max len of scratch array in speh3          155
 max len of scratch index in speh4           18
 max int batch size is                      520
 min int batch size is                       52
 fixed nKL is                                52
 max L of basis functions is                  2
 order of int derivative is                   0
 number of shells is                        676
 number of basis is                        2360
 number of cartesian basis is              2360
 number of contracted shell pairs         38821
 number of primitive shell pairs         116476
 maxK2 (contraction) of shell pair           36
 max number of K2 of shell pair               1
 max number of CS2 of shell pair           7348
 max number of PS2 of shell pair          34962
 mem total for path MDJ                 1534616
 -------------------------------------------------------
 Smallest overlap matrix eigenvalue = 2.55E-04

 Scale SEOQF with 1.000000e-02/1.000000e-02/1.000000e-01

 Standard Electronic Orientation quadrupole field applied
 Nucleus-field energy     =    -0.0000002737 hartrees
 Guess from superposition of atomic densities
 Warning:  Energy on first SCF cycle will be non-variational
 A restricted hybrid HF-DFT SCF calculation will be
 performed using Pulay DIIS extrapolation
 Exchange:     0.2000 Hartree-Fock + 0.0800 Slater + 0.7200 B88
 Correlation:  0.1900 VWN1RPA + 0.8100 LYP
 Using SG-1 standard quadrature grid
 SCF converges when DIIS error is below 1.0E-05
 using 16 threads for integral computing 
 -------------------------------------------------------
 OpenMP BLAS3 based DFT computing Module                
 Release: version 1.0, May 2013, Q-Chem Inc. Pittsburgh 
 -------------------------------------------------------
 ---------------------------------------
  Cycle       Energy         DIIS Error
 ---------------------------------------
    1   -5858.9619382324      1.84E-02
    2   -5803.1066540473      1.29E-03
    3   -5802.3803402332      1.77E-03
    4   -5803.9889473163      6.21E-04
    5   -5804.1961782574      2.80E-04
    6   -5804.2446618832      1.23E-04
    7   -5804.2540924808      4.92E-05
    8   -5804.2550775746      3.29E-05
    9   -5804.2558757841      7.95E-06 Convergence criterion met
 ---------------------------------------
 SCF time:  CPU 8460.18 s  wall 869.79 s
 SCF   energy in the final basis set = -5804.2558757841
 Total energy in the final basis set = -5804.2558757841
 
 --------------------------------------------------------------
 
                    Orbital Energies (a.u.)
 --------------------------------------------------------------
 
 Alpha MOs
 -- Occupied --
-19.200 -19.190 -19.134 -19.133 -10.317 -10.314 -10.250 -10.241
-10.238 -10.238 -10.236 -10.235 -10.234 -10.233 -10.230 -10.229
-10.228 -10.226 -10.226 -10.226 -10.225 -10.225 -10.224 -10.223
-10.222 -10.222 -10.222 -10.222 -10.222 -10.221 -10.220 -10.220
-10.220 -10.220 -10.220 -10.219 -10.219 -10.218 -10.218 -10.218
-10.218 -10.218 -10.217 -10.217 -10.217 -10.217 -10.217 -10.216
-10.216 -10.216 -10.216 -10.216 -10.216 -10.216 -10.216 -10.215
-10.215 -10.215 -10.215 -10.215 -10.215 -10.215 -10.215 -10.215
-10.215 -10.215 -10.214 -10.214 -10.214 -10.214 -10.214 -10.214
-10.213 -10.213 -10.213 -10.213 -10.213 -10.213 -10.213 -10.213
-10.213 -10.213 -10.212 -10.212 -10.212 -10.212 -10.212 -10.212
-10.211 -10.211 -10.211 -10.211 -10.211 -10.211 -10.211 -10.211
-10.210 -10.210 -10.210 -10.210 -10.210 -10.210 -10.210 -10.209
-10.209 -10.209 -10.209 -10.209 -10.209 -10.208 -10.208 -10.208
-10.208 -10.207 -10.207 -10.207 -10.207 -10.207 -10.207 -10.207
-10.207 -10.206 -10.206 -10.206 -10.206 -10.206 -10.206 -10.205
-10.205 -10.205 -10.205 -10.205 -10.204 -10.204 -10.203 -10.202
-10.202 -10.201 -10.200 -10.199 -10.198 -10.197 -10.196 -10.195
-10.194 -10.193 -10.191 -10.190  -1.099  -1.092  -1.011  -1.005
 -0.989  -0.980  -0.973  -0.969  -0.965  -0.963  -0.959  -0.955
 -0.944  -0.933  -0.929  -0.929  -0.926  -0.924  -0.923  -0.921
 -0.919  -0.915  -0.902  -0.896  -0.892  -0.889  -0.885  -0.881
 -0.877  -0.870  -0.854  -0.851  -0.847  -0.843  -0.841  -0.838
 -0.836  -0.833  -0.827  -0.817  -0.812  -0.802  -0.798  -0.797
 -0.795  -0.795  -0.794  -0.793  -0.790  -0.788  -0.787  -0.780
 -0.775  -0.773  -0.772  -0.769  -0.767  -0.765  -0.763  -0.760
 -0.749  -0.748  -0.743  -0.741  -0.737  -0.732  -0.721  -0.718
 -0.716  -0.714  -0.714  -0.712  -0.710  -0.709  -0.709  -0.708
 -0.707  -0.706  -0.706  -0.703  -0.701  -0.701  -0.677  -0.671
 -0.664  -0.663  -0.656  -0.652  -0.650  -0.645  -0.638  -0.629
 -0.629  -0.628  -0.623  -0.622  -0.621  -0.620  -0.619  -0.617
 -0.616  -0.614  -0.614  -0.614  -0.611  -0.610  -0.609  -0.608
 -0.608  -0.607  -0.605  -0.598  -0.570  -0.567  -0.564  -0.563
 -0.563  -0.562  -0.561  -0.559  -0.556  -0.555  -0.554  -0.549
 -0.538  -0.535  -0.534  -0.530  -0.529  -0.528  -0.524  -0.523
 -0.523  -0.521  -0.519  -0.519  -0.517  -0.517  -0.510  -0.509
 -0.509  -0.505  -0.504  -0.495  -0.491  -0.490  -0.489  -0.487
 -0.485  -0.483  -0.483  -0.481  -0.479  -0.479  -0.477  -0.474
 -0.473  -0.472  -0.471  -0.469  -0.468  -0.468  -0.467  -0.466
 -0.465  -0.464  -0.462  -0.461  -0.460  -0.459  -0.458  -0.457
 -0.456  -0.456  -0.451  -0.450  -0.449  -0.446  -0.445  -0.444
 -0.443  -0.441  -0.439  -0.439  -0.437  -0.437  -0.434  -0.433
 -0.432  -0.430  -0.429  -0.427  -0.426  -0.425  -0.424  -0.423
 -0.422  -0.422  -0.421  -0.420  -0.420  -0.419  -0.419  -0.418
 -0.417  -0.416  -0.415  -0.415  -0.414  -0.413  -0.412  -0.411
 -0.410  -0.408  -0.407  -0.405  -0.401  -0.399  -0.398  -0.396
 -0.394  -0.393  -0.392  -0.389  -0.388  -0.387  -0.385  -0.384
 -0.382  -0.379  -0.376  -0.372  -0.371  -0.368  -0.366  -0.364
 -0.362  -0.362  -0.361  -0.361  -0.360  -0.359  -0.358  -0.357
 -0.356  -0.355  -0.354  -0.353  -0.352  -0.351  -0.350  -0.350
 -0.349  -0.349  -0.349  -0.348  -0.346  -0.346  -0.345  -0.343
 -0.343  -0.342  -0.341  -0.340  -0.337  -0.336  -0.335  -0.334
 -0.332  -0.331  -0.329  -0.329  -0.327  -0.326  -0.325  -0.321
 -0.314  -0.307  -0.299  -0.297  -0.289  -0.284  -0.275  -0.270
 -0.268  -0.267  -0.267  -0.266  -0.265  -0.264  -0.263  -0.262
 -0.262  -0.259  -0.259  -0.259  -0.257  -0.255  -0.255  -0.251
 -0.250  -0.246  -0.246  -0.241  -0.223  -0.222  -0.215  -0.210
 -0.209  -0.207  -0.207  -0.204  -0.202  -0.195
 -- Virtual --
 -0.122  -0.120  -0.117  -0.115  -0.113  -0.104  -0.078  -0.070
 -0.068  -0.066  -0.065  -0.060  -0.057  -0.052  -0.024  -0.023
 -0.021  -0.020  -0.019  -0.019  -0.015  -0.015  -0.013  -0.013
 -0.012  -0.012  -0.010  -0.008  -0.007  -0.001   0.003   0.006
  0.008   0.010   0.033   0.037   0.039   0.042   0.045   0.049
  0.050   0.053   0.056   0.061   0.062   0.063   0.069   0.070
  0.072   0.080   0.084   0.085   0.087   0.089   0.091   0.092
  0.098   0.099   0.100   0.104   0.106   0.107   0.108   0.111
  0.112   0.114   0.115   0.118   0.118   0.120   0.121   0.122
  0.125   0.129   0.130   0.133   0.134   0.138   0.139   0.140
  0.140   0.141   0.145   0.147   0.151   0.153   0.155   0.158
  0.158   0.158   0.160   0.162   0.163   0.166   0.166   0.170
  0.171   0.172   0.173   0.174   0.175   0.178   0.179   0.180
  0.184   0.185   0.186   0.187   0.188   0.190   0.191   0.191
  0.195   0.195   0.198   0.200   0.202   0.204   0.206   0.206
  0.207   0.211   0.211   0.212   0.215   0.217   0.219   0.219
  0.220   0.224   0.226   0.226   0.227   0.227   0.230   0.230
  0.232   0.232   0.236   0.236   0.238   0.239   0.240   0.241
  0.245   0.247   0.249   0.250   0.252   0.254   0.258   0.261
  0.262   0.266   0.270   0.276   0.277   0.278   0.279   0.280
  0.283   0.286   0.289   0.293   0.295   0.299   0.304   0.309
  0.310   0.311   0.313   0.314   0.317   0.319   0.321   0.322
  0.323   0.324   0.325   0.327   0.329   0.331   0.331   0.335
  0.335   0.340   0.341   0.345   0.347   0.348   0.349   0.351
  0.354   0.355   0.357   0.362   0.366   0.369   0.384   0.386
  0.391   0.395   0.399   0.401   0.401   0.404   0.409   0.410
  0.411   0.411   0.414   0.418   0.422   0.423   0.424   0.428
  0.429   0.431   0.433   0.435   0.436   0.441   0.444   0.447
  0.448   0.450   0.453   0.457   0.457   0.461   0.461   0.462
  0.465   0.467   0.468   0.469   0.471   0.472   0.474   0.476
  0.477   0.478   0.479   0.481   0.482   0.483   0.483   0.484
  0.488   0.489   0.490   0.491   0.491   0.493   0.494   0.496
  0.497   0.498   0.499   0.501   0.501   0.502   0.504   0.505
  0.505   0.506   0.509   0.510   0.511   0.513   0.513   0.514
  0.515   0.516   0.517   0.517   0.518   0.519   0.520   0.520
  0.521   0.521   0.522   0.523   0.524   0.525   0.527   0.528
  0.528   0.530   0.530   0.531   0.532   0.532   0.533   0.533
  0.535   0.536   0.537   0.537   0.539   0.540   0.540   0.541
  0.541   0.542   0.542   0.543   0.544   0.545   0.546   0.546
  0.546   0.547   0.548   0.549   0.551   0.552   0.552   0.554
  0.555   0.555   0.556   0.557   0.557   0.558   0.559   0.559
  0.560   0.561   0.562   0.562   0.563   0.564   0.565   0.565
  0.567   0.568   0.568   0.570   0.570   0.571   0.571   0.572
  0.573   0.574   0.574   0.576   0.577   0.577   0.578   0.579
  0.579   0.579   0.581   0.581   0.581   0.582   0.583   0.584
  0.585   0.586   0.587   0.588   0.589   0.590   0.590   0.592
  0.593   0.593   0.594   0.595   0.597   0.598   0.599   0.600
  0.600   0.602   0.603   0.604   0.605   0.606   0.608   0.610
  0.611   0.612   0.613   0.614   0.616   0.617   0.618   0.619
  0.620   0.623   0.625   0.626   0.626   0.627   0.627   0.628
  0.629   0.629   0.631   0.631   0.633   0.634   0.635   0.636
  0.637   0.638   0.639   0.639   0.640   0.641   0.642   0.643
  0.644   0.645   0.646   0.647   0.648   0.648   0.649   0.651
  0.651   0.652   0.653   0.655   0.655   0.657   0.659   0.659
  0.661   0.661   0.663   0.664   0.665   0.665   0.667   0.667
  0.668   0.669   0.670   0.671   0.672   0.672   0.672   0.673
  0.674   0.676   0.676   0.677   0.677   0.680   0.681   0.681
  0.684   0.684   0.685   0.686   0.687   0.688   0.689   0.691
  0.693   0.694   0.695   0.696   0.698   0.698   0.699   0.700
  0.701   0.702   0.703   0.703   0.704   0.705   0.706   0.709
  0.709   0.711   0.712   0.713   0.715   0.716   0.717   0.718
  0.720   0.720   0.722   0.723   0.725   0.726   0.726   0.727
  0.730   0.730   0.732   0.733   0.734   0.736   0.737   0.738
  0.740   0.741   0.741   0.742   0.744   0.745   0.746   0.747
  0.749   0.749   0.751   0.752   0.754   0.756   0.758   0.758
  0.760   0.761   0.764   0.765   0.766   0.767   0.767   0.768
  0.770   0.772   0.774   0.774   0.775   0.776   0.777   0.779
  0.779   0.781   0.783   0.785   0.786   0.787   0.788   0.789
  0.790   0.792   0.793   0.795   0.796   0.798   0.798   0.798
  0.800   0.801   0.801   0.803   0.804   0.806   0.806   0.807
  0.808   0.808   0.809   0.810   0.811   0.812   0.814   0.814
  0.815   0.816   0.817   0.818   0.819   0.819   0.821   0.821
  0.824   0.824   0.824   0.825   0.825   0.826   0.827   0.828
  0.828   0.831   0.832   0.833   0.834   0.835   0.837   0.837
  0.839   0.841   0.842   0.845   0.845   0.849   0.850   0.852
  0.854   0.859   0.860   0.862   0.863   0.867   0.871   0.872
  0.874   0.875   0.877   0.886   0.888   0.889   0.891   0.896
  0.899   0.901   0.902   0.905   0.906   0.910   0.911   0.914
  0.916   0.919   0.923   0.923   0.924   0.926   0.928   0.930
  0.931   0.933   0.934   0.935   0.936   0.938   0.941   0.942
  0.944   0.945   0.948   0.951   0.953   0.954   0.956   0.959
  0.962   0.963   0.965   0.967   0.968   0.972   0.976   0.979
  0.982   0.983   0.985   0.987   0.988   0.991   0.995   0.999
  1.001   1.003   1.005   1.005   1.009   1.011   1.012   1.013
  1.014   1.015   1.017   1.018   1.020   1.021   1.024   1.024
  1.028   1.028   1.031   1.032   1.034   1.034   1.036   1.038
  1.039   1.042   1.042   1.043   1.044   1.045   1.046   1.048
  1.050   1.051   1.053   1.055   1.056   1.057   1.060   1.061
  1.065   1.065   1.067   1.070   1.072   1.073   1.075   1.075
  1.077   1.078   1.081   1.083   1.084   1.085   1.086   1.088
  1.088   1.089   1.091   1.093   1.095   1.097   1.098   1.100
  1.103   1.104   1.106   1.108   1.111   1.112   1.114   1.116
  1.119   1.119   1.121   1.123   1.125   1.126   1.129   1.130
  1.131   1.133   1.136   1.141   1.141   1.145   1.147   1.150
  1.152   1.153   1.154   1.155   1.160   1.162   1.163   1.166
  1.167   1.167   1.169   1.170   1.173   1.173   1.175   1.177
  1.177   1.178   1.180   1.181   1.183   1.185   1.188   1.188
  1.191   1.193   1.196   1.198   1.200   1.200   1.202   1.204
  1.206   1.208   1.209   1.214   1.215   1.217   1.219   1.224
  1.225   1.227   1.231   1.234   1.237   1.240   1.240   1.247
  1.247   1.249   1.253   1.256   1.259   1.260   1.262   1.264
  1.268   1.270   1.271   1.273   1.274   1.275   1.277   1.278
  1.279   1.282   1.284   1.285   1.287   1.287   1.289   1.292
  1.294   1.297   1.298   1.300   1.304   1.306   1.307   1.310
  1.314   1.318   1.321   1.322   1.324   1.328   1.331   1.333
  1.336   1.337   1.337   1.339   1.340   1.342   1.343   1.350
  1.353   1.354   1.355   1.359   1.363   1.366   1.367   1.368
  1.371   1.377   1.379   1.380   1.383   1.384   1.387   1.389
  1.392   1.393   1.395   1.398   1.400   1.403   1.406   1.406
  1.408   1.409   1.414   1.416   1.419   1.425   1.428   1.429
  1.433   1.436   1.441   1.442   1.444   1.445   1.448   1.452
  1.453   1.454   1.456   1.458   1.460   1.462   1.465   1.467
  1.468   1.470   1.471   1.472   1.475   1.475   1.478   1.480
  1.480   1.484   1.487   1.488   1.489   1.494   1.495   1.498
  1.500   1.503   1.507   1.510   1.511   1.513   1.516   1.519
  1.522   1.522   1.523   1.529   1.533   1.537   1.541   1.541
  1.545   1.547   1.548   1.548   1.552   1.555   1.558   1.560
  1.561   1.565   1.566   1.568   1.568   1.571   1.572   1.575
  1.579   1.583   1.583   1.586   1.589   1.590   1.591   1.594
  1.595   1.598   1.599   1.603   1.608   1.616   1.621   1.624
  1.627   1.630   1.632   1.633   1.635   1.638   1.645   1.646
  1.649   1.650   1.654   1.657   1.666   1.668   1.673   1.674
  1.676   1.682   1.684   1.692   1.693   1.694   1.697   1.702
  1.703   1.704   1.707   1.708   1.710   1.714   1.715   1.720
  1.721   1.724   1.724   1.728   1.730   1.734   1.735   1.735
  1.736   1.739   1.740   1.743   1.744   1.747   1.748   1.750
  1.751   1.752   1.753   1.755   1.757   1.759   1.759   1.760
  1.763   1.764   1.765   1.768   1.768   1.769   1.771   1.772
  1.774   1.775   1.777   1.777   1.778   1.778   1.778   1.781
  1.783   1.784   1.786   1.787   1.787   1.789   1.790   1.792
  1.793   1.793   1.794   1.796   1.797   1.799   1.799   1.800
  1.804   1.804   1.806   1.806   1.808   1.808   1.809   1.810
  1.811   1.815   1.816   1.818   1.819   1.821   1.824   1.828
  1.831   1.834   1.835   1.838   1.840   1.842   1.845   1.846
  1.848   1.852   1.853   1.856   1.857   1.858   1.860   1.862
  1.864   1.865   1.867   1.868   1.870   1.872   1.873   1.874
  1.875   1.877   1.879   1.882   1.883   1.883   1.885   1.890
  1.891   1.894   1.895   1.898   1.898   1.901   1.903   1.906
  1.912   1.913   1.916   1.919   1.920   1.921   1.924   1.926
  1.927   1.928   1.930   1.931   1.931   1.932   1.935   1.938
  1.939   1.942   1.946   1.947   1.949   1.950   1.952   1.954
  1.956   1.957   1.959   1.962   1.964   1.966   1.967   1.971
  1.971   1.974   1.975   1.977   1.980   1.981   1.984   1.987
  1.989   1.990   1.991   1.993   1.996   1.997   1.998   2.000
  2.001   2.002   2.004   2.005   2.006   2.007   2.008   2.009
  2.010   2.012   2.012   2.015   2.016   2.017   2.017   2.018
  2.020   2.021   2.023   2.024   2.026   2.027   2.028   2.028
  2.030   2.032   2.033   2.035   2.035   2.037   2.037   2.039
  2.040   2.041   2.042   2.043   2.046   2.046   2.047   2.048
  2.051   2.052   2.054   2.055   2.056   2.057   2.058   2.062
  2.062   2.063   2.065   2.066   2.068   2.069   2.070   2.071
  2.072   2.073   2.074   2.075   2.078   2.079   2.081   2.082
  2.085   2.085   2.086   2.088   2.089   2.091   2.093   2.093
  2.095   2.096   2.098   2.098   2.101   2.103   2.104   2.106
  2.108   2.110   2.113   2.114   2.116   2.119   2.121   2.126
  2.128   2.131   2.133   2.135   2.141   2.143   2.147   2.150
  2.152   2.154   2.158   2.161   2.164   2.166   2.173   2.176
  2.185   2.187   2.189   2.193   2.193   2.200   2.203   2.205
  2.208   2.214   2.217   2.219   2.220   2.221   2.225   2.226
  2.230   2.235   2.237   2.239   2.245   2.245   2.249   2.249
  2.253   2.254   2.258   2.258   2.262   2.263   2.264   2.265
  2.269   2.273   2.274   2.276   2.279   2.281   2.282   2.283
  2.286   2.290   2.291   2.292   2.295   2.298   2.301   2.301
  2.302   2.303   2.305   2.307   2.309   2.311   2.314   2.316
  2.318   2.324   2.326   2.328   2.330   2.334   2.336   2.339
  2.340   2.344   2.348   2.350   2.351   2.353   2.353   2.354
  2.356   2.362   2.366   2.367   2.368   2.370   2.371   2.372
  2.375   2.376   2.379   2.380   2.382   2.383   2.385   2.388
  2.388   2.389   2.391   2.392   2.394   2.395   2.397   2.399
  2.400   2.403   2.404   2.406   2.408   2.410   2.411   2.412
  2.414   2.414   2.417   2.418   2.419   2.420   2.423   2.427
  2.430   2.431   2.432   2.434   2.440   2.441   2.445   2.447
  2.449   2.450   2.454   2.458   2.460   2.462   2.465   2.466
  2.467   2.468   2.469   2.471   2.473   2.475   2.478   2.479
  2.482   2.485   2.486   2.488   2.489   2.490   2.492   2.494
  2.498   2.499   2.500   2.504   2.505   2.506   2.508   2.509
  2.511   2.514   2.515   2.516   2.520   2.523   2.526   2.527
  2.528   2.529   2.533   2.534   2.536   2.538   2.542   2.545
  2.547   2.551   2.552   2.556   2.558   2.559   2.566   2.568
  2.573   2.573   2.578   2.580   2.582   2.585   2.586   2.589
  2.592   2.595   2.597   2.598   2.601   2.602   2.604   2.607
  2.609   2.611   2.615   2.615   2.618   2.618   2.620   2.621
  2.625   2.626   2.627   2.630   2.631   2.633   2.634   2.636
  2.639   2.641   2.643   2.644   2.645   2.648   2.649   2.651
  2.653   2.655   2.657   2.659   2.660   2.661   2.662   2.665
  2.666   2.667   2.670   2.670   2.672   2.674   2.677   2.678
  2.679   2.682   2.683   2.686   2.686   2.688   2.688   2.691
  2.693   2.694   2.697   2.698   2.699   2.703   2.709   2.710
  2.713   2.716   2.717   2.719   2.721   2.723   2.724   2.726
  2.729   2.734   2.737   2.739   2.740   2.742   2.743   2.747
  2.751   2.753   2.755   2.756   2.757   2.761   2.762   2.765
  2.767   2.768   2.773   2.775   2.775   2.778   2.780   2.783
  2.784   2.787   2.790   2.790   2.792   2.795   2.796   2.798
  2.804   2.804   2.809   2.813   2.816   2.819   2.822   2.824
  2.825   2.826   2.830   2.832   2.837   2.842   2.843   2.844
  2.850   2.853   2.853   2.856   2.858   2.861   2.864   2.866
  2.867   2.869   2.870   2.872   2.873   2.878   2.878   2.883
  2.884   2.886   2.887   2.891   2.891   2.893   2.895   2.896
  2.898   2.899   2.901   2.903   2.904   2.906   2.908   2.910
  2.912   2.914   2.916   2.917   2.919   2.920   2.920   2.921
  2.925   2.926   2.928   2.930   2.932   2.934   2.935   2.939
  2.940   2.942   2.946   2.946   2.948   2.951   2.954   2.959
  2.961   2.963   2.965   2.968   2.971   2.976   2.979   2.982
  2.984   2.990   2.992   2.995   2.996   3.000   3.002   3.007
  3.009   3.012   3.014   3.016   3.017   3.019   3.026   3.030
  3.032   3.036   3.039   3.040   3.043   3.048   3.051   3.053
  3.054   3.057   3.057   3.061   3.062   3.064   3.066   3.067
  3.072   3.076   3.078   3.088   3.090   3.095   3.101   3.111
  3.124   3.133   3.137   3.139   3.141   3.144   3.145   3.156
  3.166   3.168   3.170   3.176   3.178   3.181   3.186   3.189
  3.195   3.205   3.209   3.212   3.227   3.230   3.243   3.244
  3.257   3.260   3.270   3.274   3.279   3.285   3.292   3.297
  3.299   3.303   3.312   3.315   3.321   3.322   3.325   3.327
  3.334   3.339   3.345   3.351   3.357   3.370   3.386   3.389
  3.394   3.400   3.417   3.420   3.433   3.437   3.440   3.450
  3.453   3.458   3.461   3.470   3.476   3.490   3.500   3.504
  3.504   3.518   3.521   3.529   3.531   3.532   3.551   3.556
  3.557   3.566   3.569   3.575   3.584   3.597   3.607   3.614
  3.616   3.629   3.697   3.705   3.833   3.873   4.019   4.048
  4.079   4.087   4.090   4.091   4.091   4.099   4.100   4.104
  4.107   4.109   4.113   4.116   4.118   4.119   4.122   4.128
  4.129   4.134   4.139   4.143   4.144   4.145   4.150   4.156
  4.159   4.164   4.167   4.171   4.176   4.177   4.183   4.189
  4.191   4.194   4.199   4.202   4.221   4.225   4.234   4.240
  4.246   4.248   4.250   4.254   4.258   4.259   4.262   4.269
  4.270   4.275   4.281   4.287   4.289   4.296   4.302   4.306
  4.313   4.321   4.324   4.327   4.379   4.391   4.393   4.399
  4.401   4.404   4.407   4.411   4.413   4.415   4.416   4.420
  4.425   4.429   4.431   4.436   4.440   4.445   4.455   4.483
  4.485   4.502   4.514   4.528   4.536   4.543   4.548   4.559
  4.568   4.572   4.618   4.625   4.629   4.637   4.640   4.647
  4.650   4.678   4.681   4.695   4.696   4.698   4.702   4.706
  4.707   4.709   4.710   4.718   4.753   4.762   4.802   4.818
  4.833   4.855   4.858   4.874   4.883   4.885   4.886   4.894
  4.911   4.917   4.954   4.959   4.968   4.970   4.979   4.987
  4.998   5.005   5.011   5.017   5.165   5.168   5.172   5.197
  5.213   5.215   5.226   5.230   5.304   5.321   5.345   5.363
  5.374   5.385
 --------------------------------------------------------------
 
          Ground-State Mulliken Net Atomic Charges

     Atom                 Charge (a.u.)
  ----------------------------------------
      1 O                    -0.479031
      2 C                    -0.083307
      3 H                     0.125002
      4 H                     0.137940
      5 H                     0.127968
      6 O                    -0.459999
      7 C                     0.602862
      8 C                    -0.249158
      9 H                     0.133377
     10 H                     0.113937
     11 C                    -0.196078
     12 H                     0.120198
     13 H                     0.105428
     14 C                    -0.188422
     15 H                     0.104384
     16 H                     0.143634
     17 C                     0.012505
     18 C                     0.082539
     19 C                    -0.105376
     20 H                     0.095311
     21 C                    -0.096500
     22 H                     0.088166
     23 C                    -0.075737
     24 H                     0.090375
     25 C                    -0.088286
     26 H                     0.095913
     27 C                    -0.100629
     28 H                     0.099805
     29 C                    -0.003766
     30 C                    -0.009730
     31 C                     0.001596
     32 C                    -0.018211
     33 C                     0.003751
     34 C                     0.006579
     35 C                    -0.005104
     36 C                    -0.000898
     37 C                    -0.017457
     38 C                     0.006043
     39 C                    -0.073806
     40 C                     0.013587
     41 C                    -0.017078
     42 C                     0.014700
     43 C                    -0.009311
     44 C                    -0.007319
     45 C                    -0.100756
     46 C                     0.015545
     47 C                    -0.034472
     48 C                    -0.002269
     49 C                     0.007432
     50 C                    -0.003474
     51 C                     0.013169
     52 C                    -0.001059
     53 C                     0.023726
     54 C                     0.007255
     55 C                     0.008763
     56 C                    -0.007524
     57 C                    -0.019695
     58 C                     0.021957
     59 C                    -0.017889
     60 C                     0.025542
     61 C                    -0.008873
     62 C                    -0.005619
     63 C                    -0.014217
     64 C                    -0.011623
     65 C                     0.007863
     66 C                    -0.000205
     67 C                     0.001649
     68 C                     0.025665
     69 C                    -0.014442
     70 C                     0.021341
     71 C                     0.000461
     72 C                     0.007088
     73 C                    -0.010200
     74 C                    -0.012810
     75 C                     0.017194
     76 C                    -0.010735
     77 C                     0.009655
     78 C                     0.005534
     79 C                     0.011772
     80 C                     0.026752
     81 C                     0.004065
     82 C                     0.001048
     83 C                     0.005828
     84 C                     0.020812
     85 C                    -0.014797
     86 C                    -0.001468
     87 C                     0.003458
     88 C                    -0.005240
     89 O                    -0.436809
     90 C                    -0.095284
     91 H                     0.121979
     92 H                     0.132571
     93 H                     0.122482
     94 O                    -0.486517
     95 C                     0.584092
     96 C                    -0.242658
     97 H                     0.124026
     98 H                     0.127672
     99 C                    -0.198331
    100 H                     0.128153
    101 H                     0.120030
    102 C                    -0.183663
    103 H                     0.110095
    104 H                     0.104278
    105 C                     0.011449
    106 C                     0.083610
    107 C                    -0.090770
    108 H                     0.091987
    109 C                    -0.105289
    110 H                     0.092781
    111 C                    -0.082629
    112 H                     0.096897
    113 C                    -0.095369
    114 H                     0.084281
    115 C                    -0.100388
    116 H                     0.093005
    117 C                    -0.029428
    118 C                     0.011024
    119 C                    -0.021977
    120 C                    -0.000994
    121 C                     0.014940
    122 C                    -0.011545
    123 C                    -0.003065
    124 C                     0.008263
    125 C                     0.038950
    126 C                    -0.001098
    127 C                    -0.050096
    128 C                    -0.005526
    129 C                    -0.018192
    130 C                     0.003675
    131 C                     0.011976
    132 C                    -0.004107
    133 C                    -0.092325
    134 C                     0.008601
    135 C                    -0.004077
    136 C                     0.037696
    137 C                     0.006493
    138 C                     0.003637
    139 C                    -0.024643
    140 C                     0.012329
    141 C                     0.011331
    142 C                     0.004201
    143 C                     0.006714
    144 C                    -0.010604
    145 C                    -0.017217
    146 C                    -0.015034
    147 C                     0.010515
    148 C                     0.006225
    149 C                     0.037419
    150 C                    -0.028429
    151 C                     0.018804
    152 C                     0.020954
    153 C                     0.001634
    154 C                     0.008130
    155 C                     0.006924
    156 C                    -0.017287
    157 C                    -0.000697
    158 C                     0.006719
    159 C                    -0.018583
    160 C                     0.029651
    161 C                    -0.022548
    162 C                     0.019503
    163 C                    -0.003616
    164 C                     0.012530
    165 C                    -0.001748
    166 C                    -0.024914
    167 C                     0.010354
    168 C                     0.049570
    169 C                    -0.010765
    170 C                    -0.029785
    171 C                    -0.010690
    172 C                     0.007257
    173 C                    -0.030608
    174 C                     0.001635
    175 C                    -0.039518
    176 C                    -0.026822
  ----------------------------------------
  Sum of atomic charges =     0.000000

 -----------------------------------------------------------------
                    Cartesian Multipole Moments
 -----------------------------------------------------------------
    Charge (ESU x 10^10)
                 0.0000
    Dipole Moment (Debye)
         X       3.0828      Y      -1.1279      Z      -0.3617
       Tot       3.3025
    Quadrupole Moments (Debye-Ang)
        XX    -804.5931     XY     -25.3645     YY    -752.8033
        XZ      -4.6111     YZ     -21.3846     ZZ    -816.9500
    Octopole Moments (Debye-Ang^2)
       XXX     253.1412    XXY     -70.1418    XYY     200.7302
       YYY    -251.7134    XXZ      25.8019    XYZ     -39.5462
       YYZ     124.8514    XZZ      30.7113    YZZ     -89.4957
       ZZZ     -15.9173
    Hexadecapole Moments (Debye-Ang^3)
      XXXX -121673.7047   XXXY   -1180.9859   XXYY  -28238.7221
      XYYY   -2121.7038   YYYY  -48907.2931   XXXZ     207.2147
      XXYZ      41.6645   XYYZ     336.3731   YYYZ    -894.8455
      XXZZ  -23857.4953   XYZZ    -611.0428   YYZZ  -12355.0383
      XZZZ     -85.4902   YZZZ    -315.1443   ZZZZ  -22104.1236
 -----------------------------------------------------------------
Archival summary:
1\1\mn251\SP\ProcedureUnspecified\6-31G**\428\afmv_a\SatOct1318:17:572018SatOct1318:17:572018\0\\#,ProcedureUnspecified,6-31G**,\\0,1\C\C,1,1.36087\C,2,1.36142,1,117.765\C,1,1.38759,2,104.891,3,138.575,0\C,2,1.3904,1,113.994,3,-143.968,0\C,5,1.38714,2,104.274,1,5.07175,0\C,4,1.40626,1,119.595,2,-140.96,0\C,7,1.38315,4,119.997,1,5.3119,0\C,8,1.41308,7,111.475,4,145.25,0\C,9,1.37686,8,118.052,7,-138.378,0\C,10,1.39342,9,121.163,8,-11.5775,0\C,11,1.36594,10,122.413,9,-0.931765,0\C,11,1.3925,10,108.36,9,147.264,0\C,13,1.39202,11,124.236,10,-148.071,0\C,10,1.39568,9,122.431,8,130.764,0\C,15,1.37162,10,119.503,9,-0.144428,0\C,16,1.35844,15,117.977,10,-144.589,0\C,17,1.36722,16,104.664,15,138.167,0\C,18,1.38355,17,123.134,16,-142.093,0\C,19,1.3859,18,120.496,17,140.315,0\C,20,1.3938,19,120.431,18,9.5851,0\C,21,1.34742,20,115.486,19,-139.808,0\C,21,1.38161,20,118.81,19,-6.42305,0\C,23,1.37746,21,122.217,20,4.24901,0\C,20,1.39785,19,107.847,18,-144.562,0\C,25,1.38247,20,116.761,19,146.56,0\C,26,1.3761,25,120.252,20,1.78577,0\C,26,1.38164,25,116.09,20,-135.539,0\C,15,1.40004,10,109.703,9,-149.424,0\C,29,1.38157,15,119.632,10,146.459,0\C,30,1.36232,29,117.066,15,-0.649481,0\C,30,1.39712,29,119.124,15,-137.184,0\C,31,1.39744,30,105.605,29,-143.196,0\C,33,1.36128,31,112.295,30,3.42131,0\C,28,1.40084,26,104.559,25,141.122,0\C,35,1.388,28,111.702,26,2.67366,0\C,22,1.40391,21,109.539,20,140.491,0\C,9,1.40776,8,105.548,7,-2.83566,0\C,38,1.39766,9,120.424,8,-136.686,0\C,23,1.40853,21,107.861,20,-137.579,0\C,32,1.41115,30,120.201,29,-0.0060309,0\C,41,1.38022,32,121.34,30,140.193,0\C,42,1.41008,41,107.271,32,-140.851,0\C,7,1.4177,4,120.735,1,141.134,0\C,43,1.41941,42,122.424,41,136.408,0\C,45,1.39054,43,121.378,42,2.40529,0\C,46,1.39605,45,106.776,43,-142.514,0\C,46,1.40123,45,119.508,43,-4.06896,0\C,48,1.41278,46,119.382,45,0.569063,0\C,49,1.41546,48,108.952,46,-144.044,0\C,50,1.39174,49,108.111,48,1.32482,0\C,51,1.35249,50,119.615,49,137.833,0\C,51,1.36713,50,107.282,49,-1.0303,0\C,52,1.40021,51,120.576,50,1.99794,0\C,3,1.41959,2,122.891,1,-0.0830358,0\C,55,1.36046,3,123.427,2,3.9958,0\C,1,1.42206,2,119.014,3,0.978019,0\C,57,1.38678,1,121.217,2,132.88,0\C,56,1.44714,55,122.06,3,-147.53,0\C,14,1.4699,13,118.842,11,0.517962,0\C,60,1.46794,14,127.02,13,-75.9778,0\C,61,1.49856,60,124.357,14,-138.61,0\C,62,1.43381,61,117.515,60,49.6469,0\H,63,1.08543,62,121.19,61,-4.73882,0\C,63,1.41248,62,117.02,61,164.603,0\H,65,1.08529,63,123.814,62,-178.625,0\C,65,1.42701,63,122.085,62,10.7027,0\H,67,1.0868,65,117.68,63,179.064,0\C,67,1.36287,65,120.681,63,-3.22378,0\H,69,1.08604,67,115.956,65,-176.339,0\C,69,1.42858,67,119.371,65,-6.03255,0\H,71,1.08684,69,127.918,67,177.922,0\C,61,1.50832,60,115.695,14,1.90625,0\H,73,1.0973,61,106.394,60,159.131,0\H,73,1.09757,61,115.605,60,45.8648,0\C,73,1.52689,61,114.83,60,-78.4338,0\H,76,1.09667,73,117.803,61,-44.136,0\H,76,1.09742,73,107.757,61,70.2908,0\C,76,1.55601,73,105.454,61,-164.584,0\H,79,1.09702,76,111.133,73,-49.6359,0\H,79,1.09735,76,105.286,73,-165.736,0\C,79,1.48785,76,113.197,73,71.5663,0\O,82,1.20793,79,120.866,76,-87.102,0\O,82,1.36794,79,116.775,76,88.1815,0\C,84,1.45355,82,124.369,79,-178.233,0\H,85,1.09701,84,114.766,82,41.6487,0\H,85,1.09708,84,110.712,82,-77.0462,0\H,85,1.09734,84,105.386,82,167.969,0\H,6,2.61541,5,136.777,2,-99.5298,0\C,89,1.08621,6,158.513,5,-81.0522,0\C,90,1.37892,89,118.756,6,103.551,0\C,91,1.38082,90,119.944,89,174.924,0\H,92,1.08583,91,120.841,90,-176.661,0\C,90,1.38771,89,118.324,6,-88.9821,0\H,94,1.08576,90,121.98,89,6.22122,0\C,92,1.39779,91,118.398,90,-2.86872,0\H,96,1.0868,92,114.926,91,174.722,0\C,94,1.40206,90,119.373,89,-179.97,0\H,98,1.08614,94,124.873,90,-159.187,0\C,91,1.56712,90,120.204,89,7.57568,0\C,100,1.51683,91,114.534,90,-98.5104,0\H,101,1.0969,100,103.75,91,-56.8315,0\H,101,1.0976,100,113.262,91,-165.418,0\C,100,1.52588,91,115.576,90,118.285,0\C,104,1.5064,100,127.455,91,-3.3345,0\C,105,1.3542,104,114.748,100,-75.5419,0\C,106,1.41107,105,127.226,104,-0.163773,0\C,107,1.37593,106,107.354,105,-152.192,0\C,108,1.41096,107,110.892,106,-3.49146,0\C,109,1.38917,108,105.042,107,1.98678,0\C,109,1.39443,108,117.773,107,142.12,0\C,110,1.41091,109,120.01,108,142.874,0\C,108,1.41254,107,119.478,106,142.869,0\C,113,1.38887,108,117.113,107,-2.17423,0\C,114,1.36791,113,120.879,108,5.36049,0\C,115,1.36042,114,119.499,113,-138.56,0\C,115,1.37126,114,125.871,113,-1.50561,0\C,114,1.41674,113,108.846,108,-141.827,0\C,118,1.37418,114,107.228,113,0.693864,0\C,119,1.3986,118,119.842,114,141.3,0\C,118,1.42487,114,122.176,113,145.995,0\C,121,1.36664,118,121.274,114,-133.555,0\C,122,1.38278,121,111.491,118,137.83,0\C,123,1.39928,122,118.895,121,-142.594,0\C,124,1.37944,123,122.69,122,-2.53893,0\C,125,1.40103,124,107.48,123,142.478,0\C,126,1.37595,125,109.716,124,2.13859,0\C,126,1.37722,125,119.743,124,-144.252,0\C,127,1.39103,126,121.125,125,-146.584,0\C,129,1.39297,127,115.787,126,5.70895,0\C,130,1.37839,129,124.886,127,-4.37711,0\C,131,1.36705,130,122.356,129,145.191,0\C,132,1.39652,131,117.355,130,-8.53326,0\C,133,1.33706,132,122.47,131,-133.227,0\C,133,1.38274,132,120.65,131,6.35156,0\C,135,1.36393,133,122.776,132,-0.932252,0\C,136,1.37949,135,122.199,133,-143.225,0\C,137,1.38546,136,108.242,135,141.028,0\C,138,1.3794,137,120.303,136,-136.321,0\C,139,1.40029,138,122.26,137,136.346,0\C,140,1.38752,139,110.179,138,-145.684,0\C,140,1.39699,139,118.574,138,-2.34975,0\C,141,1.40125,140,107.919,139,5.05359,0\C,143,1.39689,141,107.294,140,-5.74952,0\C,132,1.40488,131,104.634,130,-142.594,0\C,145,1.38769,132,119.146,131,140.961,0\C,146,1.38034,145,120.021,132,-141.872,0\C,134,1.40846,133,120.209,132,-0.461016,0\C,121,1.41089,118,114.032,114,-2.93543,0\C,135,1.41301,133,111.133,132,-154.641,0\C,125,1.41579,124,119.914,123,-0.462592,0\C,151,1.39766,125,118.491,124,138.571,0\C,152,1.3723,151,121.424,125,-1.15734,0\C,151,1.40894,125,117.969,124,3.42298,0\C,147,1.41636,146,108.326,145,146.564,0\C,155,1.39404,147,115.979,146,-140.094,0\C,141,1.41967,140,119.686,139,142.51,0\C,144,1.42049,143,121.202,141,149.866,0\C,143,1.42313,141,124.809,140,149.058,0\C,150,1.42644,135,119.423,133,143.543,0\C,160,1.4074,150,117.687,135,5.82666,0\C,120,1.43,119,123.917,118,-140.866,0\C,159,1.46543,143,120.997,141,-150.572,0\C,101,1.58773,100,110.752,91,66.5829,0\H,164,1.09641,101,112.572,100,-43.0546,0\H,164,1.09775,101,107.703,100,77.2425,0\C,164,1.56672,101,113.063,100,-161.177,0\H,167,1.09693,164,112.186,101,-74.5761,0\H,167,1.09736,164,114.267,101,51.3136,0\C,167,1.54107,164,112.778,101,171.171,0\O,170,1.23436,167,123.144,164,112.445,0\O,170,1.34345,167,108.143,164,-76.774,0\C,172,1.42804,170,118.765,167,-172.492,0\H,173,1.09666,172,106.922,170,-161.844,0\H,173,1.09686,172,111.656,170,75.4962,0\H,173,1.09711,172,116.875,170,-43.759,0\\\@

 Total job time:  885.24s(wall), 8487.26s(cpu) 
 Sat Oct 13 18:17:57 2018

        *************************************************************
        *                                                           *
        *  Thank you very much for using Q-Chem.  Have a nice day.  *
        *                                                           *
        *************************************************************


