
Running Job 1 of 1 ./10/17.qcin
qchem ./10/17.qcin_41182.0 /tmpu/cab_g/afmv_a/scratch_qchem/qchem41182/ 1
/tmpu/appuserlic/qchem4.4/serial-multicore/exe/qcprog.exe_s ./10/17.qcin_41182.0 /tmpu/cab_g/afmv_a/scratch_qchem/qchem41182/
Check license passed

                  Welcome to Q-Chem
     A Quantum Leap Into The Future Of Chemistry


 Q-Chem 4.4, Q-Chem, Inc., Pleasanton, CA (2016)

 Y. Shao,  Z. Gan,  E. Epifanovsky,  A. T. B. Gilbert,  M. Wormit,  
 J. Kussmann,  A. W. Lange,  A. Behn,  J. Deng,  X. Feng,  D. Ghosh,  
 M. Goldey,  P. R. Horn,  L. D. Jacobson,  I. Kaliman,  F. Rob,  
 R. Z. Khaliullin,  T. Kus,  A. Landau,  J. Liu,  E. I. Proynov,  Y. M. Rhee,  
 R. M. Richard,  M. A. Rohrdanz,  R. P. Steele,  E. J. Sundstrom,  
 H. L. Woodcock III,  P. M. Zimmerman,  D. Zuev,  B. Albrecht,  E. Alguire,  
 B. Austin,  S. A. Baeppler,  G. J. O. Beran,  Y. A. Bernard,  E. Berquist,  
 K. Brandhorst,  K. B. Bravaya,  S. T. Brown,  D. Casanova,  C.-M. Chang,  
 Y. Chen,  S. H. Chien,  K. D. Closser,  M. P. Coons,  D. L. Crittenden,  
 S. Dasgupta,  M. Diedenhofen,  R. A. DiStasio Jr.,  H. Do,  A. D. Dutoi,  
 R. G. Edgar,  P.-T. Fang,  S. Fatehi,  Q. Feng,  L. Fusti-Molnar,  
 A. Ghysels,  A. Golubeva-Zadorozhnaya,  J. Gomes,  A. Gunina,  
 M. W. D. Hanson-Heine,  P. H. P. Harbach,  A. W. Hauser,  J. E. Herr,  
 E. G. Hohenstein,  Z. C. Holden,  K. Hui,  T.-C. Jagau,  H. Ji,  B. Kaduk,  
 K. Khistyaev,  Jaehoon Kim,  Jihan Kim,  R. A. King,  P. Klunzinger,  
 K. Koh,  D. Kosenkov,  T. Kowalczyk,  C. M. Krauter,  A. Kunitsa,  
 K. U. Lao,  A. Laurent,  K. V. Lawler,  J. Lee,  D. Lefrancois,  S. Lehtola,  
 S. V. Levchenko,  C. Y. Lin,  Y.-S. Lin,  F. Liu,  E. Livshits,  
 R. C. Lochan,  A. Luenser,  P. Manohar,  S. F. Manzer,  S.-P. Mao,  Y. Mao,  
 N. Mardirossian,  A. V. Marenich,  L. A. Martinez-Martinez,  S. A. Maurer,  
 N. J. Mayhall,  J.-M. Mewes,  A. F. Morrison,  K. Nanda,  T. S. Nguyen-Beck,  
 C. M. Oana,  R. Olivares-Amaya,  D. P. O'Neill,  J. A. Parkhill,  
 T. M. Perrine,  R. Peverati,  P. A. Pieniazek,  F. Plasser,  A. Prociuk,  
 D. R. Rehn,  E. Rosta,  N. J. Russ,  N. Sergueev,  S. M. Sharada,  
 S. Sharma,  D. W. Small,  A. Sodt,  T. Stauch,  T. Stein,  D. Stuck,  
 Y.-C. Su,  A. J. W. Thom,  T. Tsuchimochi,  L. Vogt,  O. Vydrov,  T. Wang,  
 M. A. Watson,  J. Wenzel,  A. White,  C. F. Williams,  V. Vanovschi,  
 K. Yao,  S. Yeganeh,  S. R. Yost,  Z.-Q. You,  I. Y. Zhang,  X. Zhang,  
 Y. Zhao,  B. R. Brooks,  G. K. L. Chan,  D. M. Chipman,  C. J. Cramer,  
 W. A. Goddard III,  M. S. Gordon,  W. J. Hehre,  A. Klamt,  
 H. F. Schaefer III,  M. W. Schmidt,  C. D. Sherrill,  D. G. Truhlar,  
 A. Warshel,  X. Xu,  A. Aspuru-Guzik,  R. Baer,  A. T. Bell,  N. A. Besley,  
 J.-D. Chai,  A. Dreuw,  B. D. Dunietz,  T. R. Furlani,  S. R. Gwaltney,  
 C.-P. Hsu,  Y. Jung,  J. Kong,  D. S. Lambrecht,  W. Liang,  C. Ochsenfeld,  
 V. A. Rassolov,  L. V. Slipchenko,  J. E. Subotnik,  T. Van Voorhis,  
 J. M. Herbert,  A. I. Krylov,  P. M. W. Gill,  M. Head-Gordon

 Contributors to earlier versions of Q-Chem not listed above: 
 R. D. Adamson,  J. Baker,  E. F. C. Byrd,  A. K. Chakraborty,  C.-L. Cheng,  
 H. Dachsel,  R. J. Doerksen,  G. Hawkins,  A. Heyden,  S. Hirata,  
 G. Kedziora,  F. J. Keil,  C. Kelley,  P. P. Korambath,  W. Kurlancheek,  
 A. M. Lee,  M. S. Lee,  D. Liotard,  I. Lotan,  P. E. Maslen,  N. Nair,  
 D. Neuhauser,  R. Olson,  B. Peters,  J. Ritchie,  N. E. Schultz,  
 N. Shenvi,  A. C. Simmonett,  K. S. Thanthiriwatte,  Q. Wu,  W. Zhang

 Please cite Q-Chem as follows:
 Y. Shao et al., Mol. Phys. 113, 184-215 (2015)
 DOI: 10.1080/00268976.2014.952696

 Q-Chem 4.4.2 for Intel X86 Linux

 Parts of Q-Chem use Armadillo 5.200.1 (Boston Tea Smuggler).
 http://arma.sourceforge.net/

 Q-Chem begins on Sat Oct 13 19:44:37 2018  

Host: 
0

     Scratch files written to /tmpu/cab_g/afmv_a/scratch_qchem/qchem41182//
 Dec716 11556_ 22328  22283 4050   
Processing $rem in /tmpu/appuserlic/qchem4.4/serial-multicore/config/preferences.
 MEM_TOTAL  2000 
FILE_GEOM_ORG=        593

Checking the input file for inconsistencies... 	...done.

--------------------------------------------------------------
User input:
--------------------------------------------------------------
$comment
SP
$end

$rem
MEM_STATIC 5000
MEM_TOTAL 20000
JOBTYPE SP
EXCHANGE B3LYP
BASIS 6-31g(d,p)
$end

$molecule
0 1
O          16.276000     -9.285000     -7.345000
C          17.154000     -9.497000     -6.233000
H          17.627000     -8.599000     -5.817000
H          17.950000    -10.165000     -6.584000
H          16.625000    -10.005000     -5.418000
O          17.904000     -8.666000     -8.846000
C          16.730000     -8.884000     -8.597000
C          15.664000     -8.706000     -9.637000
H          14.910000     -7.994000     -9.281000
H          15.172000     -9.683000     -9.553000
C          16.185000     -8.336000    -11.029000
H          16.724000     -7.380000    -11.036000
H          16.938000     -9.024000    -11.433000
C          15.117000     -8.274000    -12.148000
H          15.623000     -8.282000    -13.121000
H          14.546000     -9.211000    -12.132000
C          14.127000     -7.167000    -12.053000
C          14.824000     -5.785000    -12.177000
C          15.232000     -5.274000    -13.474000
H          14.994000     -5.818000    -14.383000
C          15.863000     -4.054000    -13.549000
H          15.979000     -3.585000    -14.522000
C          16.340000     -3.409000    -12.433000
H          16.761000     -2.422000    -12.604000
C          16.086000     -3.874000    -11.162000
H          16.524000     -3.455000    -10.261000
C          15.283000     -5.063000    -11.015000
H          15.112000     -5.498000    -10.035000
C           9.469000     -5.269000     -9.715000
C           9.292000     -4.462000    -11.943000
C           5.846000     -7.100000    -13.260000
C          10.176000    -10.273000     -9.756000
C           7.978000     -9.371000    -14.918000
C          10.051000     -4.787000    -10.866000
C           8.801000    -11.244000    -11.953000
C           6.329000     -5.921000    -11.220000
C          11.200000     -6.776000    -14.529000
C          10.919000    -10.573000    -10.956000
C          12.790000     -7.294000    -12.766000
C          11.355000     -8.159000    -14.633000
C          10.870000    -10.508000    -13.213000
C           8.002000    -10.895000    -13.069000
C          11.236000     -5.271000    -12.708000
C           6.186000     -9.329000    -13.278000
C          12.774000     -7.341000    -11.297000
C          12.225000     -8.588000    -10.679000
C           6.815000     -8.818000    -14.413000
C           6.937000     -8.768000     -9.348000
C           5.681000     -8.266000    -11.172000
C           6.037000     -7.107000    -10.511000
C           7.303000     -5.040000    -10.767000
C          11.447000     -8.218000     -9.530000
C          11.887000     -6.298000    -13.440000
C           7.873000     -4.530000    -11.988000
C          10.213000    -11.105000    -12.051000
C           9.995000     -4.753000    -13.113000
C          10.290000     -9.029000    -15.094000
C           9.232000     -8.527000     -8.595000
C           6.168000     -5.865000    -12.606000
C          12.197000     -8.505000    -13.546000
C           7.822000     -6.581000     -8.991000
C          10.027000    -10.126000    -14.290000
C           9.939000     -6.223000    -14.977000
C           6.833000    -10.424000    -11.161000
C           8.073000    -10.943000    -10.792000
C           8.873000     -7.077000    -15.379000
C          10.415000     -9.098000     -9.093000
C          11.874000     -9.696000    -11.461000
C           8.204000     -9.317000     -8.993000
C          12.030000     -6.271000    -10.546000
C           7.985000     -5.430000    -14.239000
C          11.900000     -9.671000    -12.833000
C           9.012000     -8.493000    -15.410000
C           9.059000     -7.142000     -8.520000
C           6.637000     -7.434000    -14.411000
C           8.091000     -5.443000     -9.730000
C           5.652000     -8.275000    -12.550000
C           9.365000     -5.194000    -14.297000
C           7.649000     -6.604000    -14.899000
C          11.316000     -5.268000    -11.285000
C          11.314000     -6.809000     -9.481000
C           6.328000     -9.347000    -10.473000
C           7.233000     -5.090000    -13.060000
C           8.603000    -10.342000    -14.224000
C           8.758000    -10.368000     -9.740000
C           6.802000    -10.387000    -12.606000
C          10.063000     -6.307000     -9.029000
C           6.746000     -7.390000     -9.344000
O           1.724000     -0.463000      0.469000
C           0.959000      0.783000      0.520000
H           1.182000      1.187000     -0.475000
H           1.348000      1.401000      1.338000
H          -0.096000      0.566000      0.727000
O           0.001000     -1.834000     -0.294000
C           1.106000     -1.673000      0.201000
C           2.100000     -2.773000      0.625000
H           1.671000     -3.748000      0.363000
H           2.072000     -2.782000      1.722000
C           3.576000     -2.562000      0.142000
H           3.992000     -1.576000      0.382000
H           4.148000     -3.306000      0.710000
C           3.744000     -2.891000     -1.386000
H           3.437000     -3.927000     -1.577000
H           3.106000     -2.331000     -2.081000
C           5.144000     -2.659000     -1.906000
C           5.441000     -1.240000     -2.253000
C           5.819000     -0.280000     -1.304000
H           5.795000     -0.503000     -0.241000
C           6.098000      1.024000     -1.651000
H           6.428000      1.722000     -0.887000
C           6.112000      1.440000     -2.961000
H           6.485000      2.424000     -3.231000
C           5.656000      0.530000     -3.946000
H           5.567000      0.919000     -4.956000
C           5.300000     -0.801000     -3.575000
H           4.803000     -1.413000     -4.322000
C           9.462000     -4.246000     -4.895000
C          10.518000     -3.631000     -2.798000
C          11.518000     -7.773000     -1.331000
C           5.879000     -7.538000     -4.032000
C           8.754000     -7.964000      0.845000
C           9.564000     -3.413000     -3.779000
C           6.468000     -9.164000     -1.777000
C          11.721000     -6.768000     -3.548000
C           7.919000     -4.087000      0.197000
C           5.189000     -7.297000     -2.850000
C           6.185000     -3.572000     -1.366000
C           6.869000     -5.059000      0.348000
C           5.637000     -7.220000     -0.696000
C           7.444000     -9.330000     -0.770000
C           8.605000     -2.948000     -1.763000
C           9.897000     -9.281000     -0.913000
C           5.891000     -3.660000     -2.802000
C           5.349000     -4.905000     -3.384000
C           9.928000     -8.370000      0.173000
C           9.091000     -8.614000     -4.841000
C          10.643000     -8.948000     -3.187000
C          11.083000     -7.901000     -4.063000
C          11.383000     -5.502000     -4.028000
C           6.052000     -5.254000     -4.498000
C           7.563000     -3.227000     -0.836000
C          11.467000     -4.641000     -2.930000
C           5.521000     -8.102000     -1.773000
C           9.899000     -3.344000     -1.606000
C           7.230000     -6.291000      0.850000
C           7.423000     -7.025000     -5.607000
C          11.944000     -6.692000     -2.128000
C           5.829000     -4.801000     -0.571000
C           9.752000     -6.411000     -5.518000
C           6.525000     -7.429000      0.411000
C           9.237000     -4.416000      0.358000
C           8.396000     -9.789000     -2.768000
C           7.089000     -9.392000     -3.011000
C           9.549000     -5.663000      0.877000
C           6.323000     -6.553000     -4.901000
C           5.019000     -5.984000     -2.510000
C           7.737000     -8.303000     -5.111000
C           7.092000     -3.443000     -3.676000
C          11.211000     -5.050000     -0.526000
C           5.269000     -5.963000     -1.146000
C           8.526000     -6.618000      1.162000
C           8.442000     -6.053000     -5.823000
C          10.939000     -7.475000     -0.027000
C          10.379000     -5.308000     -4.946000
C          10.904000     -8.878000     -1.855000
C          10.278000     -4.005000     -0.459000
C          10.798000     -6.080000      0.355000
C           8.353000     -3.072000     -3.144000
C           7.085000     -4.312000     -4.742000
C           9.403000     -9.344000     -3.678000
C          11.798000     -5.347000     -1.764000
C           7.499000     -8.437000      0.319000
C           6.771000     -8.619000     -4.133000
C           8.641000     -9.747000     -1.383000
C           8.259000     -4.722000     -5.411000
C          10.090000     -7.724000     -5.048000
$end

--------------------------------------------------------------
 ----------------------------------------------------------------
             Standard Nuclear Orientation (Angstroms)
    I     Atom           X                Y                Z
 ----------------------------------------------------------------
    1      O       3.9909082894    -6.7471841562    -0.0334337176
    2      C       3.4013064171    -8.0522411236    -0.0730309909
    3      H       2.9643058750    -8.4101459043     0.8672475285
    4      H       4.1984766312    -8.7486277955    -0.3604440263
    5      H       2.6222789778    -8.0979874368    -0.8431955991
    6      O       5.7615146983    -7.3040409032     1.3235517312
    7      C       5.1569004837    -6.4688624791     0.6718465437
    8      C       5.6210732297    -5.0442545206     0.6034665286
    9      H       4.8232094545    -4.3745883009     0.9457479193
   10      H       5.6314701954    -4.9151775555    -0.4859737130
   11      C       6.9446558381    -4.7683897191     1.3232114071
   12      H       6.8899526906    -4.9776820227     2.3991808757
   13      H       7.7778459246    -5.4094097714     1.0094335044
   14      C       7.5099956253    -3.3367275226     1.1577929075
   15      H       8.5629760159    -3.3344066383     1.4644782684
   16      H       7.5393425507    -3.0991850042     0.0868221749
   17      C       6.7433436364    -2.2454823060     1.8180978409
   18      C       6.7336060780    -2.4266370600     3.3602382804
   19      C       7.8913365031    -2.0602058474     4.1572216110
   20      H       8.7543708238    -1.5898333405     3.6959381125
   21      C       7.8582772589    -2.2490278275     5.5193667378
   22      H       8.6309209821    -1.7893881209     6.1292019754
   23      C       6.8751636195    -2.9904432978     6.1299407894
   24      H       6.9118483191    -3.0171542712     7.2155704485
   25      C       5.7860324084    -3.4649005261     5.4336179165
   26      H       5.0406215218    -4.1351293876     5.8511845381
   27      C       5.6816907054    -3.1533201969     4.0292783894
   28      H       4.8725679192    -3.5602524855     3.4304525137
   29      C       2.3859563022     1.1796410874     1.6005723034
   30      C       4.0613608118     2.5411828157     2.5934397926
   31      C       4.6488037687     5.3932840198    -0.8834666620
   32      C       4.0792337730    -0.7062745669    -2.7718045733
   33      C       7.5513127623     3.7253173918    -1.9993330832
   34      C       3.4888743263     1.3242207062     2.4120632558
   35      C       5.7663263472     1.2036134577    -3.8517681743
   36      C       2.7041852785     4.3704951197     0.0949462332
   37      C       7.7099289016     1.4703015040     1.4872661576
   38      C       5.5035247372    -0.8804714411    -2.6198187239
   39      C       6.9007454244    -0.8152871229     1.3263322306
   40      C       8.2443833375     1.0252285432     0.2773907444
   41      C       7.4590288121     0.1919141534    -2.2639143135
   42      C       6.3514011460     2.4785203772    -3.6569404908
   43      C       5.6985621970     1.0126856373     2.6393745285
   44      C       5.4123416665     4.5316635665    -2.8222768831
   45      C       5.6111136910    -1.4735411968     1.0733943599
   46      C       5.2034957167    -1.6056931416    -0.3600342049
   47      C       6.5109170696     4.6364115900    -1.9695477730
   48      C       2.0727145546     2.2704309036    -2.5828200025
   49      C       3.0668792589     4.2937264247    -2.3100054594
   50      C       2.2968053426     3.9936163861    -1.2037242438
   51      C       2.4292936167     3.5632602250     1.1916925115
   52      C       3.7915138735    -1.3604869741    -0.4525880276
   53      C       6.8766597662     0.5181030217     2.0214520788
   54      C       3.5816732253     3.7568089759     2.0345454754
   55      C       6.3498704268     0.0766364654    -3.2098428156
   56      C       5.4415008499     2.3900464380     2.7354301816
   57      C       8.4887632844     1.9167082841    -0.8402801880
   58      C       2.2117711442     0.0329067297    -1.6520870461
   59      C       3.8509165267     5.1451268083     0.2820456492
   60      C       7.7003841439    -0.2726352980     0.1045806539
   61      C       1.4863059539     1.9216630167    -0.2963097982
   62      C       7.9838301390     1.4954938931    -2.0595483929
   63      C       7.4735200816     2.8931633517     1.6145808549
   64      C       4.0931362678     2.7433598180    -3.8997692584
   65      C       4.3818711037     1.3827615977    -3.9921092684
   66      C       7.6610036369     3.7631577210     0.5031692687
   67      C       3.2585711041    -0.9031048308    -1.6924132489
   68      C       6.0681111087    -1.2422682195    -1.4005876874
   69      C       2.3923752856     0.8852448263    -2.6914088986
   70      C       4.3690324434    -0.8968167002     1.6955358465
   71      C       5.8607976866     4.4381785488     1.5540538574
   72      C       7.2820257854    -0.6418404494    -1.1779160673
   73      C       8.1341148729     3.2904062298    -0.7530193262
   74      C       1.6955302550     0.5069109704    -0.4427093863
   75      C       6.0574902332     5.1472145199    -0.7527369944
   76      C       1.9247632611     2.3192076924     0.9539859351
   77      C       4.2746631761     4.9350350189    -2.1374154927
   78      C       6.3699740325     3.3457924007     2.2688209190
   79      C       6.6417390763     4.7168451353     0.4408389278
   80      C       4.4720707736     0.3060099095     2.4730429202
   81      C       3.3067339321    -0.9027669689     0.7967525205
   82      C       2.9953806141     3.1458783419    -3.1778209482
   83      C       4.4405259602     4.6398914998     1.4387928122
   84      C       7.4453506045     2.6270977484    -2.7725003588
   85      C       3.5535781443     0.4740878404    -3.3637807108
   86      C       5.3465311774     3.4284173951    -3.6760455079
   87      C       2.2938921814     0.0941105767     0.7555730679
   88      C       1.6142563760     2.7898904812    -1.3764374571
   89      O     -10.8748275770     4.4756153289     1.8915735206
   90      C     -11.5558725562     5.4303807157     2.7661836009
   91      H     -10.7051802220     5.7915423442     3.3568229415
   92      H     -12.3018452687     4.8910118787     3.3619813600
   93      H     -12.0785519625     6.1829496659     2.1633492841
   94      O     -10.4744365699     5.9350880982     0.1195223710
   95      C     -10.5368648070     4.8099616640     0.5908653696
   96      C     -10.2287318353     3.4840342835    -0.1335534687
   97      H      -9.8895960474     3.7151604309    -1.1508428185
   98      H     -11.2051183532     3.0129742455    -0.3039817769
   99      C      -9.3010754021     2.4939507531     0.6510318644
  100      H      -9.6287774944     2.2866757805     1.6769462977
  101      H      -9.3789345498     1.5565955824     0.0865433904
  102      C      -7.7973465947     2.9510827960     0.6181842010
  103      H      -7.4576684685     3.0301807294    -0.4221947144
  104      H      -7.5813571092     3.9540966202     1.0067466934
  105      C      -6.8716906358     2.0480424075     1.4004265562
  106      C      -6.8466028617     2.3186018787     2.8661506695
  107      C      -7.8072995837     1.8186489330     3.7562033985
  108      H      -8.6927614981     1.3038463195     3.3939749246
  109      C      -7.7571207967     2.0747219571     5.1091907213
  110      H      -8.5000161339     1.6308247121     5.7655913260
  111      C      -6.7110071783     2.7591372410     5.6806572701
  112      H      -6.6043160381     2.8171419610     6.7602578690
  113      C      -5.7620014162     3.3549275401     4.8142376357
  114      H      -5.0122594714     3.9856530455     5.2826544940
  115      C      -5.8550786908     3.1468883541     3.4056943037
  116      H      -5.2144077153     3.7482575740     2.7673701209
  117      C      -2.1549957600    -0.7132676218     1.8755795541
  118      C      -3.7760220881    -2.3980183928     2.5272378105
  119      C      -3.5418837675    -4.9877248631    -1.1533671187
  120      C      -3.3621686843     1.1070282495    -2.5571598328
  121      C      -6.4579989575    -3.6516743560    -2.6102110504
  122      C      -3.3325419202    -1.0852631470     2.5273106104
  123      C      -4.6777979265    -0.8316091674    -4.1654591403
  124      C      -1.7869962981    -3.9045435756     0.1556062454
  125      C      -7.2788811927    -1.6396748487     0.7700653198
  126      C      -4.7340912173     1.2286731072    -2.7424598381
  127      C      -6.7000189852     0.6784185789     0.8495096726
  128      C      -7.5406799058    -1.0623626889    -0.5215449558
  129      C      -6.4867400125    -0.1016662661    -2.8115130963
  130      C      -5.1503144475    -2.1613399758    -4.1132565113
  131      C      -5.6048062897    -1.0500106155     2.3382765017
  132      C      -4.1071802961    -4.1814227497    -3.1798778482
  133      C      -5.5196391080     1.5517968685     0.8632831570
  134      C      -4.8659811838     1.9530960400    -0.3993344784
  135      C      -5.3068295347    -4.4589859337    -2.4769707540
  136      C      -1.1310225027    -1.5550632385    -2.3032767378
  137      C      -1.9094829221    -3.7114157244    -2.2923528351
  138      C      -1.2599785499    -3.4221698735    -1.0466940102
  139      C      -1.8429298889    -3.0711482737     1.2735166641
  140      C      -3.5191710157     1.7617431842    -0.3187587020
  141      C      -6.7408511347    -0.6480108077     1.5828082597
  142      C      -3.0191881038    -3.4123983735     1.9472717984
  143      C      -5.3353274817     0.2520538040    -3.5189311452
  144      C      -5.1426057278    -2.3296115773     2.4082266209
  145      C      -7.5048767122    -1.9164680417    -1.6029196261
  146      C      -1.5286897528     0.6276785915    -1.3176805416
  147      C      -2.9768561405    -4.7131568203     0.1078236562
  148      C      -7.1956491726     0.3064597643    -0.5235159489
  149      C      -0.8941873759    -1.2438147305     0.0622025982
  150      C      -7.0689679453    -1.4122472686    -2.8441025131
  151      C      -6.8297034482    -2.9241843631     0.9099247541
  152      C      -2.8982584226    -2.1971333863    -3.9236477227
  153      C      -3.2897603474    -0.8675368479    -3.9853428424
  154      C      -6.8233294429    -3.7479316535    -0.2050253675
  155      C      -2.7001169285     1.3736047008    -1.3684014602
  156      C      -5.4631112515     1.5623981738    -1.6353797282
  157      C      -1.4926519269    -0.1955023425    -2.4574043788
  158      C      -4.3528512279     0.9739620648     1.6103299978
  159      C      -5.1246595436    -4.3794246034     1.1448484145
  160      C      -6.5780351172     0.7415646942    -1.7167072909
  161      C      -7.1978791200    -3.2494641000    -1.4899462357
  162      C      -1.2212785024     0.1060591335    -0.0280245936
  163      C      -4.9952034134    -5.0009546984    -1.2635849874
  164      C      -1.4673619642    -1.7501765125     1.2249539203
  165      C      -3.0055896969    -4.5145527694    -2.3200263832
  166      C      -5.8277666137    -3.3404393098     1.7718675590
  167      C      -5.7730534977    -4.6895816169    -0.0762240270
  168      C      -4.4470477035    -0.2465897754     2.3259878975
  169      C      -3.1734082146     1.2329367234     0.9519894290
  170      C      -1.8365699165    -2.5337238515    -3.0293891612
  171      C      -3.7268374120    -4.4024144367     1.2496661425
  172      C      -6.3385114816    -2.4654436759    -3.4189195991
  173      C      -2.6346124292     0.1090105381    -3.2272706768
  174      C      -4.0394432566    -3.0176681465    -3.9902351255
  175      C      -2.0237765015     0.4232387476     1.0811138351
  176      C      -0.8163821255    -2.0849285951    -1.0977917164
 ----------------------------------------------------------------
 Molecular Point Group                 C1    NOp =  1
 Largest Abelian Subgroup              C1    NOp =  1
 Nuclear Repulsion Energy = 34238.9840946345 hartrees
 There are      462 alpha and      462 beta electrons
 Requested basis set is 6-31G(d,p)
 There are 676 shells and 2360 basis functions

 Total QAlloc Memory Limit  20000 MB
 Mega-Array Size      4888 MB
 MEM_STATIC part      5000 MB
 A cutoff of  1.0D-08 yielded  36917 shell pairs
 There are    522113 function pairs
 
 -------------------------------------------------------
 OpenMP Integral Computing Module                       
 Release: version 1.0, May 2013, Q-Chem Inc. Pittsburgh 
 -------------------------------------------------------
 Integral Job Info:
 Integral job number is                      11
 Integral operator is                         1
 short-range coefficients                     0
 long-range coefficients              100000000
 Omega coefficients                           0
 if combine SR and LR in K                    0
 Integral screening is                        0
 Integral computing path is                   2
 max size of driver memory is            800000
 size of driver memory is                593474
 size of scratch memory is              2260544
 max col of scratch BK array               1296
 max len of scratch array in speh3          155
 max len of scratch index in speh4           18
 max int batch size is                      520
 min int batch size is                       52
 fixed nKL is                                52
 max L of basis functions is                  2
 order of int derivative is                   0
 number of shells is                        676
 number of basis is                        2360
 number of cartesian basis is              2360
 number of contracted shell pairs         36917
 number of primitive shell pairs         112507
 maxK2 (contraction) of shell pair           36
 max number of K2 of shell pair               1
 max number of CS2 of shell pair           7116
 max number of PS2 of shell pair          34272
 mem total for path MDJ                 1486360
 -------------------------------------------------------
 Smallest overlap matrix eigenvalue = 2.33E-04

 Scale SEOQF with 1.000000e-02/1.000000e-02/1.000000e-02

 Standard Electronic Orientation quadrupole field applied
 Nucleus-field energy     =     0.0000001155 hartrees
 Guess from superposition of atomic densities
 Warning:  Energy on first SCF cycle will be non-variational
 A restricted hybrid HF-DFT SCF calculation will be
 performed using Pulay DIIS extrapolation
 Exchange:     0.2000 Hartree-Fock + 0.0800 Slater + 0.7200 B88
 Correlation:  0.1900 VWN1RPA + 0.8100 LYP
 Using SG-1 standard quadrature grid
 SCF converges when DIIS error is below 1.0E-05
 using 16 threads for integral computing 
 -------------------------------------------------------
 OpenMP BLAS3 based DFT computing Module                
 Release: version 1.0, May 2013, Q-Chem Inc. Pittsburgh 
 -------------------------------------------------------
 ---------------------------------------
  Cycle       Energy         DIIS Error
 ---------------------------------------
    1   -5859.0611208066      1.84E-02
    2   -5803.0656529326      1.31E-03
    3   -5802.2265523856      1.82E-03
    4   -5803.9215882657      6.64E-04
    5   -5804.1617572739      3.13E-04
    6   -5804.2252621458      1.37E-04
    7   -5804.2375509233      5.03E-05
    8   -5804.2385920848      3.40E-05
    9   -5804.2394722432      9.31E-06 Convergence criterion met
 ---------------------------------------
 SCF time:  CPU 8207.55 s  wall 845.75 s
 SCF   energy in the final basis set = -5804.2394722432
 Total energy in the final basis set = -5804.2394722432
 
 --------------------------------------------------------------
 
                    Orbital Energies (a.u.)
 --------------------------------------------------------------
 
 Alpha MOs
 -- Occupied --
-19.187 -19.187 -19.142 -19.134 -10.321 -10.318 -10.249 -10.246
-10.245 -10.241 -10.241 -10.237 -10.236 -10.233 -10.230 -10.229
-10.228 -10.227 -10.226 -10.225 -10.225 -10.223 -10.222 -10.222
-10.221 -10.221 -10.221 -10.220 -10.220 -10.220 -10.219 -10.219
-10.219 -10.218 -10.218 -10.218 -10.218 -10.218 -10.217 -10.217
-10.217 -10.217 -10.217 -10.217 -10.216 -10.216 -10.216 -10.216
-10.215 -10.215 -10.215 -10.215 -10.215 -10.215 -10.215 -10.214
-10.214 -10.214 -10.214 -10.214 -10.214 -10.214 -10.214 -10.214
-10.214 -10.214 -10.214 -10.214 -10.213 -10.213 -10.213 -10.213
-10.213 -10.213 -10.213 -10.213 -10.213 -10.212 -10.212 -10.212
-10.212 -10.212 -10.212 -10.212 -10.212 -10.212 -10.212 -10.211
-10.211 -10.211 -10.211 -10.211 -10.211 -10.211 -10.211 -10.210
-10.210 -10.210 -10.210 -10.210 -10.210 -10.210 -10.210 -10.210
-10.209 -10.209 -10.209 -10.209 -10.209 -10.208 -10.208 -10.208
-10.208 -10.208 -10.208 -10.208 -10.208 -10.207 -10.207 -10.207
-10.207 -10.207 -10.207 -10.207 -10.207 -10.207 -10.206 -10.206
-10.206 -10.205 -10.205 -10.204 -10.204 -10.204 -10.204 -10.204
-10.203 -10.203 -10.203 -10.202 -10.202 -10.201 -10.196 -10.196
-10.195 -10.194 -10.194 -10.192  -1.084  -1.081  -1.009  -1.008
 -0.986  -0.983  -0.969  -0.967  -0.964  -0.963  -0.962  -0.962
 -0.939  -0.933  -0.929  -0.928  -0.926  -0.926  -0.925  -0.923
 -0.922  -0.920  -0.902  -0.898  -0.892  -0.891  -0.887  -0.885
 -0.877  -0.872  -0.856  -0.853  -0.842  -0.841  -0.840  -0.839
 -0.837  -0.834  -0.825  -0.825  -0.806  -0.803  -0.798  -0.798
 -0.797  -0.796  -0.794  -0.793  -0.793  -0.792  -0.785  -0.781
 -0.773  -0.769  -0.769  -0.769  -0.768  -0.767  -0.765  -0.764
 -0.750  -0.749  -0.744  -0.744  -0.736  -0.736  -0.717  -0.715
 -0.714  -0.712  -0.711  -0.711  -0.711  -0.710  -0.710  -0.709
 -0.708  -0.707  -0.707  -0.706  -0.705  -0.701  -0.674  -0.673
 -0.661  -0.658  -0.658  -0.656  -0.652  -0.650  -0.634  -0.633
 -0.629  -0.627  -0.625  -0.625  -0.625  -0.620  -0.617  -0.616
 -0.615  -0.613  -0.613  -0.611  -0.610  -0.609  -0.609  -0.609
 -0.608  -0.605  -0.604  -0.603  -0.569  -0.567  -0.561  -0.561
 -0.560  -0.560  -0.559  -0.558  -0.557  -0.556  -0.554  -0.552
 -0.539  -0.536  -0.535  -0.534  -0.528  -0.525  -0.524  -0.523
 -0.522  -0.521  -0.519  -0.517  -0.517  -0.516  -0.513  -0.511
 -0.508  -0.507  -0.502  -0.496  -0.493  -0.492  -0.488  -0.487
 -0.486  -0.484  -0.481  -0.480  -0.480  -0.479  -0.475  -0.473
 -0.473  -0.471  -0.470  -0.469  -0.469  -0.468  -0.467  -0.466
 -0.465  -0.465  -0.464  -0.462  -0.462  -0.461  -0.459  -0.459
 -0.457  -0.456  -0.456  -0.455  -0.448  -0.446  -0.445  -0.443
 -0.442  -0.440  -0.439  -0.439  -0.437  -0.436  -0.436  -0.434
 -0.431  -0.430  -0.428  -0.428  -0.427  -0.426  -0.425  -0.425
 -0.423  -0.422  -0.421  -0.421  -0.420  -0.420  -0.419  -0.419
 -0.419  -0.417  -0.416  -0.416  -0.415  -0.415  -0.414  -0.413
 -0.412  -0.410  -0.410  -0.409  -0.403  -0.402  -0.401  -0.399
 -0.393  -0.392  -0.390  -0.390  -0.387  -0.386  -0.385  -0.383
 -0.382  -0.379  -0.376  -0.373  -0.371  -0.371  -0.370  -0.367
 -0.367  -0.366  -0.363  -0.362  -0.362  -0.361  -0.360  -0.359
 -0.357  -0.356  -0.354  -0.354  -0.353  -0.352  -0.350  -0.349
 -0.349  -0.349  -0.348  -0.346  -0.346  -0.344  -0.344  -0.343
 -0.342  -0.341  -0.340  -0.339  -0.338  -0.337  -0.336  -0.334
 -0.333  -0.332  -0.331  -0.330  -0.329  -0.328  -0.323  -0.321
 -0.309  -0.304  -0.296  -0.296  -0.292  -0.291  -0.272  -0.271
 -0.269  -0.268  -0.267  -0.267  -0.266  -0.265  -0.264  -0.263
 -0.262  -0.260  -0.260  -0.259  -0.256  -0.256  -0.254  -0.252
 -0.251  -0.250  -0.248  -0.245  -0.224  -0.223  -0.211  -0.210
 -0.209  -0.208  -0.207  -0.201  -0.200  -0.196
 -- Virtual --
 -0.124  -0.123  -0.122  -0.114  -0.108  -0.106  -0.077  -0.075
 -0.073  -0.069  -0.062  -0.058  -0.056  -0.053  -0.024  -0.022
 -0.021  -0.020  -0.018  -0.017  -0.015  -0.015  -0.012  -0.012
 -0.011  -0.010  -0.009  -0.007  -0.005  -0.003   0.004   0.006
  0.010   0.012   0.034   0.037   0.044   0.045   0.048   0.049
  0.050   0.053   0.057   0.060   0.062   0.065   0.067   0.071
  0.072   0.073   0.076   0.080   0.085   0.086   0.089   0.089
  0.095   0.097   0.099   0.101   0.102   0.104   0.106   0.108
  0.108   0.110   0.113   0.114   0.115   0.116   0.117   0.119
  0.121   0.123   0.127   0.128   0.128   0.131   0.133   0.135
  0.139   0.142   0.143   0.145   0.148   0.151   0.152   0.156
  0.158   0.159   0.161   0.162   0.165   0.167   0.168   0.169
  0.172   0.173   0.176   0.177   0.178   0.179   0.183   0.183
  0.184   0.184   0.185   0.187   0.188   0.190   0.193   0.193
  0.198   0.199   0.200   0.202   0.202   0.205   0.206   0.211
  0.212   0.214   0.214   0.215   0.216   0.220   0.220   0.222
  0.223   0.224   0.225   0.227   0.227   0.228   0.229   0.229
  0.232   0.233   0.235   0.236   0.237   0.239   0.239   0.241
  0.243   0.243   0.245   0.247   0.250   0.251   0.254   0.257
  0.257   0.268   0.270   0.271   0.273   0.278   0.280   0.284
  0.287   0.287   0.290   0.291   0.293   0.294   0.297   0.301
  0.306   0.310   0.311   0.312   0.314   0.314   0.318   0.319
  0.319   0.324   0.325   0.327   0.327   0.329   0.332   0.335
  0.336   0.338   0.338   0.343   0.344   0.345   0.352   0.353
  0.355   0.355   0.355   0.356   0.367   0.367   0.387   0.392
  0.399   0.400   0.403   0.403   0.405   0.406   0.408   0.411
  0.413   0.414   0.415   0.419   0.419   0.420   0.423   0.428
  0.430   0.433   0.434   0.436   0.437   0.446   0.447   0.449
  0.450   0.453   0.455   0.456   0.458   0.461   0.463   0.464
  0.467   0.468   0.469   0.471   0.472   0.473   0.474   0.476
  0.476   0.481   0.482   0.484   0.485   0.487   0.487   0.490
  0.490   0.491   0.491   0.492   0.495   0.496   0.497   0.498
  0.499   0.500   0.502   0.503   0.503   0.503   0.505   0.506
  0.506   0.508   0.509   0.509   0.510   0.511   0.512   0.513
  0.514   0.515   0.516   0.517   0.517   0.519   0.520   0.521
  0.522   0.522   0.523   0.524   0.525   0.527   0.528   0.528
  0.528   0.529   0.529   0.529   0.530   0.531   0.531   0.532
  0.533   0.534   0.534   0.535   0.536   0.536   0.538   0.538
  0.540   0.540   0.541   0.542   0.543   0.543   0.544   0.545
  0.546   0.546   0.547   0.548   0.549   0.550   0.551   0.551
  0.553   0.554   0.554   0.555   0.556   0.557   0.557   0.558
  0.558   0.558   0.559   0.560   0.561   0.562   0.564   0.565
  0.565   0.566   0.568   0.568   0.569   0.570   0.571   0.572
  0.573   0.575   0.575   0.576   0.576   0.577   0.578   0.579
  0.580   0.580   0.581   0.582   0.583   0.584   0.585   0.586
  0.587   0.588   0.588   0.589   0.590   0.592   0.592   0.593
  0.594   0.595   0.596   0.597   0.598   0.599   0.600   0.601
  0.602   0.602   0.603   0.606   0.607   0.607   0.608   0.610
  0.610   0.611   0.613   0.614   0.614   0.616   0.617   0.619
  0.620   0.621   0.621   0.622   0.623   0.624   0.626   0.627
  0.628   0.629   0.630   0.631   0.633   0.633   0.633   0.634
  0.634   0.637   0.637   0.639   0.640   0.641   0.642   0.642
  0.643   0.645   0.645   0.645   0.648   0.649   0.649   0.650
  0.651   0.653   0.654   0.655   0.656   0.656   0.657   0.658
  0.658   0.659   0.660   0.660   0.661   0.663   0.663   0.664
  0.665   0.666   0.667   0.668   0.668   0.669   0.670   0.671
  0.672   0.672   0.675   0.675   0.677   0.677   0.678   0.679
  0.680   0.681   0.683   0.683   0.686   0.687   0.689   0.691
  0.691   0.692   0.694   0.694   0.697   0.697   0.698   0.699
  0.701   0.701   0.702   0.703   0.704   0.705   0.707   0.708
  0.710   0.711   0.711   0.713   0.713   0.715   0.716   0.717
  0.718   0.719   0.720   0.724   0.725   0.725   0.726   0.728
  0.729   0.730   0.732   0.733   0.735   0.735   0.736   0.737
  0.739   0.741   0.742   0.743   0.744   0.745   0.747   0.747
  0.749   0.751   0.751   0.753   0.754   0.756   0.758   0.759
  0.760   0.760   0.762   0.763   0.765   0.766   0.768   0.769
  0.770   0.772   0.773   0.775   0.776   0.776   0.777   0.778
  0.779   0.780   0.781   0.784   0.786   0.786   0.787   0.788
  0.789   0.791   0.792   0.793   0.796   0.796   0.797   0.797
  0.798   0.800   0.801   0.803   0.803   0.804   0.806   0.806
  0.808   0.808   0.809   0.810   0.811   0.812   0.812   0.813
  0.814   0.814   0.816   0.817   0.817   0.817   0.819   0.819
  0.820   0.821   0.822   0.822   0.822   0.823   0.824   0.825
  0.827   0.828   0.828   0.829   0.830   0.831   0.832   0.833
  0.834   0.836   0.837   0.838   0.842   0.842   0.844   0.845
  0.847   0.849   0.851   0.853   0.854   0.858   0.861   0.863
  0.864   0.866   0.867   0.870   0.872   0.877   0.882   0.883
  0.886   0.890   0.892   0.898   0.899   0.900   0.905   0.908
  0.908   0.912   0.913   0.913   0.915   0.918   0.921   0.924
  0.925   0.927   0.930   0.931   0.932   0.934   0.936   0.937
  0.939   0.942   0.942   0.944   0.945   0.946   0.947   0.950
  0.951   0.953   0.958   0.960   0.964   0.965   0.967   0.970
  0.971   0.976   0.978   0.981   0.982   0.985   0.987   0.988
  0.993   0.994   0.996   0.997   1.002   1.003   1.006   1.007
  1.009   1.009   1.010   1.012   1.014   1.015   1.016   1.018
  1.018   1.020   1.023   1.024   1.024   1.028   1.029   1.030
  1.032   1.035   1.038   1.039   1.040   1.042   1.044   1.045
  1.045   1.047   1.050   1.051   1.052   1.053   1.054   1.058
  1.060   1.063   1.063   1.066   1.067   1.068   1.069   1.071
  1.074   1.075   1.076   1.078   1.080   1.081   1.082   1.083
  1.087   1.088   1.089   1.091   1.092   1.094   1.097   1.098
  1.099   1.100   1.101   1.102   1.104   1.105   1.109   1.110
  1.113   1.114   1.119   1.122   1.123   1.124   1.128   1.130
  1.133   1.134   1.136   1.137   1.139   1.142   1.144   1.145
  1.147   1.149   1.152   1.153   1.155   1.156   1.159   1.161
  1.163   1.165   1.169   1.170   1.171   1.174   1.175   1.175
  1.178   1.178   1.179   1.180   1.183   1.184   1.187   1.188
  1.189   1.191   1.192   1.194   1.196   1.200   1.201   1.202
  1.204   1.207   1.209   1.212   1.213   1.215   1.215   1.220
  1.223   1.225   1.227   1.230   1.232   1.238   1.239   1.243
  1.246   1.248   1.251   1.253   1.256   1.258   1.259   1.260
  1.262   1.264   1.266   1.268   1.272   1.273   1.275   1.279
  1.282   1.283   1.285   1.287   1.288   1.290   1.290   1.293
  1.294   1.298   1.299   1.301   1.303   1.305   1.306   1.309
  1.313   1.314   1.318   1.319   1.322   1.326   1.330   1.333
  1.334   1.339   1.342   1.343   1.344   1.347   1.351   1.355
  1.356   1.356   1.360   1.360   1.362   1.365   1.367   1.369
  1.373   1.375   1.375   1.379   1.379   1.380   1.383   1.384
  1.389   1.393   1.394   1.396   1.400   1.401   1.404   1.408
  1.410   1.411   1.412   1.417   1.418   1.421   1.423   1.429
  1.433   1.435   1.436   1.438   1.443   1.445   1.447   1.452
  1.455   1.458   1.460   1.462   1.463   1.464   1.465   1.468
  1.468   1.471   1.472   1.472   1.473   1.475   1.477   1.481
  1.481   1.483   1.485   1.489   1.490   1.491   1.494   1.497
  1.498   1.500   1.504   1.507   1.508   1.509   1.512   1.516
  1.520   1.523   1.527   1.530   1.532   1.532   1.536   1.539
  1.541   1.543   1.546   1.547   1.551   1.552   1.553   1.556
  1.557   1.560   1.563   1.566   1.568   1.570   1.570   1.573
  1.576   1.577   1.578   1.581   1.583   1.585   1.588   1.592
  1.594   1.596   1.600   1.603   1.605   1.612   1.614   1.617
  1.623   1.623   1.624   1.628   1.633   1.639   1.640   1.645
  1.647   1.651   1.655   1.657   1.665   1.666   1.669   1.671
  1.674   1.677   1.683   1.685   1.690   1.692   1.694   1.699
  1.701   1.706   1.707   1.708   1.710   1.713   1.715   1.716
  1.719   1.721   1.725   1.725   1.727   1.728   1.730   1.732
  1.735   1.738   1.740   1.740   1.741   1.744   1.747   1.749
  1.750   1.751   1.752   1.752   1.755   1.758   1.758   1.760
  1.760   1.763   1.764   1.766   1.769   1.769   1.771   1.771
  1.774   1.774   1.776   1.777   1.779   1.779   1.781   1.781
  1.783   1.784   1.785   1.786   1.787   1.787   1.789   1.791
  1.792   1.793   1.794   1.796   1.796   1.798   1.799   1.800
  1.801   1.804   1.805   1.807   1.809   1.810   1.810   1.812
  1.813   1.814   1.817   1.818   1.819   1.821   1.823   1.825
  1.827   1.829   1.830   1.833   1.834   1.835   1.838   1.839
  1.843   1.849   1.849   1.851   1.852   1.854   1.856   1.859
  1.861   1.862   1.862   1.863   1.864   1.865   1.868   1.871
  1.873   1.874   1.875   1.877   1.879   1.881   1.883   1.884
  1.885   1.886   1.890   1.890   1.892   1.896   1.900   1.901
  1.903   1.907   1.908   1.911   1.912   1.914   1.917   1.920
  1.925   1.926   1.929   1.930   1.933   1.935   1.936   1.940
  1.941   1.942   1.944   1.945   1.946   1.948   1.951   1.953
  1.955   1.956   1.957   1.960   1.962   1.962   1.968   1.970
  1.972   1.974   1.976   1.978   1.980   1.981   1.982   1.983
  1.986   1.988   1.991   1.993   1.995   1.997   1.997   1.998
  1.999   2.002   2.002   2.004   2.007   2.007   2.008   2.010
  2.011   2.013   2.014   2.015   2.016   2.016   2.018   2.019
  2.020   2.020   2.021   2.022   2.024   2.025   2.027   2.027
  2.028   2.029   2.031   2.032   2.033   2.036   2.037   2.039
  2.039   2.040   2.041   2.042   2.043   2.044   2.045   2.047
  2.048   2.049   2.050   2.051   2.053   2.054   2.056   2.057
  2.057   2.060   2.061   2.062   2.062   2.065   2.065   2.067
  2.069   2.070   2.072   2.073   2.075   2.075   2.077   2.078
  2.080   2.081   2.082   2.084   2.086   2.088   2.089   2.090
  2.092   2.095   2.096   2.098   2.099   2.102   2.107   2.109
  2.110   2.111   2.113   2.115   2.119   2.120   2.121   2.123
  2.124   2.129   2.132   2.134   2.137   2.139   2.141   2.143
  2.150   2.153   2.154   2.156   2.158   2.159   2.166   2.167
  2.170   2.173   2.182   2.190   2.191   2.193   2.199   2.205
  2.208   2.208   2.214   2.217   2.221   2.223   2.225   2.230
  2.232   2.234   2.236   2.237   2.239   2.242   2.243   2.249
  2.251   2.252   2.255   2.257   2.259   2.260   2.264   2.265
  2.266   2.268   2.274   2.275   2.276   2.279   2.280   2.282
  2.284   2.285   2.287   2.290   2.292   2.294   2.297   2.298
  2.301   2.306   2.307   2.309   2.311   2.313   2.314   2.316
  2.321   2.323   2.328   2.329   2.332   2.333   2.338   2.339
  2.341   2.346   2.347   2.350   2.352   2.353   2.355   2.358
  2.359   2.361   2.363   2.363   2.365   2.368   2.371   2.372
  2.373   2.377   2.378   2.382   2.383   2.386   2.387   2.388
  2.389   2.390   2.392   2.392   2.394   2.395   2.397   2.397
  2.400   2.402   2.404   2.406   2.409   2.411   2.412   2.413
  2.414   2.416   2.418   2.419   2.422   2.425   2.427   2.428
  2.431   2.433   2.435   2.438   2.440   2.441   2.444   2.446
  2.449   2.450   2.453   2.457   2.458   2.462   2.463   2.466
  2.467   2.469   2.472   2.472   2.473   2.475   2.475   2.479
  2.481   2.483   2.486   2.488   2.489   2.490   2.491   2.494
  2.496   2.497   2.498   2.500   2.501   2.502   2.505   2.509
  2.512   2.514   2.515   2.517   2.518   2.520   2.521   2.523
  2.525   2.527   2.527   2.532   2.535   2.538   2.539   2.541
  2.545   2.547   2.550   2.550   2.554   2.557   2.561   2.564
  2.568   2.570   2.570   2.574   2.579   2.581   2.586   2.588
  2.589   2.592   2.594   2.595   2.599   2.602   2.603   2.604
  2.607   2.608   2.611   2.614   2.615   2.617   2.618   2.620
  2.623   2.625   2.627   2.628   2.631   2.631   2.632   2.634
  2.636   2.639   2.641   2.642   2.643   2.646   2.647   2.649
  2.650   2.653   2.654   2.655   2.658   2.660   2.660   2.661
  2.663   2.664   2.666   2.669   2.669   2.672   2.674   2.674
  2.679   2.681   2.682   2.684   2.686   2.688   2.689   2.692
  2.693   2.696   2.700   2.700   2.703   2.705   2.707   2.712
  2.715   2.719   2.719   2.720   2.722   2.725   2.725   2.727
  2.729   2.732   2.734   2.736   2.740   2.746   2.749   2.751
  2.751   2.752   2.757   2.759   2.760   2.762   2.763   2.765
  2.767   2.769   2.769   2.773   2.775   2.776   2.777   2.780
  2.784   2.785   2.788   2.789   2.791   2.794   2.797   2.798
  2.800   2.802   2.802   2.811   2.813   2.816   2.818   2.819
  2.824   2.828   2.832   2.833   2.834   2.838   2.841   2.842
  2.843   2.846   2.847   2.849   2.856   2.859   2.860   2.863
  2.866   2.867   2.869   2.869   2.871   2.873   2.873   2.876
  2.879   2.882   2.882   2.884   2.886   2.891   2.892   2.893
  2.895   2.897   2.899   2.901   2.902   2.903   2.905   2.906
  2.908   2.911   2.914   2.916   2.917   2.921   2.922   2.925
  2.926   2.929   2.930   2.931   2.933   2.935   2.937   2.942
  2.943   2.944   2.945   2.948   2.950   2.952   2.955   2.956
  2.958   2.962   2.966   2.971   2.972   2.974   2.978   2.986
  2.988   2.990   2.993   2.997   2.999   3.002   3.008   3.013
  3.016   3.017   3.018   3.019   3.019   3.022   3.028   3.029
  3.032   3.036   3.036   3.039   3.041   3.044   3.046   3.049
  3.051   3.053   3.053   3.056   3.059   3.060   3.071   3.074
  3.077   3.079   3.085   3.087   3.092   3.098   3.102   3.104
  3.117   3.121   3.131   3.141   3.144   3.148   3.154   3.160
  3.164   3.165   3.169   3.174   3.178   3.185   3.197   3.199
  3.200   3.207   3.208   3.210   3.212   3.240   3.243   3.244
  3.248   3.254   3.256   3.263   3.276   3.278   3.293   3.296
  3.302   3.306   3.307   3.323   3.324   3.332   3.336   3.338
  3.343   3.345   3.348   3.356   3.359   3.362   3.369   3.370
  3.385   3.403   3.406   3.406   3.420   3.427   3.428   3.445
  3.455   3.462   3.463   3.470   3.471   3.490   3.494   3.495
  3.497   3.501   3.504   3.510   3.527   3.530   3.546   3.557
  3.559   3.560   3.561   3.573   3.577   3.586   3.608   3.612
  3.616   3.624   3.695   3.698   3.849   3.865   3.978   3.996
  4.068   4.072   4.077   4.082   4.087   4.091   4.093   4.096
  4.099   4.105   4.114   4.115   4.117   4.118   4.119   4.126
  4.130   4.135   4.136   4.140   4.142   4.144   4.151   4.152
  4.153   4.156   4.157   4.159   4.164   4.170   4.171   4.174
  4.179   4.190   4.192   4.200   4.205   4.213   4.218   4.237
  4.240   4.242   4.245   4.250   4.254   4.258   4.266   4.266
  4.269   4.274   4.276   4.283   4.290   4.293   4.297   4.299
  4.304   4.310   4.315   4.324   4.379   4.382   4.392   4.394
  4.396   4.399   4.407   4.409   4.410   4.417   4.420   4.422
  4.424   4.426   4.429   4.437   4.438   4.449   4.461   4.469
  4.471   4.487   4.495   4.496   4.533   4.537   4.550   4.555
  4.556   4.566   4.612   4.628   4.630   4.632   4.637   4.647
  4.661   4.669   4.673   4.676   4.693   4.696   4.700   4.704
  4.706   4.709   4.711   4.716   4.737   4.768   4.781   4.810
  4.817   4.848   4.849   4.867   4.882   4.883   4.888   4.893
  4.906   4.914   4.951   4.959   4.973   4.981   4.984   4.988
  4.993   4.998   5.014   5.023   5.170   5.172   5.181   5.201
  5.207   5.213   5.218   5.235   5.296   5.339   5.356   5.368
  5.373   5.377
 --------------------------------------------------------------
 
          Ground-State Mulliken Net Atomic Charges

     Atom                 Charge (a.u.)
  ----------------------------------------
      1 O                    -0.488453
      2 C                    -0.077336
      3 H                     0.123942
      4 H                     0.126172
      5 H                     0.125240
      6 O                    -0.464809
      7 C                     0.597726
      8 C                    -0.261076
      9 H                     0.139221
     10 H                     0.138066
     11 C                    -0.174449
     12 H                     0.128406
     13 H                     0.114691
     14 C                    -0.195834
     15 H                     0.112756
     16 H                     0.102257
     17 C                     0.022017
     18 C                     0.068148
     19 C                    -0.102053
     20 H                     0.092026
     21 C                    -0.078645
     22 H                     0.091379
     23 C                    -0.077129
     24 H                     0.089422
     25 C                    -0.088874
     26 H                     0.098651
     27 C                    -0.115396
     28 H                     0.092003
     29 C                    -0.022882
     30 C                     0.027640
     31 C                    -0.029083
     32 C                    -0.010481
     33 C                     0.004948
     34 C                     0.013137
     35 C                     0.008523
     36 C                     0.016427
     37 C                     0.012785
     38 C                    -0.023079
     39 C                    -0.077620
     40 C                     0.006119
     41 C                    -0.037856
     42 C                     0.003264
     43 C                    -0.025793
     44 C                     0.000822
     45 C                    -0.083093
     46 C                     0.021173
     47 C                     0.000306
     48 C                    -0.006262
     49 C                    -0.013712
     50 C                     0.019486
     51 C                    -0.027064
     52 C                    -0.015508
     53 C                     0.045719
     54 C                    -0.039876
     55 C                    -0.017000
     56 C                    -0.003244
     57 C                    -0.022664
     58 C                     0.002154
     59 C                    -0.032166
     60 C                     0.010374
     61 C                     0.009553
     62 C                     0.010178
     63 C                     0.005970
     64 C                    -0.007936
     65 C                    -0.011015
     66 C                    -0.004788
     67 C                     0.004913
     68 C                     0.023756
     69 C                     0.010725
     70 C                     0.017602
     71 C                    -0.011406
     72 C                     0.015861
     73 C                    -0.030900
     74 C                    -0.016859
     75 C                     0.016079
     76 C                     0.043172
     77 C                     0.024202
     78 C                    -0.014717
     79 C                     0.009443
     80 C                    -0.010581
     81 C                     0.021303
     82 C                     0.011889
     83 C                     0.042616
     84 C                     0.020668
     85 C                     0.004422
     86 C                    -0.013735
     87 C                     0.002717
     88 C                    -0.025030
     89 O                    -0.479010
     90 C                    -0.085673
     91 H                     0.137300
     92 H                     0.126527
     93 H                     0.137658
     94 O                    -0.465222
     95 C                     0.590494
     96 C                    -0.254378
     97 H                     0.126963
     98 H                     0.128968
     99 C                    -0.186226
    100 H                     0.127706
    101 H                     0.109397
    102 C                    -0.177276
    103 H                     0.108971
    104 H                     0.113971
    105 C                     0.003865
    106 C                     0.106374
    107 C                    -0.107411
    108 H                     0.085044
    109 C                    -0.085374
    110 H                     0.085064
    111 C                    -0.078804
    112 H                     0.091225
    113 C                    -0.098077
    114 H                     0.091962
    115 C                    -0.118697
    116 H                     0.094317
    117 C                    -0.005167
    118 C                     0.028236
    119 C                     0.003242
    120 C                    -0.014500
    121 C                    -0.008369
    122 C                    -0.029491
    123 C                    -0.018290
    124 C                    -0.015851
    125 C                    -0.002265
    126 C                    -0.010736
    127 C                    -0.058052
    128 C                     0.008889
    129 C                     0.018746
    130 C                     0.018838
    131 C                     0.013947
    132 C                    -0.015524
    133 C                    -0.108433
    134 C                     0.043986
    135 C                     0.029699
    136 C                     0.018262
    137 C                     0.005203
    138 C                    -0.025837
    139 C                     0.018232
    140 C                     0.001053
    141 C                    -0.002349
    142 C                    -0.021371
    143 C                    -0.003992
    144 C                     0.013153
    145 C                     0.012457
    146 C                    -0.005629
    147 C                    -0.003470
    148 C                     0.019458
    149 C                     0.006551
    150 C                    -0.036812
    151 C                     0.037340
    152 C                    -0.006840
    153 C                     0.004993
    154 C                    -0.014397
    155 C                     0.028623
    156 C                    -0.005895
    157 C                    -0.021777
    158 C                     0.060406
    159 C                     0.003346
    160 C                    -0.008893
    161 C                     0.008367
    162 C                    -0.010881
    163 C                    -0.019813
    164 C                     0.007756
    165 C                     0.012452
    166 C                    -0.031223
    167 C                    -0.019675
    168 C                    -0.008292
    169 C                    -0.019619
    170 C                    -0.002843
    171 C                     0.009213
    172 C                    -0.011345
    173 C                     0.015265
    174 C                    -0.012799
    175 C                    -0.002188
    176 C                     0.013578
  ----------------------------------------
  Sum of atomic charges =     0.000000

 -----------------------------------------------------------------
                    Cartesian Multipole Moments
 -----------------------------------------------------------------
    Charge (ESU x 10^10)
                 0.0000
    Dipole Moment (Debye)
         X      -2.5802      Y      -0.8427      Z       3.9000
       Tot       4.7516
    Quadrupole Moments (Debye-Ang)
        XX    -770.7175     XY       0.6185     YY    -826.1642
        XZ     -20.3589     YZ      16.4204     ZZ    -789.3313
    Octopole Moments (Debye-Ang^2)
       XXX    -571.5344    XXY      62.1905    XYY     -51.3309
       YYY    -131.1423    XXZ     409.1444    XYZ     -92.6957
       YYZ      31.3490    XZZ     -93.4787    YZZ      25.0707
       ZZZ     279.0822
    Hexadecapole Moments (Debye-Ang^3)
      XXXX -146653.1088   XXXY   -2745.2656   XXYY  -35752.5618
      XYYY     226.1268   YYYY  -47124.0934   XXXZ   -2596.6479
      XXYZ    1605.3220   XYYZ   -1287.3559   YYYZ    1055.9669
      XXZZ  -28912.6463   XYZZ   -1218.5271   YYZZ  -12143.5101
      XZZZ    -238.8010   YZZZ      35.1261   ZZZZ  -26807.0174
 -----------------------------------------------------------------
Archival summary:
1\1\mn251\SP\ProcedureUnspecified\6-31G**\428\afmv_a\SatOct1319:58:582018SatOct1319:58:582018\0\\#,ProcedureUnspecified,6-31G**,\\0,1\C\C,1,1.39778\C,2,1.3562,1,119.941\C,1,1.40154,2,118.828,3,135.644,0\C,4,1.37872,1,108.7,2,-138.139,0\C,5,1.3769,4,119.826,1,142.908,0\C,6,1.35707,5,120.72,4,-138.906,0\C,5,1.38902,4,109.784,1,3.21685,0\C,8,1.36335,5,122.996,4,147.512,0\C,8,1.3833,5,106.87,4,-2.50101,0\C,9,1.38926,8,117.761,5,-135.004,0\C,10,1.39171,8,119.542,5,147.157,0\C,12,1.39118,10,118.058,8,-136.264,0\C,12,1.39451,10,119.169,8,-6.03494,0\C,14,1.38092,12,111.181,10,-140.973,0\C,15,1.37833,14,119.305,12,145.383,0\C,16,1.38649,15,120.231,14,6.45755,0\C,16,1.38782,15,121.419,14,-135.872,0\C,18,1.39463,16,108.795,15,141.678,0\C,19,1.38326,18,121.994,16,-143.805,0\C,20,1.34726,19,119.348,18,6.99883,0\C,19,1.3954,18,107.741,16,1.69915,0\C,7,1.39563,6,109.491,5,145.799,0\C,11,1.39644,9,112.274,8,143.339,0\C,24,1.39319,11,104.928,9,-10.1746,0\C,25,1.36835,24,109.263,11,9.33904,0\C,18,1.39657,16,119.515,15,1.90679,0\C,27,1.38291,18,119.995,16,136.006,0\C,22,1.39685,19,119.764,18,-145.03,0\C,29,1.38808,22,120.785,19,138.043,0\C,29,1.39725,22,123.609,19,1.3205,0\C,30,1.40124,29,111.171,22,-143.406,0\C,32,1.36041,30,107.989,29,0.927708,0\C,3,1.4034,2,107.051,1,-144.342,0\C,34,1.38078,3,121.437,2,147.671,0\C,35,1.39396,34,119.205,3,-3.2158,0\C,36,1.37415,35,119.09,34,-0.417099,0\C,35,1.40303,34,117.541,3,-138.293,0\C,23,1.40443,7,106.275,6,0.278867,0\C,2,1.40483,1,121.735,3,-139.456,0\C,40,1.37015,2,111.914,1,146.478,0\C,6,1.41674,5,120.384,4,5.67646,0\C,39,1.41928,23,121.565,7,-144.709,0\C,43,1.37345,39,115.553,23,2.33611,0\C,44,1.39554,43,110.392,39,140.892,0\C,45,1.41783,44,104.517,43,0.693026,0\C,46,1.39862,45,117.916,44,-139.17,0\C,47,1.37247,46,121.926,45,133.056,0\C,47,1.38053,46,121.571,45,-3.71286,0\C,48,1.39147,47,112.786,46,-146.352,0\C,48,1.40085,47,122.608,46,4.24189,0\C,50,1.4073,48,107.469,47,3.62231,0\C,49,1.42004,47,119.247,46,4.91207,0\C,53,1.38528,49,122.718,47,-8.46305,0\C,54,1.42142,53,104.889,49,144.861,0\C,4,1.42173,1,122.373,2,7.24885,0\C,56,1.39152,4,124.026,1,-145.56,0\C,56,1.41611,4,116.421,1,-6.71272,0\C,51,1.49611,48,121.373,47,5.744,0\C,59,1.46984,51,116.326,48,-6.19575,0\C,60,1.52055,59,62.845,51,120.186,0\C,61,1.48814,60,119.531,59,-110.586,0\H,62,1.09674,61,111.653,60,-76.2065,0\H,62,1.09739,61,106.743,60,37.1649,0\C,62,1.5481,61,116.269,60,158.123,0\H,65,1.09707,62,103.441,61,165.335,0\H,65,1.0975,62,107.416,61,58.0068,0\C,65,1.53167,62,115.589,61,-68.5487,0\H,68,1.09645,65,111.847,62,59.3746,0\H,68,1.09711,65,115.928,62,-59.8645,0\C,68,1.49988,65,114.65,62,-174.623,0\O,71,1.21975,68,121.42,65,-4.20695,0\O,71,1.39083,68,115.239,65,176.941,0\C,73,1.43261,71,122.775,68,179.706,0\H,74,1.09642,73,110.478,71,168.128,0\H,74,1.09683,73,106.649,71,51.2276,0\H,74,1.0969,73,115.945,71,-68.8954,0\C,61,1.55277,60,115.568,59,112.73,0\C,78,1.44299,61,121.587,60,-127.994,0\H,79,1.08576,78,118.443,61,1.29954,0\C,79,1.44227,78,120.498,61,-171.514,0\H,81,1.08591,79,117.264,78,171.259,0\C,81,1.37702,79,118.37,78,-3.44613,0\H,83,1.08658,81,121.565,79,-167.476,0\C,83,1.37441,81,121.801,79,0.71961,0\H,85,1.08635,83,119.183,81,-172.255,0\C,85,1.37557,83,122.083,81,7.24389,0\H,87,1.08575,85,119.952,83,171.374,0\C,1,2.97328,2,115.93,3,-97.6695,0\C,89,1.39187,1,84.7934,2,-69.0722,0\C,90,1.39173,89,108.073,1,-129.152,0\C,91,1.37418,90,119.461,89,-150.128,0\C,92,1.39549,91,122.331,90,6.09706,0\C,92,1.39785,91,118.795,90,141.987,0\C,94,1.39217,92,118.71,91,-0.918841,0\C,95,1.37346,94,122.759,92,-135.205,0\C,96,1.36231,95,112.88,94,145.31,0\C,96,1.37702,95,119.905,94,-4.56908,0\C,95,1.38564,94,121.087,92,4.66788,0\C,98,1.38567,96,115.26,95,137.237,0\C,100,1.36795,98,125.669,96,8.04538,0\C,100,1.38626,98,108.57,96,-141.369,0\C,101,1.39048,100,118.873,98,2.58876,0\C,99,1.39633,95,121.485,94,-4.08006,0\C,104,1.39285,99,124.267,95,-136.25,0\C,93,1.39856,92,119.854,91,-3.88676,0\C,98,1.4025,96,120.064,95,5.53407,0\C,107,1.40194,98,118.592,96,-3.6514,0\C,108,1.40101,107,118.453,98,137.485,0\C,109,1.40899,108,123.923,107,-0.936877,0\C,110,1.36843,109,122.587,108,-138.964,0\C,111,1.35913,110,120.201,109,2.12437,0\C,112,1.39122,111,122.121,110,132.812,0\C,113,1.40812,112,109.963,111,-143.968,0\C,114,1.35386,113,107.673,112,2.80015,0\C,99,1.40926,95,108.101,94,-142.249,0\C,105,1.41207,104,116.317,99,-0.280853,0\C,117,1.37534,105,123.123,104,-2.92342,0\C,114,1.41525,113,118.912,112,147.311,0\C,119,1.40638,114,118.723,113,-139.018,0\C,120,1.38968,119,107.83,114,134.762,0\C,121,1.38655,120,109.304,119,3.94443,0\C,121,1.38681,120,128.349,119,-143.785,0\C,123,1.36272,121,125.328,120,149.599,0\C,122,1.38971,121,124.67,120,-153.716,0\C,125,1.36692,122,116.096,121,3.89502,0\C,125,1.38498,122,116.205,121,140.859,0\C,126,1.38688,125,103.695,122,137.713,0\C,128,1.38491,126,110.715,125,-2.61363,0\C,122,1.40514,121,107.349,120,-3.78723,0\C,130,1.39912,122,120.776,121,-144.751,0\C,131,1.38741,130,120.841,122,137.428,0\C,131,1.40014,130,121.064,122,-3.94878,0\C,132,1.40713,131,109.14,130,-142.593,0\C,134,1.408,132,106.819,131,-0.775163,0\C,135,1.4094,134,119.398,132,140.574,0\C,136,1.40471,135,118.569,134,-141.135,0\C,137,1.40883,136,104.659,135,140.022,0\C,138,1.37255,137,110.542,136,6.78599,0\C,138,1.37846,137,118.516,136,-142.928,0\C,139,1.4015,138,109.33,137,-4.42016,0\C,140,1.41164,138,126.397,137,-0.92442,0\C,141,1.41234,139,121.261,138,-135.31,0\C,143,1.36497,141,119.796,139,-8.34455,0\C,102,1.41647,100,108.984,98,1.64688,0\C,143,1.41784,141,122.071,139,134.892,0\C,124,1.47733,123,110.403,121,-145.551,0\C,147,1.46843,124,120.611,123,131.45,0\C,148,1.48622,147,62.6944,124,117.337,0\C,149,1.4907,148,121.991,147,98.5723,0\C,150,1.4001,149,119.881,148,-117.74,0\H,151,1.08608,150,121.254,149,-11.6584,0\C,150,1.40181,149,123.232,148,64.583,0\H,153,1.0864,150,121.056,149,7.60533,0\C,153,1.37792,150,122.154,149,-179.515,0\H,155,1.08619,153,119.507,150,177.405,0\C,155,1.37454,153,121.903,150,4.57236,0\H,157,1.08641,155,120.962,153,170.203,0\C,157,1.41643,155,117.713,153,-8.22999,0\H,159,1.08598,157,116.296,155,-173.101,0\C,149,1.51136,148,115.437,147,-114.977,0\H,161,1.09712,149,104.026,148,165.169,0\H,161,1.09728,149,110.133,148,56.4469,0\C,161,1.57202,149,113.659,148,-67.0821,0\H,164,1.09675,161,111.12,149,-49.1679,0\H,164,1.09697,161,107.796,149,68.2341,0\C,164,1.56729,161,111.84,149,-178.162,0\H,167,1.09695,164,114.479,161,-51.0976,0\H,167,1.09739,164,109.463,161,-165.87,0\C,167,1.54202,164,115.232,161,75.6807,0\O,170,1.22146,167,126.91,164,-132.517,0\O,170,1.38486,167,106.404,164,46.3807,0\C,172,1.46299,170,121.167,167,163.96,0\H,173,1.09653,172,108.694,170,-140.926,0\H,173,1.0968,172,109.941,170,-22.6914,0\H,173,1.0968,172,100.124,170,99.984,0\\\@

 Total job time:  861.22s(wall), 8234.90s(cpu) 
 Sat Oct 13 19:58:58 2018

        *************************************************************
        *                                                           *
        *  Thank you very much for using Q-Chem.  Have a nice day.  *
        *                                                           *
        *************************************************************


