
Running Job 1 of 1 ./10/18.qcin
qchem ./10/18.qcin_41254.0 /tmpu/cab_g/afmv_a/scratch_qchem/qchem41254/ 1
/tmpu/appuserlic/qchem4.4/serial-multicore/exe/qcprog.exe_s ./10/18.qcin_41254.0 /tmpu/cab_g/afmv_a/scratch_qchem/qchem41254/
Check license passed

                  Welcome to Q-Chem
     A Quantum Leap Into The Future Of Chemistry


 Q-Chem 4.4, Q-Chem, Inc., Pleasanton, CA (2016)

 Y. Shao,  Z. Gan,  E. Epifanovsky,  A. T. B. Gilbert,  M. Wormit,  
 J. Kussmann,  A. W. Lange,  A. Behn,  J. Deng,  X. Feng,  D. Ghosh,  
 M. Goldey,  P. R. Horn,  L. D. Jacobson,  I. Kaliman,  F. Rob,  
 R. Z. Khaliullin,  T. Kus,  A. Landau,  J. Liu,  E. I. Proynov,  Y. M. Rhee,  
 R. M. Richard,  M. A. Rohrdanz,  R. P. Steele,  E. J. Sundstrom,  
 H. L. Woodcock III,  P. M. Zimmerman,  D. Zuev,  B. Albrecht,  E. Alguire,  
 B. Austin,  S. A. Baeppler,  G. J. O. Beran,  Y. A. Bernard,  E. Berquist,  
 K. Brandhorst,  K. B. Bravaya,  S. T. Brown,  D. Casanova,  C.-M. Chang,  
 Y. Chen,  S. H. Chien,  K. D. Closser,  M. P. Coons,  D. L. Crittenden,  
 S. Dasgupta,  M. Diedenhofen,  R. A. DiStasio Jr.,  H. Do,  A. D. Dutoi,  
 R. G. Edgar,  P.-T. Fang,  S. Fatehi,  Q. Feng,  L. Fusti-Molnar,  
 A. Ghysels,  A. Golubeva-Zadorozhnaya,  J. Gomes,  A. Gunina,  
 M. W. D. Hanson-Heine,  P. H. P. Harbach,  A. W. Hauser,  J. E. Herr,  
 E. G. Hohenstein,  Z. C. Holden,  K. Hui,  T.-C. Jagau,  H. Ji,  B. Kaduk,  
 K. Khistyaev,  Jaehoon Kim,  Jihan Kim,  R. A. King,  P. Klunzinger,  
 K. Koh,  D. Kosenkov,  T. Kowalczyk,  C. M. Krauter,  A. Kunitsa,  
 K. U. Lao,  A. Laurent,  K. V. Lawler,  J. Lee,  D. Lefrancois,  S. Lehtola,  
 S. V. Levchenko,  C. Y. Lin,  Y.-S. Lin,  F. Liu,  E. Livshits,  
 R. C. Lochan,  A. Luenser,  P. Manohar,  S. F. Manzer,  S.-P. Mao,  Y. Mao,  
 N. Mardirossian,  A. V. Marenich,  L. A. Martinez-Martinez,  S. A. Maurer,  
 N. J. Mayhall,  J.-M. Mewes,  A. F. Morrison,  K. Nanda,  T. S. Nguyen-Beck,  
 C. M. Oana,  R. Olivares-Amaya,  D. P. O'Neill,  J. A. Parkhill,  
 T. M. Perrine,  R. Peverati,  P. A. Pieniazek,  F. Plasser,  A. Prociuk,  
 D. R. Rehn,  E. Rosta,  N. J. Russ,  N. Sergueev,  S. M. Sharada,  
 S. Sharma,  D. W. Small,  A. Sodt,  T. Stauch,  T. Stein,  D. Stuck,  
 Y.-C. Su,  A. J. W. Thom,  T. Tsuchimochi,  L. Vogt,  O. Vydrov,  T. Wang,  
 M. A. Watson,  J. Wenzel,  A. White,  C. F. Williams,  V. Vanovschi,  
 K. Yao,  S. Yeganeh,  S. R. Yost,  Z.-Q. You,  I. Y. Zhang,  X. Zhang,  
 Y. Zhao,  B. R. Brooks,  G. K. L. Chan,  D. M. Chipman,  C. J. Cramer,  
 W. A. Goddard III,  M. S. Gordon,  W. J. Hehre,  A. Klamt,  
 H. F. Schaefer III,  M. W. Schmidt,  C. D. Sherrill,  D. G. Truhlar,  
 A. Warshel,  X. Xu,  A. Aspuru-Guzik,  R. Baer,  A. T. Bell,  N. A. Besley,  
 J.-D. Chai,  A. Dreuw,  B. D. Dunietz,  T. R. Furlani,  S. R. Gwaltney,  
 C.-P. Hsu,  Y. Jung,  J. Kong,  D. S. Lambrecht,  W. Liang,  C. Ochsenfeld,  
 V. A. Rassolov,  L. V. Slipchenko,  J. E. Subotnik,  T. Van Voorhis,  
 J. M. Herbert,  A. I. Krylov,  P. M. W. Gill,  M. Head-Gordon

 Contributors to earlier versions of Q-Chem not listed above: 
 R. D. Adamson,  J. Baker,  E. F. C. Byrd,  A. K. Chakraborty,  C.-L. Cheng,  
 H. Dachsel,  R. J. Doerksen,  G. Hawkins,  A. Heyden,  S. Hirata,  
 G. Kedziora,  F. J. Keil,  C. Kelley,  P. P. Korambath,  W. Kurlancheek,  
 A. M. Lee,  M. S. Lee,  D. Liotard,  I. Lotan,  P. E. Maslen,  N. Nair,  
 D. Neuhauser,  R. Olson,  B. Peters,  J. Ritchie,  N. E. Schultz,  
 N. Shenvi,  A. C. Simmonett,  K. S. Thanthiriwatte,  Q. Wu,  W. Zhang

 Please cite Q-Chem as follows:
 Y. Shao et al., Mol. Phys. 113, 184-215 (2015)
 DOI: 10.1080/00268976.2014.952696

 Q-Chem 4.4.2 for Intel X86 Linux

 Parts of Q-Chem use Armadillo 5.200.1 (Boston Tea Smuggler).
 http://arma.sourceforge.net/

 Q-Chem begins on Sat Oct 13 19:58:59 2018  

Host: 
0

     Scratch files written to /tmpu/cab_g/afmv_a/scratch_qchem/qchem41254//
 Dec716 11556_ 22328  22283 4050   
Processing $rem in /tmpu/appuserlic/qchem4.4/serial-multicore/config/preferences.
 MEM_TOTAL  2000 
FILE_GEOM_ORG=        593

Checking the input file for inconsistencies... 	...done.

--------------------------------------------------------------
User input:
--------------------------------------------------------------
$comment
SP
$end

$rem
MEM_STATIC 5000
MEM_TOTAL 20000
JOBTYPE SP
EXCHANGE B3LYP
BASIS 6-31g(d,p)
$end

$molecule
0 1
O          15.944000     16.977000      0.331000
C          17.199000     17.527000      0.317000
H          17.190000     18.497000     -0.195000
H          17.903000     16.907000     -0.252000
H          17.542000     17.659000      1.351000
O          15.791000     16.556000     -1.901000
C          15.301000     16.451000     -0.787000
C          13.998000     15.704000     -0.507000
H          13.169000     16.350000     -0.824000
H          13.915000     15.669000      0.586000
C          13.729000     14.407000     -1.220000
H          12.666000     14.328000     -1.480000
H          14.236000     14.505000     -2.188000
C          14.091000     13.146000     -0.408000
H          14.380000     13.348000      0.631000
H          13.138000     12.649000     -0.191000
C          15.194000     12.256000     -1.051000
C          16.569000     12.746000     -0.835000
C          17.101000     13.658000     -1.740000
H          16.448000     13.945000     -2.559000
C          18.453000     14.114000     -1.542000
H          18.921000     14.833000     -2.208000
C          19.256000     13.741000     -0.443000
H          20.295000     14.039000     -0.338000
C          18.640000     12.952000      0.527000
H          19.155000     12.481000      1.359000
C          17.312000     12.433000      0.310000
H          16.939000     11.594000      0.891000
C          16.811000      9.427000     -5.454000
C          17.702000      8.146000     -3.696000
C          14.783000      4.664000     -4.168000
C          11.789000     10.286000     -4.958000
C          12.648000      5.853000     -1.585000
C          17.450000      9.405000     -4.181000
C          10.772000      8.019000     -3.643000
C          15.927000      5.958000     -5.819000
C          15.398000      8.576000     -0.361000
C          11.581000     10.267000     -3.557000
C          14.963000     10.762000     -1.035000
C          13.980000      8.755000     -0.246000
C          11.630000      9.083000     -1.664000
C          10.985000      6.735000     -3.101000
C          17.014000      9.516000     -1.993000
C          12.512000      4.999000     -3.876000
C          14.932000     11.573000     -2.320000
C          13.632000     11.569000     -3.168000
C          13.113000      4.957000     -2.602000
C          13.082000      7.606000     -6.863000
C          13.496000      5.552000     -6.081000
C          14.765000      6.047000     -6.586000
C          16.848000      7.043000     -5.699000
C          13.940000     11.387000     -4.551000
C          15.994000      9.678000     -0.942000
C          17.385000      7.000000     -4.428000
C          11.042000      9.169000     -2.948000
C          17.467000      8.185000     -2.294000
C          13.031000      7.685000     -0.348000
C          13.476000     10.001000     -6.463000
C          15.953000      5.248000     -4.618000
C          13.671000     10.044000     -0.703000
C          15.352000      8.460000     -6.957000
C          11.833000      7.850000     -1.067000
C          15.855000      7.338000     -0.638000
C          11.500000      6.669000     -5.310000
C          10.988000      7.997000     -5.046000
C          14.983000      6.246000     -0.843000
C          12.964000     10.845000     -5.463000
C          12.497000     10.888000     -2.736000
C          12.594000      8.910000     -6.584000
C          15.923000     11.185000     -3.391000
C          16.600000      5.920000     -2.376000
C          12.524000     10.145000     -1.510000
C          13.558000      6.459000     -0.744000
C          14.879000      9.739000     -6.645000
C          14.508000      4.786000     -2.815000
C          16.515000      8.298000     -6.249000
C          13.534000      4.820000     -4.834000
C          16.851000      7.104000     -1.673000
C          15.452000      5.384000     -1.870000
C          17.029000     10.263000     -3.157000
C          15.345000     11.226000     -4.697000
C          12.510000      6.508000     -6.255000
C          16.869000      5.848000     -3.795000
C          11.550000      6.700000     -1.775000
C          11.509000      9.110000     -5.704000
C          11.463000      5.873000     -4.079000
C          15.771000     10.344000     -5.709000
C          14.464000      7.355000     -7.041000
O          22.663000      6.280000     -0.755000
C          24.002000      6.711000     -0.826000
H          24.466000      6.817000      0.162000
H          24.046000      7.738000     -1.211000
H          24.564000      6.046000     -1.493000
O          22.044000      8.316000      0.039000
C          21.767000      7.173000     -0.351000
C          20.397000      6.674000     -0.618000
H          20.239000      6.533000     -1.695000
H          19.709000      7.436000     -0.232000
C          20.084000      5.405000      0.147000
H          20.647000      5.314000      1.084000
H          19.038000      5.390000      0.477000
C          20.308000      4.096000     -0.737000
H          19.646000      4.047000     -1.610000
H          21.352000      4.137000     -1.072000
C          20.024000      2.756000      0.011000
C          20.721000      2.689000      1.257000
C          22.089000      2.535000      1.230000
H          22.649000      2.392000      0.310000
C          22.809000      2.547000      2.431000
H          23.889000      2.473000      2.341000
C          22.194000      2.898000      3.612000
H          22.823000      3.051000      4.485000
C          20.839000      3.145000      3.655000
H          20.232000      3.424000      4.512000
C          20.105000      2.968000      2.453000
H          19.080000      3.323000      2.514000
C          19.958000     -2.637000     -0.386000
C          18.395000     -2.226000      1.413000
C          14.634000     -3.225000     -0.746000
C          18.766000     -0.017000     -4.505000
C          13.857000      0.099000     -1.556000
C          19.592000     -1.924000      0.787000
C          15.975000      0.239000     -4.450000
C          16.774000     -4.284000     -0.831000
C          16.688000      1.321000      0.983000
C          18.179000      1.130000     -4.051000
C          18.738000      2.037000     -0.086000
C          16.372000      2.054000     -0.185000
C          16.414000      2.045000     -2.923000
C          14.747000     -0.008000     -3.840000
C          18.631000     -0.006000      1.444000
C          14.126000     -2.009000     -2.682000
C          19.886000      1.469000     -0.795000
C          19.772000      1.322000     -2.201000
C          13.694000     -1.330000     -1.553000
C          17.660000     -3.373000     -4.010000
C          15.748000     -3.823000     -2.909000
C          16.816000     -4.376000     -2.216000
C          17.937000     -3.994000     -0.131000
C          20.353000      0.105000     -2.629000
C          18.081000      1.273000      1.055000
C          17.553000     -3.318000      1.041000
C          16.783000      1.280000     -3.990000
C          17.826000     -1.067000      1.811000
C          15.176000      1.805000     -0.828000
C          19.680000     -1.946000     -3.795000
C          15.632000     -3.787000     -0.078000
C          17.543000      2.445000     -0.810000
C          19.174000     -3.695000     -2.167000
C          15.175000      1.776000     -2.221000
C          15.839000      0.347000      1.423000
C          15.681000     -1.981000     -4.500000
C          16.505000     -0.979000     -4.895000
C          14.695000     -0.004000      0.715000
C          19.846000     -0.548000     -3.785000
C          18.624000      1.746000     -2.844000
C          18.518000     -2.314000     -4.508000
C          20.328000      0.137000     -0.378000
C          15.601000     -1.949000      1.442000
C          17.562000      2.362000     -2.219000
C          14.393000      0.716000     -0.426000
C          19.966000     -2.613000     -2.618000
C          13.975000     -2.031000     -0.353000
C          19.115000     -3.707000     -0.795000
C          14.690000     -3.209000     -2.218000
C          16.462000     -0.862000      1.868000
C          14.448000     -1.372000      0.804000
C          19.800000     -0.495000      0.750000
C          20.767000     -0.609000     -1.520000
C          16.242000     -3.180000     -4.056000
C          16.180000     -3.136000      1.032000
C          14.364000      0.716000     -2.693000
C          17.947000     -1.083000     -4.914000
C          14.591000     -1.390000     -3.848000
C          20.541000     -1.991000     -1.465000
C          17.994000     -4.054000     -2.879000
$end

--------------------------------------------------------------
 ----------------------------------------------------------------
             Standard Nuclear Orientation (Angstroms)
    I     Atom           X                Y                Z
 ----------------------------------------------------------------
    1      O      11.6542737872     3.5103148893    -1.7636061857
    2      C      11.9418528219     4.6367081539    -1.0381701015
    3      H      12.9366146255     4.5592802246    -0.5825618598
    4      H      11.2482573613     4.7608704592    -0.1971670938
    5      H      11.9082021701     5.5080975199    -1.7043361517
    6      O      11.4769969569     2.0750019967    -0.0055038491
    7      C      11.3709824896     2.2651182903    -1.2074762812
    8      C      10.8765799908     1.2027413573    -2.1878534645
    9      H      11.7010435105     0.4986199845    -2.3596643988
   10      H      10.7595940983     1.7257087655    -3.1447141602
   11      C       9.7296155267     0.3147309555    -1.7892947558
   12      H       9.8882016476    -0.7043128757    -2.1637411635
   13      H       9.8121329812     0.2166858127    -0.6996824304
   14      C       8.3532428989     0.7787732786    -2.3096524327
   15      H       8.3982056714     1.6243618626    -3.0073660528
   16      H       8.0386793279     0.0191140248    -3.0351002791
   17      C       7.3233605900     1.1267890056    -1.1959264863
   18      C       7.5075491632     2.4630307113    -0.5976676180
   19      C       8.3735534613     2.5957329566     0.4822488925
   20      H       8.8582936174     1.6818072964     0.8128632733
   21      C       8.5307932876     3.8961743637     1.0815583148
   22      H       9.1995233749     4.0660528994     1.9202968638
   23      C       7.9067646058     5.0659300258     0.5978239918
   24      H       7.9807339066     6.0281775239     1.0957781011
   25      C       7.1716122571     4.9274357016    -0.5782913709
   26      H       6.5336900472     5.6970506428    -1.0026003342
   27      C       6.9498455215     3.6223890143    -1.1507480583
   28      H       6.1528152057     3.4569122464    -1.8704501598
   29      C       4.6410334272    -0.5849172788     3.2627192260
   30      C       3.0536105333     0.8199570067     2.2469324386
   31      C       0.2814316903    -2.5523012272     0.9013590046
   32      C       6.4357047485    -4.1898128200     0.1022977373
   33      C       1.6324663211    -2.6095242781    -2.3872981604
   34      C       4.3763559024     0.6232621455     2.5559078747
   35      C       4.3071090734    -4.7837026656    -1.6352805496
   36      C       1.4659156399    -2.2498915954     2.9542884208
   37      C       3.6294302236     0.8730684342    -1.7880584982
   38      C       6.3312537042    -3.5960681607    -1.1794913479
   39      C       5.9103165366     0.6255302816    -1.3900892906
   40      C       4.0764475498    -0.1722442749    -2.6618358441
   41      C       4.9941372276    -2.7774235425    -2.7699775997
   42      C       2.9625672289    -4.5927912603    -2.0141592424
   43      C       4.3726531095     1.4910596829     0.4975894533
   44      C       1.0346951979    -4.1570120303    -0.5860640443
   45      C       6.8246262970     0.0732251986    -0.3089307651
   46      C       7.1571291335    -1.4428156036    -0.3224270558
   47      C       0.7579924951    -2.9833474284    -1.3154391305
   48      C       3.7362216505    -4.7653998950     2.3079188568
   49      C       1.5784924650    -4.4472378067     1.8131323901
   50      C       1.8542659107    -3.5899051980     2.9530187023
   51      C       2.3299155420    -1.2046465497     3.4024323301
   52      C       7.0438864182    -1.9893134169     0.9925608634
   53      C       4.6385852749     1.2758033944    -0.9356550526
   54      C       2.0652751423    -0.0846036224     2.6401146142
   55      C       5.3120862001    -3.9365238767    -2.0235254136
   56      C       3.0110432048     1.4049562054     0.9514348662
   57      C       3.2310307565    -1.2270490982    -3.1399176679
   58      C       5.9580115834    -3.7099302414     2.2780139299
   59      C       0.6587852112    -1.7257158463     1.9438641261
   60      C       5.4372860726    -0.3932420536    -2.4066310307
   61      C       4.1252339778    -2.7960342422     3.6722209990
   62      C       3.6963481092    -2.5534936058    -3.1983533549
   63      C       2.3555781379     0.8234408045    -1.3486726062
   64      C       2.9963281672    -5.3984406389     0.1069374735
   65      C       4.3701435299    -5.3809391006    -0.3488574863
   66      C       1.4827046272    -0.2301653479    -1.6992134880
   67      C       6.7926704589    -3.3946660152     1.1924573772
   68      C       6.6797906909    -2.2719169314    -1.3340341927
   69      C       5.0804697671    -4.7254757271     1.8520635488
   70      C       6.3457937537     0.2052028590     1.1168908551
   71      C       0.9815167436     0.1689197271     0.4596278235
   72      C       5.8379900462    -1.7404001990    -2.3658847816
   73      C       1.9657461678    -1.2825343373    -2.5623388440
   74      C       5.4390974424    -2.7313404919     3.1963097518
   75      C       0.3322797137    -2.0084953062    -0.3725356531
   76      C       3.6708249011    -1.5032647243     3.7205569540
   77      C       0.7433206314    -3.8929614017     0.7702792483
   78      C       2.0227291144     1.0124599211     0.0554215150
   79      C       0.6415153907    -0.5988667825    -0.6156111991
   80      C       5.2043413485     1.0282815694     1.5012134321
   81      C       6.6198432140    -0.9675731808     1.8855873192
   82      C       2.7237271255    -5.1330937110     1.4464618965
   83      C       0.9866510833    -0.4050135167     1.7869108642
   84      C       2.6951460644    -3.4182957629    -2.8064800406
   85      C       5.4119922310    -5.0785916297     0.5265345921
   86      C       2.1151270729    -4.9274192238    -0.9663609278
   87      C       5.7663529885    -1.3671781344     2.9322077452
   88      C       3.2318648043    -3.7992288173     3.2116592069
   89      O      -0.0239457450     6.0370986505     2.4772331632
   90      C       0.1359565733     7.1745237740     3.2923517662
   91      H       0.0569871355     8.1130035097     2.7304837981
   92      H       1.1642121302     7.2217391487     3.6736013145
   93      H      -0.5643100435     7.1205106184     4.1347692662
   94      O       2.0137960763     6.4110169779     1.5462732533
   95      C       0.9893097043     5.7264697471     1.6770431366
   96      C       0.7999804336     4.3644377110     1.1236778323
   97      H       0.7918608492     3.6172213673     1.9276528368
   98      H       1.6455720315     4.1838653124     0.4488797451
   99      C      -0.4452909558     4.2550910848     0.2687524073
  100      H      -0.7315774669     5.2031437151    -0.2028992051
  101      H      -0.2813038413     3.5862632165    -0.5850733998
  102      C      -1.6867454178     3.6697308458     1.0819296386
  103      H      -1.5231275806     2.6463170936     1.4405763939
  104      H      -1.8245113092     4.3398310650     1.9397339610
  105      C      -3.0055282924     3.5591862181     0.2546741672
  106      C      -3.3232245365     4.7897795367    -0.3991784006
  107      C      -3.7438793937     5.8481785767     0.3745851055
  108      H      -3.9114364559     5.7671174856     1.4450068590
  109      C      -3.9849924599     7.0898567270    -0.2262849808
  110      H      -4.2644208518     7.8981690818     0.4434365366
  111      C      -3.6272582783     7.3141442813    -1.5369750083
  112      H      -3.6828235268     8.3333631068    -1.9101833800
  113      C      -3.1199132248     6.2951259944    -2.3135609519
  114      H      -2.8045605786     6.3331410727    -3.3527176111
  115      C      -3.0369037631     5.0058861178    -1.7254631967
  116      H      -2.4916427224     4.2869849682    -2.3306429507
  117      C      -8.2180961439     2.1221514555     0.3570532885
  118      C      -7.6689349395     1.9305827777    -1.9902887005
  119      C      -7.6971552804    -2.5080872614    -2.3093731668
  120      C      -5.0495061584    -0.5275738979     3.2189439319
  121      C      -4.2253659711    -2.8604492162    -1.9469851908
  122      C      -7.5561034463     2.6217669633    -0.7963781194
  123      C      -4.2480525779    -2.6995588110     1.6383125089
  124      C      -9.1495047186    -1.0527509077    -1.0924166323
  125      C      -3.8286307106     1.0820397526    -2.4507191125
  126      C      -3.8546070355    -0.5059914603     2.5570947915
  127      C      -3.4417200414     2.3104660639    -0.4015275812
  128      C      -2.9442183318     0.3463243576    -1.6273682749
  129      C      -2.7123964671    -1.1188365082     0.6743813336
  130      C      -4.2995836711    -3.4126685858     0.4425232316
  131      C      -5.5528196560     2.6186279050    -1.8066940115
  132      C      -6.2333566429    -3.7145745359    -0.9358747120
  133      C      -4.1604077356     2.7284412576     0.8034594460
  134      C      -4.1532398232     1.8356126504     1.9053880731
  135      C      -5.5873717786    -3.2997561179    -2.0904028559
  136      C      -8.1482972182    -1.8774020281     2.0759413132
  137      C      -8.3061122882    -2.9191733462     0.0859031416
  138      C      -9.1216992517    -1.7960222727     0.0802843245
  139      C      -9.1621797171     0.3334167009    -1.0213694277
  140      C      -5.4176040035     1.8082527143     2.5397922450
  141      C      -4.1598526316     2.2377233177    -1.7417589328
  142      C      -8.5326059763     0.8099229986    -2.1852399759
  143      C      -3.4353619180    -1.5693111180     1.7394017948
  144      C      -6.4608255209     1.9386980816    -2.5951455221
  145      C      -2.8901417752    -1.0264972125    -1.7626556091
  146      C      -7.1784561719     0.1826696413     3.0651162532
  147      C      -8.5052880613    -1.4571712848    -2.3332272774
  148      C      -2.7394565508     1.0362775540    -0.4455120232
  149      C      -8.9320350995     0.2852931342     1.3681040661
  150      C      -2.7915644914    -1.7952950632    -0.6048458735
  151      C      -4.6496147608     0.4252582561    -3.3211789076
  152      C      -6.3508716548    -3.4449054124     1.4384466196
  153      C      -5.5016742912    -2.7776811111     2.2586176807
  154      C      -4.6995183209    -0.9631111579    -3.3772235772
  155      C      -5.8484769153     0.6248059988     3.1982726209
  156      C      -3.4521056435     0.6471921486     1.8205554555
  157      C      -7.2409013824    -1.2266700282     3.0026719436
  158      C      -5.5860906566     3.0258389396     0.6535934135
  159      C      -6.8440294360    -0.2535033227    -3.5501940875
  160      C      -2.6961000531     0.2632263670     0.7347604353
  161      C      -3.8330373883    -1.6755509654    -2.5690618891
  162      C      -7.9933085209     0.9133181199     2.2200230927
  163      C      -6.4364914166    -2.5679295615    -2.9586123535
  164      C      -9.0567382057     0.9852094675     0.1931252315
  165      C      -7.5588575901    -3.2642465248    -1.0526819091
  166      C      -5.9939369442     0.9109707241    -3.3898539816
  167      C      -5.9930738700    -1.4101382722    -3.6365203192
  168      C      -6.1999813624     3.0788792933    -0.5997688335
  169      C      -6.2976600037     2.5950808437     1.8204342454
  170      C      -7.6729798555    -3.0077239093     1.3366613598
  171      C      -8.0803611858    -0.2661488737    -2.9308122226
  172      C      -3.6211034513    -2.9386409511    -0.6982819195
  173      C      -5.8890324481    -1.6442387992     3.0684344402
  174      C      -5.6161285036    -3.8421620639     0.3138023850
  175      C      -7.6059718316     2.1434189596     1.6005554073
  176      C      -8.9821999343    -1.1361118000     1.2951897153
 ----------------------------------------------------------------
 Molecular Point Group                 C1    NOp =  1
 Largest Abelian Subgroup              C1    NOp =  1
 Nuclear Repulsion Energy = 34716.0014728046 hartrees
 There are      462 alpha and      462 beta electrons
 Requested basis set is 6-31G(d,p)
 There are 676 shells and 2360 basis functions

 Total QAlloc Memory Limit  20000 MB
 Mega-Array Size      4888 MB
 MEM_STATIC part      5000 MB
 A cutoff of  1.0D-08 yielded  38127 shell pairs
 There are    533110 function pairs
 
 -------------------------------------------------------
 OpenMP Integral Computing Module                       
 Release: version 1.0, May 2013, Q-Chem Inc. Pittsburgh 
 -------------------------------------------------------
 Integral Job Info:
 Integral job number is                      11
 Integral operator is                         1
 short-range coefficients                     0
 long-range coefficients              100000000
 Omega coefficients                           0
 if combine SR and LR in K                    0
 Integral screening is                        0
 Integral computing path is                   2
 max size of driver memory is            800000
 size of driver memory is                593474
 size of scratch memory is              2260544
 max col of scratch BK array               1296
 max len of scratch array in speh3          155
 max len of scratch index in speh4           18
 max int batch size is                      520
 min int batch size is                       52
 fixed nKL is                                52
 max L of basis functions is                  2
 order of int derivative is                   0
 number of shells is                        676
 number of basis is                        2360
 number of cartesian basis is              2360
 number of contracted shell pairs         38127
 number of primitive shell pairs         115105
 maxK2 (contraction) of shell pair           36
 max number of K2 of shell pair               1
 max number of CS2 of shell pair           7252
 max number of PS2 of shell pair          34776
 mem total for path MDJ                 1514648
 -------------------------------------------------------
 Smallest overlap matrix eigenvalue = 2.31E-04

 Scale SEOQF with 1.000000e-02/1.000000e-02/1.000000e-01

 Standard Electronic Orientation quadrupole field applied
 Nucleus-field energy     =    -0.0000002011 hartrees
 Guess from superposition of atomic densities
 Warning:  Energy on first SCF cycle will be non-variational
 A restricted hybrid HF-DFT SCF calculation will be
 performed using Pulay DIIS extrapolation
 Exchange:     0.2000 Hartree-Fock + 0.0800 Slater + 0.7200 B88
 Correlation:  0.1900 VWN1RPA + 0.8100 LYP
 Using SG-1 standard quadrature grid
 SCF converges when DIIS error is below 1.0E-05
 using 16 threads for integral computing 
 -------------------------------------------------------
 OpenMP BLAS3 based DFT computing Module                
 Release: version 1.0, May 2013, Q-Chem Inc. Pittsburgh 
 -------------------------------------------------------
 ---------------------------------------
  Cycle       Energy         DIIS Error
 ---------------------------------------
    1   -5858.9120992895      1.84E-02
    2   -5803.1160485031      1.29E-03
    3   -5802.4287376157      1.75E-03
    4   -5804.0028217559      6.17E-04
    5   -5804.2028516075      2.83E-04
    6   -5804.2525708899      1.30E-04
    7   -5804.2638937365      4.51E-05
    8   -5804.2647648105      2.94E-05
    9   -5804.2654444720      7.92E-06 Convergence criterion met
 ---------------------------------------
 SCF time:  CPU 8303.92 s  wall 858.11 s
 SCF   energy in the final basis set = -5804.2654444720
 Total energy in the final basis set = -5804.2654444720
 
 --------------------------------------------------------------
 
                    Orbital Energies (a.u.)
 --------------------------------------------------------------
 
 Alpha MOs
 -- Occupied --
-19.203 -19.187 -19.139 -19.134 -10.324 -10.315 -10.245 -10.244
-10.241 -10.240 -10.238 -10.238 -10.231 -10.230 -10.229 -10.229
-10.228 -10.227 -10.227 -10.226 -10.226 -10.225 -10.225 -10.223
-10.223 -10.223 -10.222 -10.221 -10.221 -10.220 -10.220 -10.220
-10.220 -10.219 -10.219 -10.219 -10.219 -10.219 -10.218 -10.218
-10.218 -10.218 -10.218 -10.218 -10.217 -10.217 -10.217 -10.217
-10.216 -10.216 -10.216 -10.216 -10.216 -10.216 -10.216 -10.216
-10.216 -10.216 -10.216 -10.215 -10.215 -10.215 -10.215 -10.215
-10.214 -10.214 -10.214 -10.214 -10.214 -10.214 -10.214 -10.214
-10.214 -10.214 -10.213 -10.213 -10.213 -10.213 -10.213 -10.212
-10.212 -10.212 -10.212 -10.212 -10.212 -10.212 -10.212 -10.212
-10.212 -10.212 -10.212 -10.211 -10.211 -10.211 -10.211 -10.211
-10.211 -10.211 -10.211 -10.211 -10.211 -10.211 -10.211 -10.211
-10.211 -10.211 -10.210 -10.210 -10.210 -10.209 -10.209 -10.209
-10.209 -10.209 -10.209 -10.209 -10.208 -10.208 -10.208 -10.207
-10.207 -10.207 -10.207 -10.207 -10.207 -10.207 -10.205 -10.205
-10.205 -10.205 -10.204 -10.203 -10.202 -10.202 -10.201 -10.201
-10.200 -10.199 -10.199 -10.198 -10.197 -10.197 -10.197 -10.196
-10.194 -10.193 -10.193 -10.193  -1.116  -1.095  -1.015  -1.006
 -0.985  -0.981  -0.970  -0.965  -0.963  -0.961  -0.961  -0.958
 -0.938  -0.936  -0.927  -0.927  -0.926  -0.924  -0.924  -0.922
 -0.920  -0.917  -0.898  -0.897  -0.890  -0.887  -0.886  -0.883
 -0.880  -0.873  -0.860  -0.848  -0.842  -0.842  -0.840  -0.839
 -0.837  -0.834  -0.820  -0.820  -0.810  -0.809  -0.799  -0.798
 -0.795  -0.795  -0.794  -0.793  -0.792  -0.791  -0.785  -0.782
 -0.773  -0.772  -0.772  -0.768  -0.768  -0.765  -0.765  -0.763
 -0.751  -0.748  -0.745  -0.737  -0.735  -0.733  -0.718  -0.718
 -0.715  -0.713  -0.712  -0.711  -0.711  -0.710  -0.709  -0.709
 -0.707  -0.706  -0.705  -0.704  -0.703  -0.702  -0.674  -0.673
 -0.660  -0.659  -0.658  -0.657  -0.647  -0.646  -0.632  -0.631
 -0.629  -0.627  -0.625  -0.624  -0.624  -0.620  -0.619  -0.617
 -0.617  -0.614  -0.614  -0.612  -0.611  -0.610  -0.609  -0.609
 -0.608  -0.605  -0.603  -0.601  -0.576  -0.568  -0.564  -0.562
 -0.562  -0.561  -0.558  -0.558  -0.556  -0.555  -0.554  -0.554
 -0.541  -0.534  -0.532  -0.531  -0.530  -0.528  -0.527  -0.523
 -0.522  -0.519  -0.519  -0.518  -0.515  -0.515  -0.513  -0.513
 -0.510  -0.510  -0.506  -0.502  -0.492  -0.491  -0.489  -0.487
 -0.487  -0.485  -0.483  -0.482  -0.481  -0.480  -0.476  -0.475
 -0.475  -0.473  -0.472  -0.471  -0.468  -0.467  -0.466  -0.465
 -0.464  -0.463  -0.463  -0.462  -0.462  -0.460  -0.459  -0.458
 -0.455  -0.454  -0.453  -0.452  -0.450  -0.449  -0.444  -0.443
 -0.442  -0.440  -0.440  -0.439  -0.437  -0.436  -0.434  -0.433
 -0.432  -0.431  -0.429  -0.427  -0.426  -0.426  -0.426  -0.424
 -0.424  -0.423  -0.421  -0.420  -0.419  -0.419  -0.418  -0.417
 -0.416  -0.416  -0.415  -0.415  -0.414  -0.413  -0.412  -0.412
 -0.411  -0.411  -0.409  -0.407  -0.405  -0.401  -0.397  -0.396
 -0.396  -0.393  -0.393  -0.391  -0.388  -0.388  -0.385  -0.384
 -0.375  -0.374  -0.372  -0.372  -0.369  -0.367  -0.366  -0.366
 -0.365  -0.364  -0.363  -0.362  -0.361  -0.361  -0.360  -0.358
 -0.358  -0.356  -0.355  -0.354  -0.353  -0.353  -0.352  -0.351
 -0.350  -0.349  -0.347  -0.345  -0.345  -0.344  -0.342  -0.341
 -0.340  -0.340  -0.338  -0.338  -0.337  -0.336  -0.335  -0.334
 -0.332  -0.330  -0.329  -0.327  -0.327  -0.326  -0.325  -0.323
 -0.314  -0.308  -0.303  -0.292  -0.286  -0.284  -0.273  -0.272
 -0.271  -0.269  -0.268  -0.267  -0.267  -0.265  -0.265  -0.263
 -0.262  -0.262  -0.260  -0.258  -0.257  -0.255  -0.253  -0.252
 -0.251  -0.246  -0.242  -0.241  -0.222  -0.219  -0.215  -0.212
 -0.212  -0.208  -0.205  -0.201  -0.199  -0.195
 -- Virtual --
 -0.123  -0.122  -0.121  -0.113  -0.112  -0.105  -0.079  -0.074
 -0.071  -0.067  -0.061  -0.061  -0.053  -0.051  -0.025  -0.023
 -0.021  -0.019  -0.019  -0.017  -0.015  -0.013  -0.013  -0.012
 -0.010  -0.010  -0.009  -0.007  -0.006  -0.005  -0.003   0.000
  0.003   0.008   0.035   0.037   0.042   0.042   0.046   0.047
  0.049   0.051   0.054   0.057   0.060   0.064   0.066   0.068
  0.070   0.078   0.080   0.080   0.083   0.086   0.089   0.092
  0.094   0.095   0.100   0.101   0.103   0.104   0.105   0.106
  0.107   0.109   0.116   0.116   0.117   0.120   0.121   0.121
  0.123   0.124   0.125   0.128   0.132   0.133   0.134   0.139
  0.140   0.141   0.141   0.147   0.147   0.151   0.155   0.156
  0.158   0.160   0.161   0.163   0.165   0.166   0.167   0.168
  0.171   0.174   0.176   0.177   0.178   0.178   0.181   0.183
  0.184   0.186   0.187   0.188   0.190   0.192   0.193   0.194
  0.198   0.198   0.199   0.202   0.204   0.207   0.209   0.209
  0.210   0.211   0.214   0.215   0.215   0.217   0.218   0.221
  0.221   0.222   0.223   0.226   0.227   0.229   0.231   0.232
  0.234   0.236   0.237   0.238   0.239   0.240   0.242   0.246
  0.246   0.249   0.250   0.254   0.256   0.260   0.262   0.267
  0.269   0.271   0.274   0.276   0.277   0.279   0.280   0.281
  0.285   0.287   0.288   0.294   0.297   0.298   0.301   0.305
  0.306   0.308   0.312   0.315   0.315   0.318   0.318   0.319
  0.320   0.321   0.323   0.324   0.326   0.328   0.332   0.336
  0.337   0.339   0.341   0.343   0.343   0.345   0.349   0.349
  0.351   0.352   0.358   0.365   0.367   0.380   0.383   0.385
  0.396   0.396   0.398   0.403   0.405   0.407   0.408   0.409
  0.410   0.413   0.414   0.416   0.418   0.420   0.421   0.422
  0.430   0.432   0.433   0.436   0.438   0.441   0.443   0.445
  0.448   0.453   0.455   0.456   0.458   0.459   0.460   0.461
  0.462   0.466   0.467   0.469   0.472   0.472   0.474   0.475
  0.476   0.479   0.481   0.481   0.483   0.484   0.485   0.487
  0.487   0.489   0.490   0.491   0.492   0.493   0.494   0.495
  0.497   0.498   0.499   0.499   0.502   0.504   0.504   0.505
  0.506   0.508   0.508   0.509   0.510   0.510   0.510   0.512
  0.513   0.514   0.514   0.515   0.516   0.518   0.518   0.519
  0.520   0.521   0.522   0.523   0.524   0.526   0.527   0.527
  0.527   0.528   0.529   0.530   0.531   0.531   0.532   0.533
  0.534   0.535   0.537   0.537   0.538   0.538   0.539   0.539
  0.540   0.540   0.542   0.543   0.543   0.544   0.545   0.545
  0.546   0.547   0.547   0.549   0.550   0.551   0.552   0.552
  0.553   0.554   0.554   0.555   0.555   0.556   0.558   0.558
  0.560   0.560   0.561   0.562   0.562   0.564   0.565   0.565
  0.567   0.567   0.568   0.569   0.570   0.571   0.572   0.573
  0.573   0.574   0.575   0.575   0.577   0.578   0.579   0.579
  0.581   0.581   0.582   0.583   0.584   0.585   0.586   0.588
  0.588   0.589   0.591   0.591   0.592   0.593   0.593   0.593
  0.593   0.594   0.595   0.596   0.597   0.597   0.599   0.599
  0.601   0.602   0.604   0.605   0.605   0.607   0.608   0.609
  0.610   0.611   0.613   0.615   0.615   0.615   0.618   0.618
  0.619   0.620   0.621   0.622   0.623   0.625   0.625   0.627
  0.627   0.629   0.629   0.630   0.631   0.633   0.633   0.634
  0.635   0.636   0.636   0.638   0.639   0.639   0.641   0.642
  0.643   0.643   0.645   0.645   0.647   0.647   0.648   0.650
  0.651   0.651   0.652   0.653   0.653   0.655   0.656   0.657
  0.658   0.659   0.660   0.661   0.662   0.663   0.664   0.665
  0.665   0.666   0.667   0.667   0.668   0.669   0.670   0.670
  0.671   0.672   0.673   0.674   0.675   0.676   0.677   0.679
  0.680   0.681   0.682   0.685   0.686   0.687   0.688   0.688
  0.691   0.692   0.693   0.694   0.695   0.696   0.698   0.698
  0.699   0.700   0.701   0.702   0.702   0.704   0.704   0.705
  0.707   0.709   0.709   0.711   0.713   0.713   0.715   0.716
  0.717   0.720   0.721   0.722   0.722   0.723   0.725   0.727
  0.728   0.729   0.731   0.731   0.732   0.735   0.735   0.738
  0.738   0.739   0.741   0.743   0.744   0.745   0.745   0.746
  0.747   0.748   0.752   0.753   0.754   0.756   0.757   0.758
  0.759   0.760   0.761   0.762   0.763   0.767   0.767   0.768
  0.768   0.770   0.772   0.773   0.775   0.776   0.778   0.779
  0.780   0.781   0.782   0.783   0.783   0.785   0.787   0.788
  0.790   0.791   0.792   0.793   0.794   0.794   0.796   0.797
  0.800   0.800   0.801   0.803   0.803   0.804   0.804   0.805
  0.806   0.807   0.807   0.808   0.810   0.810   0.812   0.814
  0.814   0.815   0.816   0.816   0.818   0.818   0.819   0.820
  0.821   0.822   0.823   0.823   0.823   0.824   0.825   0.826
  0.827   0.828   0.829   0.830   0.831   0.832   0.833   0.834
  0.836   0.836   0.841   0.843   0.846   0.848   0.849   0.850
  0.853   0.854   0.856   0.857   0.859   0.863   0.865   0.866
  0.869   0.873   0.875   0.878   0.880   0.883   0.885   0.888
  0.889   0.892   0.897   0.900   0.902   0.903   0.903   0.907
  0.910   0.911   0.916   0.918   0.920   0.922   0.923   0.926
  0.928   0.929   0.930   0.932   0.934   0.935   0.936   0.937
  0.938   0.940   0.941   0.943   0.946   0.948   0.952   0.953
  0.955   0.958   0.960   0.962   0.965   0.968   0.969   0.971
  0.973   0.976   0.981   0.983   0.988   0.989   0.990   0.992
  0.996   0.999   1.000   1.001   1.004   1.004   1.006   1.009
  1.011   1.012   1.013   1.015   1.016   1.018   1.019   1.020
  1.022   1.024   1.025   1.027   1.028   1.029   1.030   1.032
  1.034   1.036   1.037   1.039   1.042   1.042   1.045   1.046
  1.047   1.049   1.052   1.054   1.055   1.056   1.057   1.061
  1.061   1.064   1.064   1.065   1.067   1.069   1.071   1.074
  1.075   1.076   1.078   1.078   1.081   1.084   1.085   1.087
  1.088   1.090   1.092   1.092   1.094   1.097   1.097   1.100
  1.102   1.104   1.105   1.106   1.108   1.112   1.114   1.114
  1.116   1.117   1.118   1.122   1.125   1.126   1.129   1.130
  1.130   1.133   1.134   1.135   1.138   1.141   1.145   1.146
  1.148   1.151   1.152   1.153   1.157   1.159   1.160   1.161
  1.162   1.164   1.165   1.168   1.169   1.169   1.170   1.172
  1.173   1.175   1.175   1.178   1.179   1.182   1.183   1.184
  1.188   1.189   1.192   1.194   1.199   1.199   1.201   1.203
  1.203   1.205   1.208   1.212   1.215   1.217   1.219   1.222
  1.225   1.229   1.231   1.234   1.235   1.237   1.240   1.243
  1.249   1.252   1.254   1.256   1.257   1.259   1.261   1.264
  1.265   1.270   1.271   1.271   1.272   1.277   1.278   1.278
  1.281   1.281   1.284   1.286   1.286   1.288   1.291   1.295
  1.296   1.297   1.300   1.304   1.306   1.307   1.308   1.309
  1.313   1.317   1.319   1.321   1.325   1.327   1.329   1.331
  1.333   1.335   1.335   1.339   1.341   1.343   1.345   1.346
  1.347   1.352   1.355   1.356   1.361   1.365   1.366   1.368
  1.370   1.372   1.374   1.377   1.378   1.381   1.382   1.383
  1.385   1.386   1.391   1.392   1.394   1.395   1.400   1.405
  1.408   1.410   1.415   1.418   1.421   1.424   1.425   1.429
  1.430   1.433   1.437   1.446   1.447   1.448   1.451   1.452
  1.454   1.456   1.458   1.460   1.461   1.465   1.466   1.466
  1.470   1.471   1.473   1.475   1.476   1.479   1.481   1.483
  1.486   1.488   1.488   1.491   1.492   1.493   1.497   1.497
  1.500   1.504   1.504   1.509   1.511   1.513   1.517   1.520
  1.522   1.525   1.526   1.530   1.534   1.537   1.537   1.538
  1.542   1.545   1.547   1.550   1.551   1.556   1.560   1.560
  1.562   1.565   1.566   1.569   1.570   1.572   1.573   1.574
  1.579   1.581   1.584   1.585   1.588   1.591   1.593   1.594
  1.596   1.601   1.605   1.607   1.610   1.612   1.616   1.617
  1.623   1.625   1.628   1.631   1.632   1.636   1.641   1.643
  1.644   1.649   1.650   1.652   1.658   1.658   1.663   1.664
  1.672   1.675   1.679   1.685   1.690   1.691   1.695   1.699
  1.702   1.707   1.709   1.712   1.712   1.716   1.716   1.718
  1.720   1.722   1.724   1.725   1.730   1.731   1.732   1.735
  1.736   1.738   1.739   1.741   1.743   1.744   1.745   1.748
  1.750   1.751   1.753   1.755   1.756   1.756   1.757   1.758
  1.760   1.760   1.762   1.764   1.766   1.767   1.768   1.770
  1.770   1.773   1.773   1.775   1.776   1.777   1.778   1.778
  1.781   1.782   1.782   1.784   1.785   1.786   1.787   1.788
  1.791   1.792   1.793   1.795   1.795   1.796   1.797   1.799
  1.800   1.801   1.803   1.803   1.805   1.809   1.811   1.812
  1.813   1.815   1.816   1.818   1.821   1.822   1.824   1.825
  1.826   1.828   1.830   1.831   1.832   1.835   1.837   1.838
  1.842   1.843   1.845   1.850   1.851   1.854   1.855   1.857
  1.859   1.860   1.864   1.865   1.867   1.870   1.870   1.871
  1.874   1.877   1.877   1.878   1.883   1.884   1.888   1.889
  1.890   1.893   1.895   1.897   1.899   1.902   1.907   1.910
  1.911   1.913   1.914   1.915   1.918   1.920   1.922   1.924
  1.925   1.928   1.930   1.933   1.934   1.938   1.939   1.941
  1.943   1.944   1.946   1.946   1.949   1.952   1.953   1.954
  1.958   1.959   1.961   1.969   1.971   1.971   1.973   1.975
  1.977   1.977   1.980   1.981   1.983   1.986   1.987   1.989
  1.990   1.992   1.994   1.995   1.996   1.998   2.000   2.001
  2.001   2.002   2.003   2.004   2.005   2.006   2.008   2.010
  2.011   2.012   2.013   2.014   2.015   2.016   2.017   2.018
  2.020   2.021   2.021   2.022   2.023   2.025   2.027   2.027
  2.031   2.033   2.034   2.034   2.035   2.036   2.037   2.039
  2.039   2.040   2.042   2.043   2.044   2.045   2.045   2.048
  2.049   2.051   2.052   2.053   2.055   2.057   2.057   2.058
  2.062   2.064   2.065   2.066   2.066   2.068   2.069   2.070
  2.072   2.072   2.074   2.075   2.076   2.077   2.078   2.079
  2.081   2.084   2.084   2.086   2.088   2.088   2.091   2.092
  2.093   2.093   2.096   2.096   2.098   2.100   2.104   2.106
  2.112   2.113   2.114   2.116   2.119   2.119   2.121   2.123
  2.123   2.132   2.135   2.139   2.140   2.141   2.145   2.147
  2.148   2.153   2.158   2.163   2.167   2.174   2.175   2.180
  2.183   2.191   2.193   2.200   2.204   2.206   2.208   2.209
  2.210   2.212   2.215   2.218   2.220   2.224   2.226   2.229
  2.232   2.235   2.237   2.240   2.240   2.244   2.245   2.246
  2.249   2.251   2.251   2.254   2.259   2.260   2.261   2.267
  2.269   2.270   2.272   2.275   2.277   2.278   2.279   2.286
  2.287   2.290   2.291   2.294   2.296   2.299   2.300   2.302
  2.304   2.306   2.307   2.312   2.313   2.314   2.316   2.319
  2.321   2.322   2.323   2.328   2.329   2.331   2.334   2.342
  2.342   2.345   2.348   2.348   2.350   2.352   2.354   2.357
  2.358   2.361   2.362   2.364   2.365   2.367   2.368   2.372
  2.374   2.374   2.377   2.378   2.381   2.382   2.384   2.385
  2.387   2.389   2.391   2.393   2.394   2.395   2.395   2.397
  2.400   2.403   2.405   2.406   2.408   2.410   2.412   2.413
  2.414   2.416   2.418   2.420   2.421   2.422   2.426   2.429
  2.431   2.432   2.433   2.440   2.441   2.442   2.446   2.447
  2.449   2.449   2.451   2.453   2.456   2.458   2.458   2.459
  2.461   2.465   2.467   2.470   2.471   2.472   2.474   2.476
  2.477   2.480   2.482   2.485   2.486   2.489   2.490   2.492
  2.494   2.498   2.502   2.503   2.505   2.507   2.507   2.509
  2.510   2.512   2.513   2.515   2.517   2.517   2.520   2.526
  2.526   2.528   2.532   2.533   2.534   2.537   2.539   2.540
  2.544   2.545   2.550   2.550   2.557   2.560   2.561   2.564
  2.567   2.567   2.571   2.574   2.576   2.581   2.583   2.584
  2.587   2.594   2.596   2.597   2.598   2.599   2.602   2.603
  2.607   2.611   2.614   2.614   2.614   2.618   2.620   2.623
  2.624   2.625   2.628   2.629   2.630   2.631   2.632   2.635
  2.636   2.639   2.640   2.642   2.644   2.646   2.648   2.649
  2.650   2.652   2.654   2.655   2.656   2.658   2.660   2.661
  2.662   2.663   2.666   2.668   2.669   2.672   2.672   2.673
  2.676   2.678   2.679   2.681   2.681   2.685   2.688   2.689
  2.691   2.693   2.696   2.698   2.700   2.702   2.704   2.705
  2.710   2.711   2.712   2.715   2.716   2.718   2.723   2.727
  2.729   2.732   2.732   2.736   2.737   2.740   2.743   2.746
  2.747   2.750   2.752   2.753   2.755   2.756   2.759   2.762
  2.763   2.766   2.768   2.769   2.770   2.773   2.775   2.777
  2.779   2.782   2.783   2.783   2.785   2.787   2.792   2.795
  2.798   2.803   2.803   2.809   2.810   2.814   2.816   2.821
  2.824   2.827   2.829   2.830   2.833   2.836   2.839   2.844
  2.848   2.850   2.851   2.854   2.856   2.857   2.860   2.863
  2.864   2.867   2.869   2.871   2.873   2.874   2.878   2.879
  2.880   2.884   2.885   2.887   2.891   2.892   2.894   2.895
  2.898   2.899   2.901   2.902   2.904   2.906   2.908   2.911
  2.913   2.914   2.915   2.916   2.920   2.921   2.922   2.923
  2.925   2.925   2.927   2.928   2.931   2.933   2.936   2.937
  2.940   2.944   2.948   2.951   2.952   2.954   2.958   2.958
  2.960   2.964   2.966   2.968   2.971   2.978   2.981   2.982
  2.982   2.990   2.993   2.995   2.998   3.000   3.002   3.005
  3.007   3.010   3.012   3.014   3.016   3.022   3.025   3.026
  3.027   3.031   3.033   3.036   3.038   3.039   3.041   3.044
  3.048   3.058   3.058   3.060   3.061   3.065   3.066   3.069
  3.073   3.075   3.081   3.089   3.091   3.096   3.105   3.107
  3.114   3.121   3.125   3.138   3.144   3.148   3.152   3.159
  3.160   3.164   3.171   3.175   3.184   3.187   3.188   3.189
  3.197   3.204   3.207   3.209   3.214   3.224   3.237   3.241
  3.242   3.251   3.260   3.265   3.268   3.270   3.283   3.283
  3.287   3.302   3.306   3.312   3.320   3.321   3.325   3.333
  3.336   3.337   3.344   3.347   3.352   3.365   3.368   3.399
  3.407   3.411   3.412   3.416   3.418   3.428   3.430   3.438
  3.440   3.451   3.452   3.474   3.478   3.483   3.494   3.494
  3.502   3.507   3.512   3.520   3.522   3.526   3.538   3.545
  3.551   3.558   3.560   3.567   3.570   3.572   3.585   3.590
  3.599   3.638   3.667   3.704   3.839   3.905   4.009   4.020
  4.072   4.077   4.082   4.083   4.088   4.090   4.094   4.098
  4.101   4.105   4.107   4.110   4.111   4.117   4.121   4.125
  4.133   4.136   4.141   4.142   4.145   4.147   4.148   4.152
  4.156   4.160   4.162   4.166   4.176   4.176   4.181   4.185
  4.189   4.192   4.192   4.201   4.212   4.225   4.236   4.243
  4.244   4.245   4.253   4.253   4.256   4.258   4.265   4.268
  4.271   4.273   4.280   4.284   4.289   4.294   4.301   4.306
  4.316   4.322   4.324   4.338   4.365   4.388   4.388   4.390
  4.397   4.400   4.402   4.405   4.407   4.409   4.411   4.418
  4.420   4.423   4.427   4.432   4.447   4.457   4.478   4.484
  4.489   4.490   4.496   4.522   4.531   4.541   4.548   4.554
  4.558   4.567   4.618   4.618   4.625   4.631   4.648   4.654
  4.668   4.680   4.691   4.693   4.694   4.699   4.701   4.702
  4.709   4.710   4.723   4.724   4.725   4.745   4.794   4.813
  4.826   4.853   4.856   4.862   4.890   4.891   4.896   4.897
  4.907   4.910   4.936   4.947   4.967   4.969   4.975   4.981
  4.992   4.997   5.011   5.019   5.129   5.158   5.185   5.187
  5.205   5.213   5.223   5.229   5.290   5.328   5.334   5.345
  5.355   5.381
 --------------------------------------------------------------
 
          Ground-State Mulliken Net Atomic Charges

     Atom                 Charge (a.u.)
  ----------------------------------------
      1 O                    -0.462116
      2 C                    -0.075790
      3 H                     0.111547
      4 H                     0.121922
      5 H                     0.118926
      6 O                    -0.470130
      7 C                     0.605078
      8 C                    -0.254043
      9 H                     0.137966
     10 H                     0.123421
     11 C                    -0.195056
     12 H                     0.112256
     13 H                     0.134107
     14 C                    -0.191872
     15 H                     0.117887
     16 H                     0.112185
     17 C                     0.013664
     18 C                     0.106089
     19 C                    -0.100422
     20 H                     0.108181
     21 C                    -0.111670
     22 H                     0.094597
     23 C                    -0.074578
     24 H                     0.099507
     25 C                    -0.096354
     26 H                     0.095888
     27 C                    -0.120516
     28 H                     0.086815
     29 C                     0.010357
     30 C                     0.007087
     31 C                     0.020893
     32 C                    -0.017486
     33 C                     0.014874
     34 C                    -0.009785
     35 C                     0.014041
     36 C                     0.006105
     37 C                     0.025339
     38 C                     0.016190
     39 C                    -0.122368
     40 C                     0.004899
     41 C                    -0.004952
     42 C                    -0.000941
     43 C                     0.001094
     44 C                     0.008170
     45 C                    -0.059334
     46 C                     0.008459
     47 C                    -0.019538
     48 C                     0.015919
     49 C                    -0.032538
     50 C                    -0.027124
     51 C                    -0.021502
     52 C                    -0.004696
     53 C                     0.037613
     54 C                     0.027912
     55 C                     0.005280
     56 C                    -0.034881
     57 C                    -0.031432
     58 C                    -0.011151
     59 C                     0.026211
     60 C                     0.021144
     61 C                     0.009336
     62 C                    -0.002713
     63 C                    -0.021814
     64 C                    -0.022974
     65 C                    -0.004313
     66 C                    -0.009756
     67 C                     0.001015
     68 C                     0.006671
     69 C                     0.006407
     70 C                     0.034463
     71 C                     0.001099
     72 C                     0.003169
     73 C                     0.015045
     74 C                    -0.004584
     75 C                    -0.004115
     76 C                    -0.009407
     77 C                    -0.007395
     78 C                    -0.003431
     79 C                    -0.000190
     80 C                     0.005681
     81 C                     0.006633
     82 C                     0.030224
     83 C                    -0.019890
     84 C                    -0.013469
     85 C                    -0.009978
     86 C                     0.009270
     87 C                    -0.013681
     88 C                     0.004312
     89 O                    -0.425021
     90 C                    -0.093821
     91 H                     0.126607
     92 H                     0.133709
     93 H                     0.119422
     94 O                    -0.494567
     95 C                     0.592561
     96 C                    -0.246588
     97 H                     0.136411
     98 H                     0.134239
     99 C                    -0.204519
    100 H                     0.125162
    101 H                     0.106761
    102 C                    -0.172227
    103 H                     0.102881
    104 H                     0.124759
    105 C                     0.006202
    106 C                     0.116914
    107 C                    -0.104647
    108 H                     0.088356
    109 C                    -0.088182
    110 H                     0.085625
    111 C                    -0.083271
    112 H                     0.086509
    113 C                    -0.091000
    114 H                     0.094128
    115 C                    -0.121354
    116 H                     0.089693
    117 C                    -0.005848
    118 C                     0.028847
    119 C                     0.012061
    120 C                     0.003664
    121 C                    -0.016758
    122 C                    -0.041513
    123 C                    -0.002658
    124 C                     0.000157
    125 C                     0.016500
    126 C                    -0.018838
    127 C                    -0.086540
    128 C                     0.024334
    129 C                     0.001036
    130 C                    -0.010422
    131 C                    -0.027837
    132 C                     0.035008
    133 C                    -0.075240
    134 C                     0.030922
    135 C                    -0.020474
    136 C                     0.000652
    137 C                    -0.017847
    138 C                    -0.010540
    139 C                     0.020566
    140 C                     0.012821
    141 C                     0.004319
    142 C                    -0.029423
    143 C                     0.009005
    144 C                     0.050602
    145 C                    -0.011088
    146 C                    -0.011806
    147 C                    -0.010379
    148 C                     0.026815
    149 C                    -0.011717
    150 C                    -0.022228
    151 C                    -0.012008
    152 C                     0.017207
    153 C                     0.005597
    154 C                     0.031373
    155 C                    -0.001600
    156 C                     0.008635
    157 C                    -0.023837
    158 C                     0.051346
    159 C                    -0.005097
    160 C                    -0.012666
    161 C                     0.012899
    162 C                     0.008792
    163 C                    -0.000970
    164 C                     0.009008
    165 C                    -0.002977
    166 C                    -0.035576
    167 C                    -0.025248
    168 C                    -0.015185
    169 C                    -0.024451
    170 C                    -0.007163
    171 C                     0.018962
    172 C                     0.007016
    173 C                    -0.004791
    174 C                    -0.013397
    175 C                     0.005125
    176 C                     0.011150
  ----------------------------------------
  Sum of atomic charges =     0.000000

 -----------------------------------------------------------------
                    Cartesian Multipole Moments
 -----------------------------------------------------------------
    Charge (ESU x 10^10)
                 0.0000
    Dipole Moment (Debye)
         X       2.4252      Y       3.7719      Z      -1.3497
       Tot       4.6830
    Quadrupole Moments (Debye-Ang)
        XX    -810.5600     XY      -0.2267     YY    -784.2054
        XZ     -22.2568     YZ       7.7791     ZZ    -798.9260
    Octopole Moments (Debye-Ang^2)
       XXX     569.6414    XXY     198.3082    XYY      96.5230
       YYY     477.1035    XXZ    -215.3756    XYZ     -22.5351
       YYZ      57.2639    XZZ     118.8557    YZZ     158.6335
       ZZZ      13.6071
    Hexadecapole Moments (Debye-Ang^3)
      XXXX -157158.9956   XXXY    2362.8276   XXYY  -32637.9620
      XYYY     762.6206   YYYY  -43631.3597   XXXZ   -2330.8331
      XXYZ     160.3338   XYYZ    -192.9490   YYYZ     610.2316
      XXZZ  -29269.9178   XYZZ     187.0309   YYZZ  -10258.4904
      XZZZ    -275.4610   YZZZ     323.9644   ZZZZ  -19024.6676
 -----------------------------------------------------------------
Archival summary:
1\1\mn251\SP\ProcedureUnspecified\6-31G**\428\afmv_a\SatOct1320:13:342018SatOct1320:13:342018\0\\#,ProcedureUnspecified,6-31G**,\\0,1\C\C,1,1.36427\C,2,1.39967,1,107.275\C,3,1.39056,2,120.847,1,147.517,0\C,1,1.42047,2,107.913,3,-0.118358,0\C,5,1.4124,1,111.733,2,2.04742,0\C,6,1.34841,5,122.034,1,-142.075,0\C,7,1.38101,6,119.996,5,139.365,0\C,4,1.42209,3,119.482,2,-7.43815,0\C,9,1.37252,4,107.03,3,-140.844,0\C,9,1.39629,4,120.121,3,3.60791,0\C,11,1.38046,9,123.054,4,-141.688,0\C,10,1.40071,9,111.023,4,1.34443,0\C,13,1.38316,10,106.718,9,0.134448,0\C,12,1.41011,11,118.601,9,4.6422,0\C,15,1.37116,12,120.454,11,138.45,0\C,16,1.3989,15,106.239,12,-143.445,0\C,11,1.41211,9,121.166,4,2.04711,0\C,18,1.36981,11,109.412,9,-144.168,0\C,19,1.38292,18,123.726,11,141.629,0\C,20,1.38604,19,116.637,18,-4.35308,0\C,19,1.39541,18,107.86,11,-3.49676,0\C,22,1.39515,19,121.409,18,149.437,0\C,15,1.41219,12,116.26,11,-2.25455,0\C,24,1.40979,15,105.282,12,144.817,0\C,25,1.40838,24,120.034,15,-148.213,0\C,23,1.41721,22,114.348,19,-133.479,0\C,27,1.41584,23,109.303,22,136.035,0\C,28,1.37929,27,108.608,23,-2.43925,0\C,29,1.38434,28,108.046,27,1.73493,0\C,29,1.3925,28,120.524,27,-142.969,0\C,28,1.42,27,121.53,23,-148.321,0\C,32,1.40814,28,120.872,27,0.561478,0\C,33,1.40516,32,107.355,28,144.093,0\C,34,1.39575,33,108.885,32,-0.545718,0\C,32,1.41125,28,121.123,27,143.12,0\C,36,1.39398,32,117.939,28,-4.2594,0\C,35,1.41648,34,119.134,33,-135.725,0\C,38,1.36638,35,120.633,34,138.986,0\C,39,1.37056,38,121.733,35,-4.69546,0\C,38,1.37795,35,119.055,34,-4.72441,0\C,41,1.39234,38,125.272,35,-0.984792,0\C,40,1.40989,39,122.646,38,-141.421,0\C,43,1.38853,40,110.28,39,142.104,0\C,44,1.38039,43,123.442,40,-135.361,0\C,45,1.40927,44,118.418,43,-1.38853,0\C,45,1.41219,44,122.036,43,136.523,0\C,39,1.41485,38,106.821,35,-146.895,0\C,48,1.38489,39,120.414,38,148.422,0\C,49,1.3798,48,119.392,39,-4.83938,0\C,48,1.39671,39,108.654,38,-0.193625,0\C,50,1.39968,49,105.891,48,-133.6,0\C,52,1.37935,50,109.538,49,-1.9098,0\C,53,1.39198,52,108.097,50,-2.01527,0\C,51,1.40608,48,122.06,39,149.867,0\C,55,1.40209,51,115.651,48,-10.2398,0\C,26,1.42171,25,116.336,24,136.422,0\C,26,1.42878,25,121.096,24,1.88046,0\C,8,1.49889,7,107.839,6,-152.49,0\C,58,1.50986,26,112.054,25,148.299,0\C,60,1.46475,58,128.095,26,148.098,0\C,61,1.4756,60,116.637,58,-6.42172,0\C,62,1.39061,61,118.62,60,-58.9816,0\H,63,1.08607,62,115.725,61,0.169219,0\C,62,1.40037,61,122.675,60,127.401,0\H,65,1.08656,62,115.319,61,-16.6742,0\C,63,1.4405,62,118.504,61,178.759,0\H,67,1.08607,63,121.986,62,179.357,0\C,67,1.41129,63,123.876,62,3.23567,0\H,69,1.08598,67,123.171,63,-175.865,0\C,69,1.39387,67,116.108,63,4.11672,0\H,71,1.08595,69,124.687,67,-171.701,0\C,61,1.55633,60,119.856,58,-151.189,0\H,73,1.0965,61,116.01,60,-57.9453,0\H,73,1.0972,61,108.05,60,-165.72,0\C,73,1.54289,61,114.597,60,65.7388,0\H,76,1.09712,73,115.399,61,-3.88033,0\H,76,1.09718,73,107.049,61,-119.308,0\C,76,1.50431,73,114.41,61,118.111,0\H,79,1.09671,76,115.551,73,30.0557,0\H,79,1.09775,76,103.619,73,143.652,0\C,79,1.52781,76,119.157,73,-96.833,0\O,82,1.22152,79,123.455,76,-40.3849,0\O,82,1.39286,79,115.547,76,137.24,0\C,84,1.3703,82,124.484,79,-171.252,0\H,85,1.09687,84,110.622,82,-71.5694,0\H,85,1.09717,84,111.478,82,45.1711,0\H,85,1.09737,84,108.961,82,167.84,0\H,4,3.13678,3,80.6441,2,113.642,0\C,89,1.09681,4,112.513,3,-87.3088,0\H,90,1.09762,89,110.137,4,-11.7855,0\C,90,1.48229,89,106.409,4,-131.783,0\O,92,1.23906,90,125.02,89,10.0578,0\O,92,1.32796,90,110.025,89,-178.053,0\C,94,1.40845,92,116.808,90,-167.338,0\H,95,1.09667,94,112.731,92,-73.9298,0\H,95,1.09679,94,109.406,92,159.52,0\H,95,1.09767,94,110.005,92,39.2241,0\C,90,1.51445,89,105.946,4,108.322,0\H,99,1.09691,90,113.262,89,88.0841,0\H,99,1.09692,90,111.131,89,-27.7696,0\C,99,1.59534,90,112.248,89,-147.326,0\H,102,1.09671,99,113.141,90,62.8255,0\H,102,1.0972,99,105.791,90,-56.9881,0\C,102,1.56069,99,114.416,90,-178.968,0\C,105,1.42927,102,111.674,99,51.3242,0\C,106,1.37394,105,122.053,102,-99.3847,0\H,107,1.08645,106,122.562,105,4.53886,0\C,106,1.37691,105,118.207,102,70.8442,0\H,109,1.08648,106,122.916,105,4.47962,0\C,109,1.40034,106,119.542,105,-176.165,0\H,111,1.08627,109,116.075,106,176.924,0\C,111,1.37702,109,120.538,106,9.24486,0\H,113,1.08682,111,117.796,109,170.182,0\C,113,1.378,111,120.771,109,-4.98046,0\H,115,1.08662,113,128.311,111,-179.744,0\C,105,1.47654,102,123.031,99,-96.645,0\C,117,1.45556,105,127.678,102,2.62493,0\C,118,1.38374,117,113.01,105,146.298,0\C,119,1.38053,118,125.011,117,152.401,0\C,120,1.3933,119,118.037,118,-8.61879,0\C,120,1.40022,119,119.407,118,-139.302,0\C,122,1.38256,120,121.319,119,-9.06197,0\C,123,1.3904,122,117.937,120,2.88287,0\C,124,1.36495,123,121.855,122,3.4578,0\C,123,1.39297,122,121.697,120,146.795,0\C,122,1.39459,120,109.049,119,139.903,0\C,127,1.38943,122,109.048,120,-4.38065,0\C,125,1.39569,124,125.425,123,140.344,0\C,128,1.40942,127,122.48,122,-139.571,0\C,130,1.3908,128,118.989,127,-1.19159,0\C,130,1.39323,128,120.315,127,132.032,0\C,132,1.39576,130,119.879,128,5.1684,0\C,133,1.36377,132,121.305,130,-1.91394,0\C,134,1.38348,133,107.586,132,-144.366,0\C,135,1.37765,134,107.84,133,1.93967,0\C,136,1.38244,135,124.491,134,150.371,0\C,131,1.39962,130,118.16,128,3.44439,0\C,138,1.38647,131,124.423,130,-6.0772,0\C,132,1.40087,130,108.566,128,-142.271,0\C,140,1.3561,132,108.664,130,3.94003,0\C,141,1.39623,140,118.881,132,140.821,0\C,142,1.40467,141,120.761,140,-136.163,0\C,143,1.38805,142,108.63,141,142.574,0\C,144,1.38869,143,116.633,142,-140.276,0\C,145,1.38805,144,119.437,143,139.607,0\C,146,1.38237,145,121.007,144,-4.39951,0\C,147,1.37332,146,121.218,145,-0.198832,0\C,144,1.38958,143,108.768,142,-2.13464,0\C,149,1.36179,144,107.711,143,3.27888,0\C,138,1.40477,131,121.304,130,137.647,0\C,133,1.40536,132,118.759,130,-146.784,0\C,152,1.36612,133,122.064,132,2.16099,0\C,153,1.40241,152,118.567,133,135.323,0\C,153,1.40513,152,118.898,133,0.48754,0\C,146,1.40642,145,106.972,144,-150.889,0\C,156,1.38504,146,109.172,145,2.86343,0\C,157,1.38286,156,121.73,146,138.453,0\C,157,1.39864,156,109.414,146,-5.13829,0\C,159,1.32592,157,119.832,156,141.439,0\C,154,1.40786,153,106.352,152,-140.556,0\C,161,1.38276,154,116.651,153,139.554,0\C,161,1.4121,154,111.063,153,-0.0821624,0\C,126,1.41303,123,117.714,122,-5.01562,0\C,137,1.41486,136,117.653,135,-142.035,0\C,165,1.38242,137,108.939,136,138.717,0\C,166,1.40144,165,119.506,137,-137.847,0\C,167,1.38616,166,123.914,165,130.016,0\C,137,1.41825,136,119.74,135,-2.37057,0\C,168,1.42065,167,121.143,166,2.63353,0\C,170,1.38416,168,119.125,167,-139.17,0\C,171,1.35109,170,108.075,168,139.475,0\C,172,1.3805,171,123.756,170,-147.734,0\C,172,1.38146,171,109.583,170,-0.469088,0\C,166,1.43297,165,106.182,137,-4.8541,0\C,175,1.39664,166,121.594,165,-139.54,0\\\@

 Total job time:  875.41s(wall), 8331.52s(cpu) 
 Sat Oct 13 20:13:34 2018

        *************************************************************
        *                                                           *
        *  Thank you very much for using Q-Chem.  Have a nice day.  *
        *                                                           *
        *************************************************************


