
Running Job 1 of 1 ./10/19.qcin
qchem ./10/19.qcin_41339.0 /tmpu/cab_g/afmv_a/scratch_qchem/qchem41339/ 1
/tmpu/appuserlic/qchem4.4/serial-multicore/exe/qcprog.exe_s ./10/19.qcin_41339.0 /tmpu/cab_g/afmv_a/scratch_qchem/qchem41339/
Check license passed

                  Welcome to Q-Chem
     A Quantum Leap Into The Future Of Chemistry


 Q-Chem 4.4, Q-Chem, Inc., Pleasanton, CA (2016)

 Y. Shao,  Z. Gan,  E. Epifanovsky,  A. T. B. Gilbert,  M. Wormit,  
 J. Kussmann,  A. W. Lange,  A. Behn,  J. Deng,  X. Feng,  D. Ghosh,  
 M. Goldey,  P. R. Horn,  L. D. Jacobson,  I. Kaliman,  F. Rob,  
 R. Z. Khaliullin,  T. Kus,  A. Landau,  J. Liu,  E. I. Proynov,  Y. M. Rhee,  
 R. M. Richard,  M. A. Rohrdanz,  R. P. Steele,  E. J. Sundstrom,  
 H. L. Woodcock III,  P. M. Zimmerman,  D. Zuev,  B. Albrecht,  E. Alguire,  
 B. Austin,  S. A. Baeppler,  G. J. O. Beran,  Y. A. Bernard,  E. Berquist,  
 K. Brandhorst,  K. B. Bravaya,  S. T. Brown,  D. Casanova,  C.-M. Chang,  
 Y. Chen,  S. H. Chien,  K. D. Closser,  M. P. Coons,  D. L. Crittenden,  
 S. Dasgupta,  M. Diedenhofen,  R. A. DiStasio Jr.,  H. Do,  A. D. Dutoi,  
 R. G. Edgar,  P.-T. Fang,  S. Fatehi,  Q. Feng,  L. Fusti-Molnar,  
 A. Ghysels,  A. Golubeva-Zadorozhnaya,  J. Gomes,  A. Gunina,  
 M. W. D. Hanson-Heine,  P. H. P. Harbach,  A. W. Hauser,  J. E. Herr,  
 E. G. Hohenstein,  Z. C. Holden,  K. Hui,  T.-C. Jagau,  H. Ji,  B. Kaduk,  
 K. Khistyaev,  Jaehoon Kim,  Jihan Kim,  R. A. King,  P. Klunzinger,  
 K. Koh,  D. Kosenkov,  T. Kowalczyk,  C. M. Krauter,  A. Kunitsa,  
 K. U. Lao,  A. Laurent,  K. V. Lawler,  J. Lee,  D. Lefrancois,  S. Lehtola,  
 S. V. Levchenko,  C. Y. Lin,  Y.-S. Lin,  F. Liu,  E. Livshits,  
 R. C. Lochan,  A. Luenser,  P. Manohar,  S. F. Manzer,  S.-P. Mao,  Y. Mao,  
 N. Mardirossian,  A. V. Marenich,  L. A. Martinez-Martinez,  S. A. Maurer,  
 N. J. Mayhall,  J.-M. Mewes,  A. F. Morrison,  K. Nanda,  T. S. Nguyen-Beck,  
 C. M. Oana,  R. Olivares-Amaya,  D. P. O'Neill,  J. A. Parkhill,  
 T. M. Perrine,  R. Peverati,  P. A. Pieniazek,  F. Plasser,  A. Prociuk,  
 D. R. Rehn,  E. Rosta,  N. J. Russ,  N. Sergueev,  S. M. Sharada,  
 S. Sharma,  D. W. Small,  A. Sodt,  T. Stauch,  T. Stein,  D. Stuck,  
 Y.-C. Su,  A. J. W. Thom,  T. Tsuchimochi,  L. Vogt,  O. Vydrov,  T. Wang,  
 M. A. Watson,  J. Wenzel,  A. White,  C. F. Williams,  V. Vanovschi,  
 K. Yao,  S. Yeganeh,  S. R. Yost,  Z.-Q. You,  I. Y. Zhang,  X. Zhang,  
 Y. Zhao,  B. R. Brooks,  G. K. L. Chan,  D. M. Chipman,  C. J. Cramer,  
 W. A. Goddard III,  M. S. Gordon,  W. J. Hehre,  A. Klamt,  
 H. F. Schaefer III,  M. W. Schmidt,  C. D. Sherrill,  D. G. Truhlar,  
 A. Warshel,  X. Xu,  A. Aspuru-Guzik,  R. Baer,  A. T. Bell,  N. A. Besley,  
 J.-D. Chai,  A. Dreuw,  B. D. Dunietz,  T. R. Furlani,  S. R. Gwaltney,  
 C.-P. Hsu,  Y. Jung,  J. Kong,  D. S. Lambrecht,  W. Liang,  C. Ochsenfeld,  
 V. A. Rassolov,  L. V. Slipchenko,  J. E. Subotnik,  T. Van Voorhis,  
 J. M. Herbert,  A. I. Krylov,  P. M. W. Gill,  M. Head-Gordon

 Contributors to earlier versions of Q-Chem not listed above: 
 R. D. Adamson,  J. Baker,  E. F. C. Byrd,  A. K. Chakraborty,  C.-L. Cheng,  
 H. Dachsel,  R. J. Doerksen,  G. Hawkins,  A. Heyden,  S. Hirata,  
 G. Kedziora,  F. J. Keil,  C. Kelley,  P. P. Korambath,  W. Kurlancheek,  
 A. M. Lee,  M. S. Lee,  D. Liotard,  I. Lotan,  P. E. Maslen,  N. Nair,  
 D. Neuhauser,  R. Olson,  B. Peters,  J. Ritchie,  N. E. Schultz,  
 N. Shenvi,  A. C. Simmonett,  K. S. Thanthiriwatte,  Q. Wu,  W. Zhang

 Please cite Q-Chem as follows:
 Y. Shao et al., Mol. Phys. 113, 184-215 (2015)
 DOI: 10.1080/00268976.2014.952696

 Q-Chem 4.4.2 for Intel X86 Linux

 Parts of Q-Chem use Armadillo 5.200.1 (Boston Tea Smuggler).
 http://arma.sourceforge.net/

 Q-Chem begins on Sat Oct 13 20:13:41 2018  

Host: 
0

     Scratch files written to /tmpu/cab_g/afmv_a/scratch_qchem/qchem41339//
 Dec716 11556_ 22328  22283 4050   
Processing $rem in /tmpu/appuserlic/qchem4.4/serial-multicore/config/preferences.
 MEM_TOTAL  2000 
FILE_GEOM_ORG=        593

Checking the input file for inconsistencies... 	...done.

--------------------------------------------------------------
User input:
--------------------------------------------------------------
$comment
SP
$end

$rem
MEM_STATIC 5000
MEM_TOTAL 20000
JOBTYPE SP
EXCHANGE B3LYP
BASIS 6-31g(d,p)
$end

$molecule
0 1
O          11.571000     -7.117000      8.775000
C          10.459000     -7.625000      7.960000
H           9.562000     -6.993000      7.947000
H          10.193000     -8.642000      8.274000
H          10.866000     -7.723000      6.946000
O          11.949000     -5.169000      7.686000
C          12.328000     -6.138000      8.337000
C          13.702000     -6.122000      8.993000
H          13.622000     -6.756000      9.885000
H          13.839000     -5.067000      9.261000
C          14.889000     -6.601000      8.104000
H          14.724000     -7.629000      7.760000
H          14.969000     -5.973000      7.209000
C          16.243000     -6.551000      8.893000
H          16.174000     -5.695000      9.576000
H          16.262000     -7.473000      9.487000
C          17.418000     -6.423000      8.013000
C          17.727000     -7.722000      7.345000
C          18.539000     -8.564000      8.105000
H          18.829000     -8.359000      9.132000
C          19.005000     -9.689000      7.455000
H          19.692000    -10.329000      8.001000
C          18.680000     -9.991000      6.143000
H          19.188000    -10.875000      5.768000
C          17.766000     -9.232000      5.427000
H          17.454000     -9.417000      4.403000
C          17.273000     -8.099000      6.082000
H          16.584000     -7.472000      5.523000
C          22.621000     -4.273000      7.737000
C          21.765000     -3.829000      5.491000
C          21.259000      0.628000      5.849000
C          19.434000     -2.357000     11.182000
C          17.755000      0.387000      6.372000
C          21.816000     -4.647000      6.655000
C          18.099000     -0.084000      9.984000
C          23.079000     -0.828000      6.679000
C          17.760000     -3.566000      5.500000
C          18.124000     -2.443000     10.561000
C          17.672000     -5.070000      7.298000
C          16.836000     -3.084000      6.415000
C          16.714000     -1.803000      8.890000
C          18.003000      0.744000      8.815000
C          19.776000     -4.925000      5.786000
C          19.766000      1.410000      7.397000
C          18.599000     -5.500000      8.422000
C          18.658000     -4.634000      9.701000
C          19.059000      0.953000      6.263000
C          22.081000     -0.472000     10.017000
C          22.063000      0.801000      8.180000
C          22.977000     -0.206000      7.957000
C          23.241000     -2.244000      6.554000
C          19.972000     -4.472000     10.183000
C          18.371000     -4.752000      5.996000
C          22.479000     -2.632000      5.410000
C          17.487000     -1.326000      9.978000
C          20.507000     -4.052000      4.936000
C          16.679000     -1.613000      6.522000
C          21.607000     -2.747000     10.772000
C          22.233000     -0.437000      5.601000
C          16.839000     -3.864000      7.552000
C          23.216000     -2.386000      9.021000
C          16.540000     -0.976000      7.752000
C          18.530000     -2.686000      4.716000
C          20.133000      0.891000      9.711000
C          19.436000     -0.032000     10.500000
C          18.376000     -1.346000      4.867000
C          20.365000     -3.348000     10.890000
C          17.737000     -3.579000      9.838000
C          21.385000     -1.345000     10.898000
C          20.116000     -5.559000      8.135000
C          20.523000     -1.733000      4.347000
C          16.883000     -3.161000      8.791000
C          17.479000     -0.785000      5.727000
C          22.475000     -3.260000      9.809000
C          19.940000      0.440000      5.354000
C          23.277000     -3.065000      7.707000
C          21.128000      1.170000      7.127000
C          19.877000     -2.933000      4.427000
C          19.574000     -0.679000      4.600000
C          20.644000     -5.358000      6.832000
C          20.866000     -5.006000      9.236000
C          21.465000      0.712000      9.494000
C          21.854000     -1.567000      4.787000
C          17.189000      0.255000      7.681000
C          20.036000     -1.100000     11.140000
C          19.291000      1.358000      8.692000
C          22.117000     -4.385000      9.016000
C          22.987000     -0.983000      9.068000
O          22.663000      6.280000     -0.755000
C          24.002000      6.711000     -0.826000
H          24.466000      6.817000      0.162000
H          24.046000      7.738000     -1.211000
H          24.564000      6.046000     -1.493000
O          22.044000      8.316000      0.039000
C          21.767000      7.173000     -0.351000
C          20.397000      6.674000     -0.618000
H          20.239000      6.533000     -1.695000
H          19.709000      7.436000     -0.232000
C          20.084000      5.405000      0.147000
H          20.647000      5.314000      1.084000
H          19.038000      5.390000      0.477000
C          20.308000      4.096000     -0.737000
H          19.646000      4.047000     -1.610000
H          21.352000      4.137000     -1.072000
C          20.024000      2.756000      0.011000
C          20.721000      2.689000      1.257000
C          22.089000      2.535000      1.230000
H          22.649000      2.392000      0.310000
C          22.809000      2.547000      2.431000
H          23.889000      2.473000      2.341000
C          22.194000      2.898000      3.612000
H          22.823000      3.051000      4.485000
C          20.839000      3.145000      3.655000
H          20.232000      3.424000      4.512000
C          20.105000      2.968000      2.453000
H          19.080000      3.323000      2.514000
C          19.958000     -2.637000     -0.386000
C          18.395000     -2.226000      1.413000
C          14.634000     -3.225000     -0.746000
C          18.766000     -0.017000     -4.505000
C          13.857000      0.099000     -1.556000
C          19.592000     -1.924000      0.787000
C          15.975000      0.239000     -4.450000
C          16.774000     -4.284000     -0.831000
C          16.688000      1.321000      0.983000
C          18.179000      1.130000     -4.051000
C          18.738000      2.037000     -0.086000
C          16.372000      2.054000     -0.185000
C          16.414000      2.045000     -2.923000
C          14.747000     -0.008000     -3.840000
C          18.631000     -0.006000      1.444000
C          14.126000     -2.009000     -2.682000
C          19.886000      1.469000     -0.795000
C          19.772000      1.322000     -2.201000
C          13.694000     -1.330000     -1.553000
C          17.660000     -3.373000     -4.010000
C          15.748000     -3.823000     -2.909000
C          16.816000     -4.376000     -2.216000
C          17.937000     -3.994000     -0.131000
C          20.353000      0.105000     -2.629000
C          18.081000      1.273000      1.055000
C          17.553000     -3.318000      1.041000
C          16.783000      1.280000     -3.990000
C          17.826000     -1.067000      1.811000
C          15.176000      1.805000     -0.828000
C          19.680000     -1.946000     -3.795000
C          15.632000     -3.787000     -0.078000
C          17.543000      2.445000     -0.810000
C          19.174000     -3.695000     -2.167000
C          15.175000      1.776000     -2.221000
C          15.839000      0.347000      1.423000
C          15.681000     -1.981000     -4.500000
C          16.505000     -0.979000     -4.895000
C          14.695000     -0.004000      0.715000
C          19.846000     -0.548000     -3.785000
C          18.624000      1.746000     -2.844000
C          18.518000     -2.314000     -4.508000
C          20.328000      0.137000     -0.378000
C          15.601000     -1.949000      1.442000
C          17.562000      2.362000     -2.219000
C          14.393000      0.716000     -0.426000
C          19.966000     -2.613000     -2.618000
C          13.975000     -2.031000     -0.353000
C          19.115000     -3.707000     -0.795000
C          14.690000     -3.209000     -2.218000
C          16.462000     -0.862000      1.868000
C          14.448000     -1.372000      0.804000
C          19.800000     -0.495000      0.750000
C          20.767000     -0.609000     -1.520000
C          16.242000     -3.180000     -4.056000
C          16.180000     -3.136000      1.032000
C          14.364000      0.716000     -2.693000
C          17.947000     -1.083000     -4.914000
C          14.591000     -1.390000     -3.848000
C          20.541000     -1.991000     -1.465000
C          17.994000     -4.054000     -2.879000
$end

--------------------------------------------------------------
 ----------------------------------------------------------------
             Standard Nuclear Orientation (Angstroms)
    I     Atom           X                Y                Z
 ----------------------------------------------------------------
    1      O       6.9946718425    -6.8928311559     3.6350383304
    2      C       6.4236059891    -8.2128110522     3.9356541393
    3      H       6.1095149150    -8.3602970512     4.9767096984
    4      H       7.1245811733    -9.0043642758     3.6428772872
    5      H       5.5622306605    -8.3140571131     3.2639170044
    6      O       5.2046086647    -5.6058665183     4.1477808006
    7      C       6.2173956053    -5.8440089383     3.4966634527
    8      C       6.8617553694    -4.7435696675     2.6646166356
    9      H       7.9334562204    -4.9762261620     2.6278982263
   10      H       6.6671374814    -3.8384167968     3.2532083093
   11      C       6.3057611889    -4.5653738567     1.2196779780
   12      H       6.4189895581    -5.4922881042     0.6449134053
   13      H       5.2338612231    -4.3377910367     1.2520125328
   14      C       7.0555888025    -3.4151068586     0.4627226406
   15      H       7.3123356326    -2.6612603066     1.2175619885
   16      H       7.9821853292    -3.8720215827     0.0940373933
   17      C       6.2522659132    -2.8180842468    -0.6187787864
   18      C       6.2050661097    -3.7204095706    -1.8073439671
   19      C       7.2810839624    -3.5553195034    -2.6796047369
   20      H       8.1378960874    -2.9208387092    -2.4694593008
   21      C       7.1835487644    -4.2283913200    -3.8807467829
   22      H       7.9755763627    -4.0666902042    -4.6061639268
   23      C       6.1076814413    -5.0372981772    -4.2068636324
   24      H       6.1599300361    -5.4337311594    -5.2169408448
   25      C       5.1022339478    -5.3139595999    -3.2921687132
   26      H       4.2388368945    -5.9479383812    -3.4731699096
   27      C       5.1998332430    -4.6514413927    -2.0644443945
   28      H       4.4013995603    -4.8273521958    -1.3489794801
   29      C       5.3123660156     1.9965910830    -3.3946344474
   30      C       3.0546000487     1.0876526574    -3.1694416913
   31      C       1.4860367547     3.9762338830    -0.0962094033
   32      C       7.4997707905     2.2694289091     1.1701075903
   33      C       1.9176199216     1.6760036548     2.5744277618
   34      C       4.4555558399     0.8919342315    -3.3295609250
   35      C       5.4040708400     2.6339249287     3.1345775873
   36      C       2.9248124806     4.3905586375    -2.0658528757
   37      C       2.7879302159    -1.3385335458     0.0167445411
   38      C       6.9191730157     1.1721369989     1.9237611497
   39      C       5.0461196744    -1.9176139321    -0.2436595213
   40      C       3.3770267046    -1.3354249314     1.2722447058
   41      C       5.0776042393     0.2078700923     2.8558313053
   42      C       3.9925347981     2.8058033532     3.3330336522
   43      C       3.7008347334    -0.8886231507    -2.2097143016
   44      C       2.4996055553     4.0039378877     1.9553236271
   45      C       6.2837645786    -1.2826362686    -0.8541048160
   46      C       7.0818689820    -0.2629839738    -0.0099386244
   47      C       1.6345435669     2.8899339445     1.8824060648
   48      C       5.7603835080     4.9701466050    -0.0938998498
   49      C       3.5595297875     5.3072482134     0.1011063214
   50      C       3.8179059261     5.1344519368    -1.2414871457
   51      C       3.4129898642     3.4703466691    -3.0465759636
   52      C       7.5046930097     0.8491162679    -0.7646683070
   53      C       3.7608811929    -1.6225140646    -0.9825824631
   54      C       2.5076191348     2.3657218944    -3.0409235788
   55      C       5.8952712406     1.3653661579     2.8764597627
   56      C       2.5935211102    -0.0520020308    -2.5145284115
   57      C       2.8496315205    -0.3788272563     2.2755961934
   58      C       7.3810881691     3.2938884480    -0.8245167073
   59      C       1.7485764273     3.7947080317    -1.5253791922
   60      C       4.7355724089    -1.5438531745     1.1622936401
   61      C       5.7080849345     4.0805566337    -2.3631577774
   62      C       3.6913907296     0.3372880916     3.1221245404
   63      C       1.7391088624    -0.4521671921    -0.2935528252
   64      C       4.8304579268     4.5615048424     2.0773576944
   65      C       5.9048715138     3.6941920270     2.3090102881
   66      C       1.3067570753     0.4278234690     0.6449594914
   67      C       7.6895708595     2.0986010614    -0.1969695034
   68      C       6.7250776087    -0.0865228821     1.3397266671
   69      C       6.8972365186     4.1654758971     0.1938088295
   70      C       6.1106190137    -0.4187038838    -2.1232700723
   71      C       1.0860263642     1.4050599094    -1.3615461509
   72      C       5.5652739825    -0.6596126069     1.9112795660
   73      C       1.8139138589     0.4875493910     1.9091409701
   74      C       6.7592019693     3.2184754392    -2.0701219548
   75      C       1.0621447217     2.8388861119     0.6433077311
   76      C       4.8046183138     3.2595120031    -3.2004102960
   77      C       2.4115474723     4.6453275372     0.7037609672
   78      C       1.6361513724     0.1689587677    -1.5435693440
   79      C       0.8336663349     1.5966808068     0.0438441320
   80      C       4.8666076606    -0.3171730306    -2.8008549299
   81      C       6.9072004896     0.7807011688    -2.0372731407
   82      C       4.7635905882     5.2415259595     0.8998798648
   83      C       1.4697923653     2.5186887305    -2.1395381209
   84      C       3.1365249868     1.5996480988     3.3225596159
   85      C       6.9583440964     3.5278224039     1.4299535971
   86      C       3.6759457618     4.0387075650     2.6766895455
   87      C       6.4982168134     1.9658250306    -2.6909211995
   88      C       5.1519082051     4.9250371973    -1.3628683077
   89      O      -6.8175856103     6.8975028507     0.1163446749
   90      C      -7.0080644085     8.0511412921    -0.6688681459
   91      H      -6.1378787868     8.7184991153    -0.6595665561
   92      H      -7.7867155700     8.6839786433    -0.2237734868
   93      H      -7.3103135544     7.7570148691    -1.6813369608
   94      O      -6.9784879760     8.1494895042     2.0046065339
   95      C      -6.8632465172     7.0556527586     1.4340641778
   96      C      -6.9518887650     5.7348640505     2.1010347471
   97      H      -7.8754977937     5.2164871986     1.8129274727
   98      H      -6.9503004459     5.9318944809     3.1799974373
   99      C      -5.7381235501     4.8692915544     1.8343640572
  100      H      -4.8273517716     5.4486164578     1.6391810048
  101      H      -5.4755819882     4.2735605208     2.7172102861
  102      C      -5.9804260136     3.8409936317     0.6389537100
  103      H      -6.7784280634     3.1181215117     0.8473346752
  104      H      -6.2585047815     4.4521109457    -0.2288307261
  105      C      -4.7510557338     2.9397420553     0.3040592325
  106      C      -3.5647423634     3.7141402077     0.1148976912
  107      C      -3.4683895155     4.4909997829    -1.0178310182
  108      H      -4.2193663540     4.4857767389    -1.8029778247
  109      C      -2.3551144527     5.3223476242    -1.1922569374
  110      H      -2.3612998315     5.9486884897    -2.0797448873
  111      C      -1.4571629559     5.5137645425    -0.1659871518
  112      H      -0.7042045288     6.2877570844    -0.2891462037
  113      C      -1.5775459589     4.8150550160     1.0156201985
  114      H      -0.9427430299     4.8660864154     1.8960519321
  115      C      -2.6229870395     3.8590232100     1.1047556738
  116      H      -2.7588803854     3.4563158577     2.1046210582
  117      C      -2.8481147790    -0.9872626870    -2.8902894455
  118      C      -1.4540196576    -1.1905396366    -0.9247187207
  119      C      -3.1459305044    -4.9768564491     0.6894825315
  120      C      -7.7317617324    -1.1463559136    -1.7172136680
  121      C      -5.3085058303    -3.4000744048     2.9579250246
  122      C      -2.0992709796    -0.3829035652    -1.8451880073
  123      C      -7.9039730601    -2.7719820821     0.5600489033
  124      C      -2.6902964023    -4.3456353122    -1.5693365054
  125      C      -3.4039473570     0.0471389019     2.2917843187
  126      C      -7.8261182914    -0.5945039994    -0.4710795242
  127      C      -4.5897168835     1.5700802685     0.8314702347
  128      C      -4.7836958776     0.0094405410     2.6020130303
  129      C      -7.2603356608    -0.7748770161     1.7362241681
  130      C      -7.2976036885    -3.5661276807     1.5309978996
  131      C      -2.3488344028     0.5232619360     0.1920837424
  132      C      -5.4326949646    -5.0283309399     1.1923489955
  133      C      -4.9467436532     1.7136164564    -0.5810233931
  134      C      -6.1642827708     1.1229697396    -1.0054947735
  135      C      -4.7121647375    -4.5037183464     2.2543865742
  136      C      -5.9185766730    -4.0664744138    -2.6744309296
  137      C      -4.8098788301    -5.3041733689    -1.1547811707
  138      C      -3.9055014522    -4.7899233049    -2.0736557160
  139      C      -2.1298115939    -3.1784955353    -2.0696469297
  140      C      -6.0171956506     0.5259551941    -2.2797682966
  141      C      -3.2613494707     0.9434730917     1.2315070611
  142      C      -1.3670696076    -2.6120179401    -1.0326590819
  143      C      -7.8911169266    -1.3824210215     0.6908150251
  144      C      -1.6034456887    -0.6350369221     0.2977928725
  145      C      -5.3110850102    -1.1338186474     3.1683037072
  146      C      -6.2402470215    -1.6887385246    -3.3114978242
  147      C      -2.2633085944    -4.5219098049    -0.1891949492
  148      C      -5.4664956582     0.8625795139     1.7530811410
  149      C      -4.0504019828    -2.7616371766    -3.4489321311
  150      C      -6.5617727283    -1.5645024572     2.7306021104
  151      C      -2.6307336806    -1.0576158977     2.5032895039
  152      C      -7.0287628610    -4.5292074572    -0.5186086367
  153      C      -7.7739700431    -3.4079643766    -0.6813514095
  154      C      -3.1720657005    -2.2573251773     2.9514616679
  155      C      -6.8116569884    -0.6009678544    -2.6242528761
  156      C      -6.9724235102     0.4811320507    -0.0856676557
  157      C      -6.7797088906    -2.9135354156    -2.8610641803
  158      C      -3.9910120269     1.1941692235    -1.5609359559
  159      C      -1.6587463990    -2.8111019911     1.3591093413
  160      C      -6.7081826200     0.4025148932     1.2641179178
  161      C      -4.5213015981    -2.2870294184     3.2517367928
  162      C      -4.8812965751    -1.6218593834    -3.5580639709
  163      C      -3.3182856343    -4.4570849678     1.9988706773
  164      C      -2.8039902546    -2.4049098379    -2.9959283676
  165      C      -4.4848010730    -5.3621633004     0.2107965896
  166      C      -1.6938624295    -1.3648372290     1.4661191647
  167      C      -2.5268334765    -3.3478555027     2.3728659657
  168      C      -2.7245883271     0.7400931692    -1.1859986952
  169      C      -4.6948941068     0.6234972638    -2.6710190753
  170      C      -6.0995432395    -4.8701815856    -1.5033652253
  171      C      -1.5080261135    -3.3831703068     0.1091768480
  172      C      -6.5776488810    -2.9728225342     2.5874675293
  173      C      -7.6883327341    -2.5455532367    -1.8386993594
  174      C      -6.7306917219    -4.6356103391     0.8460587304
  175      C      -4.0737417008    -0.4731153874    -3.2839100785
  176      C      -4.5934767463    -3.9915949228    -2.9793591934
 ----------------------------------------------------------------
 Molecular Point Group                 C1    NOp =  1
 Largest Abelian Subgroup              C1    NOp =  1
 Nuclear Repulsion Energy = 34880.5399096123 hartrees
 There are      462 alpha and      462 beta electrons
 Requested basis set is 6-31G(d,p)
 There are 676 shells and 2360 basis functions

 Total QAlloc Memory Limit  20000 MB
 Mega-Array Size      4888 MB
 MEM_STATIC part      5000 MB
 A cutoff of  1.0D-08 yielded  37753 shell pairs
 There are    531332 function pairs
 
 -------------------------------------------------------
 OpenMP Integral Computing Module                       
 Release: version 1.0, May 2013, Q-Chem Inc. Pittsburgh 
 -------------------------------------------------------
 Integral Job Info:
 Integral job number is                      11
 Integral operator is                         1
 short-range coefficients                     0
 long-range coefficients              100000000
 Omega coefficients                           0
 if combine SR and LR in K                    0
 Integral screening is                        0
 Integral computing path is                   2
 max size of driver memory is            800000
 size of driver memory is                593474
 size of scratch memory is              2260544
 max col of scratch BK array               1296
 max len of scratch array in speh3          155
 max len of scratch index in speh4           18
 max int batch size is                      520
 min int batch size is                       52
 fixed nKL is                                52
 max L of basis functions is                  2
 order of int derivative is                   0
 number of shells is                        676
 number of basis is                        2360
 number of cartesian basis is              2360
 number of contracted shell pairs         37753
 number of primitive shell pairs         114456
 maxK2 (contraction) of shell pair           36
 max number of K2 of shell pair               1
 max number of CS2 of shell pair           7227
 max number of PS2 of shell pair          34734
 mem total for path MDJ                 1509448
 -------------------------------------------------------
 Smallest overlap matrix eigenvalue = 2.32E-04

 Scale SEOQF with 1.000000e-02/1.000000e-02/1.000000e-01

 Standard Electronic Orientation quadrupole field applied
 Nucleus-field energy     =    -0.0000002634 hartrees
 Guess from superposition of atomic densities
 Warning:  Energy on first SCF cycle will be non-variational
 A restricted hybrid HF-DFT SCF calculation will be
 performed using Pulay DIIS extrapolation
 Exchange:     0.2000 Hartree-Fock + 0.0800 Slater + 0.7200 B88
 Correlation:  0.1900 VWN1RPA + 0.8100 LYP
 Using SG-1 standard quadrature grid
 SCF converges when DIIS error is below 1.0E-05
 using 16 threads for integral computing 
 -------------------------------------------------------
 OpenMP BLAS3 based DFT computing Module                
 Release: version 1.0, May 2013, Q-Chem Inc. Pittsburgh 
 -------------------------------------------------------
 ---------------------------------------
  Cycle       Energy         DIIS Error
 ---------------------------------------
    1   -5859.0907850668      1.84E-02
    2   -5803.0908129817      1.30E-03
    3   -5802.2881225557      1.80E-03
    4   -5803.9466018707      6.70E-04
    5   -5804.1896005188      3.05E-04
    6   -5804.2449559649      1.47E-04
    7   -5804.2588978267      5.08E-05
    8   -5804.2599152449      3.59E-05
    9   -5804.2609266864      7.91E-06 Convergence criterion met
 ---------------------------------------
 SCF time:  CPU 8327.39 s  wall 856.11 s
 SCF   energy in the final basis set = -5804.2609266864
 Total energy in the final basis set = -5804.2609266864
 
 --------------------------------------------------------------
 
                    Orbital Energies (a.u.)
 --------------------------------------------------------------
 
 Alpha MOs
 -- Occupied --
-19.205 -19.198 -19.135 -19.126 -10.317 -10.312 -10.257 -10.246
-10.246 -10.242 -10.240 -10.238 -10.232 -10.231 -10.229 -10.227
-10.227 -10.227 -10.226 -10.226 -10.226 -10.224 -10.222 -10.221
-10.221 -10.221 -10.221 -10.221 -10.220 -10.220 -10.220 -10.219
-10.219 -10.218 -10.218 -10.218 -10.217 -10.217 -10.217 -10.216
-10.216 -10.216 -10.216 -10.216 -10.216 -10.216 -10.216 -10.216
-10.216 -10.216 -10.215 -10.215 -10.215 -10.215 -10.215 -10.215
-10.215 -10.215 -10.215 -10.214 -10.214 -10.214 -10.214 -10.214
-10.213 -10.213 -10.213 -10.213 -10.213 -10.213 -10.213 -10.213
-10.213 -10.213 -10.213 -10.213 -10.213 -10.212 -10.212 -10.212
-10.212 -10.212 -10.212 -10.212 -10.212 -10.212 -10.212 -10.212
-10.212 -10.211 -10.211 -10.211 -10.211 -10.211 -10.211 -10.211
-10.211 -10.211 -10.210 -10.210 -10.210 -10.210 -10.210 -10.210
-10.210 -10.210 -10.209 -10.209 -10.209 -10.209 -10.209 -10.208
-10.208 -10.208 -10.208 -10.208 -10.208 -10.207 -10.207 -10.207
-10.207 -10.206 -10.206 -10.206 -10.205 -10.205 -10.205 -10.204
-10.204 -10.202 -10.202 -10.202 -10.201 -10.201 -10.201 -10.201
-10.201 -10.200 -10.199 -10.197 -10.196 -10.196 -10.196 -10.193
-10.193 -10.193 -10.193 -10.192  -1.117  -1.103  -1.007  -1.004
 -0.986  -0.979  -0.971  -0.964  -0.963  -0.961  -0.959  -0.957
 -0.938  -0.931  -0.928  -0.927  -0.924  -0.924  -0.923  -0.920
 -0.920  -0.917  -0.898  -0.892  -0.889  -0.888  -0.886  -0.885
 -0.881  -0.875  -0.860  -0.857  -0.843  -0.842  -0.839  -0.837
 -0.837  -0.832  -0.822  -0.819  -0.812  -0.802  -0.799  -0.797
 -0.796  -0.795  -0.795  -0.792  -0.789  -0.787  -0.785  -0.784
 -0.773  -0.772  -0.769  -0.768  -0.768  -0.766  -0.766  -0.761
 -0.758  -0.750  -0.749  -0.746  -0.735  -0.730  -0.718  -0.718
 -0.713  -0.712  -0.712  -0.712  -0.710  -0.710  -0.709  -0.708
 -0.708  -0.707  -0.706  -0.703  -0.703  -0.702  -0.675  -0.670
 -0.661  -0.659  -0.657  -0.653  -0.648  -0.646  -0.633  -0.631
 -0.627  -0.626  -0.624  -0.623  -0.622  -0.621  -0.620  -0.618
 -0.617  -0.617  -0.614  -0.612  -0.610  -0.610  -0.609  -0.609
 -0.607  -0.604  -0.604  -0.600  -0.578  -0.570  -0.569  -0.565
 -0.563  -0.560  -0.559  -0.558  -0.556  -0.554  -0.554  -0.550
 -0.541  -0.538  -0.532  -0.531  -0.529  -0.528  -0.523  -0.523
 -0.522  -0.519  -0.518  -0.518  -0.516  -0.515  -0.513  -0.513
 -0.512  -0.506  -0.505  -0.495  -0.493  -0.490  -0.490  -0.488
 -0.488  -0.484  -0.483  -0.482  -0.481  -0.480  -0.477  -0.476
 -0.476  -0.473  -0.471  -0.470  -0.469  -0.468  -0.466  -0.466
 -0.465  -0.463  -0.463  -0.462  -0.461  -0.460  -0.460  -0.458
 -0.458  -0.455  -0.454  -0.452  -0.450  -0.448  -0.443  -0.443
 -0.442  -0.440  -0.439  -0.438  -0.438  -0.437  -0.435  -0.432
 -0.432  -0.430  -0.427  -0.427  -0.426  -0.425  -0.424  -0.424
 -0.423  -0.422  -0.421  -0.421  -0.420  -0.418  -0.418  -0.417
 -0.417  -0.416  -0.416  -0.415  -0.414  -0.414  -0.412  -0.412
 -0.411  -0.410  -0.410  -0.407  -0.403  -0.402  -0.398  -0.395
 -0.394  -0.392  -0.392  -0.390  -0.388  -0.388  -0.384  -0.383
 -0.382  -0.376  -0.375  -0.373  -0.369  -0.368  -0.367  -0.365
 -0.363  -0.363  -0.362  -0.361  -0.360  -0.359  -0.359  -0.358
 -0.358  -0.357  -0.356  -0.354  -0.354  -0.353  -0.353  -0.353
 -0.353  -0.349  -0.347  -0.346  -0.344  -0.344  -0.342  -0.341
 -0.340  -0.340  -0.339  -0.338  -0.337  -0.337  -0.335  -0.335
 -0.334  -0.332  -0.330  -0.329  -0.327  -0.326  -0.324  -0.322
 -0.309  -0.307  -0.304  -0.297  -0.287  -0.286  -0.272  -0.270
 -0.270  -0.269  -0.268  -0.266  -0.265  -0.265  -0.263  -0.262
 -0.261  -0.260  -0.259  -0.258  -0.257  -0.256  -0.254  -0.252
 -0.250  -0.248  -0.244  -0.241  -0.220  -0.217  -0.213  -0.212
 -0.209  -0.207  -0.204  -0.202  -0.199  -0.198
 -- Virtual --
 -0.124  -0.120  -0.118  -0.112  -0.108  -0.105  -0.079  -0.072
 -0.070  -0.067  -0.061  -0.060  -0.055  -0.051  -0.026  -0.021
 -0.020  -0.020  -0.018  -0.016  -0.015  -0.013  -0.012  -0.011
 -0.010  -0.009  -0.007  -0.005  -0.003  -0.002   0.000   0.001
  0.007   0.008   0.037   0.037   0.041   0.043   0.046   0.048
  0.050   0.051   0.053   0.059   0.064   0.064   0.068   0.068
  0.072   0.078   0.082   0.083   0.084   0.085   0.087   0.093
  0.095   0.097   0.099   0.100   0.101   0.103   0.106   0.106
  0.106   0.108   0.113   0.115   0.116   0.120   0.121   0.122
  0.123   0.124   0.126   0.129   0.132   0.133   0.134   0.136
  0.139   0.142   0.146   0.147   0.148   0.149   0.151   0.151
  0.155   0.157   0.158   0.160   0.163   0.164   0.166   0.167
  0.170   0.171   0.175   0.175   0.176   0.179   0.180   0.182
  0.183   0.184   0.187   0.187   0.190   0.191   0.192   0.193
  0.197   0.197   0.200   0.200   0.203   0.206   0.207   0.208
  0.209   0.210   0.212   0.214   0.215   0.216   0.219   0.220
  0.220   0.221   0.222   0.225   0.226   0.227   0.229   0.230
  0.231   0.236   0.237   0.237   0.239   0.241   0.242   0.244
  0.246   0.248   0.250   0.252   0.254   0.257   0.259   0.267
  0.268   0.272   0.274   0.277   0.277   0.279   0.281   0.283
  0.284   0.289   0.294   0.294   0.301   0.302   0.306   0.307
  0.308   0.312   0.313   0.315   0.316   0.318   0.320   0.321
  0.322   0.323   0.325   0.327   0.331   0.333   0.336   0.336
  0.337   0.340   0.342   0.343   0.345   0.348   0.351   0.352
  0.357   0.359   0.364   0.370   0.377   0.381   0.385   0.388
  0.391   0.396   0.397   0.402   0.405   0.407   0.409   0.411
  0.412   0.414   0.415   0.416   0.418   0.419   0.421   0.426
  0.428   0.430   0.432   0.437   0.437   0.441   0.443   0.445
  0.449   0.453   0.454   0.458   0.458   0.461   0.462   0.466
  0.468   0.471   0.472   0.473   0.474   0.475   0.477   0.477
  0.478   0.479   0.480   0.481   0.482   0.485   0.486   0.487
  0.488   0.489   0.490   0.491   0.493   0.494   0.495   0.497
  0.497   0.498   0.499   0.501   0.501   0.503   0.504   0.505
  0.506   0.507   0.508   0.509   0.509   0.511   0.512   0.513
  0.513   0.514   0.515   0.516   0.517   0.517   0.519   0.519
  0.519   0.521   0.522   0.522   0.523   0.524   0.527   0.527
  0.528   0.528   0.528   0.529   0.530   0.531   0.531   0.532
  0.534   0.534   0.535   0.536   0.537   0.538   0.539   0.539
  0.540   0.541   0.543   0.544   0.545   0.545   0.546   0.546
  0.547   0.547   0.548   0.549   0.550   0.550   0.550   0.552
  0.553   0.554   0.554   0.555   0.556   0.556   0.557   0.558
  0.559   0.560   0.561   0.562   0.562   0.563   0.564   0.564
  0.567   0.567   0.568   0.569   0.570   0.571   0.571   0.572
  0.572   0.574   0.575   0.576   0.577   0.578   0.578   0.579
  0.581   0.581   0.582   0.583   0.585   0.586   0.586   0.587
  0.587   0.587   0.588   0.589   0.591   0.591   0.592   0.593
  0.594   0.595   0.595   0.596   0.598   0.598   0.599   0.600
  0.601   0.603   0.604   0.604   0.605   0.607   0.608   0.609
  0.609   0.610   0.612   0.613   0.615   0.617   0.617   0.618
  0.619   0.620   0.621   0.622   0.623   0.625   0.626   0.627
  0.628   0.628   0.631   0.632   0.632   0.633   0.634   0.635
  0.636   0.637   0.638   0.639   0.639   0.640   0.641   0.643
  0.643   0.644   0.644   0.645   0.647   0.648   0.650   0.651
  0.652   0.653   0.654   0.655   0.656   0.656   0.657   0.658
  0.659   0.660   0.661   0.662   0.662   0.663   0.664   0.664
  0.664   0.665   0.667   0.668   0.669   0.669   0.669   0.671
  0.671   0.673   0.674   0.675   0.675   0.677   0.679   0.681
  0.682   0.683   0.685   0.687   0.687   0.688   0.689   0.691
  0.691   0.692   0.694   0.695   0.696   0.697   0.697   0.699
  0.701   0.701   0.703   0.703   0.705   0.705   0.707   0.709
  0.710   0.711   0.713   0.714   0.715   0.716   0.716   0.718
  0.719   0.720   0.722   0.723   0.724   0.725   0.726   0.728
  0.728   0.729   0.731   0.733   0.734   0.734   0.735   0.736
  0.738   0.739   0.743   0.743   0.745   0.746   0.748   0.749
  0.749   0.751   0.752   0.754   0.754   0.755   0.757   0.758
  0.761   0.761   0.761   0.763   0.764   0.766   0.767   0.768
  0.769   0.771   0.772   0.774   0.775   0.776   0.777   0.779
  0.781   0.782   0.783   0.785   0.786   0.788   0.789   0.790
  0.791   0.792   0.793   0.794   0.795   0.797   0.799   0.799
  0.800   0.800   0.801   0.803   0.804   0.805   0.805   0.807
  0.808   0.809   0.809   0.810   0.811   0.811   0.812   0.813
  0.814   0.814   0.816   0.816   0.816   0.818   0.819   0.820
  0.820   0.821   0.822   0.823   0.823   0.824   0.825   0.826
  0.827   0.827   0.828   0.829   0.830   0.832   0.833   0.834
  0.835   0.837   0.839   0.840   0.843   0.845   0.847   0.848
  0.852   0.853   0.856   0.857   0.857   0.858   0.862   0.864
  0.868   0.871   0.874   0.875   0.878   0.883   0.886   0.890
  0.891   0.893   0.895   0.898   0.900   0.903   0.907   0.912
  0.915   0.917   0.918   0.919   0.921   0.924   0.925   0.928
  0.929   0.930   0.932   0.933   0.935   0.935   0.937   0.939
  0.940   0.941   0.943   0.944   0.946   0.946   0.950   0.951
  0.955   0.958   0.960   0.962   0.964   0.966   0.969   0.975
  0.978   0.981   0.983   0.986   0.988   0.988   0.991   0.994
  0.995   0.996   1.000   1.002   1.003   1.004   1.006   1.008
  1.009   1.013   1.014   1.016   1.018   1.021   1.021   1.023
  1.024   1.025   1.026   1.027   1.029   1.030   1.033   1.034
  1.034   1.036   1.037   1.038   1.041   1.042   1.044   1.047
  1.048   1.050   1.052   1.054   1.054   1.058   1.059   1.061
  1.062   1.063   1.065   1.066   1.069   1.070   1.072   1.074
  1.075   1.077   1.078   1.081   1.081   1.083   1.084   1.084
  1.086   1.087   1.091   1.093   1.093   1.096   1.097   1.099
  1.099   1.103   1.103   1.106   1.108   1.108   1.111   1.113
  1.115   1.116   1.118   1.120   1.121   1.124   1.126   1.130
  1.132   1.137   1.138   1.142   1.144   1.145   1.146   1.148
  1.151   1.152   1.153   1.155   1.157   1.159   1.161   1.163
  1.164   1.164   1.165   1.168   1.168   1.171   1.173   1.175
  1.175   1.178   1.179   1.183   1.185   1.185   1.187   1.190
  1.190   1.192   1.196   1.197   1.198   1.201   1.202   1.206
  1.210   1.211   1.213   1.216   1.218   1.220   1.226   1.229
  1.233   1.233   1.234   1.239   1.240   1.243   1.245   1.247
  1.251   1.252   1.257   1.258   1.261   1.263   1.265   1.266
  1.267   1.269   1.271   1.272   1.275   1.278   1.280   1.280
  1.282   1.284   1.285   1.286   1.289   1.290   1.292   1.297
  1.298   1.300   1.302   1.303   1.306   1.309   1.312   1.313
  1.318   1.322   1.324   1.326   1.327   1.330   1.332   1.334
  1.335   1.337   1.339   1.341   1.342   1.347   1.348   1.352
  1.355   1.358   1.361   1.364   1.366   1.368   1.370   1.374
  1.375   1.375   1.378   1.380   1.383   1.385   1.388   1.390
  1.391   1.393   1.395   1.396   1.400   1.402   1.405   1.406
  1.408   1.412   1.415   1.418   1.421   1.422   1.424   1.426
  1.430   1.431   1.432   1.435   1.440   1.442   1.447   1.449
  1.451   1.453   1.454   1.457   1.458   1.460   1.462   1.465
  1.467   1.468   1.470   1.473   1.475   1.477   1.479   1.480
  1.481   1.484   1.487   1.487   1.490   1.491   1.494   1.497
  1.499   1.504   1.507   1.509   1.510   1.514   1.516   1.520
  1.522   1.526   1.527   1.533   1.535   1.537   1.539   1.541
  1.545   1.550   1.553   1.554   1.557   1.560   1.562   1.564
  1.566   1.568   1.569   1.571   1.573   1.574   1.577   1.578
  1.580   1.583   1.587   1.588   1.589   1.592   1.596   1.598
  1.600   1.603   1.604   1.607   1.609   1.611   1.620   1.622
  1.624   1.628   1.631   1.634   1.635   1.637   1.641   1.645
  1.648   1.649   1.651   1.654   1.660   1.662   1.665   1.670
  1.673   1.676   1.679   1.681   1.687   1.693   1.695   1.696
  1.698   1.698   1.706   1.710   1.713   1.716   1.718   1.719
  1.720   1.723   1.725   1.727   1.730   1.730   1.732   1.735
  1.736   1.738   1.738   1.740   1.741   1.743   1.746   1.747
  1.748   1.752   1.752   1.753   1.754   1.756   1.758   1.759
  1.761   1.761   1.762   1.763   1.766   1.768   1.770   1.770
  1.771   1.773   1.774   1.776   1.776   1.778   1.779   1.780
  1.782   1.782   1.784   1.786   1.787   1.788   1.790   1.792
  1.793   1.795   1.795   1.796   1.797   1.797   1.800   1.801
  1.804   1.805   1.806   1.807   1.808   1.809   1.811   1.814
  1.814   1.815   1.816   1.818   1.819   1.823   1.825   1.827
  1.828   1.829   1.832   1.833   1.835   1.837   1.839   1.841
  1.843   1.847   1.849   1.851   1.855   1.856   1.858   1.858
  1.859   1.861   1.863   1.864   1.865   1.868   1.871   1.872
  1.873   1.877   1.878   1.882   1.883   1.884   1.887   1.888
  1.891   1.892   1.895   1.896   1.899   1.901   1.907   1.910
  1.913   1.913   1.915   1.920   1.921   1.923   1.924   1.926
  1.927   1.930   1.933   1.935   1.936   1.936   1.938   1.941
  1.941   1.944   1.945   1.947   1.950   1.952   1.953   1.957
  1.957   1.960   1.965   1.967   1.970   1.971   1.975   1.976
  1.976   1.979   1.982   1.984   1.986   1.987   1.989   1.990
  1.993   1.993   1.994   1.995   1.997   1.998   1.999   2.000
  2.000   2.002   2.002   2.005   2.006   2.006   2.008   2.010
  2.011   2.012   2.012   2.014   2.015   2.017   2.018   2.018
  2.021   2.021   2.022   2.024   2.025   2.027   2.028   2.030
  2.032   2.033   2.034   2.035   2.036   2.037   2.037   2.038
  2.039   2.040   2.042   2.042   2.043   2.045   2.048   2.049
  2.050   2.050   2.052   2.055   2.057   2.058   2.058   2.059
  2.061   2.062   2.064   2.065   2.066   2.067   2.068   2.069
  2.070   2.070   2.073   2.073   2.075   2.077   2.077   2.079
  2.081   2.084   2.086   2.087   2.088   2.090   2.091   2.093
  2.094   2.095   2.099   2.100   2.101   2.101   2.104   2.109
  2.111   2.115   2.116   2.118   2.120   2.120   2.121   2.124
  2.128   2.132   2.134   2.136   2.138   2.141   2.142   2.146
  2.147   2.156   2.161   2.164   2.165   2.172   2.174   2.182
  2.185   2.189   2.195   2.199   2.202   2.207   2.210   2.211
  2.213   2.214   2.216   2.219   2.223   2.226   2.228   2.229
  2.236   2.237   2.241   2.243   2.243   2.245   2.246   2.247
  2.249   2.252   2.254   2.259   2.259   2.265   2.266   2.269
  2.272   2.273   2.274   2.279   2.282   2.284   2.285   2.287
  2.288   2.289   2.292   2.296   2.297   2.300   2.304   2.306
  2.307   2.309   2.313   2.313   2.315   2.318   2.319   2.320
  2.321   2.326   2.328   2.329   2.333   2.340   2.341   2.342
  2.346   2.347   2.348   2.352   2.353   2.355   2.356   2.358
  2.361   2.363   2.365   2.366   2.366   2.368   2.371   2.372
  2.374   2.376   2.377   2.380   2.381   2.383   2.386   2.386
  2.388   2.388   2.390   2.391   2.394   2.396   2.397   2.399
  2.402   2.404   2.405   2.406   2.409   2.411   2.412   2.414
  2.415   2.416   2.418   2.420   2.423   2.424   2.426   2.429
  2.429   2.432   2.435   2.437   2.441   2.444   2.446   2.446
  2.448   2.449   2.451   2.455   2.458   2.460   2.462   2.464
  2.466   2.467   2.470   2.473   2.475   2.477   2.479   2.480
  2.482   2.484   2.486   2.487   2.491   2.492   2.493   2.494
  2.498   2.501   2.504   2.505   2.506   2.507   2.508   2.510
  2.512   2.513   2.514   2.516   2.517   2.519   2.522   2.525
  2.527   2.530   2.533   2.534   2.536   2.539   2.541   2.545
  2.548   2.551   2.556   2.560   2.560   2.562   2.565   2.566
  2.567   2.571   2.576   2.577   2.579   2.584   2.590   2.591
  2.593   2.595   2.597   2.601   2.603   2.605   2.608   2.610
  2.612   2.613   2.614   2.617   2.619   2.620   2.621   2.623
  2.625   2.626   2.628   2.629   2.631   2.634   2.636   2.637
  2.640   2.640   2.642   2.643   2.643   2.645   2.647   2.648
  2.649   2.652   2.654   2.656   2.656   2.659   2.660   2.661
  2.664   2.667   2.667   2.670   2.672   2.675   2.676   2.677
  2.680   2.681   2.682   2.685   2.688   2.688   2.692   2.694
  2.694   2.696   2.699   2.700   2.703   2.705   2.708   2.709
  2.710   2.713   2.715   2.718   2.722   2.723   2.725   2.728
  2.729   2.734   2.738   2.739   2.742   2.743   2.744   2.746
  2.748   2.751   2.752   2.755   2.757   2.759   2.760   2.762
  2.765   2.766   2.767   2.770   2.775   2.776   2.777   2.779
  2.781   2.782   2.783   2.785   2.787   2.792   2.793   2.796
  2.801   2.805   2.809   2.812   2.814   2.816   2.818   2.821
  2.827   2.830   2.831   2.834   2.837   2.838   2.841   2.846
  2.848   2.849   2.852   2.854   2.858   2.861   2.862   2.863
  2.866   2.868   2.869   2.871   2.874   2.877   2.879   2.880
  2.881   2.884   2.885   2.887   2.890   2.893   2.894   2.898
  2.899   2.901   2.903   2.904   2.906   2.908   2.910   2.911
  2.912   2.913   2.916   2.916   2.918   2.919   2.920   2.921
  2.923   2.924   2.926   2.927   2.928   2.932   2.937   2.940
  2.941   2.944   2.947   2.949   2.951   2.953   2.956   2.961
  2.961   2.964   2.967   2.968   2.972   2.979   2.981   2.987
  2.989   2.994   2.995   2.997   2.999   3.003   3.009   3.011
  3.013   3.015   3.019   3.022   3.024   3.026   3.027   3.029
  3.030   3.031   3.038   3.039   3.041   3.043   3.045   3.047
  3.051   3.054   3.059   3.060   3.063   3.065   3.067   3.075
  3.075   3.077   3.080   3.083   3.089   3.094   3.105   3.117
  3.118   3.121   3.124   3.129   3.137   3.145   3.152   3.155
  3.160   3.164   3.165   3.170   3.172   3.187   3.194   3.195
  3.206   3.208   3.209   3.218   3.219   3.227   3.230   3.238
  3.245   3.250   3.252   3.258   3.259   3.270   3.276   3.278
  3.282   3.299   3.303   3.310   3.319   3.323   3.329   3.332
  3.336   3.346   3.352   3.358   3.361   3.368   3.385   3.394
  3.397   3.405   3.406   3.411   3.421   3.423   3.425   3.439
  3.454   3.464   3.467   3.477   3.482   3.487   3.490   3.494
  3.495   3.498   3.504   3.515   3.517   3.532   3.537   3.551
  3.558   3.559   3.562   3.569   3.571   3.585   3.594   3.597
  3.606   3.636   3.679   3.704   3.898   3.912   3.998   4.018
  4.064   4.071   4.075   4.082   4.085   4.087   4.096   4.100
  4.103   4.103   4.105   4.107   4.111   4.117   4.123   4.125
  4.136   4.137   4.140   4.141   4.149   4.152   4.154   4.157
  4.157   4.159   4.162   4.166   4.169   4.178   4.182   4.185
  4.190   4.194   4.202   4.207   4.219   4.222   4.236   4.240
  4.241   4.246   4.250   4.253   4.256   4.260   4.261   4.264
  4.267   4.274   4.279   4.283   4.286   4.291   4.305   4.306
  4.311   4.327   4.335   4.338   4.370   4.385   4.389   4.393
  4.397   4.400   4.401   4.406   4.407   4.410   4.412   4.420
  4.421   4.424   4.426   4.434   4.451   4.458   4.465   4.473
  4.488   4.496   4.506   4.524   4.541   4.544   4.548   4.558
  4.561   4.566   4.609   4.616   4.625   4.634   4.638   4.647
  4.655   4.666   4.687   4.694   4.697   4.699   4.701   4.702
  4.704   4.715   4.716   4.718   4.741   4.749   4.814   4.818
  4.852   4.856   4.862   4.871   4.880   4.891   4.892   4.897
  4.902   4.908   4.939   4.945   4.967   4.969   4.976   4.987
  4.994   5.004   5.011   5.021   5.159   5.171   5.185   5.191
  5.205   5.206   5.213   5.228   5.303   5.322   5.343   5.344
  5.349   5.379
 --------------------------------------------------------------
 
          Ground-State Mulliken Net Atomic Charges

     Atom                 Charge (a.u.)
  ----------------------------------------
      1 O                    -0.444067
      2 C                    -0.090391
      3 H                     0.141752
      4 H                     0.130279
      5 H                     0.128225
      6 O                    -0.472303
      7 C                     0.568492
      8 C                    -0.247892
      9 H                     0.117482
     10 H                     0.137660
     11 C                    -0.195677
     12 H                     0.110124
     13 H                     0.119867
     14 C                    -0.186104
     15 H                     0.110193
     16 H                     0.114349
     17 C                     0.016201
     18 C                     0.088196
     19 C                    -0.091004
     20 H                     0.098741
     21 C                    -0.091626
     22 H                     0.084758
     23 C                    -0.077892
     24 H                     0.086190
     25 C                    -0.088254
     26 H                     0.099331
     27 C                    -0.115581
     28 H                     0.090679
     29 C                     0.000483
     30 C                     0.027545
     31 C                    -0.012257
     32 C                    -0.030274
     33 C                    -0.034916
     34 C                     0.006661
     35 C                    -0.030430
     36 C                     0.002528
     37 C                    -0.012153
     38 C                    -0.019575
     39 C                    -0.106108
     40 C                     0.001397
     41 C                     0.001825
     42 C                    -0.009305
     43 C                    -0.004179
     44 C                     0.027094
     45 C                    -0.078355
     46 C                     0.017451
     47 C                     0.011105
     48 C                    -0.003067
     49 C                    -0.026059
     50 C                     0.023751
     51 C                    -0.006858
     52 C                     0.023903
     53 C                     0.037042
     54 C                    -0.003860
     55 C                     0.010263
     56 C                    -0.033995
     57 C                    -0.017274
     58 C                    -0.004615
     59 C                    -0.023217
     60 C                     0.044994
     61 C                    -0.026386
     62 C                    -0.010603
     63 C                     0.011712
     64 C                     0.041321
     65 C                     0.038900
     66 C                     0.026660
     67 C                     0.022985
     68 C                    -0.022261
     69 C                    -0.021352
     70 C                     0.019645
     71 C                     0.008985
     72 C                     0.017772
     73 C                     0.027264
     74 C                     0.009385
     75 C                     0.016403
     76 C                    -0.021331
     77 C                    -0.010204
     78 C                     0.018600
     79 C                    -0.021261
     80 C                    -0.005743
     81 C                    -0.011966
     82 C                    -0.036275
     83 C                    -0.003845
     84 C                    -0.004430
     85 C                     0.002081
     86 C                    -0.032703
     87 C                     0.011092
     88 C                     0.033267
     89 O                    -0.425368
     90 C                    -0.094850
     91 H                     0.128404
     92 H                     0.134392
     93 H                     0.119829
     94 O                    -0.491886
     95 C                     0.595641
     96 C                    -0.246695
     97 H                     0.134469
     98 H                     0.132729
     99 C                    -0.202437
    100 H                     0.128031
    101 H                     0.105900
    102 C                    -0.171197
    103 H                     0.099584
    104 H                     0.125842
    105 C                     0.006379
    106 C                     0.116745
    107 C                    -0.105818
    108 H                     0.087882
    109 C                    -0.089844
    110 H                     0.086148
    111 C                    -0.079406
    112 H                     0.090108
    113 C                    -0.095612
    114 H                     0.097279
    115 C                    -0.121021
    116 H                     0.089598
    117 C                    -0.008328
    118 C                     0.034572
    119 C                     0.011618
    120 C                     0.003130
    121 C                    -0.017344
    122 C                    -0.040952
    123 C                    -0.002222
    124 C                    -0.001205
    125 C                     0.018252
    126 C                    -0.019735
    127 C                    -0.083253
    128 C                     0.023670
    129 C                    -0.005713
    130 C                    -0.009960
    131 C                    -0.019469
    132 C                     0.035737
    133 C                    -0.076147
    134 C                     0.030075
    135 C                    -0.020533
    136 C                    -0.000544
    137 C                    -0.018127
    138 C                    -0.011910
    139 C                     0.020208
    140 C                     0.013152
    141 C                     0.001141
    142 C                    -0.031340
    143 C                     0.013306
    144 C                     0.047964
    145 C                    -0.016710
    146 C                    -0.011093
    147 C                    -0.011495
    148 C                     0.022884
    149 C                    -0.012262
    150 C                    -0.026657
    151 C                    -0.011541
    152 C                     0.017452
    153 C                     0.006191
    154 C                     0.032412
    155 C                    -0.002314
    156 C                     0.012483
    157 C                    -0.024248
    158 C                     0.050715
    159 C                    -0.003556
    160 C                    -0.018499
    161 C                     0.015479
    162 C                     0.008250
    163 C                     0.000225
    164 C                     0.008780
    165 C                    -0.003485
    166 C                    -0.035571
    167 C                    -0.023957
    168 C                    -0.013351
    169 C                    -0.024086
    170 C                    -0.006854
    171 C                     0.017594
    172 C                     0.013474
    173 C                    -0.004952
    174 C                    -0.013435
    175 C                     0.006137
    176 C                     0.012135
  ----------------------------------------
  Sum of atomic charges =     0.000000

 -----------------------------------------------------------------
                    Cartesian Multipole Moments
 -----------------------------------------------------------------
    Charge (ESU x 10^10)
                 0.0000
    Dipole Moment (Debye)
         X       2.2047      Y      -2.4963      Z      -2.8547
       Tot       4.3865
    Quadrupole Moments (Debye-Ang)
        XX    -789.1999     XY     -37.0263     YY    -784.2366
        XZ       2.6622     YZ     -13.6999     ZZ    -815.4888
    Octopole Moments (Debye-Ang^2)
       XXX     212.7266    XXY    -180.7211    XYY     306.1361
       YYY    -461.5812    XXZ     -89.7211    XYZ     133.6194
       YYZ    -104.1171    XZZ      21.4082    YZZ     -17.5575
       ZZZ      -3.3100
    Hexadecapole Moments (Debye-Ang^3)
      XXXX -125793.9849   XXXY   -3790.2100   XXYY  -30456.4116
      XYYY   -3103.5726   YYYY  -57688.8909   XXXZ     351.9903
      XXYZ   -1139.2911   XYYZ    1845.0116   YYYZ   -2854.8473
      XXZZ  -24786.1758   XYZZ    -861.4144   YYZZ  -13337.4238
      XZZZ    -164.5144   YZZZ       2.1551   ZZZZ  -21846.4537
 -----------------------------------------------------------------
Archival summary:
1\1\mn251\SP\ProcedureUnspecified\6-31G**\428\afmv_a\SatOct1320:28:132018SatOct1320:28:132018\0\\#,ProcedureUnspecified,6-31G**,\\0,1\C\C,1,1.35109\C,1,1.3805,2,123.756\C,1,1.38146,2,109.583,3,147.265,0\C,2,1.38416,1,108.075,3,-147.734,0\C,5,1.42065,2,119.125,1,139.475,0\C,6,1.38616,5,121.143,2,-139.17,0\C,7,1.40144,6,123.914,5,2.63353,0\C,8,1.38242,7,119.506,6,130.016,0\C,9,1.41486,8,108.939,7,-137.847,0\C,10,1.38244,9,117.653,8,138.717,0\C,11,1.37765,10,124.491,9,-142.035,0\C,12,1.38348,11,107.84,10,150.371,0\C,13,1.36377,12,107.586,11,1.93967,0\C,14,1.39576,13,121.305,12,-144.366,0\C,15,1.39323,14,119.879,13,-1.91394,0\C,16,1.3908,15,105.814,14,143.68,0\C,17,1.39962,16,118.16,15,-135.727,0\C,18,1.38647,17,124.423,16,-6.0772,0\C,15,1.40087,14,122.286,13,140.967,0\C,20,1.3561,15,108.664,14,-142.556,0\C,21,1.39623,20,118.881,15,140.821,0\C,22,1.40467,21,120.761,20,-136.163,0\C,23,1.38805,22,108.63,21,142.574,0\C,24,1.38869,23,116.633,22,-140.276,0\C,25,1.38805,24,119.437,23,139.607,0\C,26,1.38237,25,121.007,24,-4.39951,0\C,27,1.37332,26,121.218,25,-0.198832,0\C,24,1.38958,23,108.768,22,-2.13464,0\C,29,1.36179,24,107.711,23,3.27888,0\C,18,1.40477,17,121.304,16,137.647,0\C,14,1.40536,13,111.26,12,2.86283,0\C,32,1.36612,14,122.064,13,-145.998,0\C,33,1.40241,32,118.567,14,135.323,0\C,33,1.40513,32,118.898,14,0.48754,0\C,26,1.40642,25,106.972,24,-150.889,0\C,36,1.38504,26,109.172,25,2.86343,0\C,37,1.38286,36,121.73,26,138.453,0\C,37,1.39864,36,109.414,26,-5.13829,0\C,39,1.32592,37,119.832,36,141.439,0\C,34,1.40786,33,106.352,32,-140.556,0\C,41,1.38276,34,116.651,33,139.554,0\C,16,1.40942,15,120.315,14,5.1684,0\C,43,1.38943,16,122.48,15,132.032,0\C,44,1.39459,43,109.048,16,-139.571,0\C,45,1.38256,44,121.483,43,144.524,0\C,46,1.3904,45,117.937,44,-142.266,0\C,47,1.36495,46,121.855,45,3.4578,0\C,46,1.39297,45,121.697,44,1.64624,0\C,48,1.39569,47,125.425,46,140.344,0\C,45,1.40022,44,109.049,43,-4.38065,0\C,51,1.38053,45,119.407,44,139.903,0\C,52,1.38374,51,125.011,45,-139.302,0\C,51,1.3933,45,105.691,44,3.94998,0\C,41,1.4121,34,111.063,33,-0.0821624,0\C,49,1.41303,46,117.714,45,-5.01562,0\C,10,1.41825,9,110.857,8,-4.3113,0\C,8,1.43297,7,115.639,6,1.20052,0\C,58,1.39664,8,121.594,7,-4.45794,0\C,53,1.45556,52,113.01,51,152.401,0\C,60,1.47654,53,127.678,52,146.298,0\C,61,1.42927,60,117.334,53,-143.676,0\C,62,1.37394,61,122.053,60,50.5796,0\H,63,1.08645,62,122.562,61,4.53886,0\C,62,1.37691,61,118.207,60,-139.192,0\H,65,1.08648,62,122.916,61,4.47962,0\C,65,1.40034,62,119.542,61,-176.165,0\H,67,1.08627,65,116.075,62,176.924,0\C,67,1.37702,65,120.538,62,9.24486,0\H,69,1.08682,67,117.796,65,170.182,0\C,69,1.378,67,120.771,65,-4.98046,0\H,71,1.08662,69,128.311,67,-179.744,0\C,61,1.56069,60,123.031,53,2.62493,0\H,73,1.09671,61,103.492,60,26.9113,0\H,73,1.0972,61,110.583,60,144.033,0\C,73,1.59534,61,114.416,60,-96.645,0\H,76,1.09691,73,109.463,61,-52.3042,0\H,76,1.09692,73,106.82,61,58.9882,0\C,76,1.51445,73,112.248,61,-178.968,0\H,79,1.09681,76,105.946,73,-147.326,0\H,79,1.09762,76,110.993,73,-27.779,0\C,79,1.48229,76,112.465,73,96.821,0\O,82,1.23906,79,125.02,76,125.632,0\O,82,1.32796,79,110.025,76,-62.4789,0\C,84,1.40845,82,116.808,79,-167.338,0\H,85,1.09667,84,112.731,82,-73.9298,0\H,85,1.09679,84,109.406,82,159.52,0\H,85,1.09767,84,110.005,82,39.2241,0\C,72,3.11424,71,91.1227,69,83.9077,0\C,89,1.36587,72,83.1388,71,172.415,0\C,89,1.39808,72,130.214,71,49.3602,0\C,91,1.39692,89,120.238,72,113.631,0\C,92,1.35725,91,110.661,89,142.674,0\C,92,1.36343,91,119.23,89,-9.68538,0\C,94,1.36594,92,121.195,91,2.72292,0\C,94,1.39915,92,119.411,91,147.582,0\C,96,1.39212,94,106.758,92,-143.404,0\C,97,1.39341,96,108.223,94,-3.01873,0\C,93,1.39962,92,107.843,91,-3.84514,0\C,99,1.36518,93,108.203,92,2.58947,0\C,99,1.38136,93,120.385,92,-142.971,0\C,101,1.39295,99,115.405,93,134.035,0\C,102,1.39613,101,125.17,99,8.75548,0\C,103,1.3831,102,117.079,101,-3.45889,0\C,93,1.40782,92,119.546,91,-149.306,0\C,105,1.38684,93,120.97,92,-0.673884,0\C,106,1.37883,105,110.243,93,141.959,0\C,90,1.41232,89,109.451,72,83.8611,0\C,108,1.38035,90,124.669,89,145.976,0\C,109,1.40193,108,119.195,90,-134.03,0\C,110,1.36138,109,121.036,108,-11.5784,0\C,110,1.40009,109,109.282,108,133.171,0\C,112,1.38211,110,123.659,109,-148.753,0\C,113,1.39226,112,118.432,110,5.80875,0\C,113,1.39435,112,121.543,110,139.11,0\C,115,1.39072,113,110.306,112,-134.727,0\C,116,1.3848,115,119.709,113,144.952,0\C,116,1.38481,115,108.001,113,-5.19633,0\C,118,1.39426,116,117.227,115,143.817,0\C,119,1.39065,118,119.463,116,-137.841,0\C,117,1.40755,116,118.111,115,-141.95,0\C,117,1.40896,116,122.185,115,-2.22712,0\C,122,1.40714,117,119.4,116,-5.47497,0\C,123,1.40107,122,118.513,117,5.75259,0\C,108,1.40909,90,105.956,89,-0.910537,0\C,125,1.39435,108,109.429,90,-2.07784,0\C,124,1.41186,123,107.684,122,-147.144,0\C,127,1.38461,124,120.561,123,148.19,0\C,121,1.41387,117,120.002,116,0.859152,0\C,129,1.37928,121,120.216,117,140.03,0\C,130,1.37495,129,105.421,121,-144.432,0\C,130,1.39951,129,119.015,121,-6.95257,0\C,132,1.38218,130,121.749,129,12.6508,0\C,123,1.4143,122,123.007,117,-134.82,0\C,134,1.37205,123,108.269,122,145.84,0\C,131,1.41589,130,121.003,129,142.548,0\C,133,1.42021,132,120.367,130,-9.4878,0\C,101,1.42091,99,118.914,93,1.74399,0\C,114,1.42222,113,118.283,112,-0.803327,0\C,139,1.40803,114,120.639,113,137.992,0\C,140,1.35578,139,109.851,114,-147.527,0\C,141,1.37811,140,106.922,139,0.335052,0\C,105,1.42335,93,118.693,92,141.332,0\C,141,1.42498,140,118.963,139,141.552,0\C,144,1.42502,141,121.077,140,-135.183,0\C,109,1.43216,108,113.967,90,-2.09915,0\C,107,1.48756,106,108.605,105,9.1447,0\C,147,1.51908,107,116.415,106,-137.889,0\C,147,1.55124,107,122.461,106,151.37,0\C,149,1.47357,147,118.789,107,-5.10187,0\H,150,1.09694,149,112.494,147,169.288,0\H,150,1.09726,149,110.738,147,47.4969,0\C,149,1.49302,147,121.248,107,-149.141,0\C,153,1.39406,149,124.976,147,52.571,0\H,154,1.08643,153,121.106,149,4.60061,0\C,153,1.39496,149,113.695,147,-127.245,0\H,156,1.08667,153,123.806,149,-6.91463,0\C,156,1.38032,153,115.589,149,171.175,0\H,158,1.08613,156,117.198,153,-176.09,0\C,158,1.38498,156,122.997,153,1.09016,0\H,160,1.08634,158,113.248,156,-175.96,0\C,160,1.38713,158,121.62,156,5.53607,0\H,162,1.08634,160,125.634,158,179.139,0\C,150,1.56791,149,113.007,147,-71.8748,0\H,164,1.09627,150,109.241,149,33.5454,0\H,164,1.09651,150,108.525,149,-82.7524,0\C,164,1.55844,150,111.155,149,155.358,0\H,167,1.0971,164,109.865,150,-64.032,0\H,167,1.09728,164,109.978,150,59.0329,0\C,167,1.52265,164,115.996,150,179.485,0\O,170,1.22736,167,119.925,164,86.8085,0\O,170,1.31276,167,112.609,164,-106.223,0\C,172,1.4693,170,120.61,167,156.714,0\H,173,1.09702,172,105.237,170,-44.7694,0\H,173,1.09711,172,110.196,170,-158.362,0\H,173,1.09736,172,115.22,170,76.705,0\\\@

 Total job time:  872.03s(wall), 8354.61s(cpu) 
 Sat Oct 13 20:28:13 2018

        *************************************************************
        *                                                           *
        *  Thank you very much for using Q-Chem.  Have a nice day.  *
        *                                                           *
        *************************************************************


