
Running Job 1 of 1 ./10/20.qcin
qchem ./10/20.qcin_41483.0 /tmpu/cab_g/afmv_a/scratch_qchem/qchem41483/ 1
/tmpu/appuserlic/qchem4.4/serial-multicore/exe/qcprog.exe_s ./10/20.qcin_41483.0 /tmpu/cab_g/afmv_a/scratch_qchem/qchem41483/
Check license passed

                  Welcome to Q-Chem
     A Quantum Leap Into The Future Of Chemistry


 Q-Chem 4.4, Q-Chem, Inc., Pleasanton, CA (2016)

 Y. Shao,  Z. Gan,  E. Epifanovsky,  A. T. B. Gilbert,  M. Wormit,  
 J. Kussmann,  A. W. Lange,  A. Behn,  J. Deng,  X. Feng,  D. Ghosh,  
 M. Goldey,  P. R. Horn,  L. D. Jacobson,  I. Kaliman,  F. Rob,  
 R. Z. Khaliullin,  T. Kus,  A. Landau,  J. Liu,  E. I. Proynov,  Y. M. Rhee,  
 R. M. Richard,  M. A. Rohrdanz,  R. P. Steele,  E. J. Sundstrom,  
 H. L. Woodcock III,  P. M. Zimmerman,  D. Zuev,  B. Albrecht,  E. Alguire,  
 B. Austin,  S. A. Baeppler,  G. J. O. Beran,  Y. A. Bernard,  E. Berquist,  
 K. Brandhorst,  K. B. Bravaya,  S. T. Brown,  D. Casanova,  C.-M. Chang,  
 Y. Chen,  S. H. Chien,  K. D. Closser,  M. P. Coons,  D. L. Crittenden,  
 S. Dasgupta,  M. Diedenhofen,  R. A. DiStasio Jr.,  H. Do,  A. D. Dutoi,  
 R. G. Edgar,  P.-T. Fang,  S. Fatehi,  Q. Feng,  L. Fusti-Molnar,  
 A. Ghysels,  A. Golubeva-Zadorozhnaya,  J. Gomes,  A. Gunina,  
 M. W. D. Hanson-Heine,  P. H. P. Harbach,  A. W. Hauser,  J. E. Herr,  
 E. G. Hohenstein,  Z. C. Holden,  K. Hui,  T.-C. Jagau,  H. Ji,  B. Kaduk,  
 K. Khistyaev,  Jaehoon Kim,  Jihan Kim,  R. A. King,  P. Klunzinger,  
 K. Koh,  D. Kosenkov,  T. Kowalczyk,  C. M. Krauter,  A. Kunitsa,  
 K. U. Lao,  A. Laurent,  K. V. Lawler,  J. Lee,  D. Lefrancois,  S. Lehtola,  
 S. V. Levchenko,  C. Y. Lin,  Y.-S. Lin,  F. Liu,  E. Livshits,  
 R. C. Lochan,  A. Luenser,  P. Manohar,  S. F. Manzer,  S.-P. Mao,  Y. Mao,  
 N. Mardirossian,  A. V. Marenich,  L. A. Martinez-Martinez,  S. A. Maurer,  
 N. J. Mayhall,  J.-M. Mewes,  A. F. Morrison,  K. Nanda,  T. S. Nguyen-Beck,  
 C. M. Oana,  R. Olivares-Amaya,  D. P. O'Neill,  J. A. Parkhill,  
 T. M. Perrine,  R. Peverati,  P. A. Pieniazek,  F. Plasser,  A. Prociuk,  
 D. R. Rehn,  E. Rosta,  N. J. Russ,  N. Sergueev,  S. M. Sharada,  
 S. Sharma,  D. W. Small,  A. Sodt,  T. Stauch,  T. Stein,  D. Stuck,  
 Y.-C. Su,  A. J. W. Thom,  T. Tsuchimochi,  L. Vogt,  O. Vydrov,  T. Wang,  
 M. A. Watson,  J. Wenzel,  A. White,  C. F. Williams,  V. Vanovschi,  
 K. Yao,  S. Yeganeh,  S. R. Yost,  Z.-Q. You,  I. Y. Zhang,  X. Zhang,  
 Y. Zhao,  B. R. Brooks,  G. K. L. Chan,  D. M. Chipman,  C. J. Cramer,  
 W. A. Goddard III,  M. S. Gordon,  W. J. Hehre,  A. Klamt,  
 H. F. Schaefer III,  M. W. Schmidt,  C. D. Sherrill,  D. G. Truhlar,  
 A. Warshel,  X. Xu,  A. Aspuru-Guzik,  R. Baer,  A. T. Bell,  N. A. Besley,  
 J.-D. Chai,  A. Dreuw,  B. D. Dunietz,  T. R. Furlani,  S. R. Gwaltney,  
 C.-P. Hsu,  Y. Jung,  J. Kong,  D. S. Lambrecht,  W. Liang,  C. Ochsenfeld,  
 V. A. Rassolov,  L. V. Slipchenko,  J. E. Subotnik,  T. Van Voorhis,  
 J. M. Herbert,  A. I. Krylov,  P. M. W. Gill,  M. Head-Gordon

 Contributors to earlier versions of Q-Chem not listed above: 
 R. D. Adamson,  J. Baker,  E. F. C. Byrd,  A. K. Chakraborty,  C.-L. Cheng,  
 H. Dachsel,  R. J. Doerksen,  G. Hawkins,  A. Heyden,  S. Hirata,  
 G. Kedziora,  F. J. Keil,  C. Kelley,  P. P. Korambath,  W. Kurlancheek,  
 A. M. Lee,  M. S. Lee,  D. Liotard,  I. Lotan,  P. E. Maslen,  N. Nair,  
 D. Neuhauser,  R. Olson,  B. Peters,  J. Ritchie,  N. E. Schultz,  
 N. Shenvi,  A. C. Simmonett,  K. S. Thanthiriwatte,  Q. Wu,  W. Zhang

 Please cite Q-Chem as follows:
 Y. Shao et al., Mol. Phys. 113, 184-215 (2015)
 DOI: 10.1080/00268976.2014.952696

 Q-Chem 4.4.2 for Intel X86 Linux

 Parts of Q-Chem use Armadillo 5.200.1 (Boston Tea Smuggler).
 http://arma.sourceforge.net/

 Q-Chem begins on Sat Oct 13 20:42:54 2018  

Host: 
0

     Scratch files written to /tmpu/cab_g/afmv_a/scratch_qchem/qchem41483//
 Dec716 11556_ 22328  22283 4050   
Processing $rem in /tmpu/appuserlic/qchem4.4/serial-multicore/config/preferences.
 MEM_TOTAL  2000 
FILE_GEOM_ORG=        593

Checking the input file for inconsistencies... 	...done.

--------------------------------------------------------------
User input:
--------------------------------------------------------------
$comment
SP
$end

$rem
MEM_STATIC 5000
MEM_TOTAL 20000
JOBTYPE SP
EXCHANGE B3LYP
BASIS 6-31g(d,p)
$end

$molecule
0 1
O         -10.516000      7.048000     -1.959000
C         -11.117000      8.236000     -2.478000
H         -10.711000      8.445000     -3.475000
H         -10.888000      9.011000     -1.736000
H         -12.213000      8.250000     -2.458000
O         -12.518000      6.320000     -1.116000
C         -11.302000      6.188000     -1.229000
C         -10.486000      5.152000     -0.498000
H          -9.579000      5.568000     -0.041000
H         -10.171000      4.548000     -1.358000
C         -11.232000      4.224000      0.508000
H         -11.598000      4.784000      1.378000
H         -12.143000      3.761000      0.110000
C         -10.307000      2.989000      0.870000
H         -10.221000      2.398000     -0.050000
H          -9.325000      3.274000      1.269000
C         -11.026000      2.083000      1.852000
C         -12.236000      1.366000      1.209000
C         -12.008000      0.413000      0.227000
H         -11.040000      0.062000     -0.118000
C         -13.101000     -0.224000     -0.403000
H         -12.862000     -1.046000     -1.072000
C         -14.397000      0.078000      0.013000
H         -15.236000     -0.435000     -0.447000
C         -14.621000      1.070000      0.974000
H         -15.620000      1.435000      1.193000
C         -13.530000      1.806000      1.503000
H         -13.545000      2.637000      2.203000
C         -12.963000      1.397000      7.005000
C         -12.373000     -0.897000      6.268000
C          -8.803000     -1.380000      8.966000
C          -8.890000      4.571000      6.381000
C          -6.571000     -0.655000      6.462000
C         -12.803000      0.406000      5.984000
C          -6.610000      2.919000      6.820000
C         -10.964000     -0.322000      9.382000
C          -9.391000     -0.863000      3.724000
C          -8.209000      4.080000      5.252000
C         -10.269000      1.201000      2.813000
C          -8.316000     -0.061000      3.530000
C          -7.076000      2.212000      4.551000
C          -6.130000      1.657000      7.087000
C         -11.670000     -0.384000      4.216000
C          -7.051000      0.019000      8.734000
C         -11.069000      2.440000      3.307000
C         -10.259000      3.531000      3.979000
C          -6.991000     -0.996000      7.787000
C          -9.629000      2.972000      9.477000
C          -8.931000      0.848000      9.896000
C         -10.334000      0.781000      9.884000
C         -12.091000     -0.175000      8.604000
C         -10.999000      3.946000      5.179000
C         -10.563000     -0.130000      3.433000
C         -11.944000     -1.188000      7.602000
C          -7.114000      3.213000      5.538000
C         -11.653000     -1.434000      5.179000
C          -7.122000     -0.221000      4.274000
C         -10.712000      4.080000      7.613000
C         -10.213000     -1.419000      8.981000
C          -8.743000      1.219000      3.110000
C         -11.907000      2.281000      8.798000
C          -6.605000      0.920000      4.838000
C          -9.424000     -1.924000      4.688000
C          -7.383000      2.404000      8.851000
C          -7.383000      3.438000      7.870000
C          -8.307000     -1.988000      5.524000
C         -10.304000      4.501000      6.330000
C          -8.846000      3.472000      4.141000
C          -9.623000      4.006000      8.496000
C         -12.077000      2.111000      4.310000
C         -10.110000     -2.503000      6.786000
C          -8.174000      2.377000      3.656000
C          -7.138000     -1.208000      5.314000
C         -11.881000      3.311000      7.845000
C          -8.057000     -1.834000      7.890000
C         -12.537000      1.118000      8.289000
C          -8.131000     -0.243000      9.515000
C         -10.527000     -2.178000      5.440000
C          -8.692000     -2.368000      6.810000
C         -12.393000      0.765000      4.675000
C         -12.064000      3.054000      5.368000
C          -8.529000      2.156000      9.654000
C         -10.857000     -2.022000      7.878000
C          -6.138000      0.607000      6.126000
C          -8.500000      4.227000      7.666000
C          -6.633000      1.319000      8.362000
C         -12.552000      2.760000      6.694000
C         -10.750000      2.109000      9.560000
O           1.587000     -7.289000      0.526000
C           1.741000     -7.065000     -0.958000
H           1.716000     -5.980000     -1.116000
H           0.808000     -7.386000     -1.436000
H           2.555000     -7.516000     -1.539000
O           0.711000     -9.333000      0.147000
C           1.080000     -8.473000      0.929000
C           0.954000     -8.582000      2.423000
H           1.925000     -8.291000      2.843000
H           0.766000     -9.654000      2.560000
C          -0.217000     -7.842000      3.081000
H          -0.261000     -6.795000      2.755000
H          -1.151000     -8.333000      2.780000
C          -0.018000     -8.014000      4.614000
H          -0.334000     -9.020000      4.916000
H           1.059000     -8.017000      4.822000
C          -0.823000     -7.020000      5.484000
C          -0.188000     -5.618000      5.504000
C           0.772000     -5.368000      6.477000
H           0.886000     -6.167000      7.203000
C           1.411000     -4.152000      6.618000
H           2.146000     -4.038000      7.410000
C           1.172000     -3.170000      5.663000
H           1.687000     -2.214000      5.685000
C           0.284000     -3.457000      4.595000
H           0.020000     -2.642000      3.927000
C          -0.466000     -4.634000      4.552000
H          -1.295000     -4.825000      3.877000
C          -3.860000     -5.665000      9.851000
C          -4.872000     -4.454000      7.996000
C          -8.692000     -6.887000      7.810000
C          -3.581000    -10.602000      8.786000
C          -7.551000     -8.804000      5.134000
C          -3.733000     -4.993000      8.649000
C          -5.758000    -11.171000      7.188000
C          -7.455000     -6.054000      9.708000
C          -4.406000     -6.341000      4.600000
C          -3.410000    -10.665000      7.370000
C          -2.294000     -7.141000      5.441000
C          -4.302000     -7.761000      4.328000
C          -4.362000    -10.285000      5.365000
C          -6.883000    -10.725000      6.536000
C          -3.450000     -5.172000      6.455000
C          -8.561000     -9.114000      7.313000
C          -1.539000     -7.461000      6.745000
C          -1.771000     -8.812000      7.363000
C          -8.509000     -8.363000      6.089000
C          -6.255000     -9.217000     10.659000
C          -8.113000     -8.414000      9.644000
C          -7.473000     -7.377000     10.288000
C          -6.272000     -5.308000      9.779000
C          -2.094000     -8.662000      8.728000
C          -3.276000     -6.016000      5.356000
C          -6.179000     -4.580000      8.541000
C          -4.483000    -10.987000      6.569000
C          -4.716000     -4.597000      6.649000
C          -5.522000     -8.495000      4.191000
C          -3.829000     -9.087000     10.436000
C          -7.984000     -5.821000      8.437000
C          -3.111000     -8.297000      4.884000
C          -5.179000     -7.058000     11.024000
C          -5.497000     -9.681000      4.811000
C          -5.637000     -5.702000      4.711000
C          -7.179000    -10.461000      8.793000
C          -5.951000    -11.146000      8.556000
C          -6.783000     -6.520000      4.667000
C          -2.952000     -9.535000      9.437000
C          -2.539000     -9.816000      6.703000
C          -4.969000     -9.889000     10.446000
C          -1.975000     -6.563000      7.856000
C          -7.146000     -4.960000      6.354000
C          -3.155000     -9.583000      5.446000
C          -6.735000     -7.876000      4.431000
C          -3.941000     -7.729000     10.674000
C          -8.536000     -6.984000      6.362000
C          -5.163000     -5.815000     10.372000
C          -8.756000     -8.205000      8.378000
C          -5.849000     -4.786000      5.770000
C          -7.758000     -6.032000      5.622000
C          -2.810000     -5.383000      7.672000
C          -2.211000     -7.294000      9.045000
C          -7.319000     -9.573000      9.814000
C          -7.324000     -4.820000      7.779000
C          -6.768000     -9.954000      5.337000
C          -4.823000    -10.848000      9.381000
C          -7.773000    -10.285000      7.539000
C          -3.161000     -6.810000     10.003000
C          -6.335000     -7.854000     10.915000
$end

--------------------------------------------------------------
 ----------------------------------------------------------------
             Standard Nuclear Orientation (Angstroms)
    I     Atom           X                Y                Z
 ----------------------------------------------------------------
    1      O      11.5896613727    -6.2490839326    -0.4264065379
    2      C      12.9867146646    -6.5480964991    -0.3992112290
    3      H      13.1306666000    -7.6300124659    -0.5053322971
    4      H      13.3387301423    -6.1471713474     0.5594201528
    5      H      13.5999255231    -5.9706703450    -1.1008973979
    6      O      11.9389331714    -4.4050093090    -1.7401930478
    7      C      11.1825189883    -5.1060491003    -1.0729376284
    8      C       9.7471909347    -4.7594233647    -0.7676558272
    9      H       9.4909563935    -4.8969111115     0.2906423252
   10      H       9.2563689156    -5.5636206395    -1.3297959244
   11      C       9.2077483445    -3.3936555210    -1.2905476795
   12      H       9.6891700675    -2.5485931876    -0.7820609272
   13      H       9.4163773813    -3.1975196245    -2.3491782265
   14      C       7.6249493442    -3.3871752197    -1.2093114171
   15      H       7.2832334046    -4.1264783323    -1.9439801344
   16      H       7.2328743166    -3.5937145041    -0.2051357867
   17      C       7.0931761560    -2.0586935636    -1.7137663367
   18      C       7.3105989095    -1.8805628678    -3.2345012910
   19      C       6.6099320408    -2.6940008877    -4.1130805572
   20      H       5.8598330053    -3.4331674741    -3.8480632097
   21      C       6.8247940884    -2.5762313008    -5.5049435623
   22      H       6.1614462135    -3.1488916101    -6.1471240409
   23      C       7.7023822519    -1.6016956798    -5.9782250206
   24      H       7.8431553307    -1.4879196857    -7.0487052696
   25      C       8.4365859323    -0.8136060782    -5.0851288693
   26      H       9.2403376235    -0.1671723791    -5.4246781169
   27      C       8.3231092346    -1.0298565934    -3.6879256794
   28      H       8.8637100656    -0.5471865425    -2.8782551516
   29      C       6.5788378206     3.3945725462    -0.8343808622
   30      C       4.5442460015     2.7925083144    -2.1195500302
   31      C       1.6405865670     3.3126058346     1.2798107123
   32      C       7.0196424066     0.3269082997     3.3427124319
   33      C       1.4938073590    -0.0551489677     1.9233543827
   34      C       5.8928183603     2.5883957139    -1.7985272283
   35      C       4.3350475074    -0.2378197921     4.1135933627
   36      C       3.6079383065     4.6240891752     0.6699914107
   37      C       3.4318564897    -0.8962337559    -1.3976168526
   38      C       6.4716823962    -0.9088268714     2.9526080693
   39      C       5.7690636472    -1.5088811265    -1.2458706772
   40      C       3.5251586413    -1.7256449019    -0.3299854278
   41      C       4.4743360582    -1.8193700384     2.2847512377
   42      C       2.9954007921    -0.0795601531     3.8404019189
   43      C       4.9808538579     0.6220750976    -2.3777655040
   44      C       1.8501847657     2.0191060443     3.1137834186
   45      C       7.1148655570    -0.8554590044    -0.8204135702
   46      C       7.4153246064    -0.8566800796     0.6654154471
   47      C       1.1852373749     1.3302885617     2.1068030598
   48      C       5.5156804131     3.5532566070     3.4727621230
   49      C       3.3278021143     3.8502849393     2.9258583657
   50      C       4.0515977681     4.5696395375     1.9606170416
   51      C       4.5054150524     4.5230831223    -0.3698909229
   52      C       7.9202247514     0.4801915940     1.0084533049
   53      C       4.7309042078    -0.6448130957    -1.8924063812
   54      C       3.8049863983     3.7427749634    -1.3457499689
   55      C       5.1077992099    -1.1060013510     3.3179228359
   56      C       3.9295169444     1.5771279636    -2.4905605276
   57      C       2.5869240702    -1.6859658900     0.7296906857
   58      C       7.3833644134     2.3743641764     2.4742541801
   59      C       2.3855051883     4.0544467402     0.3392713360
   60      C       4.8806553743    -2.0431689799    -0.0872179120
   61      C       6.3517383637     4.2453405309     1.2479401199
   62      C       3.1113972310    -1.6353160018     1.9984020368
   63      C       2.3990616881     0.0868826260    -1.5490205432
   64      C       3.9397169803     1.9510441708     4.3143502455
   65      C       4.9723111291     0.9742935107     4.4202958528
   66      C       1.5626620804     0.2303738915    -0.4397293492
   67      C       7.7548889741     1.0193185021     2.3492953007
   68      C       6.5540828924    -1.4363593906     1.6393397801
   69      C       6.5449576803     2.5734266940     3.5826468290
   70      C       7.2054317264     0.5574683992    -1.1750231036
   71      C       1.8904678056     2.2968704695    -1.2946055389
   72      C       5.3937332390    -2.0368488649     1.2164508193
   73      C       1.5894011730    -0.6577100602     0.6691678127
   74      C       7.3611257354     3.2795149708     1.3824879595
   75      C       1.0760297452     2.0831418617     0.9796408699
   76      C       5.8609402593     4.3023548515    -0.0803733175
   77      C       2.0791365441     3.2715766045     2.6405989103
   78      C       2.6529975944     1.3254759210    -2.0470488606
   79      C       1.2109907363     1.5703536055    -0.2747971458
   80      C       6.2182791894     1.2190874703    -1.9703765304
   81      C       7.7495869413     1.3129735262    -0.1064309901
   82      C       4.2120817746     3.2540288402     3.8166782951
   83      C       2.4742208621     3.5365713022    -0.9717925679
   84      C       2.3425297212    -0.7403780095     2.7619010494
   85      C       6.2688632943     1.2632104766     4.0364919057
   86      C       2.7451372254     1.3057232845     3.9464016582
   87      C       7.5164298585     2.7275050304     0.0596846275
   88      C       5.4206517248     4.3209436579     2.2853594364
   89      O      -7.1960163955    -8.3280930178     0.5652763812
   90      C      -6.8032600200    -9.6950572850     0.0619880723
   91      H      -5.8801220758    -9.9695100413     0.5866841944
   92      H      -6.4516020506    -9.5754459813    -0.9695369194
   93      H      -7.5019415137   -10.5408174830     0.0524038205
   94      O      -8.2895127340    -7.9101159144    -1.3630684787
   95      C      -7.9541256666    -7.5592072098    -0.2442907545
   96      C      -8.2713286985    -6.2144207022     0.3479292093
   97      H      -8.6566672823    -6.3983868393     1.3586678680
   98      H      -9.0620024492    -5.8502709165    -0.3195488456
   99      C      -7.1568948131    -5.1611580518     0.3260224942
  100      H      -6.2204076854    -5.5626976953     0.7336728031
  101      H      -6.9775943789    -4.8671439461    -0.7158244523
  102      C      -7.7125241164    -3.9412353757     1.1149069863
  103      H      -8.4120325886    -3.3810587059     0.4824625256
  104      H      -8.3519145601    -4.3174609783     1.9228897563
  105      C      -6.6373251085    -2.9322876146     1.5828092289
  106      C      -5.8581869843    -3.4396350954     2.8095004358
  107      C      -6.3811679010    -3.1440296803     4.0624718637
  108      H      -7.2356957937    -2.4749006709     4.0396365950
  109      C      -5.7788993648    -3.5246813376     5.2453644735
  110      H      -6.2513314064    -3.2475790231     6.1837179641
  111      C      -4.6614470155    -4.3494073496     5.1775614343
  112      H      -4.1771708321    -4.7303654312     6.0719844428
  113      C      -4.1892081225    -4.7571473337     3.9038756279
  114      H      -3.2504100450    -5.3024610498     3.8659794459
  115      C      -4.7181567278    -4.2420894194     2.7187145764
  116      H      -4.2794413500    -4.3610115823     1.7324421311
  117      C      -4.7353278949     2.1313328709     2.5167456176
  118      C      -2.8253692321     0.9090462454     1.6280593336
  119      C      -2.6446554046     3.0563336209    -2.3597952825
  120      C      -8.6705234770     1.7852167830    -0.6424432631
  121      C      -4.2912222764     0.4767451675    -4.0248138854
  122      C      -4.0216052389     0.9535490481     2.3904830456
  123      C      -7.6078793979     1.6302527954    -3.1847783559
  124      C      -3.0340630593     3.9103119804    -0.1359372295
  125      C      -3.9305757028    -1.9378644880    -0.8182356062
  126      C      -8.5329332913     0.5077031841    -1.2647727141
  127      C      -5.9134248922    -2.1966356008     0.5268188921
  128      C      -5.0824247337    -2.0205538064    -1.6943670385
  129      C      -7.2984079062    -0.7547629001    -2.6622187630
  130      C      -6.4948167261     1.5925715680    -3.9905802011
  131      C      -3.8842329386    -1.0236204684     1.3916359332
  132      C      -4.4192856548     2.8835157486    -3.7896625694
  133      C      -6.8503642088    -1.4349669210     1.4832949970
  134      C      -7.9385776119    -0.6015807698     0.8650651755
  135      C      -3.5957952729     1.7144202792    -3.9309437587
  136      C      -6.4463288265     4.5470810180    -0.6836027543
  137      C      -4.5666813585     4.5277784157    -1.9460411907
  138      C      -4.2103305189     4.5977416099    -0.6164456768
  139      C      -3.0987457050     3.2577258843     1.1013960088
  140      C      -7.9115640094     0.6984571933     1.4120803120
  141      C      -4.4434797550    -1.9238119004     0.4820693419
  142      C      -2.3137280690     2.0589922181     0.9670014087
  143      C      -8.0401163235     0.4258798612    -2.5481473204
  144      C      -2.7579987426    -0.2910390546     0.9842810412
  145      C      -4.9743856687    -1.4065472449    -2.9817086803
  146      C      -7.6377066739     3.0948672067     0.8732526888
  147      C      -2.2990371823     3.0729041569    -0.9773979222
  148      C      -6.2855879326    -2.0852746394    -0.9439521328
  149      C      -5.3675650100     3.9983378026     1.4347530967
  150      C      -6.0715922834    -0.7267110760    -3.3360833805
  151      C      -2.7553226949    -1.3025627209    -1.2070479417
  152      C      -6.5688351099     3.6177155041    -2.9206856656
  153      C      -7.7544523233     2.8838013129    -2.6222568079
  154      C      -2.7747376809    -0.6359209887    -2.4478492389
  155      C      -8.2852220855     1.8625057463     0.7005013574
  156      C      -8.1942736517    -0.6240671966    -0.5376300501
  157      C      -7.6582907171     3.8018775841    -0.3278370761
  158      C      -6.1049949942    -0.3977978402     2.2575856606
  159      C      -1.6493407828     0.7577018884    -0.9637215159
  160      C      -7.4139518677    -1.4049745987    -1.4293001364
  161      C      -3.8510523070    -0.6684522903    -3.3064670468
  162      C      -6.5247938811     3.1616538986     1.6919813700
  163      C      -2.5198804970     1.7642407488    -3.0271604242
  164      C      -4.2405151457     3.2623056965     1.8327786513
  165      C      -3.7890495624     3.7565051123    -2.8735713956
  166      C      -2.1088264771    -0.4269184525    -0.3010839493
  167      C      -2.0318913498     0.6038279300    -2.3383232286
  168      C      -4.6520281646    -0.2920039181     2.2918790749
  169      C      -6.8035911249     0.8332698124     2.2722103282
  170      C      -5.9771956266     4.4282031923    -2.0021774027
  171      C      -1.7225700137     2.0355307145    -0.2976134384
  172      C      -5.6949722330     0.4094767939    -4.0667546212
  173      C      -8.3018873439     2.9611107108    -1.3046259206
  174      C      -5.8473861607     2.8361228571    -3.8289545399
  175      C      -6.0784007647     2.0632940858     2.3973471668
  176      C      -5.3506597833     4.6119748289     0.1678684085
 ----------------------------------------------------------------
 Molecular Point Group                 C1    NOp =  1
 Largest Abelian Subgroup              C1    NOp =  1
 Nuclear Repulsion Energy = 33708.9828177983 hartrees
 There are      462 alpha and      462 beta electrons
 Requested basis set is 6-31G(d,p)
 There are 676 shells and 2360 basis functions

 Total QAlloc Memory Limit  20000 MB
 Mega-Array Size      4888 MB
 MEM_STATIC part      5000 MB
 A cutoff of  1.0D-08 yielded  36400 shell pairs
 There are    516459 function pairs
 
 -------------------------------------------------------
 OpenMP Integral Computing Module                       
 Release: version 1.0, May 2013, Q-Chem Inc. Pittsburgh 
 -------------------------------------------------------
 Integral Job Info:
 Integral job number is                      11
 Integral operator is                         1
 short-range coefficients                     0
 long-range coefficients              100000000
 Omega coefficients                           0
 if combine SR and LR in K                    0
 Integral screening is                        0
 Integral computing path is                   2
 max size of driver memory is            800000
 size of driver memory is                593474
 size of scratch memory is              2260544
 max col of scratch BK array               1296
 max len of scratch array in speh3          155
 max len of scratch index in speh4           18
 max int batch size is                      520
 min int batch size is                       52
 fixed nKL is                                52
 max L of basis functions is                  2
 order of int derivative is                   0
 number of shells is                        676
 number of basis is                        2360
 number of cartesian basis is              2360
 number of contracted shell pairs         36400
 number of primitive shell pairs         111318
 maxK2 (contraction) of shell pair           36
 max number of K2 of shell pair               1
 max number of CS2 of shell pair           7063
 max number of PS2 of shell pair          34014
 mem total for path MDJ                 1475336
 -------------------------------------------------------
 Smallest overlap matrix eigenvalue = 2.57E-04

 Scale SEOQF with 1.000000e-02/1.000000e-02/1.000000e-02

 Standard Electronic Orientation quadrupole field applied
 Nucleus-field energy     =     0.0000001303 hartrees
 Guess from superposition of atomic densities
 Warning:  Energy on first SCF cycle will be non-variational
 A restricted hybrid HF-DFT SCF calculation will be
 performed using Pulay DIIS extrapolation
 Exchange:     0.2000 Hartree-Fock + 0.0800 Slater + 0.7200 B88
 Correlation:  0.1900 VWN1RPA + 0.8100 LYP
 Using SG-1 standard quadrature grid
 SCF converges when DIIS error is below 1.0E-05
 using 16 threads for integral computing 
 -------------------------------------------------------
 OpenMP BLAS3 based DFT computing Module                
 Release: version 1.0, May 2013, Q-Chem Inc. Pittsburgh 
 -------------------------------------------------------
 ---------------------------------------
  Cycle       Energy         DIIS Error
 ---------------------------------------
    1   -5857.8312964029      1.82E-02
    2   -5803.1368574465      1.29E-03
    3   -5802.1849427524      1.84E-03
    4   -5803.9101835093      7.06E-04
    5   -5804.2003793675      3.26E-04
    6   -5804.2711651964      1.47E-04
    7   -5804.2849194027      5.39E-05
    8   -5804.2860733805      3.76E-05
    9   -5804.2871623447      9.42E-06 Convergence criterion met
 ---------------------------------------
 SCF time:  CPU 8106.90 s  wall 837.88 s
 SCF   energy in the final basis set = -5804.2871623447
 Total energy in the final basis set = -5804.2871623447
 
 --------------------------------------------------------------
 
                    Orbital Energies (a.u.)
 --------------------------------------------------------------
 
 Alpha MOs
 -- Occupied --
-19.196 -19.193 -19.137 -19.129 -10.321 -10.312 -10.250 -10.247
-10.245 -10.244 -10.243 -10.243 -10.242 -10.242 -10.235 -10.234
-10.234 -10.231 -10.230 -10.229 -10.229 -10.227 -10.226 -10.225
-10.224 -10.223 -10.223 -10.222 -10.221 -10.221 -10.221 -10.221
-10.220 -10.220 -10.220 -10.220 -10.220 -10.220 -10.220 -10.219
-10.219 -10.219 -10.219 -10.219 -10.219 -10.219 -10.218 -10.218
-10.218 -10.218 -10.218 -10.217 -10.217 -10.217 -10.217 -10.216
-10.216 -10.215 -10.215 -10.215 -10.215 -10.215 -10.215 -10.215
-10.214 -10.214 -10.214 -10.214 -10.214 -10.214 -10.213 -10.213
-10.213 -10.213 -10.213 -10.213 -10.213 -10.213 -10.213 -10.213
-10.213 -10.213 -10.213 -10.213 -10.212 -10.212 -10.212 -10.212
-10.212 -10.211 -10.211 -10.211 -10.211 -10.211 -10.211 -10.211
-10.211 -10.211 -10.211 -10.211 -10.211 -10.211 -10.211 -10.211
-10.210 -10.210 -10.210 -10.210 -10.210 -10.210 -10.210 -10.210
-10.210 -10.210 -10.209 -10.209 -10.209 -10.209 -10.209 -10.209
-10.208 -10.208 -10.208 -10.208 -10.208 -10.208 -10.207 -10.207
-10.206 -10.206 -10.205 -10.205 -10.205 -10.204 -10.204 -10.203
-10.203 -10.203 -10.203 -10.202 -10.202 -10.202 -10.201 -10.201
-10.201 -10.200 -10.199 -10.194  -1.092  -1.089  -1.008  -1.001
 -0.981  -0.981  -0.964  -0.963  -0.962  -0.961  -0.958  -0.957
 -0.934  -0.934  -0.926  -0.926  -0.924  -0.923  -0.920  -0.919
 -0.918  -0.916  -0.898  -0.897  -0.889  -0.888  -0.883  -0.881
 -0.873  -0.873  -0.857  -0.855  -0.840  -0.840  -0.837  -0.837
 -0.834  -0.833  -0.821  -0.820  -0.809  -0.805  -0.798  -0.795
 -0.794  -0.793  -0.792  -0.791  -0.790  -0.789  -0.782  -0.781
 -0.769  -0.769  -0.766  -0.766  -0.765  -0.765  -0.763  -0.762
 -0.754  -0.752  -0.747  -0.744  -0.735  -0.733  -0.716  -0.715
 -0.713  -0.713  -0.710  -0.710  -0.710  -0.709  -0.707  -0.706
 -0.706  -0.705  -0.705  -0.704  -0.703  -0.702  -0.672  -0.672
 -0.658  -0.657  -0.655  -0.654  -0.646  -0.645  -0.634  -0.634
 -0.626  -0.626  -0.623  -0.623  -0.623  -0.622  -0.618  -0.616
 -0.616  -0.615  -0.613  -0.611  -0.610  -0.609  -0.609  -0.608
 -0.607  -0.606  -0.601  -0.600  -0.568  -0.565  -0.563  -0.562
 -0.561  -0.561  -0.558  -0.557  -0.555  -0.553  -0.553  -0.551
 -0.537  -0.536  -0.535  -0.534  -0.525  -0.525  -0.525  -0.524
 -0.524  -0.522  -0.518  -0.517  -0.516  -0.515  -0.513  -0.512
 -0.508  -0.508  -0.501  -0.498  -0.493  -0.493  -0.487  -0.485
 -0.482  -0.481  -0.480  -0.479  -0.479  -0.477  -0.476  -0.475
 -0.470  -0.470  -0.469  -0.468  -0.468  -0.467  -0.465  -0.464
 -0.463  -0.463  -0.463  -0.462  -0.460  -0.460  -0.459  -0.457
 -0.456  -0.455  -0.453  -0.453  -0.450  -0.446  -0.444  -0.442
 -0.442  -0.442  -0.440  -0.438  -0.437  -0.435  -0.433  -0.433
 -0.432  -0.430  -0.430  -0.428  -0.426  -0.425  -0.425  -0.423
 -0.423  -0.422  -0.420  -0.420  -0.419  -0.417  -0.417  -0.416
 -0.416  -0.415  -0.414  -0.413  -0.413  -0.411  -0.411  -0.410
 -0.409  -0.408  -0.408  -0.407  -0.402  -0.398  -0.397  -0.396
 -0.394  -0.393  -0.392  -0.390  -0.388  -0.385  -0.385  -0.385
 -0.383  -0.376  -0.374  -0.373  -0.373  -0.369  -0.368  -0.366
 -0.365  -0.364  -0.363  -0.362  -0.361  -0.360  -0.359  -0.358
 -0.358  -0.356  -0.355  -0.354  -0.353  -0.352  -0.352  -0.351
 -0.350  -0.349  -0.349  -0.348  -0.348  -0.346  -0.345  -0.344
 -0.343  -0.342  -0.342  -0.341  -0.340  -0.339  -0.335  -0.334
 -0.332  -0.329  -0.328  -0.327  -0.326  -0.325  -0.324  -0.323
 -0.320  -0.317  -0.301  -0.295  -0.285  -0.284  -0.272  -0.271
 -0.270  -0.268  -0.267  -0.265  -0.265  -0.264  -0.263  -0.262
 -0.261  -0.260  -0.259  -0.259  -0.258  -0.255  -0.254  -0.254
 -0.251  -0.250  -0.248  -0.244  -0.223  -0.221  -0.212  -0.210
 -0.208  -0.206  -0.204  -0.202  -0.199  -0.196
 -- Virtual --
 -0.125  -0.122  -0.116  -0.116  -0.112  -0.108  -0.075  -0.074
 -0.073  -0.071  -0.064  -0.062  -0.050  -0.049  -0.026  -0.023
 -0.023  -0.021  -0.018  -0.018  -0.016  -0.014  -0.014  -0.013
 -0.012  -0.010  -0.009  -0.006  -0.003  -0.001   0.002   0.005
  0.006   0.009   0.035   0.036   0.041   0.043   0.044   0.047
  0.049   0.052   0.053   0.056   0.058   0.064   0.065   0.068
  0.073   0.075   0.076   0.080   0.081   0.082   0.086   0.087
  0.091   0.094   0.097   0.097   0.099   0.103   0.105   0.106
  0.109   0.110   0.110   0.113   0.113   0.116   0.118   0.120
  0.122   0.122   0.124   0.126   0.127   0.129   0.130   0.133
  0.137   0.138   0.142   0.143   0.147   0.148   0.150   0.155
  0.156   0.159   0.160   0.162   0.164   0.164   0.165   0.168
  0.169   0.170   0.172   0.174   0.175   0.178   0.178   0.181
  0.182   0.183   0.184   0.186   0.188   0.189   0.189   0.191
  0.194   0.194   0.195   0.195   0.196   0.200   0.202   0.203
  0.203   0.206   0.208   0.211   0.213   0.215   0.215   0.216
  0.219   0.219   0.220   0.220   0.221   0.223   0.225   0.227
  0.229   0.230   0.231   0.232   0.233   0.236   0.237   0.239
  0.240   0.242   0.243   0.244   0.245   0.252   0.254   0.259
  0.259   0.266   0.267   0.272   0.273   0.275   0.278   0.280
  0.282   0.284   0.285   0.288   0.290   0.291   0.299   0.299
  0.304   0.307   0.308   0.311   0.312   0.314   0.315   0.317
  0.319   0.320   0.323   0.325   0.327   0.329   0.330   0.332
  0.337   0.337   0.338   0.342   0.343   0.345   0.351   0.352
  0.353   0.356   0.357   0.364   0.368   0.371   0.380   0.381
  0.388   0.391   0.394   0.395   0.398   0.400   0.404   0.408
  0.409   0.412   0.413   0.413   0.418   0.420   0.421   0.421
  0.423   0.427   0.429   0.430   0.436   0.438   0.442   0.446
  0.447   0.448   0.451   0.453   0.454   0.457   0.459   0.460
  0.462   0.465   0.466   0.468   0.469   0.471   0.473   0.475
  0.476   0.477   0.479   0.480   0.482   0.482   0.484   0.484
  0.485   0.487   0.488   0.489   0.491   0.493   0.493   0.494
  0.495   0.495   0.496   0.497   0.498   0.500   0.502   0.503
  0.504   0.504   0.505   0.507   0.508   0.509   0.510   0.511
  0.511   0.513   0.513   0.514   0.515   0.516   0.517   0.518
  0.519   0.520   0.521   0.521   0.523   0.523   0.523   0.525
  0.525   0.526   0.527   0.527   0.530   0.531   0.531   0.533
  0.533   0.534   0.534   0.536   0.536   0.536   0.537   0.537
  0.538   0.539   0.540   0.541   0.542   0.542   0.543   0.545
  0.545   0.545   0.546   0.547   0.547   0.548   0.549   0.550
  0.551   0.552   0.552   0.554   0.554   0.555   0.556   0.557
  0.558   0.558   0.559   0.560   0.561   0.562   0.562   0.563
  0.564   0.565   0.566   0.567   0.568   0.569   0.570   0.570
  0.571   0.572   0.573   0.573   0.574   0.575   0.578   0.578
  0.579   0.579   0.580   0.581   0.581   0.582   0.584   0.585
  0.585   0.587   0.587   0.588   0.588   0.589   0.590   0.591
  0.592   0.592   0.593   0.594   0.595   0.596   0.596   0.599
  0.600   0.600   0.601   0.603   0.603   0.603   0.604   0.606
  0.607   0.607   0.609   0.610   0.611   0.613   0.613   0.615
  0.616   0.617   0.617   0.619   0.620   0.621   0.623   0.623
  0.625   0.626   0.627   0.628   0.630   0.630   0.631   0.632
  0.632   0.633   0.634   0.635   0.636   0.636   0.637   0.638
  0.640   0.640   0.641   0.642   0.644   0.644   0.646   0.647
  0.649   0.649   0.650   0.651   0.652   0.652   0.653   0.654
  0.655   0.656   0.658   0.658   0.659   0.660   0.661   0.662
  0.662   0.664   0.665   0.666   0.667   0.667   0.668   0.668
  0.669   0.670   0.671   0.671   0.672   0.673   0.675   0.676
  0.677   0.678   0.679   0.680   0.681   0.682   0.683   0.684
  0.686   0.686   0.687   0.690   0.690   0.692   0.692   0.694
  0.695   0.696   0.697   0.700   0.700   0.701   0.702   0.704
  0.704   0.705   0.706   0.706   0.708   0.711   0.712   0.714
  0.714   0.716   0.716   0.718   0.718   0.720   0.720   0.721
  0.722   0.724   0.725   0.727   0.728   0.728   0.729   0.730
  0.732   0.733   0.734   0.735   0.737   0.738   0.741   0.742
  0.743   0.745   0.746   0.749   0.750   0.751   0.753   0.755
  0.756   0.758   0.760   0.762   0.762   0.762   0.765   0.765
  0.767   0.769   0.770   0.770   0.772   0.773   0.775   0.776
  0.777   0.778   0.779   0.781   0.783   0.784   0.785   0.785
  0.788   0.789   0.790   0.792   0.792   0.794   0.795   0.796
  0.799   0.799   0.800   0.801   0.802   0.802   0.803   0.804
  0.806   0.806   0.807   0.808   0.809   0.810   0.811   0.811
  0.812   0.813   0.813   0.814   0.815   0.815   0.816   0.816
  0.817   0.818   0.819   0.819   0.820   0.820   0.822   0.823
  0.823   0.825   0.826   0.828   0.828   0.829   0.830   0.832
  0.832   0.833   0.836   0.837   0.838   0.839   0.843   0.845
  0.850   0.850   0.853   0.855   0.858   0.860   0.861   0.861
  0.864   0.865   0.871   0.873   0.881   0.882   0.884   0.889
  0.889   0.891   0.893   0.894   0.894   0.897   0.898   0.901
  0.903   0.905   0.909   0.912   0.919   0.920   0.922   0.923
  0.925   0.926   0.928   0.930   0.932   0.933   0.935   0.936
  0.938   0.940   0.941   0.943   0.945   0.946   0.949   0.951
  0.953   0.954   0.955   0.956   0.960   0.963   0.965   0.969
  0.971   0.973   0.973   0.978   0.979   0.981   0.987   0.989
  0.991   0.992   0.995   0.996   0.999   1.000   1.002   1.004
  1.004   1.005   1.006   1.009   1.010   1.013   1.015   1.017
  1.020   1.021   1.023   1.025   1.026   1.027   1.029   1.030
  1.031   1.032   1.035   1.036   1.037   1.039   1.040   1.042
  1.042   1.045   1.046   1.049   1.050   1.052   1.054   1.057
  1.060   1.062   1.063   1.063   1.066   1.067   1.068   1.069
  1.071   1.073   1.073   1.074   1.078   1.080   1.081   1.082
  1.083   1.083   1.086   1.087   1.091   1.095   1.095   1.096
  1.098   1.099   1.102   1.104   1.107   1.108   1.109   1.112
  1.114   1.115   1.118   1.119   1.120   1.123   1.127   1.128
  1.130   1.132   1.134   1.137   1.138   1.140   1.144   1.145
  1.147   1.148   1.150   1.153   1.153   1.155   1.157   1.159
  1.159   1.163   1.164   1.166   1.166   1.168   1.171   1.172
  1.173   1.175   1.176   1.177   1.177   1.181   1.183   1.184
  1.186   1.188   1.192   1.195   1.195   1.196   1.197   1.200
  1.200   1.203   1.206   1.209   1.210   1.212   1.216   1.220
  1.221   1.223   1.227   1.228   1.232   1.235   1.237   1.243
  1.244   1.245   1.247   1.251   1.253   1.256   1.257   1.259
  1.261   1.264   1.266   1.267   1.269   1.271   1.273   1.274
  1.276   1.278   1.281   1.283   1.285   1.287   1.289   1.290
  1.293   1.296   1.298   1.300   1.304   1.305   1.307   1.310
  1.310   1.312   1.316   1.317   1.318   1.321   1.324   1.326
  1.329   1.331   1.336   1.340   1.341   1.343   1.345   1.348
  1.350   1.353   1.354   1.355   1.357   1.359   1.362   1.364
  1.369   1.370   1.371   1.373   1.375   1.375   1.379   1.382
  1.382   1.387   1.388   1.389   1.393   1.396   1.400   1.403
  1.404   1.407   1.408   1.413   1.417   1.418   1.421   1.422
  1.426   1.428   1.431   1.434   1.436   1.437   1.445   1.450
  1.452   1.454   1.458   1.460   1.461   1.464   1.465   1.466
  1.469   1.470   1.473   1.474   1.475   1.478   1.480   1.482
  1.484   1.487   1.490   1.491   1.492   1.493   1.493   1.497
  1.499   1.500   1.502   1.505   1.508   1.510   1.511   1.515
  1.517   1.520   1.523   1.526   1.531   1.534   1.537   1.542
  1.544   1.544   1.547   1.551   1.553   1.554   1.555   1.556
  1.558   1.560   1.563   1.565   1.568   1.571   1.574   1.575
  1.579   1.580   1.581   1.582   1.586   1.590   1.593   1.595
  1.597   1.598   1.600   1.602   1.603   1.608   1.616   1.617
  1.620   1.620   1.623   1.627   1.634   1.635   1.636   1.641
  1.643   1.645   1.651   1.656   1.660   1.662   1.666   1.667
  1.670   1.674   1.679   1.681   1.684   1.688   1.689   1.693
  1.696   1.698   1.699   1.702   1.706   1.708   1.710   1.713
  1.717   1.718   1.724   1.725   1.726   1.727   1.728   1.733
  1.735   1.737   1.740   1.742   1.742   1.744   1.745   1.748
  1.749   1.750   1.750   1.753   1.756   1.757   1.759   1.760
  1.762   1.764   1.765   1.765   1.767   1.768   1.769   1.769
  1.770   1.770   1.772   1.774   1.774   1.775   1.777   1.777
  1.779   1.780   1.780   1.781   1.783   1.784   1.785   1.788
  1.788   1.790   1.790   1.791   1.792   1.796   1.797   1.798
  1.799   1.800   1.803   1.804   1.805   1.806   1.807   1.808
  1.809   1.811   1.813   1.813   1.814   1.816   1.819   1.820
  1.820   1.822   1.825   1.827   1.829   1.829   1.831   1.834
  1.837   1.838   1.840   1.841   1.844   1.848   1.849   1.852
  1.854   1.855   1.858   1.860   1.862   1.864   1.865   1.868
  1.871   1.872   1.873   1.875   1.875   1.878   1.879   1.880
  1.881   1.882   1.886   1.888   1.888   1.891   1.895   1.901
  1.902   1.904   1.905   1.907   1.909   1.910   1.914   1.916
  1.917   1.919   1.923   1.927   1.929   1.930   1.933   1.934
  1.936   1.938   1.941   1.942   1.944   1.944   1.947   1.950
  1.951   1.953   1.956   1.957   1.957   1.961   1.962   1.963
  1.965   1.968   1.971   1.974   1.976   1.976   1.978   1.978
  1.979   1.982   1.984   1.988   1.988   1.991   1.992   1.995
  1.997   1.997   1.999   2.002   2.003   2.003   2.004   2.004
  2.006   2.008   2.009   2.010   2.011   2.012   2.013   2.014
  2.017   2.018   2.019   2.020   2.021   2.024   2.024   2.026
  2.027   2.028   2.029   2.030   2.034   2.034   2.035   2.038
  2.038   2.039   2.041   2.041   2.042   2.044   2.044   2.046
  2.047   2.047   2.049   2.049   2.050   2.053   2.053   2.054
  2.055   2.056   2.059   2.060   2.060   2.062   2.063   2.064
  2.066   2.067   2.067   2.069   2.070   2.073   2.073   2.074
  2.075   2.078   2.080   2.082   2.082   2.084   2.085   2.087
  2.091   2.091   2.093   2.095   2.096   2.097   2.099   2.099
  2.102   2.107   2.108   2.112   2.115   2.115   2.118   2.121
  2.123   2.126   2.127   2.129   2.131   2.134   2.137   2.139
  2.140   2.143   2.147   2.149   2.153   2.154   2.155   2.159
  2.166   2.172   2.175   2.179   2.182   2.184   2.186   2.189
  2.193   2.197   2.200   2.204   2.207   2.212   2.214   2.216
  2.218   2.226   2.229   2.230   2.232   2.234   2.237   2.239
  2.242   2.243   2.244   2.246   2.250   2.251   2.254   2.256
  2.261   2.265   2.268   2.270   2.273   2.274   2.279   2.281
  2.282   2.285   2.288   2.289   2.290   2.294   2.294   2.297
  2.299   2.300   2.302   2.303   2.307   2.309   2.310   2.314
  2.315   2.317   2.319   2.321   2.326   2.327   2.330   2.332
  2.334   2.337   2.340   2.341   2.344   2.347   2.348   2.349
  2.352   2.353   2.354   2.355   2.356   2.358   2.358   2.362
  2.365   2.367   2.370   2.371   2.371   2.372   2.374   2.377
  2.379   2.380   2.383   2.383   2.385   2.385   2.389   2.393
  2.396   2.397   2.399   2.400   2.401   2.402   2.406   2.406
  2.406   2.408   2.410   2.412   2.417   2.418   2.420   2.423
  2.424   2.427   2.429   2.430   2.432   2.436   2.438   2.440
  2.441   2.441   2.444   2.445   2.446   2.448   2.452   2.452
  2.454   2.456   2.458   2.459   2.461   2.464   2.466   2.469
  2.470   2.474   2.476   2.480   2.481   2.484   2.488   2.489
  2.490   2.494   2.496   2.498   2.500   2.502   2.503   2.505
  2.507   2.509   2.511   2.513   2.514   2.518   2.519   2.520
  2.522   2.523   2.524   2.526   2.529   2.531   2.533   2.534
  2.537   2.539   2.540   2.545   2.549   2.550   2.552   2.559
  2.560   2.563   2.568   2.568   2.573   2.579   2.583   2.584
  2.586   2.587   2.590   2.593   2.595   2.595   2.600   2.601
  2.602   2.604   2.606   2.608   2.611   2.611   2.613   2.614
  2.617   2.619   2.621   2.622   2.625   2.626   2.627   2.628
  2.632   2.634   2.635   2.637   2.638   2.640   2.643   2.646
  2.647   2.649   2.652   2.652   2.654   2.655   2.658   2.658
  2.660   2.662   2.664   2.667   2.668   2.670   2.672   2.673
  2.675   2.676   2.677   2.680   2.681   2.683   2.685   2.687
  2.691   2.692   2.693   2.697   2.698   2.698   2.701   2.702
  2.706   2.709   2.710   2.717   2.718   2.721   2.722   2.723
  2.725   2.726   2.728   2.732   2.735   2.736   2.738   2.740
  2.741   2.745   2.748   2.749   2.753   2.753   2.754   2.758
  2.760   2.762   2.765   2.766   2.769   2.769   2.773   2.775
  2.777   2.779   2.780   2.783   2.785   2.787   2.790   2.792
  2.795   2.799   2.801   2.803   2.804   2.805   2.806   2.813
  2.815   2.818   2.821   2.824   2.830   2.831   2.834   2.837
  2.839   2.842   2.844   2.846   2.847   2.849   2.850   2.853
  2.856   2.858   2.861   2.863   2.864   2.865   2.870   2.873
  2.875   2.878   2.879   2.880   2.881   2.882   2.884   2.885
  2.886   2.890   2.892   2.892   2.896   2.896   2.898   2.900
  2.901   2.902   2.905   2.906   2.909   2.909   2.911   2.915
  2.918   2.920   2.921   2.923   2.924   2.927   2.928   2.931
  2.933   2.935   2.939   2.941   2.942   2.943   2.945   2.948
  2.951   2.955   2.957   2.959   2.963   2.967   2.972   2.974
  2.975   2.977   2.980   2.985   2.988   2.992   2.996   3.000
  3.002   3.005   3.006   3.009   3.012   3.015   3.017   3.020
  3.020   3.026   3.028   3.029   3.030   3.035   3.035   3.041
  3.043   3.045   3.046   3.048   3.050   3.056   3.060   3.061
  3.064   3.065   3.069   3.071   3.077   3.083   3.086   3.094
  3.100   3.109   3.111   3.115   3.127   3.134   3.136   3.140
  3.148   3.154   3.154   3.161   3.169   3.175   3.177   3.183
  3.187   3.189   3.196   3.204   3.212   3.221   3.226   3.229
  3.235   3.240   3.244   3.246   3.251   3.252   3.255   3.264
  3.282   3.284   3.301   3.308   3.311   3.314   3.317   3.325
  3.326   3.327   3.335   3.336   3.342   3.343   3.374   3.374
  3.391   3.401   3.413   3.415   3.418   3.434   3.437   3.440
  3.445   3.448   3.449   3.452   3.454   3.465   3.475   3.485
  3.488   3.493   3.495   3.501   3.515   3.516   3.527   3.529
  3.541   3.544   3.553   3.556   3.562   3.568   3.574   3.574
  3.586   3.587   3.667   3.684   3.861   3.876   3.971   4.004
  4.062   4.076   4.078   4.082   4.085   4.090   4.093   4.095
  4.095   4.098   4.102   4.103   4.106   4.112   4.121   4.128
  4.130   4.132   4.134   4.136   4.136   4.142   4.144   4.146
  4.151   4.153   4.155   4.159   4.167   4.168   4.171   4.173
  4.176   4.183   4.192   4.208   4.216   4.222   4.233   4.241
  4.244   4.246   4.248   4.250   4.252   4.255   4.260   4.261
  4.267   4.269   4.271   4.274   4.276   4.281   4.286   4.300
  4.304   4.307   4.315   4.336   4.371   4.375   4.379   4.390
  4.395   4.399   4.406   4.407   4.410   4.411   4.414   4.415
  4.416   4.420   4.423   4.426   4.440   4.450   4.463   4.465
  4.468   4.471   4.488   4.492   4.524   4.530   4.550   4.557
  4.562   4.571   4.594   4.599   4.614   4.623   4.630   4.633
  4.638   4.645   4.671   4.676   4.685   4.690   4.694   4.695
  4.700   4.707   4.708   4.718   4.733   4.750   4.792   4.813
  4.837   4.840   4.849   4.853   4.869   4.875   4.884   4.898
  4.902   4.910   4.932   4.944   4.957   4.963   4.966   4.971
  4.980   4.994   5.000   5.003   5.135   5.156   5.160   5.176
  5.192   5.194   5.197   5.236   5.284   5.298   5.311   5.317
  5.340   5.355
 --------------------------------------------------------------
 
          Ground-State Mulliken Net Atomic Charges

     Atom                 Charge (a.u.)
  ----------------------------------------
      1 O                    -0.470467
      2 C                    -0.097151
      3 H                     0.124832
      4 H                     0.121445
      5 H                     0.146232
      6 O                    -0.475450
      7 C                     0.591880
      8 C                    -0.256760
      9 H                     0.137462
     10 H                     0.136451
     11 C                    -0.183696
     12 H                     0.115779
     13 H                     0.132719
     14 C                    -0.184676
     15 H                     0.112937
     16 H                     0.105618
     17 C                     0.013918
     18 C                     0.085187
     19 C                    -0.109055
     20 H                     0.091501
     21 C                    -0.088878
     22 H                     0.092838
     23 C                    -0.079862
     24 H                     0.092944
     25 C                    -0.101677
     26 H                     0.097235
     27 C                    -0.095671
     28 H                     0.101628
     29 C                    -0.018848
     30 C                    -0.008301
     31 C                    -0.022689
     32 C                    -0.015882
     33 C                     0.017038
     34 C                     0.008026
     35 C                     0.008079
     36 C                     0.021840
     37 C                     0.020216
     38 C                    -0.004386
     39 C                    -0.088064
     40 C                     0.033832
     41 C                    -0.013630
     42 C                    -0.015771
     43 C                    -0.025968
     44 C                     0.019603
     45 C                    -0.081915
     46 C                    -0.000203
     47 C                    -0.008603
     48 C                    -0.002391
     49 C                     0.004355
     50 C                     0.000054
     51 C                    -0.001756
     52 C                    -0.023670
     53 C                     0.035770
     54 C                    -0.006122
     55 C                    -0.004323
     56 C                    -0.008147
     57 C                    -0.052947
     58 C                     0.029161
     59 C                     0.004959
     60 C                     0.002895
     61 C                    -0.005264
     62 C                     0.021441
     63 C                    -0.008650
     64 C                    -0.021818
     65 C                    -0.002481
     66 C                    -0.003126
     67 C                    -0.014672
     68 C                     0.020098
     69 C                    -0.017901
     70 C                     0.026373
     71 C                    -0.022651
     72 C                     0.004373
     73 C                    -0.014667
     74 C                    -0.013298
     75 C                     0.044928
     76 C                     0.019613
     77 C                    -0.026292
     78 C                     0.018581
     79 C                     0.017337
     80 C                     0.015385
     81 C                     0.031361
     82 C                     0.012535
     83 C                    -0.013476
     84 C                    -0.016733
     85 C                     0.028764
     86 C                     0.010308
     87 C                    -0.036391
     88 C                    -0.010357
     89 O                    -0.466046
     90 C                    -0.098913
     91 H                     0.124409
     92 H                     0.139794
     93 H                     0.137214
     94 O                    -0.475074
     95 C                     0.575387
     96 C                    -0.247413
     97 H                     0.125150
     98 H                     0.137669
     99 C                    -0.187519
    100 H                     0.121446
    101 H                     0.123399
    102 C                    -0.177458
    103 H                     0.111772
    104 H                     0.112365
    105 C                     0.000417
    106 C                     0.095597
    107 C                    -0.100216
    108 H                     0.085870
    109 C                    -0.081949
    110 H                     0.094111
    111 C                    -0.086304
    112 H                     0.093807
    113 C                    -0.104582
    114 H                     0.090080
    115 C                    -0.102368
    116 H                     0.095207
    117 C                    -0.015166
    118 C                     0.005127
    119 C                    -0.012975
    120 C                    -0.000638
    121 C                    -0.000190
    122 C                    -0.015677
    123 C                     0.031666
    124 C                    -0.020378
    125 C                     0.025571
    126 C                     0.005328
    127 C                    -0.086467
    128 C                    -0.018109
    129 C                    -0.001007
    130 C                    -0.022870
    131 C                     0.010244
    132 C                     0.004941
    133 C                    -0.082252
    134 C                     0.015019
    135 C                    -0.018617
    136 C                    -0.004018
    137 C                    -0.019943
    138 C                     0.013714
    139 C                     0.005583
    140 C                     0.007740
    141 C                     0.004288
    142 C                    -0.017910
    143 C                    -0.004882
    144 C                     0.009629
    145 C                    -0.037768
    146 C                     0.018643
    147 C                     0.024041
    148 C                     0.052513
    149 C                    -0.047762
    150 C                     0.042302
    151 C                    -0.017638
    152 C                     0.025884
    153 C                    -0.023231
    154 C                     0.002199
    155 C                    -0.006539
    156 C                     0.009713
    157 C                    -0.029125
    158 C                     0.032147
    159 C                    -0.007979
    160 C                    -0.037997
    161 C                     0.017870
    162 C                     0.002960
    163 C                     0.000991
    164 C                     0.025523
    165 C                    -0.009423
    166 C                    -0.001406
    167 C                    -0.012664
    168 C                     0.000210
    169 C                    -0.008384
    170 C                     0.007987
    171 C                     0.011669
    172 C                    -0.006851
    173 C                    -0.019177
    174 C                    -0.005533
    175 C                     0.036770
    176 C                     0.023662
  ----------------------------------------
  Sum of atomic charges =     0.000000

 -----------------------------------------------------------------
                    Cartesian Multipole Moments
 -----------------------------------------------------------------
    Charge (ESU x 10^10)
                 0.0000
    Dipole Moment (Debye)
         X       1.3190      Y      -5.3321      Z       2.0099
       Tot       5.8490
    Quadrupole Moments (Debye-Ang)
        XX    -810.4118     XY     -21.9290     YY    -780.7089
        XZ     -23.9800     YZ     -14.5209     ZZ    -801.0268
    Octopole Moments (Debye-Ang^2)
       XXX     277.6886    XXY    -312.5562    XYY     199.8102
       YYY    -639.9310    XXZ     258.3610    XYZ     101.0602
       YYZ      84.6134    XZZ      61.6887    YZZ    -118.6544
       ZZZ     -28.8201
    Hexadecapole Moments (Debye-Ang^3)
      XXXX -172392.3035   XXXY   -4053.5070   XXYY  -35183.3290
      XYYY    -791.5932   YYYY  -42952.6490   XXXZ    -625.8557
      XXYZ   -1658.5536   XYYZ   -1020.4967   YYYZ    -517.3426
      XXZZ  -33517.2499   XYZZ     -99.1670   YYZZ  -12667.2928
      XZZZ   -1618.9220   YZZZ     -94.2305   ZZZZ  -27246.3404
 -----------------------------------------------------------------
Archival summary:
1\1\mn251\SP\ProcedureUnspecified\6-31G**\428\afmv_a\SatOct1320:57:082018SatOct1320:57:082018\0\\#,ProcedureUnspecified,6-31G**,\\0,1\C\C,1,1.3619\C,2,1.35986,1,123.166\C,2,1.38579,1,119.551,3,-138.898,0\C,3,1.38947,2,111.388,1,-141.178,0\C,5,1.35831,3,106.577,2,-4.43696,0\C,1,1.39514,2,119.703,3,4.28752,0\C,7,1.39667,1,110.092,2,143.932,0\C,8,1.35891,7,108.02,1,-3.65446,0\C,9,1.3746,8,117.3,7,-140.462,0\C,6,1.4055,5,117.304,3,139.282,0\C,11,1.38962,6,121.25,5,9.30377,0\C,12,1.38101,11,110.369,6,-150.379,0\C,11,1.40465,6,121.95,5,-137.481,0\C,14,1.36584,11,120.157,6,5.88814,0\C,15,1.37732,14,119.924,11,139.099,0\C,15,1.3886,14,119.647,11,-5.04437,0\C,16,1.40356,15,119.019,14,-2.94672,0\C,18,1.38129,16,119.518,15,-137.383,0\C,10,1.41163,9,118.504,8,134.87,0\C,20,1.4012,10,110.727,9,-139.425,0\C,17,1.41243,15,108.433,14,146.268,0\C,22,1.39761,17,104.719,15,-3.96178,0\C,22,1.40778,17,120.643,15,-139.402,0\C,5,1.41531,3,118.626,2,141.851,0\C,25,1.40671,5,117.363,3,-140.691,0\C,25,1.41169,5,124.232,3,1.20932,0\C,27,1.37635,25,105.693,5,-143.285,0\C,28,1.40335,27,112.709,25,-1.1872,0\C,29,1.38269,28,123.068,27,143.688,0\C,30,1.38624,29,120.374,28,1.60721,0\C,31,1.40694,30,121.404,29,-3.15956,0\C,28,1.40854,27,119.521,25,136.855,0\C,33,1.40628,28,118.722,27,1.81018,0\C,34,1.4048,33,121.354,28,-2.91926,0\C,35,1.37378,34,123.629,33,-144.797,0\C,35,1.40535,34,120.231,33,1.0278,0\C,37,1.37587,35,108.876,34,-139.869,0\C,38,1.3947,37,106.895,35,-8.60565,0\C,30,1.41381,29,117.766,28,-139.608,0\C,40,1.40395,30,103.807,29,137.974,0\C,41,1.4106,40,111.311,30,7.4407,0\C,36,1.4159,35,116.055,34,9.73115,0\C,43,1.35516,36,121.792,35,130.894,0\C,44,1.41264,43,108.757,36,-150.014,0\C,45,1.37951,44,116.956,43,143.792,0\C,43,1.4132,36,120.885,35,-15.7575,0\C,47,1.40101,43,120.671,36,14.1641,0\C,48,1.37326,47,126.724,43,131.865,0\C,13,1.41714,12,105.233,11,2.47724,0\C,50,1.39602,13,123.27,12,144.746,0\C,51,1.40349,50,116.468,13,-4.78345,0\C,21,1.41791,20,109.501,10,-0.926199,0\C,49,1.42348,48,118.594,47,6.36639,0\C,53,1.42996,21,122.539,20,148.793,0\C,55,1.41732,53,115.961,21,-6.2228,0\C,56,1.402,55,109.247,53,-140.698,0\C,52,1.44175,51,104.655,50,-139.815,0\C,55,1.45956,53,122.697,21,-147.846,0\C,45,1.49746,44,112.557,43,-8.69872,0\C,59,1.49877,55,129.29,53,-61.3625,0\C,61,1.51727,59,119.978,55,-151.688,0\H,62,1.09685,61,104.968,59,-167.132,0\H,62,1.09761,61,110.105,59,-46.4119,0\C,61,1.54649,59,119.447,55,-5.84803,0\C,65,1.38727,61,118.961,59,144.139,0\H,66,1.08593,65,126.401,61,-3.58837,0\C,65,1.39802,61,119.396,59,-43.8661,0\H,68,1.08664,65,112.888,61,1.09917,0\C,66,1.41327,65,119.873,61,178.032,0\H,70,1.08645,66,116.448,65,172.623,0\C,70,1.39423,66,119.226,65,2.59416,0\H,72,1.08567,70,119.313,66,177.965,0\C,72,1.3992,70,120.485,66,-4.62449,0\H,74,1.0859,72,121.608,70,-169.768,0\C,62,1.5849,61,109.667,59,79.49,0\H,76,1.09667,62,103.812,61,57.5089,0\H,76,1.09748,62,114.279,61,-53.979,0\C,76,1.55876,62,109.39,61,-179.859,0\H,79,1.09711,76,108.394,62,-54.3021,0\H,79,1.09752,76,110.636,62,63.1227,0\C,79,1.50782,76,117.577,62,-165.177,0\O,82,1.22835,79,124.4,76,2.42109,0\O,82,1.37488,79,112.198,76,-172.548,0\C,84,1.42895,82,118.192,79,167.415,0\H,85,1.09627,84,115.117,82,14.1592,0\H,85,1.0966,84,109.448,82,142.158,0\H,85,1.0971,84,104.706,82,-95.5307,0\C,1,2.9703,2,81.3868,3,-107.895,0\C,89,1.36769,1,122.608,2,-104.686,0\C,89,1.39616,1,114.447,2,24.2567,0\C,90,1.39627,89,112.163,1,121.353,0\C,92,1.40037,90,106.1,89,9.42725,0\C,93,1.35594,92,120.925,90,139.62,0\C,94,1.40371,93,121.662,92,4.83407,0\C,95,1.40778,94,118.3,93,-7.56312,0\C,96,1.38409,95,121.022,94,5.90152,0\C,97,1.3783,96,109.521,95,-146.134,0\C,96,1.38914,95,121.451,94,-135.444,0\C,99,1.40458,96,108.417,95,143.08,0\C,100,1.36036,99,122.616,96,-140.251,0\C,101,1.39869,100,123.165,99,139.271,0\C,102,1.41128,101,109.277,100,-141.831,0\C,103,1.37464,102,106.27,101,-0.289771,0\C,104,1.38177,103,110.45,102,-5.54869,0\C,94,1.41129,93,123.637,92,-138.291,0\C,106,1.35009,94,110.262,93,139.961,0\C,107,1.37957,106,109.086,94,2.6373,0\C,106,1.38294,94,117.213,93,1.8792,0\C,108,1.38324,107,121.637,106,-148.178,0\C,110,1.39388,108,119.829,107,142.796,0\C,109,1.39948,106,122.136,94,142.043,0\C,112,1.39112,109,105.37,106,-142.855,0\C,113,1.39657,112,122.646,109,144.015,0\C,114,1.39788,113,117.735,112,-138.562,0\C,115,1.3914,114,124.42,113,-12.217,0\C,110,1.4028,108,119.123,107,3.47129,0\C,117,1.39926,110,107.087,108,141.039,0\C,118,1.39897,117,109.591,110,1.33954,0\C,113,1.40393,112,110.861,109,-3.09401,0\C,120,1.36352,113,106.417,112,0.320442,0\C,116,1.40868,115,116.78,114,138.887,0\C,122,1.37722,116,123.28,115,4.59844,0\C,123,1.3828,122,120.07,116,1.5312,0\C,124,1.33851,123,109.428,122,-140.199,0\C,125,1.39998,124,125.501,123,146.804,0\C,126,1.39865,125,120.398,124,-7.83967,0\C,126,1.39895,125,119.14,124,-141.812,0\C,128,1.37718,126,108.412,125,137.107,0\C,129,1.3872,128,110.649,126,3.01403,0\C,125,1.40237,124,109.226,123,-7.65634,0\C,127,1.40413,126,117.616,125,3.68559,0\C,131,1.40599,125,106.939,124,6.21374,0\C,117,1.41456,110,122.619,108,-5.0893,0\C,134,1.40911,117,115.851,110,2.61252,0\C,134,1.41069,117,123.934,110,143.988,0\C,135,1.41555,134,107.37,117,145.833,0\C,116,1.41615,115,119.285,114,9.16816,0\C,132,1.41948,127,118.445,126,-2.99787,0\C,133,1.42277,131,122.113,125,142.965,0\C,140,1.40602,133,116.568,131,-136.237,0\C,90,1.42504,89,125.139,1,-84.5858,0\C,102,1.42943,101,118.617,100,-0.29592,0\C,143,1.41369,102,118.926,101,2.51967,0\C,138,1.43302,116,111.205,115,137.61,0\C,141,1.43499,140,122.693,133,-6.97265,0\C,137,1.49359,135,111.283,134,6.47471,0\C,114,1.49572,113,119.448,112,4.41644,0\C,148,1.47659,114,126.447,113,69.93,0\C,149,1.53923,148,119.078,114,-2.74182,0\C,150,1.38954,149,117.257,148,-130.137,0\H,151,1.08557,150,114.106,149,6.96972,0\C,151,1.38089,150,123.342,149,179.298,0\H,153,1.0865,151,118.677,150,-179.634,0\C,153,1.39049,151,118.179,150,6.14399,0\H,155,1.08611,153,121.75,151,176.406,0\C,150,1.39708,149,123.407,148,54.0856,0\H,157,1.08598,150,116.844,149,-10.7195,0\C,157,1.39631,150,117.764,149,173.081,0\H,159,1.08634,157,118.876,150,174.142,0\C,149,1.54692,148,116.704,114,137.055,0\H,161,1.09686,149,106.533,148,55.747,0\H,161,1.09691,149,113.957,148,168.846,0\C,161,1.5554,149,114.625,148,-65.6881,0\H,164,1.09729,161,109.256,149,80.7089,0\H,164,1.09746,161,113.791,149,-40.2453,0\C,164,1.53356,161,105.773,149,-162.748,0\H,167,1.09695,164,106.685,161,-71.8418,0\H,167,1.09723,164,112.552,161,50.4918,0\C,167,1.50326,164,117.093,161,174.654,0\O,170,1.21954,167,124.11,164,100.076,0\O,170,1.34956,167,113.071,164,-76.8146,0\C,172,1.50869,170,117.538,167,179.265,0\H,173,1.09636,172,107.368,170,-46.327,0\H,173,1.09673,172,106.635,170,-155.008,0\H,173,1.09707,172,122.386,170,76.7664,0\\\@

 Total job time:  853.80s(wall), 8132.53s(cpu) 
 Sat Oct 13 20:57:08 2018

        *************************************************************
        *                                                           *
        *  Thank you very much for using Q-Chem.  Have a nice day.  *
        *                                                           *
        *************************************************************


