
Running Job 1 of 1 ./10/22.qcin
qchem ./10/22.qcin_41638.0 /tmpu/cab_g/afmv_a/scratch_qchem/qchem41638/ 1
/tmpu/appuserlic/qchem4.4/serial-multicore/exe/qcprog.exe_s ./10/22.qcin_41638.0 /tmpu/cab_g/afmv_a/scratch_qchem/qchem41638/
Check license passed

                  Welcome to Q-Chem
     A Quantum Leap Into The Future Of Chemistry


 Q-Chem 4.4, Q-Chem, Inc., Pleasanton, CA (2016)

 Y. Shao,  Z. Gan,  E. Epifanovsky,  A. T. B. Gilbert,  M. Wormit,  
 J. Kussmann,  A. W. Lange,  A. Behn,  J. Deng,  X. Feng,  D. Ghosh,  
 M. Goldey,  P. R. Horn,  L. D. Jacobson,  I. Kaliman,  F. Rob,  
 R. Z. Khaliullin,  T. Kus,  A. Landau,  J. Liu,  E. I. Proynov,  Y. M. Rhee,  
 R. M. Richard,  M. A. Rohrdanz,  R. P. Steele,  E. J. Sundstrom,  
 H. L. Woodcock III,  P. M. Zimmerman,  D. Zuev,  B. Albrecht,  E. Alguire,  
 B. Austin,  S. A. Baeppler,  G. J. O. Beran,  Y. A. Bernard,  E. Berquist,  
 K. Brandhorst,  K. B. Bravaya,  S. T. Brown,  D. Casanova,  C.-M. Chang,  
 Y. Chen,  S. H. Chien,  K. D. Closser,  M. P. Coons,  D. L. Crittenden,  
 S. Dasgupta,  M. Diedenhofen,  R. A. DiStasio Jr.,  H. Do,  A. D. Dutoi,  
 R. G. Edgar,  P.-T. Fang,  S. Fatehi,  Q. Feng,  L. Fusti-Molnar,  
 A. Ghysels,  A. Golubeva-Zadorozhnaya,  J. Gomes,  A. Gunina,  
 M. W. D. Hanson-Heine,  P. H. P. Harbach,  A. W. Hauser,  J. E. Herr,  
 E. G. Hohenstein,  Z. C. Holden,  K. Hui,  T.-C. Jagau,  H. Ji,  B. Kaduk,  
 K. Khistyaev,  Jaehoon Kim,  Jihan Kim,  R. A. King,  P. Klunzinger,  
 K. Koh,  D. Kosenkov,  T. Kowalczyk,  C. M. Krauter,  A. Kunitsa,  
 K. U. Lao,  A. Laurent,  K. V. Lawler,  J. Lee,  D. Lefrancois,  S. Lehtola,  
 S. V. Levchenko,  C. Y. Lin,  Y.-S. Lin,  F. Liu,  E. Livshits,  
 R. C. Lochan,  A. Luenser,  P. Manohar,  S. F. Manzer,  S.-P. Mao,  Y. Mao,  
 N. Mardirossian,  A. V. Marenich,  L. A. Martinez-Martinez,  S. A. Maurer,  
 N. J. Mayhall,  J.-M. Mewes,  A. F. Morrison,  K. Nanda,  T. S. Nguyen-Beck,  
 C. M. Oana,  R. Olivares-Amaya,  D. P. O'Neill,  J. A. Parkhill,  
 T. M. Perrine,  R. Peverati,  P. A. Pieniazek,  F. Plasser,  A. Prociuk,  
 D. R. Rehn,  E. Rosta,  N. J. Russ,  N. Sergueev,  S. M. Sharada,  
 S. Sharma,  D. W. Small,  A. Sodt,  T. Stauch,  T. Stein,  D. Stuck,  
 Y.-C. Su,  A. J. W. Thom,  T. Tsuchimochi,  L. Vogt,  O. Vydrov,  T. Wang,  
 M. A. Watson,  J. Wenzel,  A. White,  C. F. Williams,  V. Vanovschi,  
 K. Yao,  S. Yeganeh,  S. R. Yost,  Z.-Q. You,  I. Y. Zhang,  X. Zhang,  
 Y. Zhao,  B. R. Brooks,  G. K. L. Chan,  D. M. Chipman,  C. J. Cramer,  
 W. A. Goddard III,  M. S. Gordon,  W. J. Hehre,  A. Klamt,  
 H. F. Schaefer III,  M. W. Schmidt,  C. D. Sherrill,  D. G. Truhlar,  
 A. Warshel,  X. Xu,  A. Aspuru-Guzik,  R. Baer,  A. T. Bell,  N. A. Besley,  
 J.-D. Chai,  A. Dreuw,  B. D. Dunietz,  T. R. Furlani,  S. R. Gwaltney,  
 C.-P. Hsu,  Y. Jung,  J. Kong,  D. S. Lambrecht,  W. Liang,  C. Ochsenfeld,  
 V. A. Rassolov,  L. V. Slipchenko,  J. E. Subotnik,  T. Van Voorhis,  
 J. M. Herbert,  A. I. Krylov,  P. M. W. Gill,  M. Head-Gordon

 Contributors to earlier versions of Q-Chem not listed above: 
 R. D. Adamson,  J. Baker,  E. F. C. Byrd,  A. K. Chakraborty,  C.-L. Cheng,  
 H. Dachsel,  R. J. Doerksen,  G. Hawkins,  A. Heyden,  S. Hirata,  
 G. Kedziora,  F. J. Keil,  C. Kelley,  P. P. Korambath,  W. Kurlancheek,  
 A. M. Lee,  M. S. Lee,  D. Liotard,  I. Lotan,  P. E. Maslen,  N. Nair,  
 D. Neuhauser,  R. Olson,  B. Peters,  J. Ritchie,  N. E. Schultz,  
 N. Shenvi,  A. C. Simmonett,  K. S. Thanthiriwatte,  Q. Wu,  W. Zhang

 Please cite Q-Chem as follows:
 Y. Shao et al., Mol. Phys. 113, 184-215 (2015)
 DOI: 10.1080/00268976.2014.952696

 Q-Chem 4.4.2 for Intel X86 Linux

 Parts of Q-Chem use Armadillo 5.200.1 (Boston Tea Smuggler).
 http://arma.sourceforge.net/

 Q-Chem begins on Sat Oct 13 21:11:21 2018  

Host: 
0

     Scratch files written to /tmpu/cab_g/afmv_a/scratch_qchem/qchem41638//
 Dec716 11556_ 22328  22283 4050   
Processing $rem in /tmpu/appuserlic/qchem4.4/serial-multicore/config/preferences.
 MEM_TOTAL  2000 
FILE_GEOM_ORG=        593

Checking the input file for inconsistencies... 	...done.

--------------------------------------------------------------
User input:
--------------------------------------------------------------
$comment
SP
$end

$rem
MEM_STATIC 5000
MEM_TOTAL 20000
JOBTYPE SP
EXCHANGE B3LYP
BASIS 6-31g(d,p)
$end

$molecule
0 1
O         -18.260000     -4.137000     10.603000
C         -19.583000     -3.540000     10.525000
H         -19.945000     -3.267000     11.524000
H         -20.359000     -4.195000     10.110000
H         -19.447000     -2.602000      9.972000
O         -18.905000     -6.191000     11.278000
C         -18.015000     -5.422000     11.003000
C         -16.597000     -5.872000     10.981000
H         -16.469000     -6.604000     11.788000
H         -15.900000     -5.046000     11.171000
C         -16.164000     -6.467000      9.610000
H         -16.374000     -5.719000      8.836000
H         -15.090000     -6.643000      9.469000
C         -16.874000     -7.815000      9.509000
H         -16.440000     -8.450000     10.292000
H         -17.920000     -7.721000      9.827000
C         -16.902000     -8.414000      8.125000
C         -17.773000     -7.574000      7.241000
C         -17.139000     -6.541000      6.475000
H         -16.060000     -6.423000      6.475000
C         -17.977000     -5.552000      5.914000
H         -17.613000     -4.710000      5.334000
C         -19.398000     -5.682000      5.899000
H         -19.973000     -4.885000      5.435000
C         -20.005000     -6.749000      6.491000
H         -21.091000     -6.740000      6.488000
C         -19.218000     -7.675000      7.242000
H         -19.549000     -8.582000      7.741000
C         -17.186000    -13.210000      5.509000
C         -15.767000    -11.828000      4.103000
C         -11.946000    -13.902000      4.923000
C         -15.441000    -13.287000     10.235000
C         -10.857000    -11.519000      7.327000
C         -16.818000    -11.983000      5.048000
C         -12.649000    -13.078000      9.999000
C         -14.104000    -14.845000      4.504000
C         -13.753000     -8.969000      6.228000
C         -14.789000    -12.083000     10.380000
C         -15.661000     -9.065000      7.688000
C         -13.290000     -9.074000      7.524000
C         -13.077000    -10.696000      9.771000
C         -11.553000    -12.931000      9.210000
C         -15.841000     -9.956000      5.325000
C         -11.209000    -13.960000      7.048000
C         -16.830000     -9.903000      8.131000
C         -16.558000    -10.862000      9.272000
C         -10.815000    -12.691000      6.499000
C         -14.610000    -15.831000      7.907000
C         -12.883000    -15.600000      6.475000
C         -14.007000    -15.611000      5.732000
C         -15.333000    -14.218000      4.209000
C         -17.133000    -12.123000      8.886000
C         -15.151000     -9.149000      6.267000
C         -14.981000    -12.957000      3.748000
C         -13.403000    -11.964000     10.267000
C         -15.172000    -10.577000      4.276000
C         -12.077000     -9.732000      7.819000
C         -16.555000    -14.491000      8.607000
C         -13.082000    -13.998000      4.141000
C         -14.399000     -9.157000      8.436000
C         -16.315000    -15.093000      6.219000
C         -11.976000    -10.546000      8.950000
C         -13.075000     -9.734000      5.167000
C         -12.557000    -14.988000      8.789000
C         -13.292000    -14.357000      9.829000
C         -11.838000    -10.371000      5.427000
C         -16.558000    -13.338000      9.371000
C         -15.343000    -10.900000      9.895000
C         -15.351000    -15.170000      8.922000
C         -17.357000    -10.792000      7.118000
C         -12.921000    -11.579000      3.909000
C         -14.306000    -10.065000      9.487000
C         -11.348000    -10.382000      6.762000
C         -17.039000    -14.461000      7.287000
C         -11.287000    -12.665000      5.181000
C         -16.447000    -14.308000      5.083000
C         -11.920000    -14.668000      6.092000
C         -13.777000    -10.476000      4.191000
C         -11.771000    -11.521000      4.646000
C         -16.867000    -10.812000      5.849000
C         -17.647000    -12.126000      7.598000
C         -13.210000    -15.708000      7.813000
C         -13.591000    -12.807000      3.660000
C         -11.265000    -11.670000      8.655000
C         -14.683000    -14.436000      9.940000
C         -11.575000    -14.018000      8.381000
C         -17.619000    -13.300000      6.796000
C         -15.120000    -15.798000      6.567000
O           1.587000     -7.289000      0.526000
C           1.741000     -7.065000     -0.958000
H           1.716000     -5.980000     -1.116000
H           0.808000     -7.386000     -1.436000
H           2.555000     -7.516000     -1.539000
O           0.711000     -9.333000      0.147000
C           1.080000     -8.473000      0.929000
C           0.954000     -8.582000      2.423000
H           1.925000     -8.291000      2.843000
H           0.766000     -9.654000      2.560000
C          -0.217000     -7.842000      3.081000
H          -0.261000     -6.795000      2.755000
H          -1.151000     -8.333000      2.780000
C          -0.018000     -8.014000      4.614000
H          -0.334000     -9.020000      4.916000
H           1.059000     -8.017000      4.822000
C          -0.823000     -7.020000      5.484000
C          -0.188000     -5.618000      5.504000
C           0.772000     -5.368000      6.477000
H           0.886000     -6.167000      7.203000
C           1.411000     -4.152000      6.618000
H           2.146000     -4.038000      7.410000
C           1.172000     -3.170000      5.663000
H           1.687000     -2.214000      5.685000
C           0.284000     -3.457000      4.595000
H           0.020000     -2.642000      3.927000
C          -0.466000     -4.634000      4.552000
H          -1.295000     -4.825000      3.877000
C          -3.860000     -5.665000      9.851000
C          -4.872000     -4.454000      7.996000
C          -8.692000     -6.887000      7.810000
C          -3.581000    -10.602000      8.786000
C          -7.551000     -8.804000      5.134000
C          -3.733000     -4.993000      8.649000
C          -5.758000    -11.171000      7.188000
C          -7.455000     -6.054000      9.708000
C          -4.406000     -6.341000      4.600000
C          -3.410000    -10.665000      7.370000
C          -2.294000     -7.141000      5.441000
C          -4.302000     -7.761000      4.328000
C          -4.362000    -10.285000      5.365000
C          -6.883000    -10.725000      6.536000
C          -3.450000     -5.172000      6.455000
C          -8.561000     -9.114000      7.313000
C          -1.539000     -7.461000      6.745000
C          -1.771000     -8.812000      7.363000
C          -8.509000     -8.363000      6.089000
C          -6.255000     -9.217000     10.659000
C          -8.113000     -8.414000      9.644000
C          -7.473000     -7.377000     10.288000
C          -6.272000     -5.308000      9.779000
C          -2.094000     -8.662000      8.728000
C          -3.276000     -6.016000      5.356000
C          -6.179000     -4.580000      8.541000
C          -4.483000    -10.987000      6.569000
C          -4.716000     -4.597000      6.649000
C          -5.522000     -8.495000      4.191000
C          -3.829000     -9.087000     10.436000
C          -7.984000     -5.821000      8.437000
C          -3.111000     -8.297000      4.884000
C          -5.179000     -7.058000     11.024000
C          -5.497000     -9.681000      4.811000
C          -5.637000     -5.702000      4.711000
C          -7.179000    -10.461000      8.793000
C          -5.951000    -11.146000      8.556000
C          -6.783000     -6.520000      4.667000
C          -2.952000     -9.535000      9.437000
C          -2.539000     -9.816000      6.703000
C          -4.969000     -9.889000     10.446000
C          -1.975000     -6.563000      7.856000
C          -7.146000     -4.960000      6.354000
C          -3.155000     -9.583000      5.446000
C          -6.735000     -7.876000      4.431000
C          -3.941000     -7.729000     10.674000
C          -8.536000     -6.984000      6.362000
C          -5.163000     -5.815000     10.372000
C          -8.756000     -8.205000      8.378000
C          -5.849000     -4.786000      5.770000
C          -7.758000     -6.032000      5.622000
C          -2.810000     -5.383000      7.672000
C          -2.211000     -7.294000      9.045000
C          -7.319000     -9.573000      9.814000
C          -7.324000     -4.820000      7.779000
C          -6.768000     -9.954000      5.337000
C          -4.823000    -10.848000      9.381000
C          -7.773000    -10.285000      7.539000
C          -3.161000     -6.810000     10.003000
C          -6.335000     -7.854000     10.915000
$end

--------------------------------------------------------------
 ----------------------------------------------------------------
             Standard Nuclear Orientation (Angstroms)
    I     Atom           X                Y                Z
 ----------------------------------------------------------------
    1      O       7.5198317569     7.6415126204     0.5973919903
    2      C       8.6240387392     8.3855581023     1.1804402396
    3      H       9.0344486129     9.1011911575     0.4572479652
    4      H       9.4788717407     7.7718501426     1.4903580995
    5      H       8.1806190738     8.9767054509     1.9916571111
    6      O       8.7517318689     6.1928975697    -0.6168989753
    7      C       7.6665003052     6.6081087747    -0.2868109438
    8      C       6.4204565583     5.9378782463    -0.7471086948
    9      H       6.5924172028     5.5861937106    -1.7719035641
   10      H       5.5675993396     6.6278877719    -0.7736872399
   11      C       5.9745387658     4.7700129548     0.1793917008
   12      H       5.8814283906     5.1643461318     1.1984656939
   13      H       4.9721178988     4.3595944449     0.0032041528
   14      C       6.9849209400     3.6508936100    -0.0616575769
   15      H       6.8358905117     3.3206369218    -1.0977031605
   16      H       8.0050868091     4.0545505682    -0.0816240406
   17      C       6.9797572777     2.5581238745     0.9779907491
   18      C       7.4814799537     3.1106231820     2.2774967597
   19      C       6.5084752049     3.6097877914     3.2048033173
   20      H       5.4450793191     3.5189917766     3.0070401418
   21      C       6.9837103144     4.4207446167     4.2591213994
   22      H       6.3428393690     4.8734304460     5.0089346904
   23      C       8.3756759942     4.5569884845     4.5423795057
   24      H       8.6609960909     5.1874114392     5.3804065580
   25      C       9.3082644360     3.9518810157     3.7540104617
   26      H      10.3455584670     4.1564934242     4.0022862268
   27      C       8.8911659585     3.2837032142     2.5621995348
   28      H       9.5062035405     2.7339330660     1.8546032114
   29      C       8.1261159351    -2.7471029321     1.6607486557
   30      C       6.2268553204    -2.3378516329     3.1187073286
   31      C       3.2064258499    -4.5588593408     0.7696548440
   32      C       7.1057867985    -1.2170773481    -3.0300913719
   33      C       1.8765506040    -1.6476206230    -0.7795213752
   34      C       7.3990706852    -1.9020233522     2.4422342336
   35      C       4.3472292131    -1.6340266469    -3.3634895279
   36      C       5.4576601843    -5.1804903836     1.2866585367
   37      C       3.8524575712     0.7181517860     1.7887522795
   38      C       6.1935653738    -0.1985361878    -2.8683169077
   39      C       5.8990831131     1.5717675146     0.8592663575
   40      C       3.6089280980     1.0654164823     0.4753176118
   41      C       4.1188711100     0.4850841755    -2.1945952217
   42      C       3.1547933163    -2.0219450593    -2.8410319342
   43      C       5.9832523819    -0.1519399598     2.7117776467
   44      C       2.7992144580    -3.8831661022    -1.3374226414
   45      C       7.2915346134     1.2136957535     0.4143872356
   46      C       7.4281174525     0.7679198178    -1.0272004111
   47      C       2.0248029418    -3.0408914762    -0.4668720927
   48      C       6.6482326278    -4.5913496041    -2.0366066346
   49      C       4.7442320377    -5.2797235541    -1.0429079589
   50      C       5.7242018641    -5.3862352863    -0.1242892185
   51      C       6.4352173370    -4.5147017819     2.0558805795
   52      C       8.2489624296    -0.4134453191    -1.0089812714
   53      C       5.2423664087     0.8273217794     1.9998454724
   54      C       5.7148189687    -3.6362534979     2.8533144659
   55      C       4.8208308636    -0.3901737089    -3.0320270935
   56      C       5.3609658129    -1.2554745967     3.2849911596
   57      C       2.6546029019     0.3747737868    -0.3016213093
   58      C       8.2623999092    -2.7529610531    -1.7477874466
   59      C       4.2143675201    -4.7551409362     1.6952698421
   60      C       4.8139083797     1.5629157264    -0.1321616248
   61      C       7.8672844783    -4.3044251999     0.1388473346
   62      C       2.9166083903     0.0859638652    -1.6432248100
   63      C       3.2566921675    -0.5208746640     2.3183814329
   64      C       4.5848930657    -3.8523872138    -2.9852617022
   65      C       5.2666301264    -2.7315264255    -3.5319715642
   66      C       2.2693516923    -1.2112727832     1.5753826287
   67      C       8.0731014009    -1.4097684644    -2.0181829800
   68      C       6.3574810386     0.7652991921    -1.8754508467
   69      C       7.3247224192    -3.4526636261    -2.5484491942
   70      C       7.8877677473     0.1025041684     1.1243015340
   71      C       3.4119878294    -2.7117708865     2.7498463788
   72      C       5.0968765502     1.1589171027    -1.4338636362
   73      C       1.9811894632    -0.7689082013     0.2548819258
   74      C       8.5419714421    -3.1733155959    -0.4352716119
   75      C       2.2941705552    -3.4662030763     0.8397017214
   76      C       7.6416974683    -4.0379742076     1.4813298744
   77      C       3.5330808915    -4.7756039324    -0.5721019394
   78      C       3.9879444198    -1.4535180612     3.0874005725
   79      C       2.3943259995    -2.5703278407     1.8479643108
   80      C       7.2541714435    -0.5193241598     2.1551973843
   81      C       8.5699562972    -0.8449173652     0.2692768443
   82      C       5.2636078188    -4.7742476460    -2.2191646930
   83      C       4.3336825418    -3.7907121391     2.6773920448
   84      C       2.4831310719    -1.1699665219    -1.9443199397
   85      C       6.6336795349    -2.5039601191    -3.3507741831
   86      C       3.3425125483    -3.3278291793    -2.4822532347
   87      C       8.7355977909    -2.2268851101     0.5608108006
   88      C       6.9492664511    -5.0123937824    -0.6991129198
   89      O     -12.0277438784    -2.8831440130     4.1341039565
   90      C     -12.4305432846    -3.3124249502     5.5232110493
   91      H     -12.7045444515    -2.4000811294     6.0666870038
   92      H     -11.5189962750    -3.6239181627     6.0467261187
   93      H     -13.1725678643    -4.1002783875     5.7027785422
   94      O     -10.7179298006    -4.7082168491     3.9280718613
   95      C     -11.1863042506    -3.6879178471     3.4517313099
   96      C     -10.8383260642    -3.1566705190     2.0892040778
   97      H     -11.7863536825    -2.9024930713     1.5987354651
   98      H     -10.3664700476    -4.0270983086     1.6169707004
   99      C      -9.8178834203    -2.0137078968     2.0248748092
  100      H     -10.0864278661    -1.2000795008     2.7106690306
  101      H      -8.8383663689    -2.4055062872     2.3266667363
  102      C      -9.7598537276    -1.5822588358     0.5316372988
  103      H      -9.1602271159    -2.3033377134    -0.0372116959
  104      H     -10.7626848838    -1.6967138982     0.1021821662
  105      C      -9.1264048169    -0.1924473303     0.2864282930
  106      C     -10.0895592764     0.9558476921     0.6371148034
  107      C     -10.9427455736     1.3995891068    -0.3658785660
  108      H     -10.7510991623     0.9575877815    -1.3386989407
  109      C     -11.8461137584     2.4296241528    -0.1932178383
  110      H     -12.4733014247     2.7191094477    -1.0318589387
  111      C     -11.9953292094     2.9654304405     1.0811904052
  112      H     -12.7295013280     3.7368914211     1.2944607865
  113      C     -11.2143378786     2.4369050226     2.1405536215
  114      H     -11.2586764504     2.9440777327     3.1002175904
  115      C     -10.2015366819     1.5017643405     1.9182393382
  116      H      -9.4490606057     1.2078783269     2.6440201355
  117      C      -5.9806476661     3.3455006493    -2.4915600155
  118      C      -5.5682255070     3.8621762311    -0.1474942515
  119      C      -1.3141075969     2.3030605439    -0.0128685443
  120      C      -5.1303444022    -1.5594955769    -3.3882379849
  121      C      -2.2749815316    -0.7071805929     1.4544131532
  122      C      -6.4342429345     3.4367996887    -1.1883206599
  123      C      -3.1137831610    -2.3208408356    -1.6647159636
  124      C      -2.4577922399     3.5937340479    -1.7018354899
  125      C      -5.9864974964     0.7097110944     2.1323638811
  126      C      -5.4671135902    -2.2213689041    -2.1689036531
  127      C      -7.6925928458    -0.0503927756     0.6094371706
  128      C      -5.7600934578    -0.6914900351     1.8381248524
  129      C      -4.9201462512    -2.5208128413    -0.0051363230
  130      C      -2.2373096641    -1.9809115903    -0.6617766248
  131      C      -6.9525610258     2.3350836151     0.6673016210
  132      C      -0.9376954394     0.0828285265    -0.4034868706
  133      C      -8.1598249635     0.0543583986    -0.8546537896
  134      C      -7.5104134655    -0.8628827147    -1.8535944517
  135      C      -1.3425631824     0.2496258695     0.9651408205
  136      C      -2.6729046095     0.9277023957    -3.9810835892
  137      C      -1.2340493273     1.5736674657    -2.3563920477
  138      C      -2.0255332669     2.6471907045    -2.7039636650
  139      C      -3.7715383208     4.0753169788    -1.7583608434
  140      C      -7.0570927121    -0.1160848404    -2.9612258116
  141      C      -7.0505958181     1.1016636347     1.3149723177
  142      C      -4.2116700309     4.2083679216    -0.3945945421
  143      C      -4.4643750655    -2.6392654190    -1.3224451756
  144      C      -5.8610037216     3.1593607169     0.9836667760
  145      C      -4.4227902065    -1.1823545102     1.9669545118
  146      C      -5.0590747513     0.5119134847    -4.2733448352
  147      C      -2.1803803055     3.3832820076    -0.3496803371
  148      C      -6.6896264364    -1.1629901995     0.8745019818
  149      C      -4.2054579255     2.8136853960    -3.7651427264
  150      C      -4.0613242690    -1.9977894695     0.9689418850
  151      C      -4.9558708937     1.5512783645     2.5392746031
  152      C      -1.7198176658    -0.7751390650    -2.5405197283
  153      C      -2.7526599029    -1.7084669694    -2.8495730184
  154      C      -3.6555806280     1.0094152220     2.5369167066
  155      C      -5.9180142533    -0.4542580446    -3.7287628782
  156      C      -6.6069090212    -1.8900263557    -1.4509833991
  157      C      -3.7614017719     0.0051908097    -4.3200456832
  158      C      -7.8230658648     1.3887269249    -1.4350630810
  159      C      -3.4807241171     3.1570810824     1.6603925753
  160      C      -6.2443133689    -2.0789570155    -0.0920781048
  161      C      -3.3870716453    -0.3096599939     2.2459192823
  162      C      -5.2665383637     1.8452461406    -3.9691493743
  163      C      -1.6321101833     1.6004852383     1.2263696471
  164      C      -4.6250038970     3.6597323369    -2.7265885623
  165      C      -0.8406756577     1.3645058064    -0.9920627046
  166      C      -4.8451586333     2.8398881181     1.9624655373
  167      C      -2.7188747778     2.0114170546     2.0685488196
  168      C      -7.3490947972     2.5231266846    -0.6527782146
  169      C      -7.2517702754     1.2591565504    -2.7237099945
  170      C      -1.6759851551     0.4598663849    -3.1092246164
  171      C      -3.1556965894     3.8928510000     0.4625158143
  172      C      -2.7042730527    -1.7975327330     0.6774710701
  173      C      -3.7987397144    -1.3123500251    -3.7387419531
  174      C      -1.3633455258    -1.0179162393    -1.2099879335
  175      C      -6.3375840559     2.2542395231    -3.2018244508
  176      C      -2.9098846332     2.2669867708    -3.6984834636
 ----------------------------------------------------------------
 Molecular Point Group                 C1    NOp =  1
 Largest Abelian Subgroup              C1    NOp =  1
 Nuclear Repulsion Energy = 33545.7065787430 hartrees
 There are      462 alpha and      462 beta electrons
 Requested basis set is 6-31G(d,p)
 There are 676 shells and 2360 basis functions

 Total QAlloc Memory Limit  20000 MB
 Mega-Array Size      4888 MB
 MEM_STATIC part      5000 MB
 A cutoff of  1.0D-08 yielded  36691 shell pairs
 There are    518127 function pairs
 
 -------------------------------------------------------
 OpenMP Integral Computing Module                       
 Release: version 1.0, May 2013, Q-Chem Inc. Pittsburgh 
 -------------------------------------------------------
 Integral Job Info:
 Integral job number is                      11
 Integral operator is                         1
 short-range coefficients                     0
 long-range coefficients              100000000
 Omega coefficients                           0
 if combine SR and LR in K                    0
 Integral screening is                        0
 Integral computing path is                   2
 max size of driver memory is            800000
 size of driver memory is                593474
 size of scratch memory is              2260544
 max col of scratch BK array               1296
 max len of scratch array in speh3          155
 max len of scratch index in speh4           18
 max int batch size is                      520
 min int batch size is                       52
 fixed nKL is                                52
 max L of basis functions is                  2
 order of int derivative is                   0
 number of shells is                        676
 number of basis is                        2360
 number of cartesian basis is              2360
 number of contracted shell pairs         36691
 number of primitive shell pairs         112167
 maxK2 (contraction) of shell pair           36
 max number of K2 of shell pair               1
 max number of CS2 of shell pair           7064
 max number of PS2 of shell pair          34038
 mem total for path MDJ                 1475544
 -------------------------------------------------------
 Smallest overlap matrix eigenvalue = 2.56E-04

 Scale SEOQF with 1.000000e-02/1.000000e-02/1.000000e-02

 Standard Electronic Orientation quadrupole field applied
 Nucleus-field energy     =     0.0000001462 hartrees
 Guess from superposition of atomic densities
 Warning:  Energy on first SCF cycle will be non-variational
 A restricted hybrid HF-DFT SCF calculation will be
 performed using Pulay DIIS extrapolation
 Exchange:     0.2000 Hartree-Fock + 0.0800 Slater + 0.7200 B88
 Correlation:  0.1900 VWN1RPA + 0.8100 LYP
 Using SG-1 standard quadrature grid
 SCF converges when DIIS error is below 1.0E-05
 using 16 threads for integral computing 
 -------------------------------------------------------
 OpenMP BLAS3 based DFT computing Module                
 Release: version 1.0, May 2013, Q-Chem Inc. Pittsburgh 
 -------------------------------------------------------
 ---------------------------------------
  Cycle       Energy         DIIS Error
 ---------------------------------------
    1   -5858.6315492208      1.83E-02
    2   -5803.1115960725      1.30E-03
    3   -5802.2815948436      1.80E-03
    4   -5803.9213573107      6.84E-04
    5   -5804.1897674831      3.11E-04
    6   -5804.2550746294      1.28E-04
    7   -5804.2654735387      4.55E-05
    8   -5804.2663261690      2.94E-05
    9   -5804.2669883121      8.09E-06 Convergence criterion met
 ---------------------------------------
 SCF time:  CPU 8077.34 s  wall 837.25 s
 SCF   energy in the final basis set = -5804.2669883121
 Total energy in the final basis set = -5804.2669883121
 
 --------------------------------------------------------------
 
                    Orbital Energies (a.u.)
 --------------------------------------------------------------
 
 Alpha MOs
 -- Occupied --
-19.196 -19.189 -19.132 -19.130 -10.316 -10.312 -10.250 -10.249
-10.248 -10.246 -10.243 -10.235 -10.235 -10.234 -10.230 -10.230
-10.229 -10.228 -10.227 -10.225 -10.225 -10.225 -10.224 -10.223
-10.223 -10.223 -10.222 -10.222 -10.222 -10.221 -10.221 -10.221
-10.221 -10.221 -10.221 -10.220 -10.220 -10.220 -10.220 -10.220
-10.219 -10.219 -10.219 -10.218 -10.218 -10.218 -10.216 -10.216
-10.216 -10.216 -10.215 -10.215 -10.215 -10.215 -10.215 -10.215
-10.214 -10.214 -10.214 -10.214 -10.214 -10.214 -10.214 -10.214
-10.214 -10.214 -10.213 -10.213 -10.213 -10.213 -10.213 -10.213
-10.213 -10.212 -10.212 -10.212 -10.212 -10.212 -10.212 -10.212
-10.212 -10.212 -10.211 -10.211 -10.211 -10.211 -10.211 -10.211
-10.211 -10.210 -10.210 -10.210 -10.210 -10.210 -10.210 -10.210
-10.210 -10.210 -10.210 -10.210 -10.210 -10.210 -10.210 -10.210
-10.210 -10.209 -10.209 -10.209 -10.209 -10.209 -10.208 -10.208
-10.208 -10.208 -10.208 -10.208 -10.207 -10.207 -10.207 -10.207
-10.206 -10.206 -10.206 -10.206 -10.206 -10.205 -10.205 -10.204
-10.204 -10.204 -10.204 -10.204 -10.203 -10.203 -10.203 -10.203
-10.203 -10.202 -10.201 -10.201 -10.201 -10.201 -10.200 -10.200
-10.197 -10.196 -10.195 -10.188  -1.090  -1.089  -1.010  -1.001
 -0.983  -0.982  -0.968  -0.965  -0.964  -0.963  -0.959  -0.958
 -0.939  -0.935  -0.927  -0.927  -0.927  -0.924  -0.921  -0.921
 -0.918  -0.917  -0.899  -0.897  -0.891  -0.890  -0.884  -0.882
 -0.874  -0.872  -0.858  -0.849  -0.842  -0.841  -0.838  -0.838
 -0.836  -0.834  -0.822  -0.821  -0.810  -0.808  -0.799  -0.797
 -0.794  -0.793  -0.793  -0.792  -0.791  -0.790  -0.783  -0.783
 -0.770  -0.770  -0.768  -0.767  -0.766  -0.766  -0.763  -0.763
 -0.755  -0.746  -0.744  -0.740  -0.734  -0.733  -0.716  -0.716
 -0.714  -0.713  -0.711  -0.711  -0.711  -0.708  -0.707  -0.707
 -0.707  -0.705  -0.705  -0.704  -0.704  -0.703  -0.673  -0.672
 -0.659  -0.659  -0.658  -0.655  -0.647  -0.646  -0.635  -0.633
 -0.627  -0.625  -0.624  -0.624  -0.624  -0.619  -0.617  -0.616
 -0.615  -0.614  -0.614  -0.612  -0.612  -0.610  -0.609  -0.609
 -0.608  -0.606  -0.603  -0.602  -0.568  -0.566  -0.563  -0.562
 -0.559  -0.558  -0.558  -0.557  -0.557  -0.556  -0.554  -0.551
 -0.538  -0.536  -0.533  -0.531  -0.526  -0.526  -0.525  -0.524
 -0.523  -0.519  -0.518  -0.518  -0.517  -0.515  -0.514  -0.512
 -0.509  -0.505  -0.503  -0.498  -0.493  -0.491  -0.487  -0.485
 -0.483  -0.482  -0.481  -0.480  -0.479  -0.477  -0.475  -0.475
 -0.471  -0.469  -0.469  -0.469  -0.468  -0.467  -0.466  -0.464
 -0.464  -0.464  -0.462  -0.462  -0.461  -0.458  -0.458  -0.457
 -0.457  -0.454  -0.454  -0.452  -0.447  -0.447  -0.443  -0.443
 -0.442  -0.439  -0.439  -0.438  -0.436  -0.434  -0.434  -0.432
 -0.431  -0.429  -0.428  -0.426  -0.426  -0.426  -0.424  -0.422
 -0.422  -0.421  -0.420  -0.419  -0.418  -0.418  -0.418  -0.417
 -0.416  -0.415  -0.415  -0.414  -0.413  -0.413  -0.412  -0.411
 -0.411  -0.411  -0.410  -0.407  -0.399  -0.398  -0.396  -0.396
 -0.394  -0.392  -0.392  -0.391  -0.391  -0.388  -0.386  -0.385
 -0.383  -0.381  -0.374  -0.373  -0.370  -0.367  -0.366  -0.365
 -0.364  -0.363  -0.362  -0.361  -0.360  -0.359  -0.359  -0.357
 -0.356  -0.356  -0.355  -0.354  -0.353  -0.351  -0.351  -0.350
 -0.350  -0.349  -0.349  -0.348  -0.346  -0.345  -0.344  -0.343
 -0.343  -0.342  -0.341  -0.340  -0.340  -0.337  -0.334  -0.332
 -0.330  -0.330  -0.329  -0.328  -0.327  -0.325  -0.325  -0.322
 -0.321  -0.310  -0.301  -0.296  -0.286  -0.284  -0.272  -0.270
 -0.267  -0.267  -0.266  -0.266  -0.264  -0.263  -0.263  -0.262
 -0.262  -0.261  -0.260  -0.258  -0.257  -0.255  -0.254  -0.253
 -0.251  -0.249  -0.246  -0.244  -0.222  -0.217  -0.213  -0.210
 -0.208  -0.205  -0.204  -0.202  -0.200  -0.199
 -- Virtual --
 -0.125  -0.118  -0.117  -0.114  -0.110  -0.109  -0.076  -0.074
 -0.072  -0.064  -0.063  -0.060  -0.050  -0.048  -0.027  -0.024
 -0.021  -0.019  -0.018  -0.016  -0.015  -0.014  -0.014  -0.012
 -0.011  -0.011  -0.008  -0.007  -0.006  -0.005   0.004   0.005
  0.008   0.011   0.034   0.040   0.043   0.044   0.044   0.046
  0.050   0.051   0.055   0.058   0.060   0.065   0.068   0.069
  0.074   0.076   0.077   0.081   0.085   0.088   0.091   0.093
  0.093   0.096   0.096   0.097   0.103   0.104   0.105   0.109
  0.109   0.111   0.113   0.116   0.117   0.118   0.119   0.122
  0.124   0.124   0.125   0.126   0.129   0.133   0.137   0.137
  0.141   0.141   0.143   0.147   0.148   0.150   0.152   0.154
  0.155   0.159   0.160   0.162   0.164   0.167   0.168   0.169
  0.169   0.173   0.174   0.175   0.176   0.177   0.179   0.182
  0.183   0.186   0.187   0.188   0.189   0.191   0.193   0.194
  0.194   0.195   0.195   0.199   0.201   0.202   0.204   0.206
  0.207   0.209   0.210   0.212   0.214   0.217   0.217   0.218
  0.219   0.220   0.222   0.224   0.225   0.227   0.228   0.229
  0.231   0.233   0.235   0.236   0.237   0.237   0.239   0.243
  0.243   0.244   0.245   0.253   0.254   0.257   0.258   0.264
  0.265   0.269   0.271   0.272   0.275   0.278   0.280   0.281
  0.283   0.286   0.289   0.290   0.290   0.297   0.298   0.306
  0.308   0.311   0.313   0.314   0.316   0.317   0.319   0.321
  0.322   0.325   0.327   0.328   0.329   0.331   0.333   0.336
  0.337   0.340   0.341   0.344   0.345   0.349   0.351   0.352
  0.353   0.355   0.357   0.358   0.367   0.373   0.380   0.387
  0.390   0.394   0.396   0.397   0.403   0.404   0.406   0.407
  0.411   0.412   0.416   0.418   0.419   0.421   0.421   0.428
  0.429   0.429   0.432   0.435   0.437   0.441   0.445   0.449
  0.451   0.455   0.455   0.456   0.458   0.460   0.463   0.464
  0.465   0.468   0.469   0.469   0.471   0.471   0.473   0.475
  0.477   0.478   0.481   0.482   0.483   0.484   0.486   0.487
  0.488   0.489   0.490   0.491   0.492   0.494   0.495   0.496
  0.496   0.497   0.499   0.500   0.501   0.502   0.503   0.503
  0.504   0.507   0.507   0.509   0.510   0.510   0.511   0.514
  0.515   0.516   0.516   0.517   0.518   0.518   0.519   0.520
  0.522   0.523   0.523   0.524   0.524   0.525   0.526   0.527
  0.529   0.530   0.530   0.531   0.532   0.533   0.533   0.533
  0.535   0.535   0.536   0.537   0.537   0.537   0.538   0.538
  0.539   0.541   0.542   0.543   0.543   0.544   0.545   0.545
  0.546   0.546   0.548   0.548   0.549   0.550   0.550   0.551
  0.552   0.553   0.554   0.554   0.555   0.556   0.557   0.558
  0.558   0.559   0.560   0.561   0.562   0.562   0.563   0.564
  0.565   0.566   0.566   0.568   0.570   0.571   0.571   0.571
  0.573   0.574   0.574   0.575   0.575   0.576   0.577   0.578
  0.579   0.580   0.581   0.582   0.582   0.583   0.583   0.584
  0.585   0.586   0.587   0.587   0.588   0.589   0.590   0.591
  0.592   0.592   0.593   0.594   0.595   0.596   0.597   0.598
  0.600   0.601   0.601   0.604   0.605   0.606   0.606   0.607
  0.608   0.609   0.610   0.611   0.612   0.613   0.614   0.615
  0.617   0.618   0.618   0.619   0.620   0.622   0.624   0.626
  0.627   0.628   0.629   0.630   0.630   0.631   0.632   0.635
  0.635   0.636   0.637   0.637   0.638   0.640   0.641   0.641
  0.643   0.643   0.645   0.645   0.646   0.647   0.647   0.648
  0.649   0.650   0.651   0.653   0.654   0.655   0.656   0.657
  0.657   0.658   0.659   0.659   0.660   0.661   0.661   0.663
  0.665   0.667   0.668   0.668   0.669   0.670   0.670   0.671
  0.672   0.673   0.674   0.676   0.677   0.678   0.678   0.679
  0.680   0.681   0.681   0.683   0.684   0.685   0.686   0.688
  0.690   0.691   0.691   0.692   0.694   0.695   0.696   0.697
  0.697   0.699   0.700   0.702   0.702   0.704   0.705   0.706
  0.707   0.708   0.709   0.709   0.711   0.713   0.714   0.715
  0.715   0.718   0.719   0.721   0.721   0.722   0.724   0.724
  0.726   0.726   0.727   0.727   0.730   0.731   0.732   0.733
  0.735   0.735   0.739   0.740   0.741   0.742   0.742   0.744
  0.745   0.745   0.748   0.749   0.752   0.753   0.754   0.756
  0.757   0.760   0.762   0.762   0.764   0.766   0.768   0.769
  0.769   0.771   0.772   0.773   0.774   0.774   0.777   0.778
  0.780   0.781   0.782   0.783   0.784   0.786   0.788   0.789
  0.789   0.790   0.791   0.793   0.794   0.795   0.795   0.796
  0.798   0.799   0.799   0.801   0.802   0.803   0.803   0.804
  0.806   0.807   0.808   0.809   0.810   0.811   0.811   0.813
  0.813   0.815   0.815   0.816   0.817   0.817   0.817   0.818
  0.819   0.821   0.821   0.821   0.822   0.822   0.824   0.826
  0.827   0.827   0.828   0.829   0.829   0.830   0.831   0.832
  0.835   0.837   0.839   0.840   0.843   0.844   0.846   0.847
  0.849   0.851   0.853   0.856   0.857   0.859   0.864   0.865
  0.868   0.871   0.873   0.875   0.877   0.883   0.888   0.889
  0.891   0.892   0.893   0.896   0.898   0.902   0.905   0.907
  0.909   0.911   0.911   0.914   0.917   0.920   0.924   0.925
  0.927   0.927   0.929   0.932   0.935   0.936   0.937   0.938
  0.942   0.942   0.943   0.945   0.947   0.947   0.951   0.952
  0.955   0.956   0.958   0.960   0.962   0.966   0.969   0.970
  0.973   0.975   0.976   0.981   0.983   0.987   0.991   0.992
  0.994   0.996   0.997   1.000   1.000   1.001   1.004   1.007
  1.010   1.011   1.012   1.013   1.014   1.015   1.016   1.020
  1.022   1.022   1.023   1.025   1.028   1.029   1.031   1.031
  1.033   1.034   1.035   1.038   1.040   1.041   1.044   1.046
  1.046   1.049   1.050   1.052   1.054   1.055   1.059   1.060
  1.061   1.062   1.064   1.066   1.068   1.070   1.072   1.073
  1.074   1.075   1.078   1.079   1.081   1.083   1.083   1.084
  1.086   1.087   1.088   1.090   1.092   1.093   1.095   1.097
  1.099   1.099   1.101   1.102   1.104   1.106   1.108   1.112
  1.112   1.113   1.117   1.119   1.120   1.122   1.125   1.126
  1.128   1.130   1.133   1.135   1.137   1.139   1.141   1.143
  1.145   1.149   1.149   1.152   1.155   1.156   1.158   1.161
  1.162   1.163   1.165   1.167   1.168   1.169   1.170   1.172
  1.172   1.175   1.177   1.178   1.179   1.181   1.182   1.185
  1.187   1.188   1.188   1.191   1.193   1.193   1.196   1.198
  1.202   1.203   1.204   1.206   1.209   1.214   1.215   1.218
  1.221   1.222   1.224   1.225   1.228   1.232   1.237   1.239
  1.243   1.249   1.251   1.252   1.253   1.257   1.258   1.259
  1.261   1.264   1.265   1.267   1.269   1.271   1.272   1.273
  1.277   1.281   1.282   1.283   1.284   1.287   1.288   1.290
  1.293   1.294   1.296   1.298   1.301   1.307   1.308   1.309
  1.311   1.313   1.317   1.319   1.321   1.322   1.322   1.325
  1.326   1.337   1.339   1.340   1.340   1.342   1.344   1.348
  1.349   1.349   1.354   1.357   1.359   1.361   1.362   1.366
  1.371   1.373   1.374   1.375   1.378   1.381   1.381   1.385
  1.386   1.388   1.389   1.393   1.394   1.399   1.401   1.402
  1.405   1.411   1.414   1.418   1.419   1.421   1.423   1.426
  1.430   1.432   1.433   1.435   1.441   1.442   1.448   1.448
  1.453   1.455   1.458   1.459   1.461   1.462   1.463   1.466
  1.467   1.470   1.472   1.474   1.474   1.475   1.477   1.478
  1.479   1.481   1.483   1.486   1.487   1.493   1.494   1.497
  1.498   1.501   1.503   1.506   1.509   1.511   1.516   1.518
  1.521   1.524   1.525   1.529   1.531   1.535   1.538   1.543
  1.546   1.548   1.551   1.551   1.553   1.554   1.556   1.558
  1.560   1.563   1.565   1.565   1.570   1.572   1.572   1.574
  1.576   1.580   1.581   1.585   1.587   1.588   1.591   1.596
  1.597   1.598   1.600   1.604   1.608   1.609   1.613   1.619
  1.623   1.625   1.632   1.634   1.635   1.637   1.640   1.642
  1.647   1.651   1.654   1.655   1.660   1.665   1.667   1.669
  1.673   1.679   1.682   1.683   1.685   1.691   1.692   1.695
  1.699   1.707   1.709   1.710   1.711   1.715   1.715   1.718
  1.720   1.723   1.726   1.730   1.731   1.733   1.735   1.738
  1.738   1.739   1.741   1.742   1.744   1.746   1.748   1.749
  1.750   1.752   1.752   1.754   1.758   1.759   1.760   1.762
  1.763   1.765   1.767   1.767   1.769   1.769   1.770   1.772
  1.773   1.774   1.775   1.776   1.778   1.778   1.779   1.780
  1.782   1.783   1.785   1.787   1.788   1.788   1.789   1.791
  1.792   1.793   1.794   1.795   1.797   1.798   1.799   1.800
  1.800   1.802   1.804   1.806   1.807   1.809   1.810   1.811
  1.812   1.814   1.815   1.816   1.817   1.819   1.820   1.821
  1.823   1.823   1.827   1.830   1.832   1.834   1.839   1.839
  1.841   1.843   1.845   1.846   1.853   1.854   1.855   1.856
  1.858   1.860   1.864   1.865   1.866   1.868   1.869   1.871
  1.872   1.873   1.876   1.876   1.878   1.880   1.881   1.882
  1.884   1.885   1.888   1.893   1.898   1.899   1.901   1.904
  1.907   1.910   1.912   1.913   1.916   1.917   1.917   1.921
  1.924   1.925   1.928   1.929   1.931   1.931   1.932   1.935
  1.939   1.940   1.941   1.942   1.944   1.947   1.949   1.951
  1.954   1.955   1.956   1.960   1.962   1.964   1.964   1.968
  1.969   1.973   1.974   1.976   1.977   1.980   1.983   1.983
  1.985   1.985   1.987   1.989   1.992   1.994   1.995   1.997
  1.997   1.999   1.999   2.001   2.002   2.004   2.005   2.007
  2.009   2.009   2.010   2.011   2.013   2.014   2.015   2.015
  2.017   2.018   2.019   2.021   2.022   2.026   2.027   2.028
  2.029   2.030   2.032   2.032   2.033   2.037   2.037   2.038
  2.039   2.041   2.042   2.043   2.044   2.045   2.046   2.047
  2.048   2.050   2.052   2.052   2.052   2.054   2.056   2.056
  2.057   2.060   2.062   2.062   2.063   2.065   2.066   2.067
  2.068   2.070   2.072   2.073   2.073   2.074   2.075   2.077
  2.079   2.082   2.082   2.084   2.085   2.086   2.087   2.089
  2.091   2.094   2.094   2.095   2.098   2.099   2.100   2.102
  2.104   2.107   2.109   2.111   2.113   2.118   2.119   2.122
  2.124   2.126   2.130   2.131   2.132   2.134   2.136   2.139
  2.145   2.150   2.152   2.161   2.164   2.167   2.168   2.175
  2.178   2.180   2.182   2.185   2.189   2.196   2.199   2.202
  2.207   2.210   2.212   2.217   2.221   2.223   2.224   2.225
  2.226   2.231   2.232   2.235   2.237   2.241   2.242   2.244
  2.248   2.249   2.250   2.255   2.255   2.259   2.262   2.266
  2.268   2.270   2.273   2.277   2.280   2.281   2.282   2.283
  2.287   2.288   2.291   2.292   2.294   2.298   2.299   2.300
  2.301   2.303   2.306   2.306   2.311   2.312   2.314   2.316
  2.319   2.321   2.326   2.327   2.330   2.332   2.337   2.338
  2.340   2.341   2.342   2.344   2.347   2.351   2.352   2.353
  2.354   2.355   2.356   2.357   2.358   2.365   2.366   2.369
  2.371   2.371   2.375   2.377   2.378   2.380   2.380   2.382
  2.385   2.385   2.388   2.391   2.392   2.394   2.396   2.398
  2.399   2.400   2.401   2.403   2.404   2.406   2.407   2.408
  2.409   2.414   2.414   2.416   2.417   2.419   2.422   2.423
  2.426   2.429   2.433   2.433   2.436   2.438   2.440   2.442
  2.444   2.446   2.446   2.448   2.449   2.451   2.454   2.455
  2.456   2.460   2.466   2.467   2.468   2.470   2.472   2.474
  2.477   2.477   2.481   2.482   2.485   2.488   2.490   2.494
  2.495   2.497   2.499   2.499   2.502   2.505   2.507   2.508
  2.509   2.510   2.512   2.514   2.516   2.517   2.520   2.522
  2.523   2.524   2.528   2.529   2.530   2.532   2.533   2.534
  2.536   2.542   2.545   2.548   2.550   2.554   2.559   2.562
  2.563   2.565   2.568   2.575   2.577   2.582   2.583   2.585
  2.588   2.589   2.594   2.594   2.599   2.601   2.603   2.604
  2.607   2.610   2.610   2.610   2.614   2.618   2.619   2.621
  2.622   2.624   2.627   2.628   2.629   2.632   2.635   2.636
  2.636   2.638   2.639   2.641   2.644   2.645   2.646   2.649
  2.651   2.652   2.652   2.657   2.660   2.662   2.662   2.663
  2.664   2.666   2.667   2.669   2.672   2.673   2.674   2.675
  2.678   2.680   2.680   2.684   2.686   2.687   2.689   2.692
  2.693   2.693   2.694   2.695   2.697   2.697   2.700   2.704
  2.705   2.711   2.713   2.718   2.720   2.722   2.724   2.725
  2.727   2.729   2.733   2.733   2.736   2.737   2.739   2.744
  2.746   2.749   2.751   2.752   2.756   2.757   2.758   2.760
  2.760   2.764   2.765   2.768   2.770   2.774   2.776   2.779
  2.781   2.786   2.786   2.787   2.791   2.792   2.794   2.798
  2.799   2.801   2.803   2.805   2.810   2.812   2.815   2.819
  2.821   2.825   2.828   2.828   2.836   2.840   2.842   2.843
  2.846   2.846   2.849   2.852   2.854   2.857   2.859   2.862
  2.864   2.866   2.867   2.868   2.870   2.872   2.873   2.876
  2.878   2.880   2.883   2.885   2.886   2.888   2.891   2.893
  2.895   2.897   2.898   2.900   2.902   2.903   2.905   2.906
  2.911   2.911   2.913   2.914   2.916   2.918   2.919   2.920
  2.923   2.923   2.926   2.928   2.931   2.932   2.933   2.934
  2.937   2.940   2.943   2.944   2.946   2.949   2.951   2.953
  2.954   2.959   2.961   2.964   2.969   2.971   2.972   2.973
  2.976   2.985   2.987   2.989   2.996   2.999   3.003   3.006
  3.008   3.009   3.012   3.013   3.014   3.017   3.019   3.027
  3.028   3.032   3.034   3.039   3.041   3.043   3.045   3.048
  3.049   3.052   3.055   3.057   3.060   3.062   3.063   3.065
  3.071   3.072   3.078   3.081   3.089   3.090   3.094   3.102
  3.109   3.124   3.128   3.131   3.136   3.138   3.146   3.148
  3.154   3.157   3.158   3.169   3.173   3.178   3.180   3.182
  3.188   3.189   3.200   3.209   3.217   3.223   3.230   3.239
  3.243   3.245   3.249   3.254   3.258   3.274   3.276   3.279
  3.294   3.299   3.300   3.308   3.317   3.323   3.324   3.326
  3.326   3.329   3.333   3.341   3.342   3.374   3.374   3.388
  3.395   3.400   3.402   3.416   3.418   3.421   3.433   3.439
  3.443   3.446   3.453   3.454   3.479   3.484   3.493   3.494
  3.505   3.513   3.516   3.522   3.524   3.528   3.533   3.543
  3.552   3.561   3.562   3.565   3.570   3.583   3.589   3.609
  3.616   3.623   3.665   3.710   3.834   3.875   4.004   4.020
  4.070   4.076   4.081   4.083   4.091   4.093   4.095   4.096
  4.104   4.104   4.107   4.110   4.114   4.119   4.124   4.126
  4.128   4.131   4.134   4.138   4.139   4.140   4.143   4.149
  4.151   4.160   4.165   4.168   4.171   4.172   4.177   4.179
  4.188   4.190   4.194   4.202   4.223   4.225   4.229   4.235
  4.242   4.246   4.247   4.250   4.255   4.256   4.258   4.264
  4.267   4.268   4.272   4.277   4.279   4.286   4.293   4.299
  4.302   4.306   4.311   4.327   4.369   4.378   4.390   4.395
  4.400   4.404   4.405   4.408   4.413   4.414   4.415   4.418
  4.419   4.421   4.425   4.438   4.441   4.443   4.456   4.458
  4.470   4.485   4.486   4.526   4.530   4.545   4.548   4.558
  4.562   4.571   4.594   4.614   4.630   4.631   4.641   4.645
  4.653   4.670   4.684   4.684   4.693   4.693   4.699   4.706
  4.708   4.710   4.711   4.720   4.744   4.756   4.812   4.820
  4.839   4.852   4.858   4.871   4.878   4.883   4.888   4.892
  4.898   4.920   4.928   4.956   4.962   4.975   4.985   4.991
  4.995   4.996   5.008   5.013   5.156   5.170   5.172   5.188
  5.193   5.204   5.209   5.225   5.300   5.312   5.319   5.332
  5.367   5.381
 --------------------------------------------------------------
 
          Ground-State Mulliken Net Atomic Charges

     Atom                 Charge (a.u.)
  ----------------------------------------
      1 O                    -0.478875
      2 C                    -0.083054
      3 H                     0.124525
      4 H                     0.137434
      5 H                     0.127807
      6 O                    -0.460687
      7 C                     0.602707
      8 C                    -0.249484
      9 H                     0.133293
     10 H                     0.113943
     11 C                    -0.195623
     12 H                     0.119384
     13 H                     0.106680
     14 C                    -0.188084
     15 H                     0.104785
     16 H                     0.141932
     17 C                     0.011032
     18 C                     0.083034
     19 C                    -0.104686
     20 H                     0.096518
     21 C                    -0.096697
     22 H                     0.087756
     23 C                    -0.076084
     24 H                     0.089360
     25 C                    -0.088934
     26 H                     0.093918
     27 C                    -0.099791
     28 H                     0.097420
     29 C                     0.001563
     30 C                    -0.013335
     31 C                     0.001631
     32 C                    -0.020191
     33 C                     0.014780
     34 C                     0.005926
     35 C                    -0.005887
     36 C                     0.015362
     37 C                    -0.017342
     38 C                     0.005571
     39 C                    -0.072839
     40 C                     0.012150
     41 C                    -0.018666
     42 C                     0.012839
     43 C                    -0.009233
     44 C                    -0.006768
     45 C                    -0.100861
     46 C                     0.014258
     47 C                    -0.039894
     48 C                    -0.000760
     49 C                     0.009196
     50 C                     0.003694
     51 C                    -0.019435
     52 C                    -0.003563
     53 C                     0.022360
     54 C                     0.004707
     55 C                     0.009055
     56 C                    -0.009176
     57 C                    -0.013856
     58 C                     0.012626
     59 C                    -0.016806
     60 C                     0.024826
     61 C                    -0.000791
     62 C                    -0.006454
     63 C                    -0.013732
     64 C                    -0.011183
     65 C                     0.007348
     66 C                    -0.006915
     67 C                     0.001147
     68 C                     0.024600
     69 C                    -0.009760
     70 C                     0.020105
     71 C                    -0.001573
     72 C                     0.006779
     73 C                    -0.008751
     74 C                    -0.015730
     75 C                     0.017091
     76 C                     0.006185
     77 C                     0.008978
     78 C                     0.003149
     79 C                     0.011574
     80 C                     0.024849
     81 C                     0.000663
     82 C                     0.003846
     83 C                     0.003818
     84 C                     0.019095
     85 C                    -0.015666
     86 C                    -0.000657
     87 C                    -0.000099
     88 C                    -0.019709
     89 O                    -0.465859
     90 C                    -0.099280
     91 H                     0.124550
     92 H                     0.140133
     93 H                     0.137315
     94 O                    -0.475081
     95 C                     0.575571
     96 C                    -0.247546
     97 H                     0.125151
     98 H                     0.137776
     99 C                    -0.187220
    100 H                     0.121393
    101 H                     0.123615
    102 C                    -0.178951
    103 H                     0.112028
    104 H                     0.112703
    105 C                     0.001134
    106 C                     0.096475
    107 C                    -0.100189
    108 H                     0.085936
    109 C                    -0.082235
    110 H                     0.094202
    111 C                    -0.086414
    112 H                     0.093828
    113 C                    -0.104521
    114 H                     0.090052
    115 C                    -0.102915
    116 H                     0.095375
    117 C                    -0.015453
    118 C                     0.002533
    119 C                    -0.016321
    120 C                    -0.001179
    121 C                    -0.002577
    122 C                    -0.015359
    123 C                     0.030272
    124 C                    -0.020343
    125 C                     0.025680
    126 C                     0.006198
    127 C                    -0.086420
    128 C                    -0.019109
    129 C                    -0.000542
    130 C                    -0.023604
    131 C                     0.009257
    132 C                    -0.002947
    133 C                    -0.081846
    134 C                     0.015069
    135 C                    -0.010219
    136 C                    -0.004488
    137 C                    -0.021915
    138 C                     0.011605
    139 C                     0.006350
    140 C                     0.007541
    141 C                     0.003452
    142 C                    -0.015623
    143 C                    -0.004154
    144 C                     0.012487
    145 C                    -0.036225
    146 C                     0.019242
    147 C                     0.038894
    148 C                     0.053016
    149 C                    -0.047259
    150 C                     0.042267
    151 C                    -0.013665
    152 C                     0.023550
    153 C                    -0.021694
    154 C                     0.002895
    155 C                    -0.006787
    156 C                     0.009858
    157 C                    -0.028890
    158 C                     0.032149
    159 C                    -0.012492
    160 C                    -0.038309
    161 C                     0.019035
    162 C                     0.002605
    163 C                    -0.000665
    164 C                     0.025092
    165 C                    -0.003780
    166 C                    -0.008012
    167 C                    -0.008706
    168 C                     0.000545
    169 C                    -0.008697
    170 C                     0.007807
    171 C                    -0.006787
    172 C                    -0.005705
    173 C                    -0.018963
    174 C                     0.004545
    175 C                     0.036744
    176 C                     0.023350
  ----------------------------------------
  Sum of atomic charges =     0.000000

 -----------------------------------------------------------------
                    Cartesian Multipole Moments
 -----------------------------------------------------------------
    Charge (ESU x 10^10)
                 0.0000
    Dipole Moment (Debye)
         X      -4.0164      Y       5.2323      Z       2.4717
       Tot       7.0440
    Quadrupole Moments (Debye-Ang)
        XX    -749.7969     XY      12.2575     YY    -799.6846
        XZ       5.2687     YZ      20.4625     ZZ    -796.8138
    Octopole Moments (Debye-Ang^2)
       XXX   -1025.7347    XXY     386.1498    XYY     242.9052
       YYY     448.0109    XXZ     410.3036    XYZ      94.0821
       YYZ      91.8328    XZZ    -133.1501    YZZ     102.5758
       ZZZ     230.3598
    Hexadecapole Moments (Debye-Ang^3)
      XXXX -183002.8755   XXXY    2167.5121   XXYY  -38500.2689
      XYYY    3102.7646   YYYY  -40384.9408   XXXZ   -1616.9510
      XXYZ    1418.0322   XYYZ    1111.6631   YYYZ     990.9357
      XXZZ  -34037.8932   XYZZ    1192.0224   YYZZ  -10817.9980
      XZZZ   -1740.7165   YZZZ     -20.2773   ZZZZ  -23447.4958
 -----------------------------------------------------------------
Archival summary:
1\1\mn251\SP\ProcedureUnspecified\6-31G**\428\afmv_a\SatOct1321:25:352018SatOct1321:25:352018\0\\#,ProcedureUnspecified,6-31G**,\\0,1\C\C,1,1.36128\C,2,1.39744,1,112.295\C,3,1.36232,2,105.605,1,3.42131,0\C,4,1.38157,3,117.066,2,-143.196,0\C,4,1.39712,3,110.068,2,-2.97157,0\C,5,1.40004,4,119.632,3,-0.649481,0\C,7,1.37162,5,122.572,4,-1.69853,0\C,8,1.35844,7,117.977,5,0.611187,0\C,9,1.36722,8,104.664,7,138.167,0\C,10,1.38355,9,123.134,8,-142.093,0\C,11,1.3859,10,120.496,9,140.315,0\C,12,1.3938,11,120.431,10,9.5851,0\C,13,1.34742,12,115.486,11,-139.808,0\C,13,1.38161,12,118.81,11,-6.42305,0\C,15,1.37746,13,122.217,12,4.24901,0\C,7,1.39568,5,109.703,4,146.459,0\C,17,1.37686,7,122.431,5,-149.424,0\C,17,1.39342,7,107.113,5,-2.58625,0\C,19,1.36594,17,122.413,7,-148.278,0\C,19,1.3925,17,108.36,7,-0.0822758,0\C,21,1.39202,19,124.236,17,-148.071,0\C,12,1.39785,11,107.847,10,-144.562,0\C,23,1.38247,12,116.761,11,146.56,0\C,24,1.3761,23,120.252,12,1.78577,0\C,24,1.38164,23,116.09,12,-135.539,0\C,26,1.40084,24,104.559,23,141.122,0\C,27,1.388,26,111.702,24,2.67366,0\C,14,1.40391,13,109.539,12,140.491,0\C,18,1.40776,17,118.739,7,1.07657,0\C,30,1.39766,18,120.424,17,-1.50992,0\C,15,1.40853,13,107.861,12,-137.579,0\C,6,1.41115,4,120.201,3,-139.301,0\C,33,1.38022,6,121.34,4,140.193,0\C,34,1.41008,33,107.271,6,-140.851,0\C,18,1.41308,17,118.052,7,130.764,0\C,36,1.38315,18,111.475,17,-138.378,0\C,37,1.40626,36,119.997,18,145.25,0\C,38,1.38759,37,119.595,36,5.3119,0\C,39,1.36087,38,104.891,37,-140.96,0\C,40,1.36142,39,117.765,38,138.575,0\C,40,1.3904,39,113.994,38,-5.39332,0\C,42,1.38714,40,104.274,39,5.07175,0\C,37,1.4177,36,106.162,18,3.83292,0\C,35,1.41941,34,122.424,33,136.408,0\C,45,1.39054,35,121.378,34,2.40529,0\C,46,1.39605,45,106.776,35,-142.514,0\C,46,1.40123,45,119.508,35,-4.06896,0\C,48,1.41278,46,119.382,45,0.569063,0\C,49,1.41546,48,108.952,46,-144.044,0\C,50,1.39174,49,108.111,48,1.32482,0\C,51,1.35249,50,119.615,49,137.833,0\C,51,1.36713,50,107.282,49,-1.0303,0\C,52,1.40021,51,120.576,50,1.99794,0\C,41,1.41959,40,122.891,39,-0.0830358,0\C,55,1.36046,41,123.427,40,3.9958,0\C,39,1.42206,38,119.962,37,-3.85697,0\C,57,1.38678,39,121.217,38,1.66287,0\C,56,1.44714,55,122.06,41,-147.53,0\C,22,1.4699,21,118.842,19,0.517962,0\C,60,1.46794,22,127.02,21,-75.9778,0\C,61,1.49856,60,124.357,22,-138.61,0\C,62,1.43381,61,117.515,60,49.6469,0\H,63,1.08543,62,121.19,61,-4.73882,0\C,63,1.41248,62,117.02,61,164.603,0\H,65,1.08529,63,123.814,62,-178.625,0\C,65,1.42701,63,122.085,62,10.7027,0\H,67,1.0868,65,117.68,63,179.064,0\C,67,1.36287,65,120.681,63,-3.22378,0\H,69,1.08604,67,115.956,65,-176.339,0\C,69,1.42858,67,119.371,65,-6.03255,0\H,71,1.08684,69,127.918,67,177.922,0\C,61,1.50832,60,115.695,22,1.90625,0\H,73,1.0973,61,106.394,60,159.131,0\H,73,1.09757,61,115.605,60,45.8648,0\C,73,1.52689,61,114.83,60,-78.4338,0\H,76,1.09667,73,117.803,61,-44.136,0\H,76,1.09742,73,107.757,61,70.2908,0\C,76,1.55601,73,105.454,61,-164.584,0\H,79,1.09702,76,111.133,73,-49.6359,0\H,79,1.09735,76,105.286,73,-165.736,0\C,79,1.48785,76,113.197,73,71.5663,0\O,82,1.20793,79,120.866,76,-87.102,0\O,82,1.36794,79,116.775,76,88.1815,0\C,84,1.45355,82,124.369,79,-178.233,0\H,85,1.09701,84,114.766,82,41.6487,0\H,85,1.09708,84,110.712,82,-77.0462,0\H,85,1.09734,84,105.386,82,167.969,0\C,1,3.11108,2,86.7782,3,-99.886,0\C,89,1.41369,1,105.779,2,107.531,0\C,89,1.42943,1,100.834,2,-16.9277,0\C,91,1.39869,89,118.617,1,117.486,0\C,92,1.36036,91,123.165,89,-0.29592,0\C,93,1.40458,92,122.616,91,139.271,0\C,94,1.38914,93,108.417,92,-140.251,0\C,95,1.38409,94,107.579,93,-2.76044,0\C,96,1.3783,95,109.521,94,-0.117665,0\C,95,1.40778,94,121.451,93,143.08,0\C,98,1.40371,95,118.3,94,-135.444,0\C,99,1.35594,98,121.662,95,-7.56312,0\C,100,1.40037,99,120.925,98,4.83407,0\C,101,1.39627,100,106.1,99,139.62,0\C,102,1.36769,101,112.163,100,9.42725,0\C,103,1.39616,102,105.01,101,-11.5043,0\C,91,1.41128,89,119.386,1,-104.88,0\C,105,1.37464,91,106.27,89,-141.484,0\C,106,1.38177,105,110.45,91,-5.54869,0\C,99,1.41129,98,106.028,95,141.118,0\C,108,1.35009,99,110.262,98,-7.93868,0\C,109,1.37957,108,109.086,99,2.6373,0\C,108,1.38294,99,117.213,98,-146.02,0\C,110,1.38324,109,121.637,108,-148.178,0\C,112,1.39388,110,119.829,109,142.796,0\C,111,1.39948,108,122.136,99,142.043,0\C,114,1.39112,111,105.37,108,-142.855,0\C,115,1.39657,114,122.646,111,144.015,0\C,116,1.39788,115,117.735,114,-138.562,0\C,117,1.3914,116,124.42,115,-12.217,0\C,112,1.4028,110,119.123,109,3.47129,0\C,119,1.39926,112,107.087,110,141.039,0\C,120,1.39897,119,109.591,112,1.33954,0\C,115,1.40393,114,110.861,111,-3.09401,0\C,122,1.36352,115,106.417,114,0.320442,0\C,118,1.40868,117,116.78,116,138.887,0\C,124,1.37722,118,123.28,117,4.59844,0\C,125,1.3828,124,120.07,118,1.5312,0\C,126,1.33851,125,109.428,124,-140.199,0\C,127,1.39998,126,125.501,125,146.804,0\C,128,1.39865,127,120.398,126,-7.83967,0\C,128,1.39895,127,119.14,126,-141.812,0\C,130,1.37718,128,108.412,127,137.107,0\C,131,1.3872,130,110.649,128,3.01403,0\C,127,1.40237,126,109.226,125,-7.65634,0\C,129,1.40413,128,117.616,127,3.68559,0\C,133,1.40599,127,106.939,126,6.21374,0\C,119,1.41456,112,122.619,110,-5.0893,0\C,136,1.40911,119,115.851,112,2.61252,0\C,136,1.41069,119,123.934,112,143.988,0\C,137,1.41555,136,107.37,119,145.833,0\C,118,1.41615,117,119.285,116,9.16816,0\C,134,1.41948,129,118.445,128,-2.99787,0\C,135,1.42277,133,122.113,127,142.965,0\C,142,1.40602,135,116.568,133,-136.237,0\C,102,1.42504,101,117.64,100,-146.758,0\C,140,1.43302,118,111.205,117,137.61,0\C,143,1.43499,142,122.693,135,-6.97265,0\C,139,1.49359,137,111.283,136,6.47471,0\C,116,1.49572,115,119.448,114,4.41644,0\C,148,1.47659,116,126.447,115,69.93,0\C,149,1.53923,148,119.078,116,-2.74182,0\C,150,1.38954,149,117.257,148,-130.137,0\H,151,1.08557,150,114.106,149,6.96972,0\C,151,1.38089,150,123.342,149,179.298,0\H,153,1.0865,151,118.677,150,-179.634,0\C,153,1.39049,151,118.179,150,6.14399,0\H,155,1.08611,153,121.75,151,176.406,0\C,150,1.39708,149,123.407,148,54.0856,0\H,157,1.08598,150,116.844,149,-10.7195,0\C,157,1.39631,150,117.764,149,173.081,0\H,159,1.08634,157,118.876,150,174.142,0\C,149,1.54692,148,116.704,116,137.055,0\H,161,1.09686,149,106.533,148,55.747,0\H,161,1.09691,149,113.957,148,168.846,0\C,161,1.5554,149,114.625,148,-65.6881,0\H,164,1.09729,161,109.256,149,80.7089,0\H,164,1.09746,161,113.791,149,-40.2453,0\C,164,1.53356,161,105.773,149,-162.748,0\H,167,1.09695,164,106.685,161,-71.8418,0\H,167,1.09723,164,112.552,161,50.4918,0\C,167,1.50326,164,117.093,161,174.654,0\O,170,1.21954,167,124.11,164,100.076,0\O,170,1.34956,167,113.071,164,-76.8146,0\C,172,1.50869,170,117.538,167,179.265,0\H,173,1.09636,172,107.368,170,-46.327,0\H,173,1.09673,172,106.635,170,-155.008,0\H,173,1.09707,172,122.386,170,76.7664,0\\\@

 Total job time:  854.61s(wall), 8104.00s(cpu) 
 Sat Oct 13 21:25:35 2018

        *************************************************************
        *                                                           *
        *  Thank you very much for using Q-Chem.  Have a nice day.  *
        *                                                           *
        *************************************************************


