
Running Job 1 of 1 ./10/29.qcin
qchem ./10/29.qcin_42156.0 /tmpu/cab_g/afmv_a/scratch_qchem/qchem42156/ 1
/tmpu/appuserlic/qchem4.4/serial-multicore/exe/qcprog.exe_s ./10/29.qcin_42156.0 /tmpu/cab_g/afmv_a/scratch_qchem/qchem42156/
Check license passed

                  Welcome to Q-Chem
     A Quantum Leap Into The Future Of Chemistry


 Q-Chem 4.4, Q-Chem, Inc., Pleasanton, CA (2016)

 Y. Shao,  Z. Gan,  E. Epifanovsky,  A. T. B. Gilbert,  M. Wormit,  
 J. Kussmann,  A. W. Lange,  A. Behn,  J. Deng,  X. Feng,  D. Ghosh,  
 M. Goldey,  P. R. Horn,  L. D. Jacobson,  I. Kaliman,  F. Rob,  
 R. Z. Khaliullin,  T. Kus,  A. Landau,  J. Liu,  E. I. Proynov,  Y. M. Rhee,  
 R. M. Richard,  M. A. Rohrdanz,  R. P. Steele,  E. J. Sundstrom,  
 H. L. Woodcock III,  P. M. Zimmerman,  D. Zuev,  B. Albrecht,  E. Alguire,  
 B. Austin,  S. A. Baeppler,  G. J. O. Beran,  Y. A. Bernard,  E. Berquist,  
 K. Brandhorst,  K. B. Bravaya,  S. T. Brown,  D. Casanova,  C.-M. Chang,  
 Y. Chen,  S. H. Chien,  K. D. Closser,  M. P. Coons,  D. L. Crittenden,  
 S. Dasgupta,  M. Diedenhofen,  R. A. DiStasio Jr.,  H. Do,  A. D. Dutoi,  
 R. G. Edgar,  P.-T. Fang,  S. Fatehi,  Q. Feng,  L. Fusti-Molnar,  
 A. Ghysels,  A. Golubeva-Zadorozhnaya,  J. Gomes,  A. Gunina,  
 M. W. D. Hanson-Heine,  P. H. P. Harbach,  A. W. Hauser,  J. E. Herr,  
 E. G. Hohenstein,  Z. C. Holden,  K. Hui,  T.-C. Jagau,  H. Ji,  B. Kaduk,  
 K. Khistyaev,  Jaehoon Kim,  Jihan Kim,  R. A. King,  P. Klunzinger,  
 K. Koh,  D. Kosenkov,  T. Kowalczyk,  C. M. Krauter,  A. Kunitsa,  
 K. U. Lao,  A. Laurent,  K. V. Lawler,  J. Lee,  D. Lefrancois,  S. Lehtola,  
 S. V. Levchenko,  C. Y. Lin,  Y.-S. Lin,  F. Liu,  E. Livshits,  
 R. C. Lochan,  A. Luenser,  P. Manohar,  S. F. Manzer,  S.-P. Mao,  Y. Mao,  
 N. Mardirossian,  A. V. Marenich,  L. A. Martinez-Martinez,  S. A. Maurer,  
 N. J. Mayhall,  J.-M. Mewes,  A. F. Morrison,  K. Nanda,  T. S. Nguyen-Beck,  
 C. M. Oana,  R. Olivares-Amaya,  D. P. O'Neill,  J. A. Parkhill,  
 T. M. Perrine,  R. Peverati,  P. A. Pieniazek,  F. Plasser,  A. Prociuk,  
 D. R. Rehn,  E. Rosta,  N. J. Russ,  N. Sergueev,  S. M. Sharada,  
 S. Sharma,  D. W. Small,  A. Sodt,  T. Stauch,  T. Stein,  D. Stuck,  
 Y.-C. Su,  A. J. W. Thom,  T. Tsuchimochi,  L. Vogt,  O. Vydrov,  T. Wang,  
 M. A. Watson,  J. Wenzel,  A. White,  C. F. Williams,  V. Vanovschi,  
 K. Yao,  S. Yeganeh,  S. R. Yost,  Z.-Q. You,  I. Y. Zhang,  X. Zhang,  
 Y. Zhao,  B. R. Brooks,  G. K. L. Chan,  D. M. Chipman,  C. J. Cramer,  
 W. A. Goddard III,  M. S. Gordon,  W. J. Hehre,  A. Klamt,  
 H. F. Schaefer III,  M. W. Schmidt,  C. D. Sherrill,  D. G. Truhlar,  
 A. Warshel,  X. Xu,  A. Aspuru-Guzik,  R. Baer,  A. T. Bell,  N. A. Besley,  
 J.-D. Chai,  A. Dreuw,  B. D. Dunietz,  T. R. Furlani,  S. R. Gwaltney,  
 C.-P. Hsu,  Y. Jung,  J. Kong,  D. S. Lambrecht,  W. Liang,  C. Ochsenfeld,  
 V. A. Rassolov,  L. V. Slipchenko,  J. E. Subotnik,  T. Van Voorhis,  
 J. M. Herbert,  A. I. Krylov,  P. M. W. Gill,  M. Head-Gordon

 Contributors to earlier versions of Q-Chem not listed above: 
 R. D. Adamson,  J. Baker,  E. F. C. Byrd,  A. K. Chakraborty,  C.-L. Cheng,  
 H. Dachsel,  R. J. Doerksen,  G. Hawkins,  A. Heyden,  S. Hirata,  
 G. Kedziora,  F. J. Keil,  C. Kelley,  P. P. Korambath,  W. Kurlancheek,  
 A. M. Lee,  M. S. Lee,  D. Liotard,  I. Lotan,  P. E. Maslen,  N. Nair,  
 D. Neuhauser,  R. Olson,  B. Peters,  J. Ritchie,  N. E. Schultz,  
 N. Shenvi,  A. C. Simmonett,  K. S. Thanthiriwatte,  Q. Wu,  W. Zhang

 Please cite Q-Chem as follows:
 Y. Shao et al., Mol. Phys. 113, 184-215 (2015)
 DOI: 10.1080/00268976.2014.952696

 Q-Chem 4.4.2 for Intel X86 Linux

 Parts of Q-Chem use Armadillo 5.200.1 (Boston Tea Smuggler).
 http://arma.sourceforge.net/

 Q-Chem begins on Sat Oct 13 22:53:05 2018  

Host: 
0

     Scratch files written to /tmpu/cab_g/afmv_a/scratch_qchem/qchem42156//
 Dec716 11556_ 22328  22283 4050   
Processing $rem in /tmpu/appuserlic/qchem4.4/serial-multicore/config/preferences.
 MEM_TOTAL  2000 
FILE_GEOM_ORG=        593

Checking the input file for inconsistencies... 	...done.

--------------------------------------------------------------
User input:
--------------------------------------------------------------
$comment
SP
$end

$rem
MEM_STATIC 5000
MEM_TOTAL 20000
JOBTYPE SP
EXCHANGE B3LYP
BASIS 6-31g(d,p)
$end

$molecule
0 1
O           5.777000    -32.363000     12.393000
C           6.730000    -33.327000     12.860000
H           7.600000    -33.348000     12.193000
H           6.441000    -34.380000     12.968000
H           7.124000    -33.100000     13.858000
O           7.228000    -30.544000     12.459000
C           6.098000    -30.944000     12.338000
C           4.876000    -30.017000     12.053000
H           5.207000    -28.985000     12.226000
H           4.133000    -30.328000     12.797000
C           4.361000    -30.391000     10.602000
H           5.208000    -30.289000      9.913000
H           4.100000    -31.450000     10.480000
C           3.069000    -29.593000     10.244000
H           2.234000    -30.041000     10.796000
H           3.200000    -28.595000     10.681000
C           2.769000    -29.545000      8.698000
C           1.998000    -30.706000      8.140000
C           0.593000    -30.602000      8.020000
H           0.130000    -29.641000      8.226000
C          -0.266000    -31.691000      7.684000
H          -1.321000    -31.608000      7.440000
C           0.402000    -32.929000      7.388000
H          -0.200000    -33.743000      6.996000
C           1.808000    -33.083000      7.445000
H           2.281000    -33.963000      7.021000
C           2.547000    -31.983000      7.862000
H           3.625000    -32.109000      7.864000
C           4.521000    -28.289000      3.597000
C           2.199000    -27.670000      3.524000
C           2.749000    -23.122000      3.443000
C           6.902000    -25.924000      7.390000
C           2.244000    -22.767000      6.886000
C           3.168000    -28.579000      3.973000
C           5.641000    -23.503000      7.802000
C           3.965000    -24.928000      2.366000
C           0.901000    -26.544000      7.250000
C           5.980000    -25.840000      8.472000
C           2.517000    -28.173000      8.125000
C           1.580000    -25.967000      8.297000
C           4.079000    -24.932000      8.975000
C           4.631000    -22.662000      7.347000
C           1.768000    -28.138000      5.691000
C           3.862000    -22.146000      5.127000
C           3.803000    -28.852000      7.751000
C           5.119000    -28.100000      7.996000
C           2.524000    -22.363000      5.586000
C           6.875000    -24.577000      4.177000
C           5.242000    -23.181000      3.450000
C           5.189000    -24.372000      2.661000
C           3.769000    -26.325000      2.373000
C           5.972000    -28.129000      6.859000
C           1.540000    -27.810000      7.041000
C           2.458000    -26.557000      2.695000
C           5.425000    -24.603000      8.665000
C           1.320000    -27.427000      4.595000
C           1.819000    -24.566000      8.197000
C           7.164000    -26.680000      5.259000
C           2.773000    -24.306000      2.659000
C           2.614000    -26.836000      8.747000
C           6.054000    -26.589000      3.166000
C           3.083000    -24.063000      8.616000
C           0.497000    -25.742000      6.123000
C           6.144000    -22.816000      5.677000
C           6.532000    -23.639000      6.784000
C           0.651000    -24.361000      6.098000
C           6.895000    -27.101000      6.616000
C           5.080000    -26.918000      8.795000
C           7.345000    -25.307000      5.249000
C           3.982000    -29.128000      6.273000
C           0.896000    -25.167000      3.970000
C           3.864000    -26.278000      9.075000
C           1.306000    -23.768000      7.210000
C           6.547000    -27.358000      4.189000
C           1.869000    -22.981000      4.539000
C           4.823000    -27.150000      2.809000
C           3.986000    -22.618000      3.866000
C           0.661000    -26.202000      4.821000
C           0.858000    -23.982000      4.770000
C           2.944000    -28.832000      5.321000
C           5.254000    -28.691000      5.774000
C           6.332000    -23.281000      4.333000
C           1.835000    -25.332000      2.959000
C           3.302000    -22.928000      7.761000
C           7.128000    -24.872000      6.564000
C           4.927000    -22.276000      6.021000
C           5.588000    -28.376000      4.444000
C           6.199000    -25.207000      3.169000
O           3.758000    -18.099000     -1.474000
C           3.491000    -18.852000     -2.646000
H           3.103000    -19.876000     -2.581000
H           4.427000    -19.040000     -3.186000
H           2.803000    -18.300000     -3.298000
O           4.350000    -16.255000     -2.724000
C           4.153000    -16.809000     -1.656000
C           4.471000    -16.116000     -0.351000
H           5.129000    -15.299000     -0.669000
H           5.000000    -16.785000      0.339000
C           3.284000    -15.534000      0.363000
H           3.555000    -14.873000      1.196000
H           2.898000    -14.823000     -0.378000
C           2.279000    -16.545000      0.791000
H           1.990000    -17.205000     -0.036000
H           2.703000    -17.205000      1.558000
C           1.047000    -15.826000      1.326000
C           0.261000    -15.054000      0.338000
C          -0.481000    -15.875000     -0.534000
H          -0.508000    -16.945000     -0.349000
C          -1.305000    -15.264000     -1.505000
H          -1.988000    -15.908000     -2.052000
C          -1.255000    -13.806000     -1.613000
H          -1.964000    -13.271000     -2.237000
C          -0.376000    -13.081000     -0.814000
H          -0.290000    -11.999000     -0.846000
C           0.428000    -13.727000      0.159000
H           1.111000    -13.191000      0.811000
C          -0.912000    -13.314000      5.762000
C          -2.933000    -14.384000      4.767000
C          -3.253000    -17.668000      8.032000
C           2.870000    -16.684000      6.516000
C          -1.732000    -20.130000      6.190000
C          -1.664000    -13.692000      4.649000
C           1.615000    -19.145000      7.063000
C          -2.723000    -15.275000      8.220000
C          -1.842000    -17.687000      2.953000
C           2.661000    -17.669000      5.521000
C           0.156000    -16.699000      2.232000
C          -0.856000    -18.662000      3.047000
C           1.380000    -19.319000      4.698000
C           0.406000    -19.796000      7.292000
C          -1.884000    -15.333000      3.063000
C          -1.647000    -19.128000      8.363000
C           1.012000    -15.630000      2.823000
C           1.997000    -16.007000      3.925000
C          -2.384000    -19.535000      7.286000
C           0.566000    -15.792000      9.016000
C          -1.399000    -16.908000      9.398000
C          -1.665000    -15.567000      9.060000
C          -2.601000    -14.300000      7.239000
C           2.123000    -15.044000      4.904000
C          -1.283000    -16.493000      2.585000
C          -3.375000    -14.685000      6.145000
C           2.101000    -18.942000      5.785000
C          -3.008000    -15.392000      3.842000
C          -0.923000    -19.653000      4.091000
C           1.871000    -14.799000      7.269000
C          -3.510000    -16.302000      7.754000
C           0.420000    -18.052000      2.792000
C          -0.299000    -13.876000      7.877000
C           0.198000    -19.994000      4.867000
C          -2.943000    -17.769000      3.756000
C           0.584000    -18.201000      8.848000
C           1.689000    -18.148000      8.061000
C          -3.118000    -18.772000      4.710000
C           2.548000    -15.332000      6.213000
C           2.240000    -17.327000      4.229000
C           1.723000    -15.737000      8.251000
C           0.383000    -14.440000      3.466000
C          -3.994000    -16.878000      5.482000
C           1.461000    -18.347000      3.668000
C          -2.085000    -19.746000      4.883000
C           0.837000    -13.880000      7.035000
C          -3.414000    -18.611000      7.079000
C          -1.386000    -13.556000      7.064000
C          -2.190000    -17.942000      8.857000
C          -3.596000    -16.614000      4.191000
C          -3.753000    -18.234000      5.793000
C          -1.039000    -14.297000      3.538000
C           1.107000    -14.082000      4.617000
C          -0.017000    -17.016000      9.382000
C          -3.884000    -15.930000      6.493000
C          -0.317000    -20.252000      6.181000
C           2.338000    -16.914000      7.824000
C          -0.184000    -19.246000      8.354000
C           0.439000    -13.518000      5.746000
C          -0.471000    -14.865000      8.913000
$end

--------------------------------------------------------------
 ----------------------------------------------------------------
             Standard Nuclear Orientation (Angstroms)
    I     Atom           X                Y                Z
 ----------------------------------------------------------------
    1      O      12.7842502198    -3.0220821781     1.6400890558
    2      C      14.0852803608    -2.8819501994     2.2259880239
    3      H      14.1888459035    -1.8875578697     2.6761969455
    4      H      14.9838317017    -2.9983782795     1.6070825466
    5      H      14.2767995828    -3.5975412054     3.0347023739
    6      O      11.5962914705    -2.5972234011     3.5963014751
    7      C      11.5772700173    -2.9766317412     2.4529605392
    8      C      10.2770819901    -3.3982787931     1.7009214062
    9      H       9.4883934203    -3.5064322256     2.4564259892
   10      H      10.5361614690    -4.3650073464     1.2530154698
   11      C      10.0565162775    -2.3260755697     0.5553940105
   12      H      10.0349728129    -1.3364053919     1.0272232363
   13      H      10.9055323797    -2.2269993083    -0.1329674880
   14      C       8.8318436008    -2.7025291865    -0.3349382361
   15      H       9.1339796078    -3.5291069472    -0.9892440047
   16      H       8.0853002723    -3.1321703122     0.3449261341
   17      C       8.2675338612    -1.4918971574    -1.1706083911
   18      C       8.9309653115    -1.2379668804    -2.4931453944
   19      C       8.3686269638    -1.8012458483    -3.6617913575
   20      H       7.4081177462    -2.3021673738    -3.5791737562
   21      C       9.0007762400    -1.7909885573    -4.9412365813
   22      H       8.5314667500    -2.0794817214    -5.8771694297
   23      C      10.2517947625    -1.0853465217    -5.0004478468
   24      H      10.6977253364    -0.9353742682    -5.9788742602
   25      C      10.8424977379    -0.4609453591    -3.8757282448
   26      H      11.6720720386     0.2271535810    -4.0031304752
   27      C      10.1856466128    -0.5995845326    -2.6594487625
   28      H      10.6342167635    -0.0834109857    -1.8166476654
   29      C       6.2549022304     3.6670092338    -1.2179345474
   30      C       4.9534262930     2.5779612758    -2.9209638864
   31      C       0.9632528387     2.4160328274    -0.6747092297
   32      C       5.8892540099     1.1987572162     3.1892491743
   33      C       1.4369557217    -0.8787278032     0.4002126119
   34      C       6.2043830492     2.7354392959    -2.3068377860
   35      C       3.4106355559    -0.0136113449     3.2771071921
   36      C       2.6843759771     4.1243902523    -0.8142479386
   37      C       4.5587402320    -1.4191738815    -2.0825788630
   38      C       5.8271413868    -0.1907961618     2.8840485328
   39      C       6.7827520342    -1.2550657101    -1.0542005222
   40      C       4.5335228233    -2.0821422592    -0.8784127563
   41      C       4.5523359007    -1.6193056526     1.8713760253
   42      C       2.2072062773    -0.1776772579     2.5994300214
   43      C       5.8456559578     0.5258622334    -2.6152029577
   44      C       0.8855283277     1.3543167157     1.2985922674
   45      C       7.6947172149    -0.2521324405    -0.4083233155
   46      C       7.4853224294     0.0675750320     1.0787294595
   47      C       0.7962019218     0.3490865375     0.2839262722
   48      C       3.7661707674     3.8593774587     2.4461983884
   49      C       1.7898485153     3.5826078944     1.3684308048
   50      C       2.6386913260     4.3783249226     0.5377014302
   51      C       3.8967132254     4.1771555292    -1.5336422824
   52      C       7.4608348846     1.4671636992     1.3272670276
   53      C       5.8503427354    -0.8003980152    -2.1428897280
   54      C       3.7914687722     3.3063518250    -2.5857133417
   55      C       4.5834731576    -0.7531107788     2.9960065922
   56      C       4.7569065400     1.2010336881    -3.1311576184
   57      C       3.3051062881    -2.0336408566    -0.1582999666
   58      C       6.0683390513     3.2721641257     2.2671573482
   59      C       1.8309235335     3.2426337811    -1.4369207677
   60      C       5.7684653940    -1.8994433003    -0.1940481330
   61      C       5.0630242414     4.5790327325     0.5634946534
   62      C       3.3543297067    -1.8640520898     1.2541739996
   63      C       3.3922254291    -0.7060338459    -2.5377969471
   64      C       2.3530461534     2.0117208661     3.1352019740
   65      C       3.5281839192     1.3109032644     3.5609107014
   66      C       2.1764748681    -0.7609342835    -1.8666497834
   67      C       6.7437365368     2.0013280463     2.4081002294
   68      C       6.6189838105    -0.7789861974     1.8336052653
   69      C       4.8723682878     3.2176000302     2.9633374200
   70      C       7.5921418514     1.1578796784    -0.9505825887
   71      C       2.3966236454     1.3072778113    -2.8216776609
   72      C       5.7381346788    -1.6625079272     1.1931755968
   73      C       2.1472671951    -1.4938744683    -0.6504410852
   74      C       6.1982566208     3.9952034777     1.0648227356
   75      C       0.8661440132     1.0277034007    -0.9168006979
   76      C       5.0939344445     4.3767489726    -0.8205779025
   77      C       1.0043234999     2.5693729564     0.7173805683
   78      C       3.5011261980     0.5624082984    -3.0971672619
   79      C       1.5281415866     0.4599838092    -2.0643793132
   80      C       6.7383570737     1.4754400441    -2.0648406232
   81      C       7.4498273496     2.1436026356     0.0819147885
   82      C       2.4622945342     3.3287731884     2.5772208170
   83      C       2.5573383448     2.6512352336    -2.5070092126
   84      C       2.1527903096    -1.1339399607     1.5549236568
   85      C       4.7734200914     1.9156531830     3.4739083374
   86      C       1.5805817099     1.0823706056     2.4789765731
   87      C       6.8984445688     3.4325919153    -0.0371006135
   88      C       3.8513296489     4.4952520202     1.2385761349
   89      O      -4.6555154472     6.6598145998     0.2446700276
   90      C      -4.3773503158     7.6441627111    -0.7379616203
   91      H      -3.5477005821     7.5160108257    -1.4440801752
   92      H      -4.0662865976     8.5760315293    -0.2502118188
   93      H      -5.2727819929     7.8347108273    -1.3421515963
   94      O      -6.4960797868     7.8344980337     0.9834133807
   95      C      -5.7573919055     6.8651983440     1.0172855775
   96      C      -5.9283876307     5.7945104770     2.0702746341
   97      H      -6.5562243665     6.2932316146     2.8177204582
   98      H      -4.9651626722     5.5088533034     2.5108420622
   99      C      -6.6273877898     4.5501012751     1.6008776636
  100      H      -6.9144322280     3.8749159401     2.4169544087
  101      H      -7.5987156684     4.9428710034     1.2755284777
  102      C      -5.8999160186     3.8134570391     0.5315460539
  103      H      -5.6176875119     4.4748499897    -0.2966788159
  104      H      -4.9560414258     3.4101602030     0.9189959411
  105      C      -6.7870166243     2.6902451879     0.0095712915
  106      C      -8.0059045513     3.1059681451    -0.7194078880
  107      C      -7.7297431039     3.6122552091    -2.0048639408
  108      H      -6.7133893459     3.5526920924    -2.3834551105
  109      C      -8.8091974565     4.0126440044    -2.8231579669
  110      H      -8.5858824773     4.2423603733    -3.8613269368
  111      C     -10.1501372812     3.9735941100    -2.2398197353
  112      H     -11.0288473735     4.1315882324    -2.8572243279
  113      C     -10.3167910189     3.6057882484    -0.9080493422
  114      H     -11.2834730655     3.5574482634    -0.4157759764
  115      C      -9.2111247130     3.1980612025    -0.1195560474
  116      H      -9.3071203076     2.8878811070     0.9165241397
  117      C      -8.4506332953    -2.3883760734     1.1346964651
  118      C      -8.3775085699    -2.3457315565    -1.3577321135
  119      C      -4.5850308358    -5.0054913570    -1.6578511561
  120      C      -4.0062651969    -0.9170685423     3.2111805980
  121      C      -2.3844607154    -2.4126549765    -2.1078952090
  122      C      -8.6473110354    -1.7231185719    -0.0760501323
  123      C      -2.0039393665    -1.7187450045     1.4004456315
  124      C      -6.5462868845    -5.1804240593    -0.1862648484
  125      C      -5.5370139481     0.1120313584    -2.4898441919
  126      C      -3.4501001550    -0.0358397397     2.2530327787
  127      C      -6.0175559692     1.5727538433    -0.7225416745
  128      C      -4.3189994534     0.5959865943    -2.0273671433
  129      C      -2.5728292613     0.2646629729     0.2083117956
  130      C      -1.7221642832    -2.4150769057     0.2284184621
  131      C      -7.6612692666    -0.2578860873    -1.5380666836
  132      C      -2.6684247160    -4.3870801810    -0.7834453012
  133      C      -6.5618644797     1.3395612817     0.6464460809
  134      C      -5.6092621142     0.8743559547     1.7432098371
  135      C      -2.8241157631    -3.7432579899    -1.9792714943
  136      C      -4.8384672571    -4.2841802248     2.6419015380
  137      C      -4.3250826576    -5.4182912171     0.7176267369
  138      C      -5.7209526389    -5.3908114047     0.9022150770
  139      C      -7.6671245035    -4.3679165378    -0.0793791186
  140      C      -6.1755076204    -0.0292975192     2.6175452566
  141      C      -6.5523059112     0.5676527197    -1.6928922456
  142      C      -7.8589788706    -3.7288640755    -1.3036915184
  143      C      -2.3920242862    -0.3921827474     1.3827913658
  144      C      -7.7396044570    -1.4607355582    -2.1866919592
  145      C      -3.1491601093    -0.2443282280    -2.0704125649
  146      C      -5.8218231888    -2.2482036210     3.4349295201
  147      C      -5.9842577029    -5.0291284528    -1.4322531463
  148      C      -4.5499473739     1.3508920027    -0.8265000056
  149      C      -7.1644070853    -3.8962891342     2.2467478748
  150      C      -2.2774738357    -0.3638171547    -0.9745186663
  151      C      -5.5806683318    -1.0986309559    -3.1192288562
  152      C      -2.6876458969    -3.8686838907     1.6254571112
  153      C      -2.6119417280    -2.6670591150     2.2528085098
  154      C      -4.4582188375    -1.9092314756    -3.2918090698
  155      C      -5.4197752116    -0.9476765556     3.3675442378
  156      C      -4.2490208426     0.8636766690     1.5346561606
  157      C      -4.7424127456    -3.0777413160     3.3217380552
  158      C      -7.6611171976     0.3529492604     0.8548451733
  159      C      -6.2386681780    -3.2004579501    -2.9551633546
  160      C      -3.7171779226     1.1012951327     0.2608262764
  161      C      -3.2047155095    -1.4726943699    -2.7590250968
  162      C      -7.0424778115    -2.6257696213     2.8553441446
  163      C      -4.0406100906    -4.1431762051    -2.5429486824
  164      C      -8.0167123292    -3.7261726526     1.1560718671
  165      C      -3.7786783154    -5.2023218393    -0.5639026317
  166      C      -6.7130644065    -1.9102391278    -3.0263294201
  167      C      -4.8443547307    -3.2143323809    -3.1770541181
  168      C      -8.2110590778    -0.3909113961    -0.2369204847
  169      C      -7.4443856876    -0.3565858531     2.0493025293
  170      C      -3.8038564713    -4.7460414449     1.8122716595
  171      C      -6.7873584307    -4.1380505982    -2.0875320777
  172      C      -1.8383543132    -1.7295972582    -0.9887929122
  173      C      -3.5995384541    -2.2885574488     3.1916989162
  174      C      -2.1111132175    -3.6819967910     0.3770008659
  175      C      -7.8516516549    -1.7202803549     2.1652022173
  176      C      -6.0310734528    -4.7789263681     2.1144323772
 ----------------------------------------------------------------
 Molecular Point Group                 C1    NOp =  1
 Largest Abelian Subgroup              C1    NOp =  1
 Nuclear Repulsion Energy = 33901.3178786786 hartrees
 There are      462 alpha and      462 beta electrons
 Requested basis set is 6-31G(d,p)
 There are 676 shells and 2360 basis functions

 Total QAlloc Memory Limit  20000 MB
 Mega-Array Size      4888 MB
 MEM_STATIC part      5000 MB
 A cutoff of  1.0D-08 yielded  36746 shell pairs
 There are    520421 function pairs
 
 -------------------------------------------------------
 OpenMP Integral Computing Module                       
 Release: version 1.0, May 2013, Q-Chem Inc. Pittsburgh 
 -------------------------------------------------------
 Integral Job Info:
 Integral job number is                      11
 Integral operator is                         1
 short-range coefficients                     0
 long-range coefficients              100000000
 Omega coefficients                           0
 if combine SR and LR in K                    0
 Integral screening is                        0
 Integral computing path is                   2
 max size of driver memory is            800000
 size of driver memory is                593474
 size of scratch memory is              2260544
 max col of scratch BK array               1296
 max len of scratch array in speh3          155
 max len of scratch index in speh4           18
 max int batch size is                      520
 min int batch size is                       52
 fixed nKL is                                52
 max L of basis functions is                  2
 order of int derivative is                   0
 number of shells is                        676
 number of basis is                        2360
 number of cartesian basis is              2360
 number of contracted shell pairs         36746
 number of primitive shell pairs         112275
 maxK2 (contraction) of shell pair           36
 max number of K2 of shell pair               1
 max number of CS2 of shell pair           7102
 max number of PS2 of shell pair          34146
 mem total for path MDJ                 1483448
 -------------------------------------------------------
 Smallest overlap matrix eigenvalue = 2.18E-04

 Scale SEOQF with 1.000000e-02/1.000000e-02/1.000000e-02

 Standard Electronic Orientation quadrupole field applied
 Nucleus-field energy     =     0.0000001447 hartrees
 Guess from superposition of atomic densities
 Warning:  Energy on first SCF cycle will be non-variational
 A restricted hybrid HF-DFT SCF calculation will be
 performed using Pulay DIIS extrapolation
 Exchange:     0.2000 Hartree-Fock + 0.0800 Slater + 0.7200 B88
 Correlation:  0.1900 VWN1RPA + 0.8100 LYP
 Using SG-1 standard quadrature grid
 SCF converges when DIIS error is below 1.0E-05
 using 16 threads for integral computing 
 -------------------------------------------------------
 OpenMP BLAS3 based DFT computing Module                
 Release: version 1.0, May 2013, Q-Chem Inc. Pittsburgh 
 -------------------------------------------------------
 ---------------------------------------
  Cycle       Energy         DIIS Error
 ---------------------------------------
    1   -5859.3481966699      1.85E-02
    2   -5803.0168766007      1.31E-03
    3   -5802.1500333405      1.84E-03
    4   -5803.8589561011      6.77E-04
    5   -5804.1184707814      3.18E-04
    6   -5804.1879046058      1.23E-04
    7   -5804.1970593569      4.66E-05
    8   -5804.1978099652      3.16E-05
    9   -5804.1985820683      9.60E-06 Convergence criterion met
 ---------------------------------------
 SCF time:  CPU 8153.44 s  wall 842.15 s
 SCF   energy in the final basis set = -5804.1985820683
 Total energy in the final basis set = -5804.1985820683
 
 --------------------------------------------------------------
 
                    Orbital Energies (a.u.)
 --------------------------------------------------------------
 
 Alpha MOs
 -- Occupied --
-19.204 -19.180 -19.147 -19.141 -10.326 -10.321 -10.253 -10.248
-10.246 -10.241 -10.240 -10.238 -10.237 -10.237 -10.234 -10.229
-10.228 -10.228 -10.226 -10.226 -10.222 -10.222 -10.222 -10.221
-10.221 -10.221 -10.220 -10.220 -10.220 -10.220 -10.219 -10.219
-10.218 -10.218 -10.218 -10.218 -10.217 -10.217 -10.216 -10.216
-10.216 -10.216 -10.216 -10.215 -10.215 -10.215 -10.215 -10.215
-10.214 -10.214 -10.214 -10.214 -10.213 -10.213 -10.213 -10.213
-10.213 -10.213 -10.213 -10.213 -10.213 -10.213 -10.213 -10.212
-10.212 -10.212 -10.212 -10.212 -10.212 -10.212 -10.212 -10.211
-10.211 -10.211 -10.211 -10.211 -10.211 -10.211 -10.211 -10.211
-10.211 -10.210 -10.210 -10.210 -10.210 -10.210 -10.210 -10.210
-10.210 -10.210 -10.210 -10.210 -10.210 -10.210 -10.209 -10.209
-10.209 -10.209 -10.209 -10.208 -10.208 -10.208 -10.208 -10.208
-10.208 -10.208 -10.208 -10.208 -10.208 -10.208 -10.208 -10.208
-10.207 -10.207 -10.207 -10.207 -10.207 -10.207 -10.207 -10.206
-10.206 -10.206 -10.206 -10.206 -10.206 -10.205 -10.205 -10.205
-10.205 -10.205 -10.205 -10.205 -10.205 -10.204 -10.204 -10.204
-10.204 -10.203 -10.203 -10.203 -10.203 -10.202 -10.202 -10.202
-10.198 -10.198 -10.197 -10.194  -1.105  -1.076  -1.020  -1.007
 -0.986  -0.984  -0.969  -0.967  -0.965  -0.964  -0.962  -0.962
 -0.937  -0.934  -0.930  -0.929  -0.928  -0.926  -0.925  -0.925
 -0.922  -0.921  -0.903  -0.898  -0.892  -0.892  -0.887  -0.886
 -0.879  -0.874  -0.855  -0.852  -0.842  -0.841  -0.838  -0.837
 -0.837  -0.836  -0.827  -0.821  -0.814  -0.804  -0.800  -0.798
 -0.796  -0.795  -0.794  -0.794  -0.793  -0.793  -0.784  -0.783
 -0.771  -0.770  -0.769  -0.768  -0.766  -0.766  -0.763  -0.763
 -0.754  -0.751  -0.746  -0.739  -0.735  -0.729  -0.717  -0.716
 -0.715  -0.714  -0.714  -0.713  -0.710  -0.709  -0.709  -0.709
 -0.708  -0.706  -0.706  -0.705  -0.704  -0.697  -0.675  -0.672
 -0.658  -0.658  -0.657  -0.656  -0.649  -0.649  -0.634  -0.633
 -0.628  -0.628  -0.624  -0.624  -0.622  -0.621  -0.619  -0.616
 -0.615  -0.615  -0.613  -0.612  -0.611  -0.610  -0.610  -0.608
 -0.607  -0.606  -0.604  -0.604  -0.573  -0.570  -0.568  -0.563
 -0.563  -0.561  -0.560  -0.558  -0.556  -0.555  -0.554  -0.554
 -0.538  -0.538  -0.536  -0.533  -0.528  -0.527  -0.525  -0.522
 -0.521  -0.521  -0.519  -0.519  -0.515  -0.514  -0.514  -0.513
 -0.508  -0.507  -0.506  -0.494  -0.493  -0.491  -0.490  -0.488
 -0.487  -0.485  -0.480  -0.479  -0.478  -0.477  -0.476  -0.473
 -0.473  -0.472  -0.471  -0.469  -0.468  -0.467  -0.467  -0.466
 -0.466  -0.466  -0.464  -0.463  -0.462  -0.462  -0.460  -0.456
 -0.456  -0.456  -0.455  -0.454  -0.453  -0.451  -0.444  -0.444
 -0.442  -0.441  -0.440  -0.438  -0.435  -0.435  -0.435  -0.433
 -0.432  -0.431  -0.429  -0.428  -0.428  -0.427  -0.426  -0.424
 -0.424  -0.423  -0.421  -0.421  -0.420  -0.419  -0.419  -0.418
 -0.417  -0.417  -0.416  -0.416  -0.415  -0.415  -0.414  -0.413
 -0.413  -0.412  -0.409  -0.408  -0.405  -0.402  -0.401  -0.399
 -0.396  -0.395  -0.389  -0.388  -0.388  -0.387  -0.386  -0.385
 -0.382  -0.376  -0.375  -0.374  -0.371  -0.369  -0.368  -0.367
 -0.366  -0.364  -0.364  -0.363  -0.363  -0.361  -0.360  -0.358
 -0.356  -0.356  -0.355  -0.354  -0.354  -0.352  -0.352  -0.352
 -0.350  -0.349  -0.348  -0.347  -0.346  -0.345  -0.345  -0.343
 -0.343  -0.341  -0.340  -0.340  -0.338  -0.336  -0.335  -0.334
 -0.333  -0.331  -0.329  -0.329  -0.327  -0.326  -0.326  -0.324
 -0.315  -0.310  -0.304  -0.290  -0.288  -0.287  -0.274  -0.271
 -0.271  -0.269  -0.267  -0.266  -0.266  -0.264  -0.264  -0.262
 -0.261  -0.260  -0.258  -0.258  -0.258  -0.256  -0.254  -0.253
 -0.251  -0.251  -0.247  -0.244  -0.222  -0.220  -0.211  -0.209
 -0.207  -0.206  -0.204  -0.203  -0.200  -0.196
 -- Virtual --
 -0.124  -0.122  -0.118  -0.117  -0.107  -0.106  -0.077  -0.076
 -0.073  -0.070  -0.060  -0.057  -0.056  -0.047  -0.024  -0.022
 -0.021  -0.019  -0.018  -0.017  -0.016  -0.014  -0.013  -0.010
 -0.010  -0.008  -0.008  -0.006  -0.004  -0.002   0.000   0.000
  0.008   0.009   0.033   0.037   0.042   0.045   0.050   0.052
  0.054   0.056   0.058   0.060   0.061   0.066   0.069   0.072
  0.074   0.075   0.076   0.079   0.082   0.087   0.089   0.094
  0.095   0.097   0.101   0.103   0.104   0.106   0.107   0.108
  0.109   0.110   0.111   0.115   0.116   0.117   0.118   0.121
  0.122   0.124   0.125   0.127   0.130   0.131   0.131   0.133
  0.134   0.139   0.142   0.147   0.148   0.152   0.154   0.158
  0.158   0.160   0.164   0.166   0.166   0.169   0.169   0.171
  0.172   0.174   0.174   0.176   0.178   0.179   0.180   0.183
  0.184   0.185   0.188   0.189   0.189   0.190   0.192   0.193
  0.195   0.197   0.198   0.199   0.201   0.202   0.206   0.210
  0.211   0.212   0.212   0.214   0.216   0.217   0.219   0.221
  0.222   0.225   0.225   0.226   0.227   0.228   0.229   0.230
  0.231   0.233   0.234   0.235   0.236   0.236   0.239   0.240
  0.242   0.243   0.246   0.248   0.250   0.251   0.254   0.255
  0.258   0.261   0.271   0.275   0.279   0.279   0.280   0.281
  0.283   0.285   0.287   0.289   0.292   0.297   0.298   0.298
  0.299   0.304   0.305   0.311   0.314   0.316   0.317   0.319
  0.320   0.324   0.324   0.325   0.327   0.329   0.334   0.335
  0.336   0.336   0.341   0.345   0.346   0.347   0.348   0.352
  0.354   0.356   0.359   0.360   0.366   0.374   0.384   0.389
  0.394   0.400   0.403   0.405   0.407   0.409   0.410   0.411
  0.413   0.416   0.419   0.419   0.421   0.425   0.426   0.428
  0.428   0.430   0.433   0.437   0.441   0.447   0.448   0.448
  0.452   0.453   0.455   0.457   0.458   0.459   0.462   0.463
  0.467   0.468   0.470   0.470   0.473   0.475   0.475   0.477
  0.477   0.482   0.482   0.484   0.485   0.486   0.487   0.487
  0.489   0.490   0.491   0.492   0.493   0.496   0.497   0.498
  0.499   0.500   0.501   0.502   0.504   0.504   0.505   0.506
  0.507   0.507   0.508   0.510   0.510   0.511   0.512   0.514
  0.515   0.515   0.516   0.517   0.518   0.520   0.520   0.521
  0.522   0.523   0.524   0.525   0.526   0.526   0.527   0.528
  0.528   0.530   0.531   0.532   0.532   0.533   0.534   0.535
  0.536   0.536   0.537   0.538   0.538   0.540   0.540   0.541
  0.542   0.543   0.543   0.544   0.546   0.547   0.548   0.548
  0.549   0.550   0.550   0.550   0.551   0.553   0.553   0.554
  0.554   0.555   0.556   0.556   0.557   0.558   0.558   0.559
  0.560   0.560   0.561   0.562   0.563   0.563   0.564   0.566
  0.566   0.567   0.567   0.568   0.570   0.570   0.572   0.572
  0.572   0.574   0.574   0.575   0.576   0.577   0.577   0.579
  0.580   0.581   0.581   0.582   0.584   0.585   0.586   0.586
  0.588   0.588   0.589   0.589   0.590   0.591   0.591   0.592
  0.593   0.594   0.596   0.597   0.598   0.599   0.600   0.601
  0.601   0.602   0.603   0.604   0.606   0.606   0.607   0.608
  0.610   0.611   0.611   0.612   0.614   0.614   0.616   0.617
  0.620   0.621   0.624   0.626   0.626   0.627   0.628   0.629
  0.630   0.630   0.631   0.631   0.633   0.634   0.635   0.635
  0.636   0.638   0.638   0.639   0.640   0.642   0.643   0.644
  0.644   0.645   0.646   0.647   0.648   0.649   0.649   0.651
  0.651   0.654   0.655   0.655   0.656   0.657   0.658   0.659
  0.660   0.661   0.662   0.662   0.664   0.666   0.667   0.667
  0.667   0.669   0.669   0.669   0.670   0.671   0.672   0.672
  0.674   0.674   0.676   0.676   0.677   0.678   0.679   0.679
  0.681   0.683   0.685   0.686   0.687   0.690   0.690   0.691
  0.692   0.693   0.694   0.696   0.698   0.699   0.700   0.702
  0.702   0.703   0.704   0.705   0.706   0.707   0.708   0.709
  0.710   0.714   0.715   0.716   0.717   0.718   0.720   0.720
  0.721   0.722   0.724   0.725   0.726   0.727   0.729   0.729
  0.730   0.731   0.732   0.734   0.735   0.738   0.738   0.739
  0.740   0.741   0.742   0.743   0.743   0.746   0.747   0.749
  0.750   0.751   0.753   0.754   0.755   0.756   0.758   0.759
  0.761   0.762   0.762   0.763   0.764   0.765   0.769   0.770
  0.771   0.772   0.772   0.775   0.776   0.777   0.779   0.780
  0.781   0.783   0.783   0.785   0.787   0.787   0.788   0.789
  0.790   0.790   0.792   0.794   0.794   0.795   0.798   0.798
  0.799   0.800   0.802   0.802   0.804   0.804   0.806   0.806
  0.807   0.808   0.809   0.810   0.811   0.813   0.814   0.814
  0.815   0.815   0.816   0.817   0.818   0.818   0.819   0.820
  0.821   0.822   0.822   0.822   0.823   0.824   0.826   0.826
  0.827   0.828   0.829   0.830   0.831   0.832   0.833   0.834
  0.836   0.837   0.840   0.841   0.843   0.844   0.846   0.848
  0.850   0.851   0.853   0.859   0.861   0.861   0.863   0.867
  0.871   0.873   0.875   0.876   0.880   0.883   0.885   0.887
  0.891   0.892   0.893   0.896   0.897   0.905   0.906   0.909
  0.909   0.910   0.913   0.914   0.916   0.918   0.921   0.923
  0.925   0.925   0.930   0.932   0.933   0.935   0.936   0.937
  0.938   0.939   0.940   0.942   0.943   0.943   0.946   0.949
  0.950   0.953   0.954   0.958   0.959   0.961   0.964   0.968
  0.969   0.971   0.973   0.978   0.980   0.985   0.987   0.989
  0.992   0.995   0.997   0.998   0.999   1.001   1.005   1.006
  1.008   1.009   1.011   1.012   1.014   1.017   1.019   1.021
  1.022   1.024   1.025   1.027   1.029   1.030   1.031   1.033
  1.034   1.037   1.039   1.039   1.041   1.043   1.045   1.046
  1.047   1.050   1.051   1.054   1.056   1.057   1.059   1.059
  1.062   1.062   1.063   1.066   1.067   1.068   1.070   1.072
  1.073   1.076   1.078   1.079   1.081   1.082   1.083   1.083
  1.086   1.089   1.090   1.092   1.092   1.093   1.095   1.098
  1.098   1.100   1.102   1.103   1.104   1.106   1.108   1.109
  1.110   1.115   1.116   1.119   1.122   1.123   1.125   1.128
  1.131   1.133   1.135   1.136   1.138   1.140   1.143   1.144
  1.147   1.149   1.150   1.155   1.157   1.158   1.159   1.162
  1.165   1.166   1.168   1.170   1.172   1.174   1.175   1.177
  1.178   1.179   1.181   1.182   1.184   1.186   1.187   1.188
  1.188   1.192   1.194   1.194   1.197   1.202   1.204   1.205
  1.208   1.209   1.209   1.211   1.214   1.214   1.218   1.219
  1.223   1.226   1.227   1.232   1.235   1.236   1.240   1.243
  1.248   1.249   1.250   1.252   1.258   1.258   1.261   1.264
  1.265   1.266   1.270   1.271   1.273   1.275   1.276   1.278
  1.281   1.282   1.282   1.284   1.286   1.289   1.290   1.294
  1.294   1.296   1.299   1.300   1.302   1.305   1.308   1.309
  1.313   1.318   1.318   1.321   1.322   1.324   1.325   1.327
  1.332   1.336   1.339   1.343   1.344   1.349   1.351   1.352
  1.353   1.357   1.359   1.360   1.362   1.365   1.366   1.368
  1.369   1.372   1.373   1.376   1.378   1.379   1.381   1.383
  1.385   1.385   1.391   1.391   1.394   1.398   1.401   1.403
  1.406   1.408   1.412   1.413   1.416   1.417   1.421   1.423
  1.429   1.431   1.433   1.436   1.438   1.444   1.446   1.447
  1.451   1.453   1.455   1.457   1.458   1.460   1.462   1.465
  1.467   1.469   1.470   1.470   1.471   1.474   1.475   1.478
  1.479   1.480   1.480   1.483   1.484   1.486   1.489   1.491
  1.492   1.497   1.498   1.501   1.507   1.508   1.510   1.512
  1.512   1.518   1.521   1.526   1.529   1.531   1.533   1.536
  1.540   1.541   1.547   1.551   1.552   1.553   1.556   1.556
  1.560   1.562   1.564   1.566   1.566   1.569   1.573   1.574
  1.576   1.577   1.579   1.580   1.581   1.585   1.586   1.588
  1.591   1.596   1.599   1.602   1.606   1.606   1.614   1.616
  1.618   1.624   1.628   1.629   1.632   1.636   1.639   1.641
  1.647   1.649   1.650   1.651   1.655   1.658   1.664   1.666
  1.672   1.674   1.677   1.682   1.690   1.692   1.693   1.695
  1.698   1.701   1.707   1.707   1.711   1.712   1.713   1.715
  1.716   1.720   1.725   1.726   1.727   1.729   1.731   1.732
  1.734   1.736   1.739   1.740   1.743   1.745   1.747   1.747
  1.748   1.752   1.753   1.754   1.756   1.758   1.760   1.762
  1.763   1.764   1.766   1.766   1.768   1.769   1.769   1.772
  1.774   1.774   1.775   1.777   1.778   1.780   1.781   1.783
  1.784   1.785   1.787   1.788   1.788   1.789   1.790   1.792
  1.794   1.794   1.795   1.795   1.797   1.798   1.799   1.800
  1.801   1.803   1.804   1.805   1.806   1.808   1.810   1.811
  1.811   1.814   1.815   1.817   1.819   1.821   1.822   1.824
  1.825   1.825   1.827   1.830   1.832   1.834   1.837   1.840
  1.843   1.844   1.845   1.845   1.848   1.852   1.853   1.855
  1.857   1.860   1.862   1.863   1.866   1.870   1.871   1.872
  1.873   1.876   1.878   1.880   1.881   1.884   1.884   1.886
  1.888   1.891   1.894   1.896   1.896   1.901   1.902   1.905
  1.907   1.908   1.910   1.912   1.915   1.919   1.920   1.922
  1.923   1.926   1.931   1.932   1.933   1.934   1.936   1.937
  1.940   1.944   1.944   1.946   1.948   1.950   1.951   1.952
  1.954   1.956   1.958   1.958   1.959   1.961   1.962   1.965
  1.967   1.970   1.974   1.977   1.979   1.982   1.983   1.985
  1.987   1.988   1.991   1.993   1.994   1.996   1.998   2.000
  2.002   2.002   2.005   2.005   2.007   2.008   2.010   2.011
  2.012   2.014   2.015   2.016   2.018   2.019   2.019   2.020
  2.023   2.024   2.025   2.026   2.027   2.028   2.029   2.030
  2.031   2.033   2.034   2.037   2.038   2.039   2.041   2.041
  2.042   2.044   2.044   2.045   2.046   2.046   2.047   2.048
  2.051   2.052   2.053   2.054   2.054   2.056   2.058   2.059
  2.060   2.062   2.063   2.064   2.066   2.066   2.068   2.069
  2.070   2.073   2.073   2.075   2.077   2.078   2.079   2.081
  2.082   2.083   2.085   2.087   2.087   2.089   2.089   2.092
  2.093   2.095   2.097   2.098   2.100   2.104   2.108   2.109
  2.110   2.111   2.114   2.116   2.119   2.121   2.124   2.127
  2.128   2.132   2.135   2.138   2.138   2.141   2.146   2.149
  2.153   2.155   2.159   2.160   2.164   2.168   2.171   2.174
  2.176   2.181   2.188   2.189   2.189   2.193   2.196   2.199
  2.202   2.206   2.213   2.214   2.218   2.219   2.221   2.225
  2.230   2.235   2.240   2.242   2.243   2.245   2.247   2.249
  2.251   2.255   2.257   2.259   2.260   2.263   2.264   2.266
  2.270   2.271   2.274   2.275   2.281   2.282   2.282   2.283
  2.288   2.290   2.291   2.292   2.297   2.297   2.299   2.299
  2.306   2.307   2.312   2.313   2.315   2.316   2.318   2.323
  2.324   2.326   2.328   2.332   2.332   2.334   2.334   2.340
  2.342   2.344   2.346   2.348   2.351   2.353   2.354   2.357
  2.361   2.363   2.364   2.367   2.370   2.372   2.373   2.374
  2.375   2.376   2.378   2.382   2.383   2.383   2.385   2.386
  2.388   2.390   2.391   2.391   2.394   2.395   2.396   2.397
  2.400   2.401   2.402   2.403   2.406   2.409   2.410   2.411
  2.413   2.414   2.414   2.417   2.417   2.421   2.422   2.426
  2.426   2.427   2.429   2.431   2.435   2.436   2.438   2.439
  2.442   2.446   2.450   2.451   2.453   2.454   2.457   2.458
  2.458   2.463   2.466   2.470   2.472   2.474   2.477   2.478
  2.481   2.482   2.483   2.484   2.487   2.490   2.493   2.494
  2.496   2.500   2.502   2.503   2.504   2.505   2.509   2.509
  2.514   2.515   2.516   2.520   2.523   2.523   2.524   2.525
  2.527   2.529   2.533   2.537   2.538   2.540   2.544   2.545
  2.548   2.549   2.552   2.554   2.557   2.558   2.561   2.565
  2.568   2.571   2.576   2.578   2.580   2.582   2.588   2.588
  2.590   2.592   2.594   2.596   2.597   2.603   2.604   2.607
  2.608   2.612   2.613   2.613   2.614   2.618   2.622   2.624
  2.625   2.626   2.627   2.631   2.633   2.635   2.637   2.638
  2.640   2.642   2.643   2.645   2.646   2.647   2.648   2.650
  2.652   2.654   2.654   2.655   2.657   2.661   2.662   2.662
  2.666   2.667   2.670   2.671   2.674   2.675   2.677   2.679
  2.680   2.683   2.684   2.687   2.688   2.689   2.692   2.693
  2.695   2.696   2.700   2.703   2.705   2.709   2.710   2.711
  2.713   2.716   2.717   2.720   2.724   2.725   2.726   2.730
  2.731   2.732   2.736   2.737   2.739   2.743   2.745   2.750
  2.752   2.755   2.756   2.758   2.759   2.763   2.765   2.766
  2.768   2.772   2.772   2.774   2.776   2.777   2.779   2.782
  2.785   2.786   2.788   2.791   2.795   2.799   2.801   2.802
  2.803   2.806   2.809   2.810   2.812   2.813   2.816   2.819
  2.821   2.830   2.835   2.838   2.843   2.844   2.846   2.847
  2.852   2.854   2.856   2.856   2.859   2.860   2.861   2.865
  2.867   2.870   2.870   2.874   2.875   2.879   2.880   2.883
  2.888   2.889   2.889   2.890   2.892   2.894   2.895   2.898
  2.899   2.903   2.904   2.906   2.909   2.912   2.912   2.915
  2.917   2.919   2.920   2.922   2.924   2.925   2.925   2.927
  2.929   2.933   2.935   2.936   2.938   2.938   2.940   2.941
  2.944   2.946   2.948   2.953   2.954   2.957   2.959   2.962
  2.964   2.968   2.972   2.974   2.977   2.981   2.984   2.987
  2.987   2.994   2.995   3.001   3.005   3.009   3.009   3.010
  3.013   3.013   3.015   3.021   3.025   3.027   3.030   3.030
  3.033   3.034   3.034   3.037   3.039   3.047   3.049   3.050
  3.052   3.059   3.061   3.064   3.067   3.068   3.070   3.073
  3.077   3.079   3.080   3.084   3.085   3.090   3.100   3.106
  3.108   3.109   3.114   3.118   3.123   3.136   3.138   3.142
  3.144   3.158   3.165   3.169   3.177   3.178   3.181   3.188
  3.197   3.208   3.210   3.215   3.224   3.229   3.231   3.234
  3.237   3.241   3.242   3.246   3.260   3.272   3.277   3.280
  3.285   3.289   3.312   3.318   3.319   3.325   3.332   3.334
  3.339   3.342   3.348   3.353   3.365   3.375   3.377   3.381
  3.400   3.411   3.418   3.422   3.425   3.427   3.437   3.454
  3.458   3.467   3.471   3.471   3.476   3.485   3.495   3.495
  3.503   3.510   3.515   3.518   3.521   3.538   3.548   3.557
  3.559   3.562   3.580   3.585   3.587   3.595   3.619   3.621
  3.627   3.654   3.692   3.714   3.807   3.856   3.960   4.053
  4.066   4.077   4.078   4.083   4.092   4.094   4.095   4.098
  4.099   4.101   4.104   4.105   4.112   4.112   4.114   4.117
  4.123   4.124   4.127   4.132   4.135   4.148   4.149   4.154
  4.155   4.158   4.161   4.162   4.164   4.166   4.172   4.174
  4.185   4.188   4.195   4.205   4.219   4.227   4.231   4.241
  4.245   4.247   4.250   4.251   4.257   4.260   4.262   4.263
  4.270   4.271   4.276   4.280   4.282   4.285   4.289   4.292
  4.302   4.310   4.319   4.328   4.366   4.388   4.394   4.396
  4.399   4.401   4.404   4.407   4.410   4.413   4.418   4.422
  4.425   4.426   4.431   4.432   4.434   4.437   4.453   4.456
  4.469   4.483   4.485   4.522   4.531   4.534   4.548   4.552
  4.560   4.566   4.580   4.626   4.632   4.634   4.644   4.652
  4.654   4.657   4.664   4.688   4.698   4.702   4.703   4.705
  4.706   4.709   4.712   4.718   4.742   4.762   4.771   4.810
  4.822   4.855   4.862   4.874   4.881   4.885   4.886   4.895
  4.906   4.918   4.944   4.966   4.970   4.982   4.986   4.998
  5.001   5.010   5.017   5.023   5.169   5.181   5.183   5.185
  5.205   5.215   5.219   5.229   5.312   5.341   5.348   5.349
  5.370   5.394
 --------------------------------------------------------------
 
          Ground-State Mulliken Net Atomic Charges

     Atom                 Charge (a.u.)
  ----------------------------------------
      1 O                    -0.502354
      2 C                    -0.076581
      3 H                     0.118741
      4 H                     0.121516
      5 H                     0.114984
      6 O                    -0.428063
      7 C                     0.569919
      8 C                    -0.241965
      9 H                     0.143354
     10 H                     0.132206
     11 C                    -0.199143
     12 H                     0.120743
     13 H                     0.133010
     14 C                    -0.194906
     15 H                     0.123253
     16 H                     0.112817
     17 C                     0.009665
     18 C                     0.116456
     19 C                    -0.126935
     20 H                     0.091608
     21 C                    -0.085274
     22 H                     0.103735
     23 C                    -0.100132
     24 H                     0.087108
     25 C                    -0.072557
     26 H                     0.101741
     27 C                    -0.126514
     28 H                     0.088971
     29 C                    -0.003917
     30 C                    -0.002869
     31 C                    -0.023833
     32 C                     0.001307
     33 C                     0.014190
     34 C                    -0.017888
     35 C                     0.018746
     36 C                     0.028886
     37 C                    -0.021837
     38 C                    -0.006010
     39 C                    -0.073947
     40 C                    -0.001804
     41 C                     0.004056
     42 C                    -0.004979
     43 C                     0.025026
     44 C                    -0.004672
     45 C                    -0.052836
     46 C                     0.003737
     47 C                     0.010712
     48 C                     0.020072
     49 C                    -0.005978
     50 C                    -0.029257
     51 C                     0.005181
     52 C                     0.026879
     53 C                     0.001825
     54 C                    -0.014584
     55 C                    -0.003895
     56 C                     0.000977
     57 C                     0.005180
     58 C                    -0.006488
     59 C                    -0.016500
     60 C                     0.026325
     61 C                     0.012121
     62 C                    -0.016080
     63 C                     0.020360
     64 C                    -0.023528
     65 C                    -0.004010
     66 C                    -0.000873
     67 C                    -0.033210
     68 C                    -0.030576
     69 C                     0.004393
     70 C                     0.013136
     71 C                    -0.004778
     72 C                     0.025142
     73 C                    -0.006694
     74 C                    -0.018035
     75 C                     0.010348
     76 C                    -0.006481
     77 C                     0.020366
     78 C                    -0.005198
     79 C                    -0.027818
     80 C                     0.003758
     81 C                     0.005747
     82 C                    -0.028505
     83 C                     0.016476
     84 C                    -0.027035
     85 C                     0.023007
     86 C                     0.013135
     87 C                     0.003670
     88 C                     0.020421
     89 O                    -0.450059
     90 C                    -0.095340
     91 H                     0.124331
     92 H                     0.124655
     93 H                     0.129716
     94 O                    -0.469908
     95 C                     0.606573
     96 C                    -0.248516
     97 H                     0.131949
     98 H                     0.119808
     99 C                    -0.200527
    100 H                     0.105894
    101 H                     0.120383
    102 C                    -0.161544
    103 H                     0.115866
    104 H                     0.108701
    105 C                     0.001849
    106 C                     0.116860
    107 C                    -0.095008
    108 H                     0.098668
    109 C                    -0.103415
    110 H                     0.097959
    111 C                    -0.087735
    112 H                     0.095709
    113 C                    -0.093165
    114 H                     0.094158
    115 C                    -0.104659
    116 H                     0.097440
    117 C                     0.007153
    118 C                    -0.031746
    119 C                     0.013327
    120 C                    -0.032788
    121 C                    -0.011613
    122 C                    -0.008359
    123 C                    -0.002484
    124 C                     0.005902
    125 C                     0.031143
    126 C                    -0.001608
    127 C                    -0.114486
    128 C                    -0.040803
    129 C                     0.000605
    130 C                     0.021753
    131 C                    -0.006268
    132 C                    -0.018946
    133 C                    -0.098307
    134 C                     0.043414
    135 C                     0.012632
    136 C                     0.015093
    137 C                     0.006523
    138 C                    -0.006755
    139 C                     0.016162
    140 C                     0.026184
    141 C                     0.076029
    142 C                    -0.019975
    143 C                     0.006119
    144 C                     0.026298
    145 C                    -0.004923
    146 C                     0.012229
    147 C                     0.002543
    148 C                     0.030724
    149 C                    -0.022304
    150 C                     0.006002
    151 C                    -0.002270
    152 C                     0.005368
    153 C                     0.011759
    154 C                     0.002973
    155 C                    -0.012843
    156 C                    -0.028304
    157 C                     0.032205
    158 C                     0.019436
    159 C                     0.001127
    160 C                     0.010217
    161 C                    -0.013166
    162 C                     0.007863
    163 C                     0.001081
    164 C                    -0.016260
    165 C                     0.004296
    166 C                    -0.017601
    167 C                     0.002883
    168 C                    -0.005016
    169 C                    -0.029311
    170 C                    -0.015200
    171 C                    -0.001457
    172 C                    -0.016223
    173 C                    -0.035015
    174 C                    -0.016151
    175 C                     0.008841
    176 C                    -0.014817
  ----------------------------------------
  Sum of atomic charges =     0.000000

 -----------------------------------------------------------------
                    Cartesian Multipole Moments
 -----------------------------------------------------------------
    Charge (ESU x 10^10)
                 0.0000
    Dipole Moment (Debye)
         X       2.3247      Y      -0.0154      Z      -3.7402
       Tot       4.4038
    Quadrupole Moments (Debye-Ang)
        XX    -761.3666     XY     -16.8039     YY    -814.6359
        XZ     -18.7785     YZ      -5.4672     ZZ    -806.0358
    Octopole Moments (Debye-Ang^2)
       XXX     714.3342    XXY    -103.9441    XYY     254.1885
       YYY     -78.2804    XXZ    -304.5851    XYZ      76.7445
       YYZ     -77.5936    XZZ     -34.1670    YZZ      80.1720
       ZZZ    -113.4476
    Hexadecapole Moments (Debye-Ang^3)
      XXXX -169147.1312   XXXY   -3760.7092   XXYY  -38770.8352
      XYYY    -170.5206   YYYY  -44561.1403   XXXZ   -1399.0607
      XXYZ    -475.6634   XYYZ     725.5125   YYYZ    -778.0582
      XXZZ  -34138.9377   XYZZ    -760.7621   YYZZ  -10628.5392
      XZZZ    -815.3766   YZZZ     129.8996   ZZZZ  -21382.3566
 -----------------------------------------------------------------
Archival summary:
1\1\mn251\SP\ProcedureUnspecified\6-31G**\428\afmv_a\SatOct1323:07:222018SatOct1323:07:222018\0\\#,ProcedureUnspecified,6-31G**,\\0,1\C\C,1,1.381\C,1,1.38983,2,118.915\C,3,1.38236,1,118.147,2,-136.806,0\C,3,1.40955,1,123.745,2,0.995717,0\C,5,1.36899,3,109.288,1,-138.172,0\C,2,1.41262,1,109.72,3,143.114,0\C,7,1.40111,2,106.251,1,-2.2777,0\C,8,1.35214,7,109.036,2,2.30053,0\C,9,1.39655,8,119.641,7,-144.844,0\C,10,1.37515,9,123.457,8,-2.90265,0\C,10,1.41241,9,117.814,8,137.702,0\C,12,1.39083,10,108.675,9,-143.103,0\C,13,1.35967,12,106.943,10,0.322486,0\C,14,1.38705,13,119.291,12,141.74,0\C,15,1.35649,14,121.415,13,3.96059,0\C,15,1.40198,14,119.413,13,-141.486,0\C,17,1.37949,15,120.795,14,5.39395,0\C,18,1.36746,17,119.832,15,132.471,0\C,17,1.38492,15,106.296,14,145.154,0\C,19,1.38959,18,120.755,17,4.24077,0\C,21,1.37147,19,121.234,18,-1.96272,0\C,21,1.39912,19,119.415,18,-138.036,0\C,19,1.40549,18,110.363,17,-145.099,0\C,24,1.37635,19,118.46,18,138.565,0\C,25,1.37608,24,122.827,19,-138.785,0\C,23,1.40771,21,120.186,19,-4.12884,0\C,27,1.36976,23,122.994,21,142.636,0\C,28,1.39945,27,108.794,23,-140.475,0\C,29,1.38963,28,122.82,27,141.548,0\C,30,1.36039,29,118.784,28,-6.34288,0\C,31,1.39058,30,110.757,29,-140.185,0\C,32,1.38978,31,107.385,30,0.758503,0\C,33,1.39645,32,107.651,31,-2.21151,0\C,16,1.40871,15,108.314,14,-145.035,0\C,35,1.40277,16,121.358,15,139.88,0\C,31,1.40925,30,118.701,29,3.75553,0\C,37,1.3811,31,118.159,30,-141.526,0\C,37,1.40667,31,124.366,30,1.18072,0\C,39,1.40244,37,107.455,31,-147.735,0\C,40,1.38971,39,108.492,37,3.57663,0\C,38,1.40786,37,126.05,31,-5.31642,0\C,18,1.41379,17,122.019,15,-9.27086,0\C,43,1.40634,18,107.073,17,141.46,0\C,13,1.41472,12,123.976,10,144.334,0\C,45,1.36947,13,123.675,12,-134.593,0\C,36,1.41725,35,119.428,16,-132.116,0\C,47,1.40701,36,120.972,35,-9.35348,0\C,48,1.36509,47,114.534,36,144.126,0\C,45,1.41988,13,117.264,12,-6.17734,0\C,50,1.36673,45,113.16,13,-143.179,0\C,50,1.36969,45,119.019,13,10.4628,0\C,51,1.40238,50,107.364,45,1.52563,0\C,51,1.40764,50,120.867,45,149.646,0\C,36,1.4217,35,121.223,16,7.9453,0\C,54,1.42366,51,118.466,50,-0.527731,0\C,56,1.37484,54,110.074,51,-138.54,0\C,47,1.43456,36,107.68,35,149.868,0\C,54,1.47779,51,120.998,50,-145.493,0\C,59,1.50157,54,117.241,51,5.20847,0\C,59,1.50805,54,130.709,51,-70.9415,0\C,61,1.50124,59,118.46,54,-150.326,0\C,62,1.41395,61,119.012,59,49.7926,0\H,63,1.08643,62,118.193,61,-7.12863,0\C,62,1.41754,61,124.798,59,-138.158,0\H,65,1.08534,62,119.268,61,12.261,0\C,65,1.38925,62,124.482,61,-174.711,0\H,67,1.08531,65,121.833,62,-165.247,0\C,67,1.41556,65,117.02,62,4.58518,0\H,69,1.08566,67,118.929,65,-175.469,0\C,63,1.42713,62,124.191,61,170.875,0\H,71,1.08602,63,125.401,62,170.219,0\C,61,1.57557,59,115.618,54,-5.8745,0\H,73,1.09665,61,111.185,59,-109.412,0\H,73,1.09733,61,112.693,59,8.40218,0\C,73,1.5602,61,113.479,59,128.836,0\H,76,1.0966,73,116.607,61,-37.4881,0\H,76,1.09749,73,105.729,61,74.6997,0\C,76,1.58446,73,111.012,61,-161.177,0\H,79,1.0965,76,109.523,73,-64.3982,0\H,79,1.0975,76,117.667,73,64.0703,0\C,79,1.56008,76,106.358,73,-175.963,0\O,82,1.2048,79,123.761,76,-113.546,0\O,82,1.45589,79,114.415,76,63.9614,0\C,84,1.43373,82,121.405,79,169.552,0\H,85,1.09646,84,110.008,82,63.5243,0\H,85,1.09671,84,113.331,82,-54.6948,0\H,85,1.09727,84,120.148,82,-175.16,0\C,1,3.37094,2,92.4886,3,121.853,0\C,89,1.35777,1,81.9304,2,-179.909,0\C,89,1.37161,1,79.3742,2,-57.5037,0\C,90,1.38228,89,120.844,1,77.4384,0\C,92,1.39209,90,121.744,89,-3.0929,0\C,93,1.33358,92,108.806,90,145.278,0\C,94,1.38776,93,110.438,92,-1.36966,0\C,95,1.35765,94,105.871,93,1.25904,0\C,93,1.40178,92,118.014,90,-0.200057,0\C,91,1.40538,89,119.996,1,148.716,0\C,98,1.40931,91,109.351,89,142.307,0\C,99,1.40724,98,109.459,91,-0.8509,0\C,100,1.40725,99,119.456,98,-139.897,0\C,101,1.36702,100,119.32,99,135.87,0\C,102,1.39481,101,108.802,100,-142.853,0\C,103,1.3732,102,104.966,101,0.463499,0\C,104,1.35033,103,112.146,102,-0.922955,0\C,105,1.38233,104,119.693,103,140.009,0\C,106,1.36585,105,121.079,104,-134.723,0\C,107,1.39526,106,108.5,105,141.722,0\C,108,1.36519,107,123.128,106,-144.217,0\C,109,1.36877,108,122.677,107,143.557,0\C,109,1.38984,108,119.356,107,-2.00561,0\C,110,1.39115,109,117.294,108,0.0686339,0\C,112,1.36883,110,120.954,109,1.57103,0\C,113,1.37015,112,107.911,110,-144.409,0\C,108,1.3963,107,108.842,106,5.90452,0\C,115,1.37651,108,105.59,107,-8.22987,0\C,116,1.3903,115,121.895,108,-138.404,0\C,117,1.36689,116,120.459,115,141.214,0\C,118,1.37523,117,105.423,116,-143.282,0\C,119,1.38211,118,119.094,117,145.997,0\C,119,1.38848,118,109.589,117,1.09928,0\C,117,1.38932,116,117.25,115,-1.14653,0\C,120,1.39286,119,119.051,118,-141.17,0\C,123,1.39474,120,107.133,119,137.044,0\C,124,1.38813,123,123.551,120,-142.262,0\C,125,1.36604,124,120.909,123,4.52576,0\C,126,1.36292,125,110.015,124,143.7,0\C,125,1.39495,124,120.181,123,144.724,0\C,126,1.40302,125,119.329,124,-0.0554572,0\C,129,1.39677,126,122.254,125,138.136,0\C,130,1.36641,129,108.036,126,-145.07,0\C,131,1.39541,130,118.885,129,143.57,0\C,124,1.40429,123,106.851,120,6.83952,0\C,133,1.38631,124,110.424,123,-5.14114,0\C,127,1.40608,126,119.411,125,-138.082,0\C,135,1.37902,127,123.059,126,134.297,0\C,136,1.37618,135,119.792,127,-2.72065,0\C,137,1.4007,136,120.784,135,-142.235,0\C,138,1.39215,137,120.903,136,0.157027,0\C,137,1.40124,136,119.396,135,2.332,0\C,131,1.40657,130,108.563,129,0.457201,0\C,141,1.39461,131,108.448,130,-1.828,0\C,132,1.41102,131,120.362,130,-1.15774,0\C,140,1.4156,137,121.508,136,1.34625,0\C,130,1.42792,129,119.603,126,0.720839,0\C,145,1.40611,130,120.458,129,-141.4,0\C,139,1.48792,138,124.207,137,-8.67646,0\C,147,1.49157,139,113.625,138,7.09624,0\C,148,1.51018,147,61.8043,139,-123.044,0\C,149,1.47984,148,125.577,147,-96.3612,0\C,150,1.34939,149,122.402,148,-63.6287,0\H,151,1.08577,150,118.925,149,4.54183,0\C,150,1.4089,149,112.889,148,126.973,0\H,153,1.08621,150,118.797,149,-6.73386,0\C,153,1.41249,150,118.727,149,-178.328,0\H,155,1.08648,153,117.156,150,170.133,0\C,151,1.41791,150,117.963,149,179.995,0\H,157,1.08588,151,115.422,150,-173.318,0\C,157,1.39164,151,120.983,150,3.62577,0\H,159,1.08549,157,119.067,151,-170.608,0\C,149,1.52349,148,115.347,147,103.725,0\H,161,1.09684,149,109.614,148,-142.535,0\H,161,1.09712,149,110.544,148,-26.6726,0\C,161,1.4884,149,109.053,148,94.8882,0\H,164,1.09709,161,113.382,149,56.1913,0\H,164,1.09738,161,110.954,149,-57.9917,0\C,164,1.50249,161,114.015,149,172.344,0\H,167,1.09616,164,108.868,161,-177.297,0\H,167,1.09704,164,108.559,161,62.5613,0\C,167,1.51142,164,114.942,161,-62.9357,0\O,170,1.21916,167,120.932,164,-101.207,0\O,170,1.36134,167,112.34,164,84.1153,0\C,172,1.41841,170,116.565,167,177.424,0\H,173,1.09683,172,109.704,170,-68.9985,0\H,173,1.09688,172,110.002,170,51.1413,0\H,173,1.09697,172,120.876,170,175.802,0\\\@

 Total job time:  857.54s(wall), 8180.35s(cpu) 
 Sat Oct 13 23:07:22 2018

        *************************************************************
        *                                                           *
        *  Thank you very much for using Q-Chem.  Have a nice day.  *
        *                                                           *
        *************************************************************


