
Running Job 1 of 1 ./10/6.qcin
qchem ./10/6.qcin_42628.0 /tmpu/cab_g/afmv_a/scratch_qchem/qchem42628/ 1
/tmpu/appuserlic/qchem4.4/serial-multicore/exe/qcprog.exe_s ./10/6.qcin_42628.0 /tmpu/cab_g/afmv_a/scratch_qchem/qchem42628/
Check license passed

                  Welcome to Q-Chem
     A Quantum Leap Into The Future Of Chemistry


 Q-Chem 4.4, Q-Chem, Inc., Pleasanton, CA (2016)

 Y. Shao,  Z. Gan,  E. Epifanovsky,  A. T. B. Gilbert,  M. Wormit,  
 J. Kussmann,  A. W. Lange,  A. Behn,  J. Deng,  X. Feng,  D. Ghosh,  
 M. Goldey,  P. R. Horn,  L. D. Jacobson,  I. Kaliman,  F. Rob,  
 R. Z. Khaliullin,  T. Kus,  A. Landau,  J. Liu,  E. I. Proynov,  Y. M. Rhee,  
 R. M. Richard,  M. A. Rohrdanz,  R. P. Steele,  E. J. Sundstrom,  
 H. L. Woodcock III,  P. M. Zimmerman,  D. Zuev,  B. Albrecht,  E. Alguire,  
 B. Austin,  S. A. Baeppler,  G. J. O. Beran,  Y. A. Bernard,  E. Berquist,  
 K. Brandhorst,  K. B. Bravaya,  S. T. Brown,  D. Casanova,  C.-M. Chang,  
 Y. Chen,  S. H. Chien,  K. D. Closser,  M. P. Coons,  D. L. Crittenden,  
 S. Dasgupta,  M. Diedenhofen,  R. A. DiStasio Jr.,  H. Do,  A. D. Dutoi,  
 R. G. Edgar,  P.-T. Fang,  S. Fatehi,  Q. Feng,  L. Fusti-Molnar,  
 A. Ghysels,  A. Golubeva-Zadorozhnaya,  J. Gomes,  A. Gunina,  
 M. W. D. Hanson-Heine,  P. H. P. Harbach,  A. W. Hauser,  J. E. Herr,  
 E. G. Hohenstein,  Z. C. Holden,  K. Hui,  T.-C. Jagau,  H. Ji,  B. Kaduk,  
 K. Khistyaev,  Jaehoon Kim,  Jihan Kim,  R. A. King,  P. Klunzinger,  
 K. Koh,  D. Kosenkov,  T. Kowalczyk,  C. M. Krauter,  A. Kunitsa,  
 K. U. Lao,  A. Laurent,  K. V. Lawler,  J. Lee,  D. Lefrancois,  S. Lehtola,  
 S. V. Levchenko,  C. Y. Lin,  Y.-S. Lin,  F. Liu,  E. Livshits,  
 R. C. Lochan,  A. Luenser,  P. Manohar,  S. F. Manzer,  S.-P. Mao,  Y. Mao,  
 N. Mardirossian,  A. V. Marenich,  L. A. Martinez-Martinez,  S. A. Maurer,  
 N. J. Mayhall,  J.-M. Mewes,  A. F. Morrison,  K. Nanda,  T. S. Nguyen-Beck,  
 C. M. Oana,  R. Olivares-Amaya,  D. P. O'Neill,  J. A. Parkhill,  
 T. M. Perrine,  R. Peverati,  P. A. Pieniazek,  F. Plasser,  A. Prociuk,  
 D. R. Rehn,  E. Rosta,  N. J. Russ,  N. Sergueev,  S. M. Sharada,  
 S. Sharma,  D. W. Small,  A. Sodt,  T. Stauch,  T. Stein,  D. Stuck,  
 Y.-C. Su,  A. J. W. Thom,  T. Tsuchimochi,  L. Vogt,  O. Vydrov,  T. Wang,  
 M. A. Watson,  J. Wenzel,  A. White,  C. F. Williams,  V. Vanovschi,  
 K. Yao,  S. Yeganeh,  S. R. Yost,  Z.-Q. You,  I. Y. Zhang,  X. Zhang,  
 Y. Zhao,  B. R. Brooks,  G. K. L. Chan,  D. M. Chipman,  C. J. Cramer,  
 W. A. Goddard III,  M. S. Gordon,  W. J. Hehre,  A. Klamt,  
 H. F. Schaefer III,  M. W. Schmidt,  C. D. Sherrill,  D. G. Truhlar,  
 A. Warshel,  X. Xu,  A. Aspuru-Guzik,  R. Baer,  A. T. Bell,  N. A. Besley,  
 J.-D. Chai,  A. Dreuw,  B. D. Dunietz,  T. R. Furlani,  S. R. Gwaltney,  
 C.-P. Hsu,  Y. Jung,  J. Kong,  D. S. Lambrecht,  W. Liang,  C. Ochsenfeld,  
 V. A. Rassolov,  L. V. Slipchenko,  J. E. Subotnik,  T. Van Voorhis,  
 J. M. Herbert,  A. I. Krylov,  P. M. W. Gill,  M. Head-Gordon

 Contributors to earlier versions of Q-Chem not listed above: 
 R. D. Adamson,  J. Baker,  E. F. C. Byrd,  A. K. Chakraborty,  C.-L. Cheng,  
 H. Dachsel,  R. J. Doerksen,  G. Hawkins,  A. Heyden,  S. Hirata,  
 G. Kedziora,  F. J. Keil,  C. Kelley,  P. P. Korambath,  W. Kurlancheek,  
 A. M. Lee,  M. S. Lee,  D. Liotard,  I. Lotan,  P. E. Maslen,  N. Nair,  
 D. Neuhauser,  R. Olson,  B. Peters,  J. Ritchie,  N. E. Schultz,  
 N. Shenvi,  A. C. Simmonett,  K. S. Thanthiriwatte,  Q. Wu,  W. Zhang

 Please cite Q-Chem as follows:
 Y. Shao et al., Mol. Phys. 113, 184-215 (2015)
 DOI: 10.1080/00268976.2014.952696

 Q-Chem 4.4.2 for Intel X86 Linux

 Parts of Q-Chem use Armadillo 5.200.1 (Boston Tea Smuggler).
 http://arma.sourceforge.net/

 Q-Chem begins on Sun Oct 14 00:21:45 2018  

Host: 
0

     Scratch files written to /tmpu/cab_g/afmv_a/scratch_qchem/qchem42628//
 Dec716 11556_ 22328  22283 4050   
Processing $rem in /tmpu/appuserlic/qchem4.4/serial-multicore/config/preferences.
 MEM_TOTAL  2000 
FILE_GEOM_ORG=        593

Checking the input file for inconsistencies... 	...done.

--------------------------------------------------------------
User input:
--------------------------------------------------------------
$comment
SP
$end

$rem
MEM_STATIC 5000
MEM_TOTAL 20000
JOBTYPE SP
EXCHANGE B3LYP
BASIS 6-31g(d,p)
$end

$molecule
0 1
O          15.944000     16.977000      0.331000
C          17.199000     17.527000      0.317000
H          17.190000     18.497000     -0.195000
H          17.903000     16.907000     -0.252000
H          17.542000     17.659000      1.351000
O          15.791000     16.556000     -1.901000
C          15.301000     16.451000     -0.787000
C          13.998000     15.704000     -0.507000
H          13.169000     16.350000     -0.824000
H          13.915000     15.669000      0.586000
C          13.729000     14.407000     -1.220000
H          12.666000     14.328000     -1.480000
H          14.236000     14.505000     -2.188000
C          14.091000     13.146000     -0.408000
H          14.380000     13.348000      0.631000
H          13.138000     12.649000     -0.191000
C          15.194000     12.256000     -1.051000
C          16.569000     12.746000     -0.835000
C          17.101000     13.658000     -1.740000
H          16.448000     13.945000     -2.559000
C          18.453000     14.114000     -1.542000
H          18.921000     14.833000     -2.208000
C          19.256000     13.741000     -0.443000
H          20.295000     14.039000     -0.338000
C          18.640000     12.952000      0.527000
H          19.155000     12.481000      1.359000
C          17.312000     12.433000      0.310000
H          16.939000     11.594000      0.891000
C          16.811000      9.427000     -5.454000
C          17.702000      8.146000     -3.696000
C          14.783000      4.664000     -4.168000
C          11.789000     10.286000     -4.958000
C          12.648000      5.853000     -1.585000
C          17.450000      9.405000     -4.181000
C          10.772000      8.019000     -3.643000
C          15.927000      5.958000     -5.819000
C          15.398000      8.576000     -0.361000
C          11.581000     10.267000     -3.557000
C          14.963000     10.762000     -1.035000
C          13.980000      8.755000     -0.246000
C          11.630000      9.083000     -1.664000
C          10.985000      6.735000     -3.101000
C          17.014000      9.516000     -1.993000
C          12.512000      4.999000     -3.876000
C          14.932000     11.573000     -2.320000
C          13.632000     11.569000     -3.168000
C          13.113000      4.957000     -2.602000
C          13.082000      7.606000     -6.863000
C          13.496000      5.552000     -6.081000
C          14.765000      6.047000     -6.586000
C          16.848000      7.043000     -5.699000
C          13.940000     11.387000     -4.551000
C          15.994000      9.678000     -0.942000
C          17.385000      7.000000     -4.428000
C          11.042000      9.169000     -2.948000
C          17.467000      8.185000     -2.294000
C          13.031000      7.685000     -0.348000
C          13.476000     10.001000     -6.463000
C          15.953000      5.248000     -4.618000
C          13.671000     10.044000     -0.703000
C          15.352000      8.460000     -6.957000
C          11.833000      7.850000     -1.067000
C          15.855000      7.338000     -0.638000
C          11.500000      6.669000     -5.310000
C          10.988000      7.997000     -5.046000
C          14.983000      6.246000     -0.843000
C          12.964000     10.845000     -5.463000
C          12.497000     10.888000     -2.736000
C          12.594000      8.910000     -6.584000
C          15.923000     11.185000     -3.391000
C          16.600000      5.920000     -2.376000
C          12.524000     10.145000     -1.510000
C          13.558000      6.459000     -0.744000
C          14.879000      9.739000     -6.645000
C          14.508000      4.786000     -2.815000
C          16.515000      8.298000     -6.249000
C          13.534000      4.820000     -4.834000
C          16.851000      7.104000     -1.673000
C          15.452000      5.384000     -1.870000
C          17.029000     10.263000     -3.157000
C          15.345000     11.226000     -4.697000
C          12.510000      6.508000     -6.255000
C          16.869000      5.848000     -3.795000
C          11.550000      6.700000     -1.775000
C          11.509000      9.110000     -5.704000
C          11.463000      5.873000     -4.079000
C          15.771000     10.344000     -5.709000
C          14.464000      7.355000     -7.041000
O          16.897000      1.273000     -7.361000
C          16.207000      2.504000     -7.061000
H          16.441000      3.351000     -7.717000
H          16.507000      2.834000     -6.059000
H          15.118000      2.386000     -7.004000
O          17.112000      1.434000     -9.707000
C          17.097000      0.804000     -8.688000
C          17.443000     -0.690000     -8.740000
H          17.272000     -1.046000     -9.764000
H          16.734000     -1.242000     -8.112000
C          18.813000     -1.023000     -8.227000
H          18.990000     -0.614000     -7.224000
H          18.945000     -2.107000     -8.115000
C          19.938000     -0.507000     -9.214000
H          20.052000     -1.280000     -9.983000
H          19.601000      0.464000     -9.598000
C          21.304000     -0.255000     -8.530000
C          22.014000     -1.514000     -8.270000
C          21.724000     -2.424000     -7.254000
H          20.882000     -2.200000     -6.606000
C          22.483000     -3.560000     -6.976000
H          22.149000     -4.147000     -6.125000
C          23.651000     -3.917000     -7.656000
H          24.212000     -4.841000     -7.553000
C          24.040000     -3.011000     -8.605000
H          24.920000     -3.253000     -9.193000
C          23.209000     -1.924000     -8.922000
H          23.473000     -1.216000     -9.702000
C          23.604000      2.516000     -4.281000
C          25.381000      2.555000     -5.944000
C          25.258000      6.966000     -6.955000
C          19.590000      4.472000     -6.396000
C          23.423000      6.369000     -9.868000
C          24.296000      1.861000     -5.318000
C          20.215000      6.413000     -8.306000
C          25.032000      5.808000     -4.855000
C          23.959000      2.444000     -9.604000
C          19.493000      4.121000     -7.720000
C          22.089000      1.076000     -8.796000
C          22.797000      2.970000    -10.189000
C          20.525000      4.431000     -9.624000
C          21.296000      7.022000     -8.891000
C          24.261000      1.349000     -7.499000
C          23.390000      7.802000     -7.898000
C          21.407000      0.883000     -7.469000
C          20.295000      1.890000     -7.141000
C          24.090000      7.137000     -8.896000
C          21.644000      6.503000     -4.522000
C          23.392000      7.556000     -5.509000
C          23.797000      6.566000     -4.628000
C          25.088000      4.440000     -4.470000
C          20.468000      2.324000     -5.834000
C          23.598000      1.375000     -8.744000
C          25.818000      3.796000     -5.492000
C          19.794000      5.092000     -8.643000
C          25.403000      2.128000     -7.305000
C          22.758000      4.329000    -10.519000
C          20.572000      4.272000     -4.402000
C          25.753000      6.040000     -6.038000
C          21.685000      2.275000     -9.711000
C          22.766000      4.552000     -3.618000
C          21.631000      5.052000    -10.231000
C          25.119000      3.263000     -9.389000
C          21.229000      7.592000     -6.715000
C          20.181000      6.748000     -6.950000
C          25.092000      4.605000     -9.713000
C          20.005000      3.598000     -5.440000
C          19.932000      2.897000     -8.116000
C          20.507000      5.647000     -4.764000
C          22.255000      0.940000     -6.181000
C          26.225000      4.432000     -7.807000
C          20.569000      3.063000     -9.381000
C          23.906000      5.137000    -10.259000
C          21.711000      3.718000     -3.777000
C          25.233000      6.588000     -8.330000
C          23.951000      3.799000     -3.878000
C          24.111000      7.711000     -6.668000
C          25.840000      3.098000     -8.245000
C          25.786000      5.387000     -8.744000
C          23.629000      1.135000     -6.242000
C          21.558000      1.754000     -5.280000
C          21.984000      7.498000     -5.487000
C          26.279000      4.773000     -6.430000
C          22.008000      6.361000     -9.911000
C          19.888000      5.752000     -5.991000
C          21.942000      7.780000     -7.896000
C          22.213000      2.457000     -4.241000
C          22.757000      5.919000     -3.990000
$end

--------------------------------------------------------------
 ----------------------------------------------------------------
             Standard Nuclear Orientation (Angstroms)
    I     Atom           X                Y                Z
 ----------------------------------------------------------------
    1      O      10.8233673753     5.5588861817    -0.2834734667
    2      C      10.3977048976     6.8611507855    -0.2581879584
    3      H      10.8363971927     7.3944986106     0.5939940454
    4      H       9.3123390946     6.9262506031    -0.1114906937
    5      H      10.6957369726     7.3519086426    -1.1933684800
    6      O       9.7224587155     4.8615391617     1.5831227019
    7      C      10.4170341656     4.5787544510     0.6189034573
    8      C      10.8513442778     3.1530309888     0.2828895650
    9      H      11.6679984750     2.8840421969     0.9653607747
   10      H      11.3292228769     3.2218318914    -0.7018243429
   11      C       9.8661180050     2.0284265850     0.4488206538
   12      H      10.3715672170     1.1312953199     0.8276168884
   13      H       9.2162708785     2.3403509466     1.2759112805
   14      C       9.1369368286     1.6228428585    -0.8489873646
   15      H       9.5172277811     2.1173258018    -1.7516010196
   16      H       9.4923414642     0.6129639889    -1.0859245161
   17      C       7.5925439993     1.8112821394    -0.8102649390
   18      C       7.1465648607     3.1996141839    -1.0361360133
   19      C       7.0469719462     4.0534325487     0.0569643716
   20      H       7.3091057514     3.6211672671     1.0181987834
   21      C       6.5854224054     5.4002201255    -0.1625333376
   22      H       6.4960393814     6.1170957103     0.6484173828
   23      C       6.2875132213     5.9320665039    -1.4353760411
   24      H       5.8786518058     6.9273032841    -1.5826380331
   25      C       6.5479424090     5.1010245306    -2.5236879801
   26      H       6.2553818985     5.3137200786    -3.5476308260
   27      C       6.9448825768     3.7300805149    -2.3163597156
   28      H       6.8603215104     2.9978891558    -3.1147056555
   29      C       2.8951681174     0.6369951369     1.7509942943
   30      C       2.2107099733     0.7556167549    -0.4946352301
   31      C       1.5321174442    -3.7352709328    -0.9836229144
   32      C       6.8091934725    -2.5801264432     2.4823733060
   33      C       4.7174798410    -4.2481872295    -2.4783530820
   34      C       3.0041685874     1.2899464058     0.4896031821
   35      C       6.4816770478    -4.6014550177     0.5562978181
   36      C       0.9966572235    -2.2788326592     0.8332543262
   37      C       5.3072945622    -0.2593005199    -2.9434406142
   38      C       7.5024310215    -2.5530906877     1.2474171251
   39      C       6.7524697669     0.6941122616    -1.3863376325
   40      C       6.3599998417    -1.2113342128    -2.7398885518
   41      C       7.4643184270    -2.9962347111    -0.9411615928
   42      C       5.7194466863    -5.1732670144    -0.4828484259
   43      C       4.2496556227     1.3362258294    -1.3641447133
   44      C       3.2944474356    -5.2142817902    -0.7353289648
   45      C       6.7817568898     1.0012477879     0.1018549064
   46      C       7.2435063100    -0.1121998156     1.0796799967
   47      C       3.4143531572    -4.6027933554    -1.9993485501
   48      C       3.4398802674    -3.5550060241     2.9073583980
   49      C       2.1397888715    -4.4258543177     1.3094780483
   50      C       1.4670969545    -3.2169055156     1.7525800441
   51      C       1.1898318998    -0.8745629108     1.0081143220
   52      C       6.3617943298    -0.1873502307     2.2011136324
   53      C       5.4268806483     0.8089889168    -2.0764701145
   54      C       1.3478614924    -0.3129312662    -0.2429874099
   55      C       7.3613628081    -3.5714401842     0.3473782026
   56      C       2.9597183607     0.7988251860    -1.7027202714
   57      C       6.2016823289    -2.6249449647    -2.9202914541
   58      C       4.9467039696    -1.6859846247     3.4435508442
   59      C       1.0029766773    -2.5378613717    -0.5378916145
   60      C       7.2205102962    -0.6975776636    -1.7593647296
   61      C       2.5483138393    -1.2981151430     2.9583961803
   62      C       6.7647775075    -3.5357128251    -2.0077040752
   63      C       4.0864142795    -0.7315470150    -3.2669473116
   64      C       4.4457815990    -5.1338565978     1.3947793499
   65      C       5.7554162272    -4.6485592138     1.7752627131
   66      C       3.8230225607    -2.1148631914    -3.3761908860
   67      C       6.2377378587    -1.4024475596     2.9667718285
   68      C       7.6790151093    -1.3467037836     0.6053994482
   69      C       4.7247507078    -3.0644448818     3.2607119280
   70      C       5.4645214207     1.3608579474     0.7462439598
   71      C       1.9655990272    -1.3039353160    -2.3946473066
   72      C       7.6730919123    -1.6222787471    -0.8016816991
   73      C       4.8960845453    -3.0530248292    -3.1434126257
   74      C       3.8207820984    -0.8072451711     3.2694993786
   75      C       2.3410616419    -3.6770717779    -2.1076069638
   76      C       2.0045741262    -0.4136936166     2.0627273308
   77      C       2.1429149239    -4.6831337535    -0.1139243964
   78      C       2.8830086820    -0.2658131591    -2.5939659275
   79      C       2.5358399646    -2.4463629639    -2.8751890247
   80      C       4.2574495801     1.6550990987    -0.0182661555
   81      C       5.3164188539     0.7617621821     2.0348676030
   82      C       3.3190364852    -4.5986602251     2.0136947650
   83      C       1.1664516237    -1.3444513052    -1.1901441385
   84      C       5.8878781688    -4.5774745160    -1.7849191362
   85      C       5.8975531110    -3.6413770696     2.7284443509
   86      C       4.4467740377    -5.4909915456    -0.0274722608
   87      C       4.0490217392     0.3869618842     2.5214611606
   88      C       2.3360311579    -2.6847703334     2.7376056773
   89      O      -3.3515827047    -4.7147191017     0.1796827803
   90      C      -1.9801952145    -4.4213181650     0.5183171584
   91      H      -1.8342313742    -3.8006482982     1.4104855695
   92      H      -1.5370754918    -3.8428503089    -0.3013924553
   93      H      -1.3540806877    -5.3181799374     0.6002534780
   94      O      -4.3433683245    -4.7800723585     2.3216333484
   95      C      -4.3331376049    -5.0455293362     1.1533380410
   96      C      -5.5619651047    -5.7323096407     0.5427876425
   97      H      -6.1120399800    -6.2319299800     1.3504696023
   98      H      -5.2267127916    -6.5328762302    -0.1268899085
   99      C      -6.4287241521    -4.8255181169    -0.2802651421
  100      H      -5.8558722261    -4.2908219080    -1.0487439219
  101      H      -7.1843462485    -5.3934795366    -0.8383682447
  102      C      -7.1955296224    -3.7811110462     0.6292804813
  103      H      -8.0956523718    -4.2907216425     0.9925463291
  104      H      -6.4984656818    -3.4791861521     1.4209933213
  105      C      -7.6014302295    -2.4838894471    -0.1121888843
  106      C      -8.7737526943    -2.7007191116    -0.9697586687
  107      C      -8.7785410730    -3.3530826228    -2.2021769908
  108      H      -7.8371153004    -3.7622940884    -2.5561649726
  109      C      -9.8925100403    -3.4523491155    -3.0346914371
  110      H      -9.7233219938    -3.9576049910    -3.9814849231
  111      C     -11.1391700701    -2.8830392095    -2.7593770694
  112      H     -12.0606095730    -3.0241222289    -3.3162889333
  113      C     -11.1714061121    -2.1482586219    -1.6053336016
  114      H     -12.1238762905    -1.7129714857    -1.3189183990
  115      C     -10.0609483546    -2.1403339505    -0.7454267645
  116      H     -10.0769154621    -1.6020425420     0.1976254138
  117      C      -5.4551810773     1.6188998939    -3.2078594417
  118      C      -7.2239461991     2.7639478250    -1.9891904220
  119      C      -4.6363356746     5.3125509869     0.7132278833
  120      C      -2.5167961741    -0.5052971635     0.1484835119
  121      C      -5.0820938684     3.1254295862     3.4015363871
  122      C      -6.7485979841     1.5867302248    -2.6517157395
  123      C      -2.4049500060     0.9273514175     2.5445666653
  124      C      -4.4001666615     4.7053273847    -1.6057252629
  125      C      -7.9125528470     1.0932244306     1.4985752272
  126      C      -3.2331200231    -0.9876540710     1.2160967177
  127      C      -7.3186563097    -1.0824579557     0.5316827531
  128      C      -7.0774162383     0.4567393337     2.4294772446
  129      C      -4.4552928181    -0.2735881802     2.8842524547
  130      C      -2.9173347286     2.0536354611     3.1366926227
  131      C      -7.9627021831     0.9291012632    -0.8871746822
  132      C      -3.3012061099     4.2829413116     2.2081867329
  133      C      -6.4748605014    -1.5371627792    -0.6278663651
  134      C      -4.9766809440    -1.7030304845    -0.3343993004
  135      C      -4.5902313593     4.2560598501     2.7238613332
  136      C      -1.6836907304     2.6076462596    -1.0644763243
  137      C      -2.4838297381     4.4661632493    -0.0426279170
  138      C      -3.0317647605     4.2742062842    -1.3008829527
  139      C      -5.1844699908     3.9386135837    -2.5111551249
  140      C      -4.2598066575    -1.1127146240    -1.3659769476
  141      C      -8.0425342374     0.2643246499     0.3545857204
  142      C      -6.4881870138     3.9444814503    -1.9704079640
  143      C      -3.1565229130    -0.2752689946     2.3874256150
  144      C      -8.0803059418     2.3191280453    -0.9385157080
  145      C      -6.2871101008     1.2384926521     3.2789358711
  146      C      -2.4440483237     0.3985292743    -1.8906745302
  147      C      -5.1832973090     5.2347089502    -0.5666797649
  148      C      -6.6466722265    -0.7625764403     1.9043280853
  149      C      -3.3080377236     2.3589149790    -2.8483290636
  150      C      -4.9843912550     0.8762322406     3.4968647659
  151      C      -8.0062463893     2.5251944980     1.4413979038
  152      C      -1.6030268917     2.6694005996     1.4168690258
  153      C      -1.6041728054     1.3042284845     1.4634392208
  154      C      -7.2322557352     3.3062111911     2.2766346322
  155      C      -2.9632085106    -0.6058084646    -1.1323952896
  156      C      -4.4823632859    -1.4815742010     1.0083777352
  157      C      -1.6400210290     1.1660445359    -1.0016557269
  158      C      -6.4379788690    -0.6728467634    -1.9057139968
  159      C      -7.2721849168     4.3298134135     0.3025277074
  160      C      -5.2904508441    -1.0694843392     2.1087078875
  161      C      -6.3621032128     2.6607152799     3.1788018099
  162      C      -3.2669384601     1.0054402451    -2.8650322144
  163      C      -5.4365533682     4.8608547256     1.8039873116
  164      C      -4.6554191130     2.7504109488    -3.1131465426
  165      C      -3.3069270200     4.9487891754     0.9442105094
  166      C      -8.0964016823     3.1321882265     0.2251608230
  167      C      -6.7492222714     4.4658459915     1.6028046815
  168      C      -7.1928714990     0.4893892782    -2.0004056053
  169      C      -5.0918497478    -0.5632858887    -2.2746839194
  170      C      -1.6328206299     3.3589983524     0.1478488241
  171      C      -6.5138246748     4.7805442559    -0.8097031369
  172      C      -4.2202516755     2.0353263908     3.6717974790
  173      C      -1.6875619636     0.5872377073     0.2483192787
  174      C      -2.4095220205     3.1651833149     2.4377701505
  175      C      -4.6080681613     0.5266059623    -3.0368165390
  176      C      -2.5484449229     3.1626704263    -1.9628066427
 ----------------------------------------------------------------
 Molecular Point Group                 C1    NOp =  1
 Largest Abelian Subgroup              C1    NOp =  1
 Nuclear Repulsion Energy = 34402.3103286837 hartrees
 There are      462 alpha and      462 beta electrons
 Requested basis set is 6-31G(d,p)
 There are 676 shells and 2360 basis functions

 Total QAlloc Memory Limit  20000 MB
 Mega-Array Size      4888 MB
 MEM_STATIC part      5000 MB
 A cutoff of  1.0D-08 yielded  37791 shell pairs
 There are    529543 function pairs
 
 -------------------------------------------------------
 OpenMP Integral Computing Module                       
 Release: version 1.0, May 2013, Q-Chem Inc. Pittsburgh 
 -------------------------------------------------------
 Integral Job Info:
 Integral job number is                      11
 Integral operator is                         1
 short-range coefficients                     0
 long-range coefficients              100000000
 Omega coefficients                           0
 if combine SR and LR in K                    0
 Integral screening is                        0
 Integral computing path is                   2
 max size of driver memory is            800000
 size of driver memory is                593474
 size of scratch memory is              2260544
 max col of scratch BK array               1296
 max len of scratch array in speh3          155
 max len of scratch index in speh4           18
 max int batch size is                      520
 min int batch size is                       52
 fixed nKL is                                52
 max L of basis functions is                  2
 order of int derivative is                   0
 number of shells is                        676
 number of basis is                        2360
 number of cartesian basis is              2360
 number of contracted shell pairs         37791
 number of primitive shell pairs         114334
 maxK2 (contraction) of shell pair           36
 max number of K2 of shell pair               1
 max number of CS2 of shell pair           7215
 max number of PS2 of shell pair          34752
 mem total for path MDJ                 1506952
 -------------------------------------------------------
 Smallest overlap matrix eigenvalue = 2.48E-04

 Scale SEOQF with 1.000000e-02/1.000000e-02/1.000000e-01

 Standard Electronic Orientation quadrupole field applied
 Nucleus-field energy     =    -0.0000001763 hartrees
 Guess from superposition of atomic densities
 Warning:  Energy on first SCF cycle will be non-variational
 A restricted hybrid HF-DFT SCF calculation will be
 performed using Pulay DIIS extrapolation
 Exchange:     0.2000 Hartree-Fock + 0.0800 Slater + 0.7200 B88
 Correlation:  0.1900 VWN1RPA + 0.8100 LYP
 Using SG-1 standard quadrature grid
 SCF converges when DIIS error is below 1.0E-05
 using 16 threads for integral computing 
 -------------------------------------------------------
 OpenMP BLAS3 based DFT computing Module                
 Release: version 1.0, May 2013, Q-Chem Inc. Pittsburgh 
 -------------------------------------------------------
 ---------------------------------------
  Cycle       Energy         DIIS Error
 ---------------------------------------
    1   -5858.1103564465      1.83E-02
    2   -5803.0841667925      1.30E-03
    3   -5802.1966525461      1.83E-03
    4   -5803.8661415156      7.14E-04
    5   -5804.1479039311      3.49E-04
    6   -5804.2276922730      1.54E-04
    7   -5804.2429486544      5.55E-05
    8   -5804.2443448744      3.67E-05
    9   -5804.2453683266      9.00E-06 Convergence criterion met
 ---------------------------------------
 SCF time:  CPU 8341.91 s  wall 860.59 s
 SCF   energy in the final basis set = -5804.2453683266
 Total energy in the final basis set = -5804.2453683266
 
 --------------------------------------------------------------
 
                    Orbital Energies (a.u.)
 --------------------------------------------------------------
 
 Alpha MOs
 -- Occupied --
-19.188 -19.188 -19.146 -19.140 -10.325 -10.322 -10.246 -10.245
-10.244 -10.242 -10.241 -10.240 -10.240 -10.239 -10.239 -10.231
-10.230 -10.229 -10.228 -10.228 -10.228 -10.227 -10.227 -10.226
-10.225 -10.225 -10.224 -10.223 -10.223 -10.223 -10.222 -10.222
-10.222 -10.221 -10.221 -10.221 -10.220 -10.220 -10.219 -10.219
-10.219 -10.219 -10.219 -10.219 -10.219 -10.218 -10.218 -10.218
-10.218 -10.218 -10.217 -10.217 -10.217 -10.217 -10.216 -10.216
-10.216 -10.216 -10.216 -10.215 -10.215 -10.215 -10.215 -10.215
-10.215 -10.215 -10.215 -10.214 -10.214 -10.214 -10.214 -10.214
-10.214 -10.214 -10.214 -10.214 -10.214 -10.214 -10.214 -10.214
-10.214 -10.213 -10.213 -10.213 -10.213 -10.213 -10.213 -10.213
-10.213 -10.212 -10.212 -10.212 -10.212 -10.212 -10.212 -10.212
-10.212 -10.211 -10.211 -10.211 -10.211 -10.211 -10.211 -10.211
-10.210 -10.210 -10.210 -10.210 -10.210 -10.210 -10.210 -10.210
-10.209 -10.209 -10.209 -10.209 -10.208 -10.208 -10.208 -10.207
-10.207 -10.207 -10.207 -10.207 -10.206 -10.206 -10.206 -10.205
-10.205 -10.204 -10.203 -10.203 -10.203 -10.203 -10.202 -10.202
-10.201 -10.200 -10.199 -10.199 -10.198 -10.197 -10.196 -10.195
-10.194 -10.194 -10.193 -10.193  -1.095  -1.081  -1.018  -1.016
 -0.982  -0.982  -0.966  -0.962  -0.962  -0.961  -0.959  -0.958
 -0.937  -0.928  -0.927  -0.925  -0.925  -0.923  -0.922  -0.922
 -0.920  -0.918  -0.899  -0.895  -0.891  -0.890  -0.884  -0.884
 -0.873  -0.873  -0.853  -0.849  -0.843  -0.841  -0.839  -0.835
 -0.835  -0.831  -0.823  -0.820  -0.810  -0.807  -0.800  -0.796
 -0.795  -0.794  -0.793  -0.792  -0.791  -0.789  -0.783  -0.782
 -0.774  -0.769  -0.769  -0.767  -0.766  -0.764  -0.763  -0.762
 -0.749  -0.743  -0.739  -0.737  -0.735  -0.729  -0.719  -0.716
 -0.714  -0.713  -0.712  -0.711  -0.710  -0.709  -0.708  -0.707
 -0.706  -0.705  -0.703  -0.703  -0.702  -0.700  -0.674  -0.669
 -0.660  -0.658  -0.655  -0.652  -0.649  -0.647  -0.632  -0.630
 -0.630  -0.628  -0.626  -0.625  -0.624  -0.620  -0.618  -0.615
 -0.614  -0.613  -0.613  -0.610  -0.610  -0.609  -0.606  -0.606
 -0.604  -0.603  -0.602  -0.599  -0.565  -0.564  -0.563  -0.563
 -0.562  -0.561  -0.559  -0.557  -0.556  -0.555  -0.554  -0.550
 -0.536  -0.536  -0.533  -0.532  -0.531  -0.529  -0.525  -0.524
 -0.522  -0.521  -0.520  -0.516  -0.516  -0.514  -0.512  -0.511
 -0.510  -0.507  -0.503  -0.500  -0.492  -0.491  -0.488  -0.486
 -0.484  -0.483  -0.482  -0.481  -0.476  -0.476  -0.474  -0.473
 -0.473  -0.472  -0.472  -0.469  -0.467  -0.467  -0.466  -0.466
 -0.463  -0.462  -0.461  -0.461  -0.460  -0.459  -0.457  -0.456
 -0.456  -0.455  -0.453  -0.451  -0.451  -0.448  -0.445  -0.443
 -0.442  -0.441  -0.441  -0.440  -0.437  -0.435  -0.434  -0.433
 -0.430  -0.429  -0.428  -0.427  -0.427  -0.425  -0.425  -0.423
 -0.422  -0.421  -0.420  -0.419  -0.419  -0.418  -0.418  -0.417
 -0.415  -0.414  -0.414  -0.414  -0.413  -0.412  -0.412  -0.411
 -0.410  -0.409  -0.407  -0.407  -0.403  -0.402  -0.399  -0.397
 -0.397  -0.394  -0.394  -0.390  -0.389  -0.386  -0.386  -0.381
 -0.380  -0.375  -0.375  -0.373  -0.372  -0.370  -0.368  -0.366
 -0.366  -0.364  -0.362  -0.362  -0.361  -0.359  -0.359  -0.357
 -0.357  -0.355  -0.354  -0.353  -0.351  -0.351  -0.351  -0.350
 -0.350  -0.348  -0.348  -0.346  -0.346  -0.344  -0.343  -0.343
 -0.342  -0.341  -0.338  -0.338  -0.337  -0.336  -0.336  -0.334
 -0.331  -0.330  -0.328  -0.327  -0.327  -0.326  -0.325  -0.321
 -0.315  -0.302  -0.297  -0.293  -0.290  -0.285  -0.274  -0.273
 -0.271  -0.270  -0.267  -0.267  -0.266  -0.265  -0.263  -0.263
 -0.260  -0.260  -0.259  -0.258  -0.255  -0.255  -0.254  -0.251
 -0.248  -0.246  -0.244  -0.243  -0.224  -0.221  -0.216  -0.213
 -0.208  -0.206  -0.205  -0.201  -0.198  -0.196
 -- Virtual --
 -0.124  -0.122  -0.120  -0.117  -0.113  -0.108  -0.080  -0.076
 -0.074  -0.071  -0.062  -0.058  -0.056  -0.053  -0.026  -0.024
 -0.020  -0.019  -0.017  -0.016  -0.015  -0.014  -0.013  -0.012
 -0.011  -0.010  -0.009  -0.006  -0.005  -0.003  -0.001   0.000
  0.002   0.010   0.034   0.039   0.041   0.041   0.045   0.047
  0.049   0.051   0.053   0.056   0.059   0.063   0.065   0.068
  0.069   0.076   0.079   0.080   0.085   0.086   0.088   0.089
  0.091   0.093   0.096   0.100   0.102   0.103   0.104   0.106
  0.106   0.107   0.110   0.113   0.115   0.115   0.117   0.118
  0.121   0.122   0.122   0.126   0.128   0.132   0.136   0.138
  0.138   0.140   0.142   0.145   0.151   0.155   0.157   0.158
  0.160   0.162   0.162   0.164   0.165   0.167   0.167   0.168
  0.172   0.173   0.176   0.176   0.177   0.180   0.181   0.182
  0.183   0.185   0.187   0.187   0.188   0.190   0.192   0.193
  0.195   0.197   0.197   0.199   0.199   0.203   0.204   0.207
  0.208   0.209   0.211   0.212   0.214   0.214   0.217   0.218
  0.220   0.222   0.222   0.224   0.225   0.225   0.227   0.229
  0.232   0.233   0.234   0.236   0.237   0.238   0.239   0.241
  0.242   0.245   0.246   0.247   0.249   0.255   0.255   0.261
  0.262   0.268   0.269   0.271   0.273   0.275   0.279   0.280
  0.281   0.284   0.285   0.289   0.295   0.296   0.297   0.300
  0.303   0.306   0.307   0.311   0.311   0.314   0.315   0.316
  0.319   0.319   0.322   0.323   0.325   0.328   0.330   0.331
  0.335   0.337   0.338   0.341   0.342   0.344   0.347   0.348
  0.350   0.352   0.357   0.365   0.367   0.374   0.380   0.385
  0.388   0.395   0.397   0.398   0.400   0.402   0.403   0.404
  0.407   0.408   0.409   0.412   0.413   0.416   0.419   0.421
  0.422   0.426   0.428   0.432   0.434   0.436   0.439   0.441
  0.445   0.446   0.449   0.452   0.454   0.455   0.456   0.456
  0.459   0.462   0.463   0.466   0.467   0.469   0.470   0.471
  0.472   0.474   0.476   0.477   0.478   0.481   0.482   0.485
  0.485   0.486   0.487   0.488   0.489   0.490   0.492   0.493
  0.494   0.496   0.499   0.499   0.500   0.502   0.503   0.504
  0.504   0.505   0.507   0.508   0.509   0.510   0.511   0.511
  0.513   0.513   0.514   0.515   0.516   0.517   0.518   0.518
  0.519   0.520   0.521   0.523   0.524   0.525   0.525   0.526
  0.526   0.527   0.528   0.529   0.530   0.530   0.531   0.532
  0.532   0.534   0.535   0.536   0.537   0.537   0.539   0.539
  0.540   0.541   0.542   0.543   0.543   0.544   0.545   0.545
  0.548   0.548   0.549   0.549   0.550   0.550   0.551   0.551
  0.553   0.554   0.555   0.555   0.556   0.558   0.558   0.559
  0.560   0.561   0.561   0.563   0.563   0.564   0.565   0.566
  0.566   0.567   0.569   0.569   0.570   0.571   0.572   0.573
  0.573   0.574   0.575   0.577   0.577   0.578   0.578   0.579
  0.580   0.581   0.583   0.583   0.584   0.585   0.586   0.586
  0.588   0.588   0.589   0.589   0.591   0.591   0.592   0.592
  0.593   0.594   0.595   0.596   0.597   0.598   0.599   0.600
  0.601   0.602   0.603   0.605   0.606   0.608   0.609   0.610
  0.611   0.612   0.613   0.614   0.615   0.617   0.618   0.619
  0.620   0.621   0.621   0.623   0.623   0.625   0.626   0.627
  0.628   0.630   0.631   0.631   0.632   0.633   0.634   0.635
  0.636   0.636   0.637   0.639   0.639   0.640   0.642   0.643
  0.643   0.644   0.645   0.645   0.647   0.648   0.648   0.649
  0.649   0.650   0.651   0.652   0.653   0.654   0.655   0.656
  0.657   0.658   0.659   0.661   0.662   0.662   0.663   0.665
  0.666   0.666   0.667   0.668   0.668   0.669   0.670   0.671
  0.672   0.673   0.673   0.673   0.675   0.676   0.677   0.677
  0.679   0.680   0.681   0.683   0.685   0.686   0.688   0.688
  0.689   0.690   0.690   0.691   0.692   0.694   0.695   0.696
  0.698   0.699   0.700   0.701   0.702   0.703   0.704   0.708
  0.708   0.709   0.709   0.710   0.712   0.714   0.715   0.716
  0.717   0.718   0.719   0.720   0.721   0.722   0.723   0.724
  0.724   0.727   0.729   0.729   0.730   0.731   0.731   0.734
  0.735   0.737   0.740   0.740   0.741   0.742   0.744   0.746
  0.746   0.748   0.749   0.751   0.752   0.752   0.756   0.757
  0.758   0.760   0.761   0.762   0.763   0.766   0.766   0.769
  0.769   0.772   0.773   0.774   0.775   0.775   0.777   0.777
  0.778   0.781   0.781   0.782   0.785   0.786   0.787   0.788
  0.789   0.789   0.790   0.792   0.795   0.796   0.796   0.798
  0.800   0.801   0.802   0.803   0.804   0.804   0.806   0.807
  0.807   0.809   0.809   0.810   0.810   0.812   0.812   0.813
  0.813   0.814   0.815   0.815   0.816   0.816   0.817   0.818
  0.820   0.820   0.821   0.822   0.823   0.824   0.825   0.826
  0.827   0.828   0.829   0.830   0.832   0.832   0.835   0.836
  0.838   0.839   0.841   0.844   0.846   0.848   0.849   0.850
  0.852   0.855   0.857   0.857   0.859   0.860   0.863   0.865
  0.866   0.867   0.872   0.876   0.880   0.885   0.886   0.887
  0.888   0.890   0.894   0.900   0.901   0.902   0.906   0.911
  0.912   0.914   0.915   0.917   0.919   0.921   0.923   0.923
  0.926   0.928   0.929   0.930   0.933   0.934   0.936   0.937
  0.939   0.941   0.941   0.943   0.947   0.947   0.949   0.951
  0.952   0.953   0.957   0.960   0.964   0.967   0.968   0.970
  0.973   0.976   0.977   0.981   0.982   0.987   0.989   0.991
  0.994   0.996   0.997   1.002   1.003   1.004   1.006   1.007
  1.008   1.010   1.011   1.014   1.015   1.017   1.018   1.019
  1.022   1.024   1.025   1.026   1.028   1.029   1.030   1.031
  1.034   1.035   1.037   1.038   1.040   1.042   1.042   1.044
  1.045   1.048   1.049   1.049   1.052   1.055   1.057   1.058
  1.061   1.062   1.063   1.064   1.066   1.069   1.070   1.071
  1.074   1.075   1.077   1.077   1.078   1.082   1.083   1.087
  1.087   1.088   1.089   1.090   1.091   1.093   1.094   1.096
  1.099   1.103   1.103   1.105   1.109   1.110   1.112   1.114
  1.115   1.119   1.119   1.122   1.124   1.126   1.128   1.130
  1.131   1.133   1.135   1.136   1.139   1.141   1.142   1.144
  1.148   1.150   1.152   1.154   1.157   1.158   1.160   1.161
  1.162   1.163   1.165   1.166   1.166   1.169   1.169   1.170
  1.171   1.174   1.174   1.175   1.177   1.179   1.181   1.185
  1.185   1.188   1.188   1.190   1.192   1.194   1.195   1.199
  1.201   1.204   1.206   1.207   1.211   1.211   1.216   1.218
  1.221   1.225   1.226   1.230   1.233   1.234   1.236   1.238
  1.240   1.243   1.247   1.250   1.252   1.256   1.257   1.260
  1.262   1.263   1.265   1.268   1.269   1.271   1.272   1.273
  1.275   1.279   1.281   1.282   1.283   1.284   1.286   1.290
  1.292   1.293   1.295   1.296   1.297   1.301   1.304   1.305
  1.308   1.309   1.315   1.316   1.318   1.322   1.323   1.326
  1.327   1.329   1.330   1.331   1.335   1.337   1.340   1.342
  1.346   1.348   1.349   1.352   1.353   1.355   1.360   1.360
  1.363   1.364   1.366   1.368   1.371   1.375   1.375   1.381
  1.383   1.385   1.389   1.391   1.394   1.397   1.402   1.405
  1.408   1.410   1.413   1.415   1.417   1.419   1.422   1.424
  1.429   1.429   1.433   1.436   1.441   1.444   1.447   1.449
  1.451   1.453   1.454   1.456   1.457   1.458   1.460   1.464
  1.467   1.468   1.470   1.472   1.472   1.473   1.478   1.478
  1.480   1.481   1.483   1.487   1.489   1.490   1.491   1.494
  1.497   1.499   1.502   1.505   1.507   1.509   1.510   1.513
  1.515   1.518   1.521   1.525   1.528   1.531   1.533   1.536
  1.538   1.539   1.541   1.546   1.547   1.548   1.549   1.552
  1.554   1.560   1.560   1.563   1.566   1.567   1.569   1.571
  1.575   1.578   1.579   1.581   1.583   1.585   1.587   1.588
  1.591   1.591   1.597   1.604   1.604   1.610   1.614   1.617
  1.620   1.623   1.625   1.630   1.633   1.640   1.641   1.643
  1.645   1.650   1.651   1.652   1.656   1.658   1.664   1.669
  1.670   1.678   1.681   1.689   1.690   1.692   1.693   1.698
  1.701   1.702   1.706   1.707   1.710   1.712   1.712   1.714
  1.716   1.719   1.723   1.725   1.725   1.726   1.729   1.732
  1.735   1.736   1.737   1.741   1.742   1.744   1.746   1.748
  1.749   1.750   1.751   1.752   1.753   1.755   1.756   1.757
  1.759   1.761   1.762   1.765   1.765   1.767   1.767   1.769
  1.769   1.771   1.772   1.772   1.773   1.774   1.776   1.777
  1.778   1.779   1.781   1.782   1.784   1.784   1.786   1.788
  1.789   1.790   1.791   1.792   1.794   1.794   1.796   1.797
  1.798   1.799   1.800   1.805   1.806   1.807   1.808   1.809
  1.812   1.813   1.816   1.817   1.818   1.820   1.822   1.822
  1.823   1.825   1.826   1.829   1.831   1.831   1.834   1.836
  1.840   1.842   1.843   1.848   1.848   1.850   1.851   1.853
  1.855   1.856   1.858   1.860   1.863   1.864   1.865   1.869
  1.869   1.870   1.873   1.875   1.877   1.880   1.884   1.888
  1.889   1.891   1.892   1.897   1.898   1.899   1.903   1.905
  1.909   1.909   1.911   1.912   1.914   1.915   1.917   1.920
  1.921   1.924   1.926   1.927   1.930   1.935   1.938   1.938
  1.940   1.941   1.943   1.945   1.946   1.947   1.951   1.952
  1.953   1.954   1.958   1.959   1.960   1.965   1.967   1.968
  1.969   1.971   1.972   1.975   1.977   1.982   1.983   1.983
  1.986   1.988   1.990   1.991   1.993   1.994   1.995   1.998
  1.998   1.999   2.001   2.001   2.004   2.005   2.006   2.008
  2.008   2.009   2.010   2.012   2.013   2.015   2.015   2.016
  2.018   2.018   2.019   2.021   2.022   2.022   2.025   2.027
  2.027   2.028   2.029   2.029   2.032   2.033   2.034   2.036
  2.036   2.037   2.038   2.040   2.041   2.042   2.043   2.044
  2.045   2.047   2.049   2.049   2.051   2.052   2.052   2.055
  2.056   2.057   2.058   2.058   2.061   2.062   2.063   2.064
  2.066   2.066   2.068   2.070   2.072   2.073   2.075   2.076
  2.077   2.079   2.080   2.083   2.084   2.084   2.086   2.087
  2.090   2.091   2.094   2.095   2.097   2.100   2.104   2.108
  2.109   2.111   2.112   2.114   2.116   2.117   2.118   2.120
  2.122   2.125   2.131   2.133   2.135   2.136   2.139   2.141
  2.147   2.150   2.153   2.154   2.157   2.159   2.161   2.166
  2.173   2.174   2.181   2.184   2.190   2.195   2.200   2.203
  2.206   2.207   2.209   2.211   2.211   2.216   2.216   2.220
  2.222   2.226   2.230   2.232   2.233   2.234   2.237   2.239
  2.241   2.242   2.245   2.248   2.251   2.252   2.255   2.260
  2.263   2.264   2.265   2.266   2.268   2.272   2.273   2.276
  2.277   2.280   2.285   2.286   2.288   2.291   2.293   2.297
  2.298   2.300   2.301   2.303   2.304   2.305   2.310   2.314
  2.318   2.319   2.322   2.323   2.327   2.328   2.328   2.333
  2.336   2.338   2.340   2.343   2.346   2.348   2.348   2.350
  2.352   2.355   2.358   2.359   2.360   2.362   2.363   2.366
  2.367   2.371   2.371   2.373   2.375   2.377   2.378   2.380
  2.382   2.382   2.387   2.389   2.391   2.392   2.393   2.394
  2.395   2.396   2.399   2.400   2.400   2.403   2.404   2.405
  2.409   2.411   2.414   2.414   2.415   2.417   2.418   2.420
  2.422   2.425   2.430   2.432   2.434   2.438   2.440   2.441
  2.443   2.445   2.447   2.448   2.450   2.454   2.455   2.457
  2.458   2.460   2.462   2.465   2.468   2.471   2.472   2.473
  2.474   2.478   2.479   2.483   2.487   2.488   2.489   2.491
  2.494   2.495   2.498   2.499   2.501   2.503   2.504   2.505
  2.507   2.508   2.509   2.511   2.511   2.513   2.516   2.519
  2.522   2.523   2.526   2.527   2.529   2.530   2.536   2.538
  2.543   2.545   2.547   2.550   2.554   2.554   2.556   2.560
  2.566   2.567   2.572   2.573   2.578   2.581   2.581   2.584
  2.585   2.587   2.592   2.593   2.595   2.597   2.598   2.601
  2.602   2.604   2.606   2.610   2.611   2.615   2.617   2.619
  2.621   2.624   2.625   2.626   2.628   2.630   2.632   2.634
  2.635   2.636   2.638   2.639   2.642   2.643   2.645   2.645
  2.647   2.648   2.650   2.652   2.653   2.658   2.658   2.659
  2.660   2.662   2.663   2.665   2.666   2.668   2.668   2.670
  2.674   2.676   2.677   2.679   2.681   2.683   2.684   2.685
  2.688   2.689   2.690   2.695   2.698   2.699   2.701   2.703
  2.704   2.707   2.710   2.713   2.715   2.717   2.721   2.724
  2.726   2.727   2.729   2.732   2.733   2.735   2.737   2.739
  2.741   2.743   2.748   2.750   2.751   2.751   2.754   2.755
  2.758   2.758   2.760   2.762   2.764   2.766   2.768   2.771
  2.773   2.774   2.777   2.778   2.782   2.784   2.786   2.789
  2.794   2.796   2.798   2.807   2.807   2.815   2.816   2.818
  2.821   2.825   2.826   2.829   2.831   2.836   2.838   2.839
  2.842   2.844   2.846   2.851   2.852   2.854   2.855   2.855
  2.857   2.861   2.861   2.863   2.864   2.867   2.869   2.872
  2.874   2.877   2.878   2.880   2.882   2.886   2.889   2.889
  2.891   2.892   2.893   2.894   2.897   2.899   2.900   2.901
  2.903   2.905   2.909   2.911   2.912   2.915   2.916   2.919
  2.921   2.922   2.924   2.924   2.926   2.929   2.931   2.934
  2.935   2.938   2.940   2.944   2.946   2.947   2.953   2.955
  2.959   2.960   2.962   2.967   2.967   2.969   2.972   2.976
  2.979   2.981   2.983   2.986   2.992   2.995   2.998   3.000
  3.002   3.004   3.006   3.007   3.011   3.011   3.015   3.021
  3.023   3.024   3.025   3.030   3.031   3.032   3.037   3.039
  3.042   3.043   3.047   3.048   3.056   3.058   3.059   3.059
  3.065   3.066   3.073   3.080   3.080   3.084   3.090   3.096
  3.105   3.111   3.113   3.121   3.133   3.135   3.145   3.148
  3.154   3.159   3.162   3.166   3.172   3.178   3.183   3.183
  3.188   3.190   3.198   3.207   3.216   3.220   3.235   3.236
  3.240   3.242   3.253   3.255   3.258   3.266   3.268   3.280
  3.285   3.289   3.301   3.305   3.311   3.320   3.321   3.323
  3.327   3.332   3.334   3.342   3.345   3.351   3.364   3.395
  3.406   3.410   3.417   3.423   3.426   3.429   3.436   3.438
  3.442   3.444   3.448   3.458   3.463   3.478   3.486   3.495
  3.500   3.509   3.516   3.519   3.520   3.525   3.544   3.550
  3.552   3.554   3.557   3.565   3.567   3.568   3.577   3.584
  3.610   3.622   3.665   3.694   3.837   3.853   4.003   4.008
  4.069   4.071   4.074   4.076   4.082   4.083   4.089   4.093
  4.098   4.099   4.103   4.104   4.111   4.114   4.118   4.122
  4.130   4.135   4.137   4.139   4.143   4.145   4.146   4.148
  4.153   4.154   4.157   4.160   4.161   4.164   4.172   4.179
  4.185   4.190   4.195   4.197   4.212   4.215   4.230   4.233
  4.242   4.244   4.246   4.247   4.249   4.256   4.257   4.265
  4.266   4.269   4.274   4.277   4.278   4.289   4.291   4.292
  4.297   4.305   4.310   4.327   4.370   4.373   4.387   4.388
  4.393   4.399   4.401   4.404   4.405   4.405   4.410   4.415
  4.419   4.425   4.426   4.430   4.437   4.448   4.466   4.477
  4.482   4.487   4.495   4.512   4.520   4.529   4.548   4.555
  4.557   4.565   4.615   4.617   4.623   4.629   4.633   4.649
  4.651   4.668   4.680   4.690   4.691   4.694   4.698   4.699
  4.704   4.707   4.710   4.714   4.724   4.742   4.793   4.794
  4.824   4.849   4.851   4.855   4.859   4.876   4.884   4.895
  4.904   4.907   4.933   4.946   4.958   4.964   4.967   4.974
  4.982   4.990   4.994   5.020   5.126   5.154   5.170   5.172
  5.186   5.198   5.219   5.223   5.283   5.328   5.331   5.332
  5.342   5.360
 --------------------------------------------------------------
 
          Ground-State Mulliken Net Atomic Charges

     Atom                 Charge (a.u.)
  ----------------------------------------
      1 O                    -0.462617
      2 C                    -0.075656
      3 H                     0.111962
      4 H                     0.121465
      5 H                     0.118911
      6 O                    -0.470159
      7 C                     0.605588
      8 C                    -0.254458
      9 H                     0.138306
     10 H                     0.123508
     11 C                    -0.194717
     12 H                     0.112358
     13 H                     0.134117
     14 C                    -0.192189
     15 H                     0.117730
     16 H                     0.112407
     17 C                     0.013716
     18 C                     0.106154
     19 C                    -0.099805
     20 H                     0.109381
     21 C                    -0.111781
     22 H                     0.095751
     23 C                    -0.075375
     24 H                     0.098243
     25 C                    -0.097280
     26 H                     0.091357
     27 C                    -0.119942
     28 H                     0.087686
     29 C                     0.011572
     30 C                     0.010946
     31 C                     0.006442
     32 C                    -0.018269
     33 C                     0.015934
     34 C                    -0.007547
     35 C                     0.013496
     36 C                     0.007080
     37 C                     0.025425
     38 C                     0.016832
     39 C                    -0.121637
     40 C                     0.004925
     41 C                    -0.005317
     42 C                    -0.000361
     43 C                     0.000403
     44 C                     0.006646
     45 C                    -0.059025
     46 C                     0.008561
     47 C                    -0.018719
     48 C                     0.016752
     49 C                    -0.034837
     50 C                    -0.031546
     51 C                    -0.011483
     52 C                    -0.005740
     53 C                     0.037096
     54 C                     0.031439
     55 C                     0.005552
     56 C                    -0.034362
     57 C                    -0.030952
     58 C                    -0.010268
     59 C                     0.016582
     60 C                     0.022014
     61 C                     0.011222
     62 C                    -0.003690
     63 C                    -0.016550
     64 C                    -0.023561
     65 C                    -0.004288
     66 C                    -0.004569
     67 C                     0.001693
     68 C                     0.007396
     69 C                     0.006319
     70 C                     0.033341
     71 C                     0.002249
     72 C                     0.002935
     73 C                     0.013936
     74 C                    -0.004411
     75 C                    -0.006159
     76 C                    -0.014668
     77 C                    -0.005893
     78 C                     0.004367
     79 C                    -0.005289
     80 C                     0.003732
     81 C                     0.008018
     82 C                     0.030629
     83 C                    -0.014439
     84 C                    -0.014132
     85 C                    -0.009248
     86 C                     0.009361
     87 C                    -0.013688
     88 C                     0.003900
     89 O                    -0.494531
     90 C                    -0.094660
     91 H                     0.131864
     92 H                     0.125851
     93 H                     0.118406
     94 O                    -0.433638
     95 C                     0.598343
     96 C                    -0.234221
     97 H                     0.129585
     98 H                     0.117475
     99 C                    -0.197330
    100 H                     0.123924
    101 H                     0.109522
    102 C                    -0.193007
    103 H                     0.117723
    104 H                     0.128293
    105 C                    -0.003609
    106 C                     0.128706
    107 C                    -0.126804
    108 H                     0.078682
    109 C                    -0.087257
    110 H                     0.082510
    111 C                    -0.080543
    112 H                     0.097549
    113 C                    -0.076146
    114 H                     0.089426
    115 C                    -0.136553
    116 H                     0.077149
    117 C                    -0.003662
    118 C                     0.005701
    119 C                     0.005380
    120 C                     0.002353
    121 C                    -0.003566
    122 C                     0.003661
    123 C                     0.008762
    124 C                    -0.011188
    125 C                     0.014801
    126 C                     0.012757
    127 C                    -0.084081
    128 C                     0.016907
    129 C                     0.000258
    130 C                     0.016489
    131 C                     0.019568
    132 C                    -0.012701
    133 C                    -0.078785
    134 C                     0.013858
    135 C                     0.012610
    136 C                    -0.035047
    137 C                     0.008110
    138 C                    -0.005587
    139 C                    -0.008326
    140 C                     0.023497
    141 C                    -0.006527
    142 C                     0.005530
    143 C                    -0.014137
    144 C                    -0.018678
    145 C                    -0.017916
    146 C                    -0.021853
    147 C                    -0.001404
    148 C                     0.011145
    149 C                     0.025675
    150 C                     0.015402
    151 C                     0.026266
    152 C                    -0.002005
    153 C                    -0.007209
    154 C                    -0.022877
    155 C                     0.015599
    156 C                     0.003757
    157 C                    -0.028004
    158 C                     0.009703
    159 C                     0.004499
    160 C                    -0.005266
    161 C                     0.013634
    162 C                    -0.014359
    163 C                     0.009550
    164 C                    -0.015192
    165 C                     0.002480
    166 C                    -0.016276
    167 C                    -0.003250
    168 C                     0.033102
    169 C                     0.023138
    170 C                    -0.005186
    171 C                    -0.029780
    172 C                    -0.031582
    173 C                     0.025710
    174 C                    -0.009440
    175 C                    -0.022050
    176 C                     0.038509
  ----------------------------------------
  Sum of atomic charges =     0.000000

 -----------------------------------------------------------------
                    Cartesian Multipole Moments
 -----------------------------------------------------------------
    Charge (ESU x 10^10)
                 0.0000
    Dipole Moment (Debye)
         X       2.5145      Y      -0.3979      Z      -3.1159
       Tot       4.0237
    Quadrupole Moments (Debye-Ang)
        XX    -749.4695     XY      30.1039     YY    -790.4234
        XZ      -2.5002     YZ      -0.3024     ZZ    -819.0685
    Octopole Moments (Debye-Ang^2)
       XXX     223.7282    XXY     -41.5600    XYY      95.3692
       YYY      96.2641    XXZ    -204.5597    XYZ    -142.8094
       YYZ     -84.5922    XZZ      20.2042    YZZ      19.0068
       ZZZ     -47.2269
    Hexadecapole Moments (Debye-Ang^3)
      XXXX -155843.6965   XXXY    4261.7388   XXYY  -34535.3854
      XYYY    3507.4083   YYYY  -46127.7687   XXXZ     340.5485
      XXYZ    -160.0463   XYYZ    -186.5963   YYYZ    -248.3219
      XXZZ  -30807.2894   XYZZ     613.7880   YYZZ  -11217.3848
      XZZZ     132.5121   YZZZ      13.0422   ZZZZ  -18509.1138
 -----------------------------------------------------------------
Archival summary:
1\1\mn251\SP\ProcedureUnspecified\6-31G**\428\afmv_a\SunOct1400:36:212018SunOct1400:36:212018\0\\#,ProcedureUnspecified,6-31G**,\\0,1\O\C,1,1.42158\O,2,1.19812,1,128.477\C,1,1.44273,2,122.881,3,-23.3503,0\H,4,1.09659,1,115.632,2,41.3411,0\H,4,1.09677,1,108.414,2,158.646,0\H,4,1.09686,1,113.194,2,-85.4588,0\C,2,1.53442,1,112.618,3,-174.745,0\H,8,1.09625,2,108.967,1,-47.9579,0\H,8,1.09752,2,108.198,1,-162.411,0\C,8,1.50032,2,114.231,1,70.9082,0\H,11,1.09755,8,112.149,2,-52.6697,0\H,11,1.09774,8,111.338,2,-169.735,0\C,11,1.58305,8,111.309,2,70.3891,0\H,14,1.09631,11,106.344,8,84.1799,0\H,14,1.09721,11,106.762,8,-38.1659,0\C,14,1.54833,11,113.865,8,-155.217,0\C,17,1.4686,14,111.42,11,-76.8276,0\C,18,1.39444,17,126.008,14,75.9731,0\H,19,1.08584,18,117.481,17,-1.58298,0\C,19,1.39422,18,124.318,17,174.969,0\H,21,1.08643,19,115.408,18,-177.558,0\C,21,1.39788,19,124.469,18,-1.69785,0\H,23,1.08587,21,127.074,19,172.607,0\C,23,1.36849,21,113.939,19,-2.81937,0\H,25,1.08568,23,117.285,21,177.696,0\C,25,1.4045,23,120.047,21,6.90743,0\H,27,1.08598,25,121.523,23,177.212,0\C,17,1.55929,14,118.532,11,65.5403,0\C,29,1.50443,17,61.5352,14,109.579,0\C,29,1.53564,17,125.176,14,6.87956,0\C,31,1.388,29,108.416,17,-153.687,0\C,32,1.34904,31,110.811,29,-1.23104,0\C,33,1.40007,32,112.558,31,-3.04674,0\C,34,1.38911,33,116.044,32,-131.835,0\C,35,1.3512,34,122.253,33,-12.7722,0\C,36,1.40828,35,120.723,34,3.4009,0\C,37,1.38885,36,121.37,35,138.788,0\C,37,1.39283,36,119.484,35,2.57963,0\C,32,1.41162,31,120.274,29,-152.938,0\C,40,1.36016,32,118.935,31,10.6199,0\C,40,1.36133,32,121.537,31,153.904,0\C,41,1.37317,40,122.344,32,-5.89032,0\C,43,1.35931,41,119.226,40,5.74966,0\C,43,1.37309,41,116.865,40,145.113,0\C,41,1.37522,40,108.964,32,146.971,0\C,46,1.3783,41,106.773,40,-0.428867,0\C,45,1.39055,43,104.674,41,-138.881,0\C,48,1.39011,45,111.168,43,-5.49963,0\C,49,1.40545,48,122.401,45,146.438,0\C,50,1.39573,49,115.713,48,-5.54148,0\C,51,1.39904,50,122.838,49,9.48899,0\C,52,1.3696,51,119.086,50,-7.26146,0\C,53,1.39929,52,108.676,51,-146.655,0\C,51,1.40326,50,109.288,49,-137.451,0\C,54,1.40864,53,117.929,52,142.711,0\C,56,1.37174,54,119.921,53,4.17482,0\C,57,1.39718,56,109.064,54,-144.229,0\C,58,1.36597,57,107.244,56,-1.44485,0\C,59,1.39229,58,109.293,57,1.02123,0\C,42,1.4124,40,118.626,32,-4.72424,0\C,61,1.3542,42,116.018,40,-130.165,0\C,54,1.41568,53,106.351,52,6.45982,0\C,63,1.37985,54,109.647,53,-4.90288,0\C,63,1.40695,54,119.862,53,142.049,0\C,65,1.3886,63,117.13,54,-141.716,0\C,66,1.3855,65,123.33,63,-4.83345,0\C,65,1.38861,63,121.262,54,-5.63554,0\C,67,1.40809,66,120.898,65,135.785,0\C,64,1.40987,63,121.441,54,147.155,0\C,70,1.38082,64,118.297,63,-138.293,0\C,71,1.36228,70,108.972,64,142.661,0\C,62,1.41674,61,123.949,42,-2.51069,0\C,73,1.36486,62,121.358,61,-1.36991,0\C,73,1.38103,62,124.65,61,137.54,0\C,75,1.38574,73,114.099,62,-146.469,0\C,76,1.37269,75,117.67,73,143.253,0\C,77,1.3975,76,122.895,75,3.3505,0\C,78,1.39406,77,120.694,76,1.89165,0\C,79,1.40469,78,118.779,77,-3.91775,0\C,76,1.40937,75,104.635,73,3.04305,0\C,55,1.41869,51,108.932,50,-0.822411,0\C,82,1.41077,55,115.421,51,136.988,0\C,83,1.39594,82,119.79,55,14.8365,0\C,69,1.41962,67,119.631,66,8.96746,0\C,80,1.42225,79,111.508,78,-143.376,0\C,86,1.41142,80,105.262,79,2.866,0\C,87,1.39117,86,118.674,80,138.243,0\C,6,2.86545,4,131.302,1,-172.935,0\C,89,1.36981,6,122.811,4,143.258,0\C,89,1.38292,6,88.3638,4,-86.7669,0\C,91,1.38604,89,116.637,6,-133.603,0\C,89,1.39541,6,89.9671,4,31.878,0\C,93,1.39515,89,121.409,6,-85.8746,0\C,90,1.41211,89,109.412,6,-105.445,0\C,95,1.38046,90,107.217,89,4.56412,0\C,95,1.39629,90,121.166,89,-144.168,0\C,97,1.37252,95,121.731,90,141.235,0\C,98,1.40071,97,111.023,95,-142.41,0\C,99,1.38316,98,106.718,97,0.134448,0\C,96,1.41011,95,118.601,90,-143.36,0\C,101,1.37116,96,120.454,95,138.45,0\C,102,1.3989,101,106.239,96,-143.445,0\C,101,1.41219,96,116.26,95,-2.25455,0\C,104,1.40979,101,105.282,96,144.817,0\C,105,1.40838,104,120.034,101,-148.213,0\C,94,1.41721,93,114.348,89,-133.479,0\C,107,1.41584,94,109.303,93,136.035,0\C,108,1.37929,107,108.608,94,-2.43925,0\C,109,1.38434,108,108.046,107,1.73493,0\C,109,1.3925,108,120.524,107,-142.969,0\C,108,1.42,107,121.53,94,-148.321,0\C,112,1.40814,108,120.872,107,0.561478,0\C,113,1.40516,112,107.355,108,144.093,0\C,114,1.39575,113,108.885,112,-0.545718,0\C,112,1.41125,108,121.123,107,143.12,0\C,116,1.39398,112,117.939,108,-4.2594,0\C,115,1.41648,114,119.134,113,-135.725,0\C,118,1.36638,115,120.633,114,138.986,0\C,119,1.37056,118,121.733,115,-4.69546,0\C,118,1.37795,115,119.055,114,-4.72441,0\C,121,1.39234,118,125.272,115,-0.984792,0\C,120,1.40989,119,122.646,118,-141.421,0\C,123,1.38853,120,110.28,119,142.104,0\C,124,1.38039,123,123.442,120,-135.361,0\C,125,1.40927,124,118.418,123,-1.38853,0\C,125,1.41219,124,122.036,123,136.523,0\C,119,1.41485,118,106.821,115,-146.895,0\C,128,1.38489,119,120.414,118,148.422,0\C,129,1.3798,128,119.392,119,-4.83938,0\C,128,1.39671,119,108.654,118,-0.193625,0\C,130,1.39968,129,105.891,128,-133.6,0\C,132,1.37935,130,109.538,129,-1.9098,0\C,133,1.39198,132,108.097,130,-2.01527,0\C,131,1.40608,128,122.06,119,149.867,0\C,135,1.40209,131,115.651,128,-10.2398,0\C,106,1.42171,105,116.336,104,136.422,0\C,97,1.42209,95,120.121,90,2.04711,0\C,138,1.39056,97,119.482,95,3.60791,0\C,139,1.39967,138,120.847,97,-7.43815,0\C,140,1.36427,139,107.275,138,147.517,0\C,141,1.42047,140,107.913,139,-0.118358,0\C,142,1.4124,141,111.733,140,2.04742,0\C,143,1.34841,142,122.034,141,-142.075,0\C,144,1.38101,143,119.996,142,139.365,0\C,106,1.42878,105,121.096,104,1.88046,0\C,145,1.49889,144,107.839,143,-152.49,0\C,146,1.50986,106,112.054,105,148.299,0\C,148,1.46475,146,128.095,106,148.098,0\C,149,1.4756,148,116.637,146,-6.42172,0\C,150,1.39061,149,118.62,148,-58.9816,0\H,151,1.08607,150,115.725,149,0.169219,0\C,150,1.40037,149,122.675,148,127.401,0\H,153,1.08656,150,115.319,149,-16.6742,0\C,151,1.4405,150,118.504,149,178.759,0\H,155,1.08607,151,121.986,150,179.357,0\C,155,1.41129,151,123.876,150,3.23567,0\H,157,1.08598,155,123.171,151,-175.865,0\C,157,1.39387,155,116.108,151,4.11672,0\H,159,1.08595,157,124.687,155,-171.701,0\C,149,1.55633,148,119.856,146,-151.189,0\H,161,1.0965,149,116.01,148,-57.9453,0\H,161,1.0972,149,108.05,148,-165.72,0\C,161,1.54289,149,114.597,148,65.7388,0\H,164,1.09712,161,115.399,149,-3.88033,0\H,164,1.09718,161,107.049,149,-119.308,0\C,164,1.50431,161,114.41,149,118.111,0\H,167,1.09671,164,115.551,161,30.0557,0\H,167,1.09775,164,103.619,161,143.652,0\C,167,1.52781,164,119.157,161,-96.833,0\O,170,1.22152,167,123.455,164,-40.3849,0\O,170,1.39286,167,115.547,164,137.24,0\C,172,1.3703,170,124.484,167,-171.252,0\H,173,1.09687,172,110.622,170,-71.5694,0\H,173,1.09717,172,111.478,170,45.1711,0\H,173,1.09737,172,108.961,170,167.84,0\\\@

 Total job time:  875.95s(wall), 8369.06s(cpu) 
 Sun Oct 14 00:36:21 2018

        *************************************************************
        *                                                           *
        *  Thank you very much for using Q-Chem.  Have a nice day.  *
        *                                                           *
        *************************************************************


