
Running Job 1 of 1 ./10/7.qcin
qchem ./10/7.qcin_42699.0 /tmpu/cab_g/afmv_a/scratch_qchem/qchem42699/ 1
/tmpu/appuserlic/qchem4.4/serial-multicore/exe/qcprog.exe_s ./10/7.qcin_42699.0 /tmpu/cab_g/afmv_a/scratch_qchem/qchem42699/
Check license passed

                  Welcome to Q-Chem
     A Quantum Leap Into The Future Of Chemistry


 Q-Chem 4.4, Q-Chem, Inc., Pleasanton, CA (2016)

 Y. Shao,  Z. Gan,  E. Epifanovsky,  A. T. B. Gilbert,  M. Wormit,  
 J. Kussmann,  A. W. Lange,  A. Behn,  J. Deng,  X. Feng,  D. Ghosh,  
 M. Goldey,  P. R. Horn,  L. D. Jacobson,  I. Kaliman,  F. Rob,  
 R. Z. Khaliullin,  T. Kus,  A. Landau,  J. Liu,  E. I. Proynov,  Y. M. Rhee,  
 R. M. Richard,  M. A. Rohrdanz,  R. P. Steele,  E. J. Sundstrom,  
 H. L. Woodcock III,  P. M. Zimmerman,  D. Zuev,  B. Albrecht,  E. Alguire,  
 B. Austin,  S. A. Baeppler,  G. J. O. Beran,  Y. A. Bernard,  E. Berquist,  
 K. Brandhorst,  K. B. Bravaya,  S. T. Brown,  D. Casanova,  C.-M. Chang,  
 Y. Chen,  S. H. Chien,  K. D. Closser,  M. P. Coons,  D. L. Crittenden,  
 S. Dasgupta,  M. Diedenhofen,  R. A. DiStasio Jr.,  H. Do,  A. D. Dutoi,  
 R. G. Edgar,  P.-T. Fang,  S. Fatehi,  Q. Feng,  L. Fusti-Molnar,  
 A. Ghysels,  A. Golubeva-Zadorozhnaya,  J. Gomes,  A. Gunina,  
 M. W. D. Hanson-Heine,  P. H. P. Harbach,  A. W. Hauser,  J. E. Herr,  
 E. G. Hohenstein,  Z. C. Holden,  K. Hui,  T.-C. Jagau,  H. Ji,  B. Kaduk,  
 K. Khistyaev,  Jaehoon Kim,  Jihan Kim,  R. A. King,  P. Klunzinger,  
 K. Koh,  D. Kosenkov,  T. Kowalczyk,  C. M. Krauter,  A. Kunitsa,  
 K. U. Lao,  A. Laurent,  K. V. Lawler,  J. Lee,  D. Lefrancois,  S. Lehtola,  
 S. V. Levchenko,  C. Y. Lin,  Y.-S. Lin,  F. Liu,  E. Livshits,  
 R. C. Lochan,  A. Luenser,  P. Manohar,  S. F. Manzer,  S.-P. Mao,  Y. Mao,  
 N. Mardirossian,  A. V. Marenich,  L. A. Martinez-Martinez,  S. A. Maurer,  
 N. J. Mayhall,  J.-M. Mewes,  A. F. Morrison,  K. Nanda,  T. S. Nguyen-Beck,  
 C. M. Oana,  R. Olivares-Amaya,  D. P. O'Neill,  J. A. Parkhill,  
 T. M. Perrine,  R. Peverati,  P. A. Pieniazek,  F. Plasser,  A. Prociuk,  
 D. R. Rehn,  E. Rosta,  N. J. Russ,  N. Sergueev,  S. M. Sharada,  
 S. Sharma,  D. W. Small,  A. Sodt,  T. Stauch,  T. Stein,  D. Stuck,  
 Y.-C. Su,  A. J. W. Thom,  T. Tsuchimochi,  L. Vogt,  O. Vydrov,  T. Wang,  
 M. A. Watson,  J. Wenzel,  A. White,  C. F. Williams,  V. Vanovschi,  
 K. Yao,  S. Yeganeh,  S. R. Yost,  Z.-Q. You,  I. Y. Zhang,  X. Zhang,  
 Y. Zhao,  B. R. Brooks,  G. K. L. Chan,  D. M. Chipman,  C. J. Cramer,  
 W. A. Goddard III,  M. S. Gordon,  W. J. Hehre,  A. Klamt,  
 H. F. Schaefer III,  M. W. Schmidt,  C. D. Sherrill,  D. G. Truhlar,  
 A. Warshel,  X. Xu,  A. Aspuru-Guzik,  R. Baer,  A. T. Bell,  N. A. Besley,  
 J.-D. Chai,  A. Dreuw,  B. D. Dunietz,  T. R. Furlani,  S. R. Gwaltney,  
 C.-P. Hsu,  Y. Jung,  J. Kong,  D. S. Lambrecht,  W. Liang,  C. Ochsenfeld,  
 V. A. Rassolov,  L. V. Slipchenko,  J. E. Subotnik,  T. Van Voorhis,  
 J. M. Herbert,  A. I. Krylov,  P. M. W. Gill,  M. Head-Gordon

 Contributors to earlier versions of Q-Chem not listed above: 
 R. D. Adamson,  J. Baker,  E. F. C. Byrd,  A. K. Chakraborty,  C.-L. Cheng,  
 H. Dachsel,  R. J. Doerksen,  G. Hawkins,  A. Heyden,  S. Hirata,  
 G. Kedziora,  F. J. Keil,  C. Kelley,  P. P. Korambath,  W. Kurlancheek,  
 A. M. Lee,  M. S. Lee,  D. Liotard,  I. Lotan,  P. E. Maslen,  N. Nair,  
 D. Neuhauser,  R. Olson,  B. Peters,  J. Ritchie,  N. E. Schultz,  
 N. Shenvi,  A. C. Simmonett,  K. S. Thanthiriwatte,  Q. Wu,  W. Zhang

 Please cite Q-Chem as follows:
 Y. Shao et al., Mol. Phys. 113, 184-215 (2015)
 DOI: 10.1080/00268976.2014.952696

 Q-Chem 4.4.2 for Intel X86 Linux

 Parts of Q-Chem use Armadillo 5.200.1 (Boston Tea Smuggler).
 http://arma.sourceforge.net/

 Q-Chem begins on Sun Oct 14 00:36:21 2018  

Host: 
0

     Scratch files written to /tmpu/cab_g/afmv_a/scratch_qchem/qchem42699//
 Dec716 11556_ 22328  22283 4050   
Processing $rem in /tmpu/appuserlic/qchem4.4/serial-multicore/config/preferences.
 MEM_TOTAL  2000 
FILE_GEOM_ORG=        593

Checking the input file for inconsistencies... 	...done.

--------------------------------------------------------------
User input:
--------------------------------------------------------------
$comment
SP
$end

$rem
MEM_STATIC 5000
MEM_TOTAL 20000
JOBTYPE SP
EXCHANGE B3LYP
BASIS 6-31g(d,p)
$end

$molecule
0 1
O           8.586000    -14.875000     -2.606000
C           7.495000    -14.919000     -3.545000
H           7.782000    -15.004000     -4.600000
H           6.913000    -13.990000     -3.502000
H           6.910000    -15.828000     -3.356000
O           9.800000    -13.203000     -3.771000
C           9.626000    -13.967000     -2.828000
C          10.579000    -13.923000     -1.596000
H          10.833000    -14.938000     -1.267000
H           9.850000    -13.522000     -0.881000
C          11.913000    -13.112000     -1.822000
H          11.609000    -12.317000     -2.514000
H          12.146000    -12.682000     -0.840000
C          13.129000    -13.896000     -2.394000
H          13.422000    -14.731000     -1.745000
H          12.798000    -14.468000     -3.270000
C          14.369000    -13.089000     -2.770000
C          14.024000    -12.138000     -3.846000
C          13.964000    -10.775000     -3.560000
H          14.109000    -10.409000     -2.548000
C          13.599000     -9.913000     -4.613000
H          13.563000     -8.833000     -4.498000
C          13.127000    -10.428000     -5.809000
H          12.674000     -9.716000     -6.493000
C          13.117000    -11.764000     -6.025000
H          12.793000    -12.176000     -6.976000
C          13.604000    -12.642000     -5.082000
H          13.581000    -13.725000     -5.155000
C          19.770000    -13.292000     -4.053000
C          19.639000    -11.155000     -2.967000
C          21.700000    -12.344000      0.820000
C          17.823000    -16.902000     -1.095000
C          18.755000    -12.828000      2.577000
C          19.029000    -12.150000     -3.812000
C          18.256000    -16.291000      1.590000
C          22.265000    -12.881000     -1.510000
C          16.593000    -11.144000     -0.374000
C          16.775000    -16.372000     -0.333000
C          15.405000    -12.695000     -1.754000
C          15.999000    -12.075000      0.470000
C          16.224000    -14.847000      1.200000
C          18.766000    -15.270000      2.423000
C          17.390000    -11.229000     -2.608000
C          20.775000    -13.927000      2.163000
C          15.751000    -13.720000     -2.782000
C          16.051000    -15.134000     -2.311000
C          20.153000    -12.743000      2.438000
C          21.292000    -16.265000     -1.120000
C          22.112000    -14.656000      0.202000
C          22.318000    -14.226000     -1.081000
C          21.627000    -12.515000     -2.692000
C          17.213000    -15.546000     -2.954000
C          16.372000    -11.503000     -1.699000
C          20.917000    -11.291000     -2.396000
C          16.982000    -16.024000      0.980000
C          18.586000    -10.588000     -2.263000
C          16.698000    -12.458000      1.602000
C          19.394000    -16.502000     -2.629000
C          21.926000    -11.928000     -0.518000
C          15.363000    -13.115000     -0.305000
C          21.104000    -14.851000     -3.052000
C          16.845000    -13.819000      1.959000
C          17.759000    -10.493000      0.031000
C          20.483000    -16.121000      1.198000
C          19.313000    -16.891000      0.825000
C          18.433000    -10.768000      1.252000
C          17.995000    -16.566000     -2.398000
C          15.909000    -15.466000     -0.904000
C          20.085000    -16.877000     -1.483000
C          16.950000    -13.381000     -3.644000
C          20.022000    -10.395000     -0.334000
C          15.640000    -14.455000      0.001000
C          17.910000    -11.866000      1.991000
C          19.926000    -15.450000     -3.414000
C          20.654000    -11.757000      1.521000
C          21.019000    -13.493000     -3.438000
C          21.750000    -13.651000      1.140000
C          18.765000    -10.219000     -0.951000
C          19.842000    -10.749000      0.983000
C          17.642000    -12.195000     -3.636000
C          17.704000    -14.541000     -3.814000
C          21.481000    -15.877000      0.204000
C          21.104000    -10.959000     -1.044000
C          18.052000    -14.060000      2.589000
C          19.055000    -17.245000     -0.499000
C          20.142000    -15.196000      2.170000
C          19.075000    -14.503000     -4.075000
C          21.808000    -15.260000     -1.890000
O          21.413000    -14.855000      7.239000
C          20.845000    -13.623000      7.723000
H          21.393000    -13.103000      8.518000
H          19.787000    -13.742000      7.986000
H          20.670000    -12.912000      6.906000
O          19.710000    -15.244000      5.828000
C          20.758000    -15.604000      6.314000
C          21.447000    -16.933000      6.097000
H          21.647000    -17.421000      7.059000
H          22.436000    -16.758000      5.654000
C          20.766000    -17.945000      5.043000
H          19.873000    -18.285000      5.581000
H          20.419000    -17.349000      4.190000
C          21.519000    -19.257000      4.597000
H          22.532000    -18.983000      4.276000
H          21.690000    -19.892000      5.476000
C          20.869000    -20.087000      3.539000
C          19.422000    -20.305000      3.837000
C          18.490000    -19.433000      3.419000
H          18.920000    -18.558000      2.939000
C          17.162000    -19.524000      3.713000
H          16.538000    -18.735000      3.303000
C          16.720000    -20.479000      4.651000
H          15.689000    -20.462000      4.991000
C          17.638000    -21.411000      5.094000
H          17.426000    -22.238000      5.765000
C          18.905000    -21.415000      4.589000
H          19.599000    -22.181000      4.921000
C          21.412000    -24.891000      0.854000
C          20.334000    -23.413000     -0.740000
C          23.925000    -22.857000     -3.469000
C          25.586000    -22.543000      2.546000
C          24.652000    -19.665000     -2.253000
C          20.492000    -23.800000      0.575000
C          26.653000    -20.915000      0.531000
C          23.176000    -24.805000     -2.333000
C          21.193000    -19.618000     -0.205000
C          25.383000    -21.167000      2.519000
C          21.374000    -20.067000      2.105000
C          22.338000    -18.924000      0.279000
C          24.951000    -19.304000      1.231000
C          26.437000    -20.529000     -0.823000
C          20.117000    -21.595000      0.558000
C          25.776000    -21.826000     -2.776000
C          21.689000    -21.206000      2.956000
C          23.086000    -21.552000      3.261000
C          24.785000    -20.834000     -3.038000
C          25.815000    -24.859000     -0.106000
C          25.507000    -24.189000     -2.224000
C          24.472000    -25.012000     -1.887000
C          22.024000    -25.049000     -1.507000
C          23.328000    -22.924000      3.244000
C          20.584000    -20.314000      0.844000
C          21.077000    -24.004000     -1.769000
C          25.879000    -20.319000      1.558000
C          20.100000    -22.051000     -0.720000
C          23.409000    -18.752000     -0.548000
C          24.701000    -24.596000      2.074000
C          22.868000    -23.730000     -3.102000
C          22.527000    -19.259000      1.636000
C          23.491000    -25.695000      0.264000
C          24.699000    -18.951000     -0.084000
C          21.131000    -20.055000     -1.544000
C          26.794000    -22.778000     -0.813000
C          26.908000    -22.307000      0.479000
C          22.234000    -19.790000     -2.370000
C          24.588000    -23.450000      2.905000
C          24.117000    -20.669000      2.880000
C          25.794000    -24.353000      1.209000
C          21.219000    -22.567000      2.501000
C          21.304000    -21.831000     -2.851000
C          23.826000    -19.524000      2.121000
C          23.397000    -19.179000     -1.899000
C          23.542000    -25.248000      1.594000
C          23.636000    -21.454000     -3.497000
C          22.176000    -25.482000     -0.164000
C          25.210000    -23.092000     -3.070000
C          20.587000    -21.263000     -1.823000
C          22.314000    -20.927000     -3.199000
C          20.437000    -22.668000      1.366000
C          22.191000    -23.559000      2.725000
C          26.371000    -24.090000     -1.102000
C          21.558000    -23.217000     -2.813000
C          25.459000    -19.486000     -1.118000
C          26.304000    -23.123000      1.494000
C          26.564000    -21.674000     -1.654000
C          22.337000    -24.678000      1.892000
C          24.648000    -25.458000     -0.599000
$end

--------------------------------------------------------------
 ----------------------------------------------------------------
             Standard Nuclear Orientation (Angstroms)
    I     Atom           X                Y                Z
 ----------------------------------------------------------------
    1      O       9.5822605844     4.7841768424     5.2613224250
    2      C      10.4117399517     5.9407246690     5.4810929961
    3      H      10.3547118425     6.7173962797     4.7089867832
    4      H      11.4713992739     5.6569094127     5.4946952439
    5      H      10.0677936941     6.4473391769     6.3917354684
    6      O      10.2738287936     4.4517468891     3.0168116235
    7      C       9.6419495262     4.1417486872     4.0207293025
    8      C       8.8476733993     2.8019446090     4.0656677756
    9      H       7.8653628752     2.9500164436     4.5305578337
   10      H       9.4840146643     2.2973368725     4.8031688446
   11      C       8.6482716659     2.1054665539     2.6644146695
   12      H       9.5624313705     2.3717004030     2.1196793467
   13      H       8.6465267897     1.0311054756     2.8863566187
   14      C       7.3890648798     2.5112875117     1.8457550209
   15      H       6.4596010979     2.3028097026     2.3906486629
   16      H       7.3275634340     3.6064567548     1.8150483274
   17      C       7.2733733218     1.9693985450     0.4233637909
   18      C       8.3995922316     2.4782071334    -0.3853059733
   19      C       9.4092887949     1.6013597534    -0.7787732811
   20      H       9.4101094462     0.5661375590    -0.4509938818
   21      C      10.4773130358     2.1428903110    -1.5211659509
   22      H      11.2900540806     1.5325668418    -1.9057153717
   23      C      10.6057027295     3.5143123523    -1.6665711476
   24      H      11.5509200449     3.8682884594    -2.0681606672
   25      C       9.6482339597     4.3473056191    -1.1964352391
   26      H       9.7158095414     5.4206975738    -1.3460489158
   27      C       8.5103373156     3.8573867224    -0.5943781803
   28      H       7.7253382688     4.4569252098    -0.1437374158
   29      C       3.9156555909     1.1587472665    -3.9271160843
   30      C       5.4077965465    -0.7088698447    -4.1481312302
   31      C       2.5249166633    -3.8649056194    -2.8323604418
   32      C       1.9142376739     1.2844168275     0.7152116166
   33      C       3.7197403172    -3.9692185441     0.4166155892
   34      C       5.2007687009     0.6696683862    -3.7835467857
   35      C       1.6154940060    -1.3021104798     1.7105325245
   36      C       2.1806524405    -1.9529931211    -4.3365435236
   37      C       6.8883139847    -1.6843999321    -0.5622847244
   38      C       2.8418700104     0.7928999131     1.6413635324
   39      C       6.7277169932     0.5990034900     0.1317054904
   40      C       6.4160416109    -1.6835801895     0.7449609040
   41      C       4.0616897926    -0.9780684002     2.2372040581
   42      C       1.9077975193    -2.6482165104     1.3959101946
   43      C       6.7184455855    -0.1541480256    -2.3685692616
   44      C       1.6843603321    -3.8207918660    -0.7212749317
   45      C       5.9228971179     1.7961341042    -0.2507448474
   46      C       4.5864167421     2.0115898426     0.4410904148
   47      C       2.9191938927    -4.4000395718    -0.6578464457
   48      C       0.1900999576    -0.2483742126    -1.9527943359
   49      C       0.6387183434    -2.3828852001    -2.4543612687
   50      C       1.0606081123    -1.6499744635    -3.5305935276
   51      C       3.0732637028    -0.9672983738    -4.7485811426
   52      C       3.6534655882     2.3098322099    -0.5458698857
   53      C       6.9972591946    -0.3770688889    -1.0231138517
   54      C       4.3903239129    -1.5514852618    -4.6303860372
   55      C       2.7357288607    -0.4944897643     2.1096410941
   56      C       6.3767840434    -1.1707919182    -3.2685829206
   57      C       5.4808428996    -2.6430047992     1.0937040598
   58      C       1.4903703090     1.7438199706    -1.4273294469
   59      C       2.9334479715    -3.0885914298    -3.9480729716
   60      C       6.1792209585    -0.3291493793     1.1878538470
   61      C       1.7175163174     0.6557011669    -3.5705121642
   62      C       4.3019179792    -2.3085335785     1.8005590906
   63      C       6.5624729426    -2.7428741591    -1.4113088266
   64      C       0.3968037646    -1.8700655775    -0.1154779088
   65      C       0.6301440661    -0.7769511733     0.8073342081
   66      C       5.7082534681    -3.8171966922    -1.0413329028
   67      C       2.2908025160     2.0916391564    -0.3079599386
   68      C       4.1751074009     1.1091432569     1.5024347443
   69      C       0.5637516642     0.7722011995    -1.0685023986
   70      C       5.5692926120     1.8850984923    -1.7213281300
   71      C       5.2620057435    -3.3096541699    -3.2145124988
   72      C       4.9425134667    -0.0109720866     1.7668899341
   73      C       5.0843360379    -3.6761507415     0.2299212339
   74      C       2.0822972173     1.6587233657    -2.7112040916
   75      C       3.5049986224    -4.3367968628    -1.9681590719
   76      C       2.8599553798     0.3235810580    -4.3353090144
   77      C       1.4548577975    -3.4930224838    -2.1044689957
   78      C       6.3043926479    -2.4577308330    -2.7909913426
   79      C       4.8745094553    -4.1162654193    -2.1697972654
   80      C       6.0176959172     1.0474953055    -2.7127308621
   81      C       4.2496610151     2.3220502513    -1.8245831969
   82      C       0.1234524734    -1.5577660242    -1.4834413808
   83      C       4.2778991790    -2.8548046303    -4.1187061539
   84      C       3.2402247750    -3.1209045426     1.4474430237
   85      C       0.7661980061     0.5403376922     0.3701896437
   86      C       1.1334481606    -2.9752862502     0.2750759267
   87      C       3.4529118717     2.0208457658    -2.9307805846
   88      C       0.7542419845    -0.3165135386    -3.1962901364
   89      O      -0.3287875320    -7.6201899645     2.2020474532
   90      C       0.8702119331    -8.4082373950     2.3288761961
   91      H       0.7691907252    -9.4910085453     2.1869947257
   92      H       1.4067147334    -8.1805104690     3.2578536945
   93      H       1.6617081604    -8.0474963769     1.6602697050
   94      O       0.7157882618    -5.7005540654     2.7181001886
   95      C      -0.3082254305    -6.2832454818     2.4424796683
   96      C      -1.7049006228    -5.7025440349     2.4308505344
   97      H      -2.3709713916    -6.2971230248     3.0683562644
   98      H      -2.1231857889    -5.7903511652     1.4197509213
   99      C      -1.8420168230    -4.1244025583     2.7299987039
  100      H      -1.6256689947    -4.0650136838     3.8033856699
  101      H      -1.0209507804    -3.6170240317     2.2087966467
  102      C      -3.2255507465    -3.3931834058     2.5339848436
  103      H      -3.6067018469    -3.6351461526     1.5337529366
  104      H      -3.9685949433    -3.8391332104     3.2078699179
  105      C      -3.2450878744    -1.9125752030     2.7293860987
  106      C      -2.5417140212    -1.5249419754     3.9884106035
  107      C      -1.2194648279    -1.2898116090     3.9985487280
  108      H      -0.7502163434    -1.4933710773     3.0397503120
  109      C      -0.4957636947    -1.0040515946     5.1178783863
  110      H       0.5668420917    -0.8443900217     4.9585858099
  111      C      -1.0996035272    -1.1202998620     6.3863801786
  112      H      -0.4920332405    -1.0303083163     7.2817068611
  113      C      -2.4624600969    -1.3407211531     6.4267958282
  114      H      -3.0686341239    -1.3902458829     7.3263592502
  115      C      -3.1807862900    -1.3904462466     5.2684069059
  116      H      -4.2566621111    -1.5245299274     5.3243424428
  117      C      -6.7137915083     2.3904789191     2.9146165544
  118      C      -4.6328662695     3.3126290745     2.0739065918
  119      C      -6.0101555725     3.9222045246    -2.2136743050
  120      C      -7.9104970485    -1.5994822636     0.0083561376
  121      C      -4.2954063185     1.1253924594    -3.4109738783
  122      C      -5.2597725187     2.4031460475     2.9008208427
  123      C      -7.0059059911    -1.1831358844    -2.6103207633
  124      C      -7.1994317470     4.2475148988    -0.1824194364
  125      C      -2.4273590683     0.7121712289     0.1246790580
  126      C      -6.7439127808    -2.1832477532    -0.4749791495
  127      C      -3.2939784032    -0.9646773239     1.5415812633
  128      C      -2.7217495599    -0.4226798100    -0.6830116985
  129      C      -4.8399048007    -1.9242818852    -1.7493524430
  130      C      -6.3358573190    -0.2214939180    -3.4197943611
  131      C      -3.3634552542     1.4645811813     2.1755513588
  132      C      -6.5382441267     2.2033660556    -3.5312963284
  133      C      -4.5018205433    -1.1916076657     2.3228411334
  134      C      -5.7048485808    -1.7621829982     1.6971276757
  135      C      -5.1164060491     2.2766561020    -3.4430124109
  136      C      -9.3182832727     1.5641588258    -0.6690757807
  137      C      -8.2394853256     3.0251372671    -1.9849120104
  138      C      -8.2592041958     3.5326461020    -0.7183540967
  139      C      -6.7979719299     4.1235483382     1.1932179820
  140      C      -6.8853433535    -1.1593950100     2.1264477576
  141      C      -2.7505235255     0.4399090047     1.4577717085
  142      C      -5.3643491038     4.1550214195     1.2280466741
  143      C      -6.2505927130    -2.0153322560    -1.7466240278
  144      C      -3.4655031400     2.7095281269     1.6452662170
  145      C      -3.1255371174    -0.2335309292    -1.9720936622
  146      C      -8.8034996245     0.1023096966     1.2441831979
  147      C      -6.0587857953     4.4383861521    -0.8925919348
  148      C      -3.3368891110    -1.4021780485     0.1241943059
  149      C      -8.5337375716     2.5122276784     1.5040384578
  150      C      -4.1787195240    -0.9644827800    -2.4969871849
  151      C      -2.4755771164     2.0122445790    -0.4186608945
  152      C      -8.2524879685     0.7507253866    -2.6668889374
  153      C      -8.2033981791    -0.5473625422    -2.2014225888
  154      C      -2.8301083792     2.1433680983    -1.7700395263
  155      C      -8.0207370350    -1.0812770902     1.2994194759
  156      C      -5.6296628074    -2.2628930145     0.3812828600
  157      C      -9.1611809114     0.2787923324    -0.1133295926
  158      C      -5.1425519131     0.0076643971     2.9796941087
  159      C      -3.6838657432     3.8624639548    -0.5139544179
  160      C      -4.4490942081    -2.1205052703    -0.3655574929
  161      C      -3.1959026713     1.0532844025    -2.5610155511
  162      C      -8.4694028439     1.2183006264     2.0452628356
  163      C      -4.7684246728     3.3566486173    -2.6506696008
  164      C      -7.4606065718     3.2166412049     2.0607874506
  165      C      -7.0755089754     3.2623562775    -2.7570649727
  166      C      -2.9860024294     3.0229074479     0.3236783577
  167      C      -3.5854843489     3.3327204720    -1.8055088859
  168      C      -4.5172322522     1.2374867252     2.8993052859
  169      C      -6.5454847605    -0.0286811699     2.8823163631
  170      C      -8.9161337859     1.7773323418    -1.9672844859
  171      C      -4.8923698857     4.4242104044    -0.0546999525
  172      C      -4.8780941233    -0.1517739857    -3.3820637836
  173      C      -8.6136949247    -0.7353250552    -0.8386226496
  174      C      -7.1267749674     0.9566004587    -3.4850470479
  175      C      -7.3286180295     1.1314096966     2.7914457712
  176      C      -8.9369912847     2.6672213692     0.1065584406
 ----------------------------------------------------------------
 Molecular Point Group                 C1    NOp =  1
 Largest Abelian Subgroup              C1    NOp =  1
 Nuclear Repulsion Energy = 34835.4654423198 hartrees
 There are      462 alpha and      462 beta electrons
 Requested basis set is 6-31G(d,p)
 There are 676 shells and 2360 basis functions

 Total QAlloc Memory Limit  20000 MB
 Mega-Array Size      4888 MB
 MEM_STATIC part      5000 MB
 A cutoff of  1.0D-08 yielded  37990 shell pairs
 There are    534627 function pairs
 
 -------------------------------------------------------
 OpenMP Integral Computing Module                       
 Release: version 1.0, May 2013, Q-Chem Inc. Pittsburgh 
 -------------------------------------------------------
 Integral Job Info:
 Integral job number is                      11
 Integral operator is                         1
 short-range coefficients                     0
 long-range coefficients              100000000
 Omega coefficients                           0
 if combine SR and LR in K                    0
 Integral screening is                        0
 Integral computing path is                   2
 max size of driver memory is            800000
 size of driver memory is                593474
 size of scratch memory is              2260544
 max col of scratch BK array               1296
 max len of scratch array in speh3          155
 max len of scratch index in speh4           18
 max int batch size is                      520
 min int batch size is                       52
 fixed nKL is                                52
 max L of basis functions is                  2
 order of int derivative is                   0
 number of shells is                        676
 number of basis is                        2360
 number of cartesian basis is              2360
 number of contracted shell pairs         37990
 number of primitive shell pairs         114815
 maxK2 (contraction) of shell pair           36
 max number of K2 of shell pair               1
 max number of CS2 of shell pair           7291
 max number of PS2 of shell pair          34866
 mem total for path MDJ                 1522760
 -------------------------------------------------------
 Smallest overlap matrix eigenvalue = 2.35E-04

 Scale SEOQF with 1.000000e-02/1.000000e-02/1.000000e-02

 Standard Electronic Orientation quadrupole field applied
 Nucleus-field energy     =     0.0000000910 hartrees
 Guess from superposition of atomic densities
 Warning:  Energy on first SCF cycle will be non-variational
 A restricted hybrid HF-DFT SCF calculation will be
 performed using Pulay DIIS extrapolation
 Exchange:     0.2000 Hartree-Fock + 0.0800 Slater + 0.7200 B88
 Correlation:  0.1900 VWN1RPA + 0.8100 LYP
 Using SG-1 standard quadrature grid
 SCF converges when DIIS error is below 1.0E-05
 using 16 threads for integral computing 
 -------------------------------------------------------
 OpenMP BLAS3 based DFT computing Module                
 Release: version 1.0, May 2013, Q-Chem Inc. Pittsburgh 
 -------------------------------------------------------
 ---------------------------------------
  Cycle       Energy         DIIS Error
 ---------------------------------------
    1   -5859.2100224827      1.84E-02
    2   -5803.0937765270      1.30E-03
    3   -5802.3517423458      1.79E-03
    4   -5804.0236371134      5.98E-04
    5   -5804.2092183374      2.67E-04
    6   -5804.2506391712      1.26E-04
    7   -5804.2613401625      4.32E-05
    8   -5804.2622330071      2.50E-05
    9   -5804.2626534794      8.46E-06 Convergence criterion met
 ---------------------------------------
 SCF time:  CPU 8314.22 s  wall 855.76 s
 SCF   energy in the final basis set = -5804.2626534794
 Total energy in the final basis set = -5804.2626534794
 
 --------------------------------------------------------------
 
                    Orbital Energies (a.u.)
 --------------------------------------------------------------
 
 Alpha MOs
 -- Occupied --
-19.201 -19.192 -19.148 -19.138 -10.327 -10.322 -10.249 -10.245
-10.238 -10.238 -10.234 -10.233 -10.233 -10.231 -10.226 -10.225
-10.224 -10.224 -10.223 -10.222 -10.221 -10.221 -10.220 -10.220
-10.219 -10.219 -10.218 -10.218 -10.218 -10.218 -10.217 -10.217
-10.217 -10.217 -10.217 -10.217 -10.216 -10.216 -10.216 -10.216
-10.216 -10.216 -10.216 -10.216 -10.215 -10.215 -10.215 -10.215
-10.215 -10.215 -10.215 -10.215 -10.214 -10.214 -10.214 -10.214
-10.214 -10.214 -10.214 -10.214 -10.214 -10.214 -10.213 -10.213
-10.213 -10.213 -10.213 -10.213 -10.213 -10.213 -10.213 -10.212
-10.212 -10.212 -10.212 -10.212 -10.211 -10.211 -10.211 -10.211
-10.211 -10.211 -10.211 -10.211 -10.211 -10.211 -10.211 -10.210
-10.210 -10.210 -10.210 -10.210 -10.210 -10.210 -10.210 -10.209
-10.209 -10.209 -10.209 -10.209 -10.209 -10.209 -10.209 -10.209
-10.209 -10.209 -10.209 -10.209 -10.208 -10.208 -10.208 -10.208
-10.208 -10.208 -10.208 -10.207 -10.207 -10.207 -10.206 -10.206
-10.206 -10.206 -10.205 -10.205 -10.205 -10.205 -10.204 -10.204
-10.204 -10.203 -10.203 -10.203 -10.203 -10.203 -10.198 -10.198
-10.197 -10.196 -10.195 -10.191 -10.191 -10.190 -10.189 -10.189
-10.188 -10.186 -10.184 -10.178  -1.098  -1.086  -1.018  -1.012
 -0.983  -0.982  -0.968  -0.965  -0.962  -0.961  -0.960  -0.960
 -0.938  -0.934  -0.927  -0.926  -0.924  -0.924  -0.922  -0.921
 -0.920  -0.920  -0.898  -0.898  -0.890  -0.887  -0.885  -0.884
 -0.875  -0.875  -0.859  -0.855  -0.842  -0.841  -0.839  -0.835
 -0.835  -0.835  -0.820  -0.819  -0.798  -0.797  -0.797  -0.796
 -0.795  -0.794  -0.793  -0.792  -0.791  -0.790  -0.783  -0.780
 -0.771  -0.770  -0.769  -0.768  -0.767  -0.765  -0.763  -0.761
 -0.752  -0.748  -0.742  -0.741  -0.734  -0.733  -0.716  -0.714
 -0.713  -0.713  -0.713  -0.712  -0.711  -0.708  -0.707  -0.707
 -0.706  -0.706  -0.705  -0.705  -0.702  -0.700  -0.673  -0.671
 -0.659  -0.659  -0.655  -0.655  -0.646  -0.644  -0.630  -0.629
 -0.628  -0.627  -0.624  -0.623  -0.621  -0.620  -0.618  -0.617
 -0.614  -0.614  -0.613  -0.612  -0.610  -0.609  -0.609  -0.606
 -0.604  -0.602  -0.602  -0.599  -0.567  -0.565  -0.563  -0.561
 -0.560  -0.558  -0.558  -0.556  -0.556  -0.555  -0.551  -0.550
 -0.538  -0.533  -0.533  -0.531  -0.528  -0.526  -0.525  -0.524
 -0.521  -0.521  -0.519  -0.517  -0.515  -0.513  -0.513  -0.512
 -0.506  -0.505  -0.500  -0.499  -0.492  -0.490  -0.485  -0.484
 -0.483  -0.483  -0.481  -0.481  -0.479  -0.478  -0.473  -0.472
 -0.472  -0.471  -0.470  -0.470  -0.468  -0.466  -0.465  -0.465
 -0.464  -0.462  -0.461  -0.461  -0.460  -0.459  -0.459  -0.456
 -0.454  -0.453  -0.451  -0.450  -0.448  -0.446  -0.443  -0.442
 -0.441  -0.440  -0.438  -0.438  -0.438  -0.435  -0.435  -0.431
 -0.431  -0.430  -0.428  -0.426  -0.426  -0.425  -0.423  -0.422
 -0.422  -0.421  -0.420  -0.420  -0.419  -0.418  -0.417  -0.416
 -0.416  -0.415  -0.415  -0.414  -0.413  -0.412  -0.412  -0.411
 -0.410  -0.407  -0.407  -0.405  -0.400  -0.399  -0.395  -0.395
 -0.392  -0.392  -0.391  -0.391  -0.389  -0.385  -0.384  -0.384
 -0.376  -0.375  -0.371  -0.370  -0.368  -0.368  -0.365  -0.365
 -0.364  -0.361  -0.360  -0.359  -0.359  -0.358  -0.356  -0.356
 -0.355  -0.354  -0.353  -0.353  -0.352  -0.352  -0.351  -0.350
 -0.348  -0.347  -0.346  -0.346  -0.344  -0.343  -0.342  -0.341
 -0.341  -0.340  -0.340  -0.338  -0.337  -0.336  -0.335  -0.333
 -0.332  -0.330  -0.328  -0.327  -0.326  -0.324  -0.321  -0.318
 -0.309  -0.306  -0.305  -0.297  -0.289  -0.285  -0.275  -0.274
 -0.271  -0.269  -0.268  -0.267  -0.265  -0.264  -0.263  -0.262
 -0.260  -0.259  -0.258  -0.258  -0.256  -0.255  -0.251  -0.251
 -0.246  -0.245  -0.243  -0.239  -0.222  -0.220  -0.213  -0.210
 -0.209  -0.207  -0.202  -0.202  -0.199  -0.197
 -- Virtual --
 -0.121  -0.119  -0.119  -0.116  -0.108  -0.106  -0.077  -0.075
 -0.073  -0.069  -0.057  -0.057  -0.050  -0.050  -0.025  -0.021
 -0.017  -0.016  -0.015  -0.014  -0.012  -0.012  -0.011  -0.010
 -0.008  -0.006  -0.005  -0.001   0.002   0.003   0.006   0.008
  0.009   0.011   0.036   0.039   0.042   0.047   0.048   0.048
  0.051   0.054   0.057   0.061   0.065   0.066   0.068   0.068
  0.072   0.074   0.083   0.086   0.088   0.090   0.091   0.093
  0.097   0.098   0.100   0.100   0.102   0.102   0.104   0.107
  0.109   0.114   0.115   0.115   0.116   0.121   0.122   0.123
  0.124   0.125   0.126   0.127   0.134   0.135   0.141   0.142
  0.143   0.147   0.149   0.151   0.152   0.154   0.154   0.159
  0.160   0.162   0.163   0.166   0.167   0.167   0.167   0.170
  0.171   0.176   0.178   0.179   0.179   0.183   0.184   0.186
  0.186   0.188   0.188   0.190   0.192   0.193   0.195   0.197
  0.197   0.198   0.200   0.203   0.204   0.207   0.209   0.210
  0.213   0.214   0.215   0.218   0.220   0.221   0.222   0.224
  0.224   0.226   0.226   0.228   0.229   0.230   0.230   0.231
  0.232   0.235   0.235   0.237   0.238   0.239   0.240   0.243
  0.244   0.247   0.248   0.248   0.254   0.261   0.263   0.264
  0.265   0.271   0.272   0.274   0.276   0.278   0.281   0.281
  0.284   0.287   0.290   0.293   0.294   0.302   0.308   0.308
  0.311   0.312   0.313   0.316   0.317   0.319   0.321   0.325
  0.325   0.328   0.329   0.331   0.332   0.333   0.334   0.337
  0.338   0.341   0.344   0.344   0.348   0.350   0.352   0.353
  0.356   0.357   0.365   0.368   0.376   0.380   0.392   0.394
  0.396   0.399   0.401   0.403   0.404   0.409   0.410   0.411
  0.414   0.417   0.418   0.419   0.421   0.422   0.427   0.428
  0.429   0.433   0.434   0.436   0.439   0.441   0.447   0.450
  0.452   0.454   0.456   0.456   0.458   0.461   0.467   0.468
  0.469   0.471   0.472   0.474   0.477   0.478   0.478   0.479
  0.480   0.481   0.483   0.483   0.485   0.487   0.487   0.489
  0.490   0.492   0.493   0.494   0.496   0.497   0.498   0.498
  0.499   0.501   0.502   0.503   0.504   0.505   0.506   0.508
  0.509   0.509   0.510   0.512   0.513   0.513   0.515   0.515
  0.517   0.517   0.518   0.519   0.520   0.521   0.521   0.522
  0.523   0.523   0.525   0.525   0.526   0.526   0.528   0.529
  0.530   0.531   0.531   0.532   0.533   0.534   0.535   0.535
  0.536   0.537   0.538   0.539   0.539   0.539   0.540   0.542
  0.543   0.543   0.544   0.544   0.546   0.547   0.548   0.549
  0.550   0.550   0.551   0.551   0.552   0.553   0.554   0.554
  0.555   0.556   0.556   0.557   0.557   0.559   0.559   0.560
  0.560   0.562   0.562   0.563   0.564   0.565   0.567   0.567
  0.568   0.568   0.570   0.572   0.572   0.574   0.574   0.575
  0.576   0.577   0.578   0.579   0.580   0.580   0.581   0.582
  0.584   0.585   0.586   0.586   0.587   0.588   0.589   0.589
  0.590   0.591   0.591   0.592   0.593   0.594   0.594   0.594
  0.596   0.597   0.597   0.598   0.600   0.602   0.603   0.604
  0.605   0.605   0.606   0.607   0.608   0.610   0.611   0.613
  0.613   0.615   0.616   0.617   0.618   0.619   0.621   0.621
  0.622   0.623   0.624   0.625   0.625   0.627   0.627   0.628
  0.628   0.630   0.631   0.632   0.632   0.634   0.635   0.636
  0.636   0.637   0.638   0.639   0.640   0.641   0.642   0.643
  0.643   0.644   0.645   0.647   0.648   0.650   0.650   0.651
  0.652   0.653   0.655   0.656   0.658   0.660   0.660   0.661
  0.662   0.662   0.664   0.664   0.664   0.666   0.666   0.668
  0.668   0.669   0.669   0.670   0.670   0.672   0.672   0.674
  0.674   0.675   0.676   0.677   0.678   0.679   0.680   0.681
  0.683   0.684   0.686   0.688   0.688   0.689   0.689   0.691
  0.692   0.694   0.694   0.696   0.698   0.698   0.702   0.702
  0.702   0.702   0.705   0.706   0.707   0.708   0.709   0.711
  0.712   0.714   0.714   0.716   0.717   0.717   0.719   0.720
  0.722   0.722   0.723   0.724   0.725   0.725   0.728   0.728
  0.730   0.731   0.732   0.734   0.735   0.735   0.737   0.739
  0.739   0.740   0.742   0.742   0.745   0.746   0.747   0.748
  0.750   0.751   0.752   0.753   0.755   0.758   0.759   0.760
  0.762   0.764   0.766   0.767   0.769   0.769   0.770   0.771
  0.773   0.774   0.775   0.777   0.778   0.779   0.780   0.781
  0.782   0.783   0.784   0.785   0.787   0.787   0.789   0.790
  0.791   0.793   0.794   0.795   0.796   0.798   0.798   0.800
  0.802   0.802   0.803   0.804   0.806   0.807   0.807   0.809
  0.810   0.810   0.811   0.812   0.813   0.814   0.814   0.816
  0.817   0.817   0.818   0.819   0.820   0.820   0.821   0.822
  0.823   0.823   0.824   0.825   0.826   0.827   0.827   0.828
  0.829   0.830   0.831   0.832   0.833   0.835   0.835   0.836
  0.839   0.840   0.842   0.844   0.845   0.847   0.850   0.850
  0.853   0.856   0.859   0.862   0.865   0.867   0.872   0.875
  0.878   0.879   0.883   0.887   0.888   0.889   0.891   0.893
  0.900   0.901   0.906   0.907   0.909   0.910   0.912   0.915
  0.917   0.918   0.920   0.923   0.926   0.926   0.928   0.930
  0.933   0.933   0.935   0.936   0.938   0.939   0.941   0.943
  0.944   0.946   0.949   0.949   0.951   0.953   0.956   0.956
  0.960   0.962   0.967   0.968   0.969   0.971   0.974   0.980
  0.982   0.985   0.987   0.989   0.990   0.993   0.996   0.997
  0.999   1.000   1.001   1.002   1.004   1.005   1.009   1.011
  1.011   1.012   1.015   1.018   1.020   1.022   1.023   1.024
  1.026   1.028   1.030   1.032   1.033   1.033   1.036   1.037
  1.039   1.041   1.042   1.044   1.045   1.045   1.048   1.049
  1.050   1.054   1.055   1.057   1.059   1.060   1.061   1.063
  1.064   1.066   1.068   1.070   1.071   1.072   1.074   1.075
  1.078   1.080   1.082   1.083   1.085   1.087   1.087   1.088
  1.092   1.094   1.096   1.097   1.098   1.099   1.101   1.103
  1.104   1.107   1.108   1.112   1.114   1.116   1.118   1.118
  1.121   1.122   1.124   1.126   1.129   1.132   1.134   1.135
  1.136   1.137   1.143   1.144   1.147   1.149   1.151   1.153
  1.153   1.157   1.158   1.159   1.162   1.163   1.165   1.166
  1.167   1.169   1.171   1.173   1.173   1.175   1.176   1.178
  1.179   1.181   1.183   1.185   1.187   1.189   1.190   1.190
  1.193   1.194   1.197   1.198   1.201   1.202   1.204   1.207
  1.211   1.212   1.214   1.219   1.219   1.223   1.224   1.228
  1.231   1.233   1.236   1.239   1.240   1.247   1.249   1.250
  1.255   1.258   1.260   1.261   1.262   1.264   1.266   1.268
  1.271   1.271   1.273   1.276   1.278   1.279   1.279   1.281
  1.284   1.287   1.289   1.292   1.293   1.294   1.296   1.301
  1.303   1.305   1.307   1.308   1.311   1.313   1.317   1.318
  1.321   1.323   1.326   1.328   1.328   1.330   1.335   1.338
  1.339   1.340   1.343   1.347   1.349   1.352   1.354   1.355
  1.357   1.358   1.360   1.364   1.365   1.368   1.371   1.374
  1.376   1.378   1.380   1.381   1.382   1.384   1.387   1.390
  1.393   1.395   1.396   1.399   1.401   1.404   1.407   1.410
  1.411   1.421   1.421   1.424   1.426   1.428   1.430   1.435
  1.438   1.440   1.443   1.446   1.446   1.449   1.451   1.455
  1.456   1.457   1.460   1.462   1.464   1.465   1.466   1.468
  1.470   1.470   1.473   1.475   1.477   1.479   1.480   1.481
  1.484   1.486   1.486   1.489   1.490   1.493   1.497   1.500
  1.503   1.504   1.506   1.510   1.511   1.514   1.522   1.524
  1.526   1.527   1.532   1.532   1.533   1.537   1.541   1.542
  1.545   1.546   1.548   1.549   1.550   1.553   1.555   1.557
  1.559   1.561   1.563   1.564   1.567   1.568   1.572   1.573
  1.577   1.579   1.581   1.583   1.587   1.591   1.592   1.594
  1.596   1.599   1.601   1.605   1.608   1.610   1.613   1.616
  1.619   1.627   1.628   1.631   1.640   1.641   1.644   1.646
  1.649   1.655   1.656   1.657   1.659   1.666   1.667   1.672
  1.677   1.679   1.687   1.689   1.692   1.693   1.696   1.697
  1.701   1.704   1.706   1.709   1.710   1.713   1.715   1.719
  1.721   1.722   1.723   1.726   1.727   1.730   1.731   1.733
  1.735   1.737   1.740   1.742   1.744   1.747   1.747   1.750
  1.751   1.753   1.754   1.755   1.756   1.759   1.760   1.761
  1.764   1.765   1.767   1.768   1.771   1.771   1.773   1.774
  1.775   1.776   1.778   1.778   1.780   1.782   1.782   1.783
  1.784   1.787   1.787   1.790   1.791   1.792   1.793   1.794
  1.796   1.796   1.797   1.798   1.800   1.801   1.803   1.805
  1.806   1.807   1.808   1.809   1.812   1.814   1.815   1.816
  1.818   1.819   1.822   1.823   1.824   1.827   1.830   1.832
  1.832   1.835   1.837   1.839   1.843   1.845   1.846   1.847
  1.849   1.850   1.852   1.855   1.856   1.857   1.859   1.860
  1.864   1.864   1.867   1.868   1.869   1.870   1.871   1.874
  1.876   1.877   1.879   1.880   1.883   1.885   1.888   1.890
  1.892   1.894   1.896   1.899   1.901   1.903   1.904   1.907
  1.909   1.911   1.911   1.914   1.918   1.921   1.922   1.924
  1.927   1.930   1.930   1.932   1.937   1.938   1.940   1.940
  1.942   1.943   1.944   1.945   1.948   1.950   1.953   1.954
  1.958   1.959   1.962   1.963   1.965   1.966   1.970   1.975
  1.977   1.978   1.980   1.981   1.985   1.987   1.988   1.989
  1.991   1.993   1.994   1.994   1.998   1.999   2.000   2.001
  2.002   2.004   2.005   2.008   2.009   2.009   2.012   2.013
  2.014   2.014   2.015   2.016   2.018   2.019   2.019   2.021
  2.022   2.023   2.025   2.025   2.027   2.028   2.028   2.030
  2.030   2.032   2.034   2.035   2.036   2.037   2.040   2.041
  2.041   2.042   2.044   2.045   2.047   2.049   2.049   2.050
  2.052   2.053   2.055   2.056   2.056   2.058   2.059   2.061
  2.063   2.065   2.066   2.066   2.067   2.068   2.070   2.071
  2.073   2.075   2.076   2.077   2.078   2.080   2.080   2.082
  2.086   2.087   2.090   2.091   2.093   2.094   2.097   2.097
  2.099   2.100   2.101   2.105   2.106   2.108   2.111   2.113
  2.114   2.116   2.118   2.120   2.121   2.126   2.129   2.131
  2.131   2.135   2.137   2.140   2.141   2.144   2.149   2.152
  2.154   2.161   2.162   2.166   2.167   2.172   2.176   2.183
  2.187   2.196   2.200   2.203   2.204   2.205   2.210   2.212
  2.213   2.216   2.217   2.219   2.224   2.226   2.228   2.230
  2.231   2.233   2.236   2.240   2.245   2.247   2.249   2.251
  2.254   2.254   2.258   2.259   2.263   2.264   2.267   2.269
  2.269   2.271   2.277   2.280   2.282   2.284   2.286   2.289
  2.289   2.293   2.296   2.297   2.299   2.300   2.303   2.305
  2.306   2.307   2.309   2.313   2.321   2.322   2.324   2.324
  2.329   2.329   2.332   2.335   2.337   2.339   2.341   2.345
  2.347   2.349   2.351   2.355   2.356   2.357   2.359   2.362
  2.363   2.367   2.367   2.370   2.371   2.371   2.374   2.375
  2.376   2.377   2.379   2.380   2.382   2.383   2.384   2.385
  2.389   2.390   2.393   2.395   2.397   2.398   2.399   2.403
  2.403   2.406   2.406   2.407   2.411   2.412   2.412   2.414
  2.417   2.419   2.421   2.423   2.423   2.425   2.427   2.429
  2.431   2.432   2.434   2.438   2.441   2.445   2.448   2.451
  2.452   2.456   2.459   2.460   2.463   2.465   2.466   2.468
  2.469   2.471   2.471   2.474   2.477   2.480   2.480   2.482
  2.483   2.485   2.488   2.490   2.492   2.495   2.496   2.498
  2.500   2.502   2.504   2.506   2.509   2.510   2.511   2.513
  2.516   2.516   2.519   2.521   2.522   2.524   2.525   2.527
  2.529   2.531   2.534   2.536   2.540   2.542   2.543   2.547
  2.549   2.552   2.553   2.555   2.559   2.560   2.565   2.566
  2.568   2.575   2.581   2.582   2.587   2.591   2.592   2.596
  2.597   2.601   2.602   2.604   2.604   2.608   2.611   2.611
  2.614   2.615   2.616   2.619   2.621   2.624   2.625   2.627
  2.627   2.629   2.631   2.631   2.633   2.633   2.637   2.637
  2.640   2.641   2.643   2.644   2.648   2.649   2.652   2.652
  2.655   2.657   2.657   2.658   2.660   2.662   2.662   2.664
  2.667   2.669   2.671   2.673   2.673   2.676   2.679   2.681
  2.683   2.684   2.687   2.688   2.690   2.691   2.695   2.698
  2.699   2.701   2.703   2.705   2.706   2.709   2.710   2.716
  2.718   2.720   2.721   2.726   2.726   2.730   2.731   2.733
  2.736   2.738   2.741   2.744   2.744   2.748   2.754   2.755
  2.757   2.759   2.760   2.762   2.764   2.766   2.766   2.769
  2.771   2.771   2.777   2.778   2.779   2.781   2.783   2.784
  2.786   2.788   2.789   2.789   2.792   2.794   2.798   2.801
  2.804   2.808   2.809   2.810   2.817   2.819   2.824   2.827
  2.829   2.831   2.834   2.835   2.839   2.840   2.842   2.846
  2.848   2.853   2.856   2.856   2.859   2.860   2.864   2.866
  2.866   2.869   2.870   2.875   2.878   2.880   2.883   2.884
  2.885   2.888   2.889   2.891   2.893   2.895   2.897   2.899
  2.901   2.902   2.904   2.905   2.906   2.909   2.911   2.913
  2.915   2.917   2.919   2.920   2.922   2.924   2.926   2.927
  2.927   2.930   2.932   2.934   2.935   2.935   2.939   2.940
  2.946   2.947   2.950   2.952   2.954   2.957   2.959   2.961
  2.964   2.968   2.971   2.974   2.975   2.979   2.985   2.989
  2.995   2.998   2.999   3.001   3.003   3.005   3.011   3.011
  3.014   3.017   3.018   3.020   3.022   3.025   3.028   3.034
  3.035   3.037   3.038   3.039   3.047   3.047   3.049   3.052
  3.055   3.057   3.061   3.064   3.066   3.069   3.076   3.078
  3.080   3.084   3.092   3.097   3.098   3.103   3.107   3.120
  3.126   3.132   3.135   3.136   3.144   3.151   3.159   3.166
  3.168   3.172   3.177   3.182   3.186   3.190   3.195   3.198
  3.199   3.204   3.207   3.212   3.234   3.240   3.242   3.245
  3.251   3.258   3.260   3.262   3.267   3.275   3.281   3.287
  3.297   3.308   3.318   3.321   3.322   3.328   3.334   3.339
  3.341   3.346   3.354   3.355   3.358   3.391   3.395   3.398
  3.405   3.412   3.422   3.426   3.428   3.439   3.448   3.448
  3.452   3.457   3.476   3.479   3.484   3.488   3.489   3.495
  3.500   3.504   3.527   3.536   3.541   3.544   3.546   3.553
  3.555   3.562   3.569   3.579   3.586   3.595   3.600   3.606
  3.625   3.630   3.693   3.693   3.913   3.924   3.966   4.021
  4.074   4.081   4.085   4.088   4.090   4.095   4.096   4.099
  4.103   4.107   4.109   4.118   4.121   4.124   4.131   4.139
  4.142   4.142   4.146   4.147   4.149   4.151   4.155   4.156
  4.159   4.159   4.161   4.167   4.170   4.175   4.179   4.181
  4.189   4.198   4.201   4.209   4.211   4.228   4.239   4.243
  4.245   4.247   4.251   4.254   4.257   4.261   4.263   4.265
  4.272   4.277   4.281   4.284   4.288   4.295   4.299   4.305
  4.310   4.313   4.322   4.339   4.378   4.382   4.389   4.394
  4.397   4.400   4.402   4.410   4.415   4.419   4.421   4.425
  4.427   4.429   4.436   4.440   4.443   4.448   4.456   4.461
  4.469   4.490   4.515   4.518   4.536   4.545   4.551   4.553
  4.562   4.567   4.600   4.629   4.634   4.634   4.639   4.645
  4.645   4.649   4.673   4.682   4.694   4.700   4.701   4.704
  4.710   4.710   4.714   4.723   4.730   4.743   4.773   4.826
  4.857   4.863   4.868   4.872   4.881   4.881   4.894   4.898
  4.906   4.919   4.960   4.969   4.972   4.979   4.987   4.994
  4.998   4.999   5.006   5.018   5.176   5.185   5.190   5.192
  5.199   5.210   5.215   5.217   5.330   5.336   5.342   5.354
  5.365   5.371
 --------------------------------------------------------------
 
          Ground-State Mulliken Net Atomic Charges

     Atom                 Charge (a.u.)
  ----------------------------------------
      1 O                    -0.472634
      2 C                    -0.089144
      3 H                     0.129133
      4 H                     0.127040
      5 H                     0.126636
      6 O                    -0.458673
      7 C                     0.593455
      8 C                    -0.266984
      9 H                     0.126070
     10 H                     0.138083
     11 C                    -0.182071
     12 H                     0.145151
     13 H                     0.100786
     14 C                    -0.184067
     15 H                     0.098643
     16 H                     0.112777
     17 C                     0.007862
     18 C                     0.095133
     19 C                    -0.104909
     20 H                     0.094582
     21 C                    -0.103115
     22 H                     0.084598
     23 C                    -0.068446
     24 H                     0.087374
     25 C                    -0.082758
     26 H                     0.085381
     27 C                    -0.086045
     28 H                     0.087117
     29 C                    -0.014819
     30 C                     0.014995
     31 C                     0.009428
     32 C                     0.023864
     33 C                     0.004523
     34 C                    -0.001774
     35 C                    -0.014895
     36 C                     0.010785
     37 C                     0.026862
     38 C                     0.006235
     39 C                    -0.099679
     40 C                    -0.037382
     41 C                    -0.047340
     42 C                     0.015053
     43 C                    -0.025182
     44 C                     0.001874
     45 C                    -0.098235
     46 C                     0.001154
     47 C                    -0.034970
     48 C                     0.028376
     49 C                    -0.011476
     50 C                     0.013091
     51 C                    -0.023377
     52 C                     0.021193
     53 C                     0.052902
     54 C                    -0.027678
     55 C                    -0.005848
     56 C                     0.005656
     57 C                     0.020235
     58 C                    -0.024472
     59 C                    -0.020000
     60 C                     0.010142
     61 C                     0.010869
     62 C                    -0.008765
     63 C                     0.005907
     64 C                     0.017104
     65 C                    -0.016987
     66 C                    -0.044261
     67 C                    -0.010645
     68 C                    -0.025090
     69 C                     0.007677
     70 C                     0.060368
     71 C                     0.008242
     72 C                     0.065299
     73 C                     0.004591
     74 C                     0.008222
     75 C                     0.010153
     76 C                     0.025182
     77 C                    -0.001676
     78 C                    -0.009355
     79 C                    -0.004973
     80 C                    -0.001802
     81 C                     0.023883
     82 C                     0.001525
     83 C                     0.022160
     84 C                     0.031264
     85 C                    -0.022087
     86 C                     0.011917
     87 C                    -0.034370
     88 C                    -0.037479
     89 O                    -0.466123
     90 C                    -0.090647
     91 H                     0.129221
     92 H                     0.127196
     93 H                     0.125400
     94 O                    -0.471435
     95 C                     0.612874
     96 C                    -0.284576
     97 H                     0.136607
     98 H                     0.137343
     99 C                    -0.196791
    100 H                     0.126870
    101 H                     0.120405
    102 C                    -0.178762
    103 H                     0.103079
    104 H                     0.108318
    105 C                     0.006712
    106 C                     0.099275
    107 C                    -0.087108
    108 H                     0.085657
    109 C                    -0.096053
    110 H                     0.090990
    111 C                    -0.094920
    112 H                     0.091400
    113 C                    -0.078912
    114 H                     0.089277
    115 C                    -0.119541
    116 H                     0.078093
    117 C                    -0.028007
    118 C                     0.009045
    119 C                     0.000500
    120 C                     0.002941
    121 C                    -0.002843
    122 C                    -0.029090
    123 C                    -0.015842
    124 C                     0.016936
    125 C                     0.003520
    126 C                     0.015126
    127 C                    -0.080923
    128 C                     0.015976
    129 C                    -0.028738
    130 C                    -0.014446
    131 C                     0.008586
    132 C                    -0.029829
    133 C                    -0.088693
    134 C                     0.054170
    135 C                     0.015300
    136 C                    -0.008724
    137 C                    -0.012000
    138 C                     0.028911
    139 C                    -0.028019
    140 C                    -0.012436
    141 C                     0.024615
    142 C                     0.010310
    143 C                     0.009964
    144 C                    -0.002250
    145 C                     0.003990
    146 C                    -0.019000
    147 C                    -0.015665
    148 C                     0.041011
    149 C                     0.000342
    150 C                     0.025819
    151 C                     0.016084
    152 C                     0.029996
    153 C                    -0.021408
    154 C                    -0.009604
    155 C                    -0.012944
    156 C                    -0.016444
    157 C                     0.017718
    158 C                     0.014064
    159 C                     0.002975
    160 C                    -0.031431
    161 C                     0.009695
    162 C                    -0.008471
    163 C                    -0.003272
    164 C                    -0.004407
    165 C                     0.005596
    166 C                    -0.003638
    167 C                    -0.017726
    168 C                     0.029326
    169 C                     0.008365
    170 C                    -0.014362
    171 C                    -0.001839
    172 C                    -0.023650
    173 C                    -0.005767
    174 C                     0.019043
    175 C                     0.030206
    176 C                     0.000397
  ----------------------------------------
  Sum of atomic charges =     0.000000

 -----------------------------------------------------------------
                    Cartesian Multipole Moments
 -----------------------------------------------------------------
    Charge (ESU x 10^10)
                 0.0000
    Dipole Moment (Debye)
         X       3.5091      Y      -0.9199      Z       3.8408
       Tot       5.2832
    Quadrupole Moments (Debye-Ang)
        XX    -791.6196     XY      23.5086     YY    -776.0278
        XZ      16.2395     YZ       3.4439     ZZ    -790.9967
    Octopole Moments (Debye-Ang^2)
       XXX     687.0290    XXY     116.1078    XYY     255.9610
       YYY    -143.0084    XXZ     261.7345    XYZ     142.4695
       YYZ     189.2678    XZZ     194.0855    YZZ      46.8714
       ZZZ     327.8712
    Hexadecapole Moments (Debye-Ang^3)
      XXXX -148557.3271   XXXY    2884.5084   XXYY  -29928.4438
      XYYY    1971.6062   YYYY  -33585.7305   XXXZ    2342.9346
      XXYZ    1035.1240   XYYZ    1136.5674   YYYZ      48.2463
      XXZZ  -28824.3595   XYZZ    1415.4518   YYZZ  -10759.2086
      XZZZ    1320.6474   YZZZ     333.7635   ZZZZ  -30594.5867
 -----------------------------------------------------------------
Archival summary:
1\1\mn251\SP\ProcedureUnspecified\6-31G**\428\afmv_a\SunOct1400:50:532018SunOct1400:50:532018\0\\#,ProcedureUnspecified,6-31G**,\\0,1\C\C,1,1.39846\C,2,1.39314,1,116.719\C,3,1.35702,2,120.432,1,8.61568,0\C,3,1.38079,2,121.112,1,-130.086,0\C,5,1.38201,3,123.706,2,-0.407866,0\C,5,1.38207,3,108.107,2,148.886,0\C,7,1.37984,5,108.129,3,-5.67675,0\C,8,1.40006,7,121.418,5,-140.445,0\C,9,1.39308,8,119.707,7,140.846,0\C,6,1.40678,5,118.047,3,137.389,0\C,11,1.40191,6,107.453,5,-141.08,0\C,12,1.39328,11,108.04,6,3.54274,0\C,11,1.40263,6,122.678,5,4.04312,0\C,14,1.36592,11,123.663,6,-144.421,0\C,15,1.40403,14,107.907,11,144.199,0\C,16,1.39921,15,105.988,14,5.47398,0\C,17,1.40332,16,110.724,15,-1.12544,0\C,12,1.40684,11,117.893,6,146.588,0\C,19,1.39554,12,117.354,11,-135.949,0\C,20,1.39116,19,122.921,12,-0.312566,0\C,21,1.37428,20,124.836,19,140.101,0\C,20,1.39951,19,106.913,12,141.161,0\C,23,1.3617,20,109.848,19,0.740723,0\C,21,1.40751,20,118.44,19,-0.498309,0\C,25,1.4042,21,109.65,20,146.071,0\C,24,1.40915,23,120.936,20,-147.892,0\C,27,1.37569,24,118.746,23,-0.462801,0\C,27,1.40133,24,117.994,23,134.445,0\C,29,1.37435,27,107.316,24,-136.99,0\C,30,1.3646,29,109.271,27,-1.72708,0\C,30,1.38614,29,118.017,27,144.74,0\C,32,1.35715,30,120.85,29,-139.495,0\C,28,1.40847,27,119.573,24,5.64797,0\C,34,1.37989,28,122.336,27,-12.4145,0\C,34,1.40677,28,124.004,27,137.247,0\C,36,1.37947,34,119.549,28,-6.24375,0\C,10,1.40959,9,120.895,8,0.176903,0\C,38,1.37604,10,118.661,9,-1.00777,0\C,39,1.3539,38,108.233,10,-141.174,0\C,38,1.39944,10,120.785,9,-136.833,0\C,40,1.40325,39,111.286,38,0.571415,0\C,42,1.39561,40,122.619,39,139.786,0\C,43,1.3916,42,120.849,40,-135.556,0\C,44,1.40411,43,105.556,42,144.11,0\C,45,1.39032,44,109.637,43,-2.18507,0\C,46,1.38468,45,120.578,44,-145.569,0\C,46,1.38528,45,108.374,44,1.34184,0\C,48,1.36402,46,120.663,45,-145.263,0\C,49,1.41046,48,120.534,46,-2.39349,0\C,15,1.41378,14,117.174,11,5.2245,0\C,44,1.41438,43,120.973,42,3.54332,0\C,52,1.38394,44,118.443,43,-2.76992,0\C,35,1.41612,34,110.795,28,149.302,0\C,31,1.4168,30,117.093,29,144.881,0\C,55,1.36589,31,120.322,30,-2.77867,0\C,17,1.41924,16,115.884,15,-142.147,0\C,36,1.42046,34,107.306,28,-148.898,0\C,13,1.47117,12,113.203,11,-9.32402,0\C,59,1.45628,13,120.697,12,139.335,0\C,59,1.50481,13,127.735,12,-144.329,0\C,61,1.49336,59,119.786,13,141.934,0\C,62,1.34303,61,121.032,59,130.633,0\H,63,1.0867,62,112.685,61,4.71483,0\C,63,1.3632,62,124.442,61,176.252,0\H,65,1.08628,63,115.45,62,-179.676,0\C,65,1.40969,63,119.615,62,-8.62408,0\H,67,1.08575,65,119.702,63,-171.421,0\C,67,1.38116,65,117.527,63,8.89655,0\H,69,1.08587,67,125.617,65,176.049,0\C,69,1.36394,67,120.043,65,2.34408,0\H,71,1.08564,69,118.859,67,177.547,0\C,61,1.49357,59,116.778,13,2.87761,0\H,73,1.0974,61,109.468,59,-46.3671,0\H,73,1.09777,61,108.273,59,65.907,0\C,73,1.57711,61,117.054,59,-170.186,0\H,76,1.09658,73,105.642,61,-69.3953,0\H,76,1.09692,73,112.528,61,47.0175,0\C,76,1.61209,73,120.36,61,175.376,0\H,79,1.09708,76,111.782,73,60.3265,0\H,79,1.09772,76,102.522,73,-51.7698,0\C,79,1.51263,76,116.932,73,-171.106,0\O,82,1.21,79,126.748,76,-3.9309,0\O,82,1.35855,79,111.251,76,-178.879,0\C,84,1.44038,82,120.679,79,172.328,0\H,85,1.09667,84,111.605,82,-46.5871,0\H,85,1.09669,84,116.878,82,-175.965,0\H,85,1.0971,84,111.53,82,58.8457,0\C,64,2.72029,63,142.511,62,-174.353,0\C,89,1.41295,64,102.811,63,-119.066,0\C,90,1.40102,89,106.631,64,-79.54,0\C,91,1.38445,90,109.475,89,-0.929832,0\C,90,1.41473,89,120.334,64,142.287,0\C,93,1.38269,90,122.424,89,-0.00631638,0\C,94,1.4147,93,111.923,90,145.516,0\C,95,1.38445,94,121.664,93,-147.443,0\C,96,1.38994,95,117.777,94,132.481,0\C,97,1.39045,96,109.741,95,-139.218,0\C,98,1.39201,97,117.079,96,145.078,0\C,97,1.39549,96,119.559,95,9.06376,0\C,99,1.40011,98,123.636,97,1.8168,0\C,101,1.37461,99,117.99,98,-0.484084,0\C,101,1.38777,99,109.64,98,-142.198,0\C,95,1.40383,94,104.245,93,-2.53996,0\C,103,1.40635,101,121.538,99,144.836,0\C,105,1.40467,103,119.269,101,-5.89406,0\C,106,1.37525,105,106.33,103,-138.721,0\C,104,1.40814,95,110.2,94,0.685547,0\C,108,1.40746,104,120.91,95,-147.391,0\C,109,1.36542,108,114.834,104,136.649,0\C,102,1.41128,101,119.986,99,-138.963,0\C,111,1.37557,102,109.519,101,144.029,0\C,112,1.40173,111,118.472,102,-137.838,0\C,113,1.38928,112,123.115,111,-5.12297,0\C,114,1.34653,113,108.552,112,143.33,0\C,107,1.41675,106,110.437,105,0.269531,0\C,116,1.39217,107,107.938,106,0.751608,0\C,117,1.3721,116,118.509,107,136.568,0\C,118,1.40664,117,121.959,116,-139.045,0\C,119,1.38251,118,121.181,117,7.22516,0\C,119,1.39643,118,108.959,117,147.304,0\C,121,1.39614,119,120.623,118,-139.714,0\C,122,1.39392,121,122.095,119,-5.98564,0\C,123,1.37314,122,116.544,121,5.21011,0\C,122,1.41092,121,118.364,119,135.416,0\C,125,1.39048,122,111.2,121,-152.428,0\C,125,1.40038,122,124.506,121,3.91709,0\C,127,1.35657,125,119.404,122,-137.333,0\C,128,1.39995,127,121.598,125,-7.93542,0\C,129,1.37402,128,120.215,127,141.042,0\C,129,1.37726,128,119.61,127,1.34746,0\C,131,1.3833,129,109.379,128,138.518,0\C,132,1.39008,131,106.052,129,7.39478,0\C,132,1.40213,131,126.45,129,-148.393,0\C,128,1.41092,127,110.808,125,143.899,0\C,135,1.39458,128,120.058,127,-143.176,0\C,116,1.41275,107,115.897,106,141.191,0\C,137,1.36873,116,125.316,107,2.16509,0\C,138,1.37441,137,110.46,116,-145.089,0\C,139,1.39257,138,107.966,137,-1.08624,0\C,140,1.36718,139,106.227,138,0.389772,0\C,140,1.40113,139,119.008,138,139.605,0\C,142,1.38976,140,121.607,139,-134.511,0\C,118,1.41435,117,120.621,116,3.48865,0\C,144,1.37023,118,107.216,117,-146.497,0\C,100,1.42153,97,123.725,96,-3.10207,0\C,134,1.50923,132,118.034,131,2.40651,0\C,147,1.49236,134,118.468,132,0.591863,0\C,147,1.50359,134,123.825,132,-71.8465,0\C,149,1.47689,147,118.981,134,-145.999,0\C,150,1.39397,149,119.353,147,37.7717,0\H,151,1.08588,150,120.999,149,3.64892,0\C,150,1.39933,149,118.797,147,-150.111,0\H,153,1.0857,150,115.152,149,0.964487,0\C,153,1.37743,150,118.766,149,-171.63,0\H,155,1.08587,153,117.595,150,179.778,0\C,155,1.35339,153,121.155,150,-4.63062,0\H,157,1.08628,155,122.919,153,174.58,0\C,157,1.38507,155,120.489,153,1.66056,0\H,159,1.0867,157,116.719,155,178.968,0\C,149,1.52651,147,122.126,134,-3.49489,0\H,161,1.09732,149,108.903,147,152.639,0\H,161,1.09739,149,109.332,147,45.4875,0\C,161,1.55579,149,117.326,147,-83.4313,0\H,164,1.09695,161,110.48,149,-55.2805,0\H,164,1.09705,161,111.138,149,66.9228,0\C,164,1.57745,161,117.037,149,-172.964,0\H,167,1.09681,164,108.839,161,-35.7866,0\H,167,1.09703,164,117.867,161,-158.128,0\C,167,1.55819,164,114.737,161,88.7881,0\O,170,1.22606,167,120.247,164,13.9774,0\O,170,1.39834,167,110.346,164,-170.564,0\C,172,1.44012,170,118.67,167,-171.179,0\H,173,1.09664,172,115.555,170,-50.4524,0\H,173,1.09709,172,110.516,170,67.2924,0\H,173,1.09737,172,108.474,170,-166.645,0\\\@

 Total job time:  871.45s(wall), 8340.38s(cpu) 
 Sun Oct 14 00:50:53 2018

        *************************************************************
        *                                                           *
        *  Thank you very much for using Q-Chem.  Have a nice day.  *
        *                                                           *
        *************************************************************


