
Running Job 1 of 1 ./10/9.qcin
qchem ./10/9.qcin_42868.0 /tmpu/cab_g/afmv_a/scratch_qchem/qchem42868/ 1
/tmpu/appuserlic/qchem4.4/serial-multicore/exe/qcprog.exe_s ./10/9.qcin_42868.0 /tmpu/cab_g/afmv_a/scratch_qchem/qchem42868/
Check license passed

                  Welcome to Q-Chem
     A Quantum Leap Into The Future Of Chemistry


 Q-Chem 4.4, Q-Chem, Inc., Pleasanton, CA (2016)

 Y. Shao,  Z. Gan,  E. Epifanovsky,  A. T. B. Gilbert,  M. Wormit,  
 J. Kussmann,  A. W. Lange,  A. Behn,  J. Deng,  X. Feng,  D. Ghosh,  
 M. Goldey,  P. R. Horn,  L. D. Jacobson,  I. Kaliman,  F. Rob,  
 R. Z. Khaliullin,  T. Kus,  A. Landau,  J. Liu,  E. I. Proynov,  Y. M. Rhee,  
 R. M. Richard,  M. A. Rohrdanz,  R. P. Steele,  E. J. Sundstrom,  
 H. L. Woodcock III,  P. M. Zimmerman,  D. Zuev,  B. Albrecht,  E. Alguire,  
 B. Austin,  S. A. Baeppler,  G. J. O. Beran,  Y. A. Bernard,  E. Berquist,  
 K. Brandhorst,  K. B. Bravaya,  S. T. Brown,  D. Casanova,  C.-M. Chang,  
 Y. Chen,  S. H. Chien,  K. D. Closser,  M. P. Coons,  D. L. Crittenden,  
 S. Dasgupta,  M. Diedenhofen,  R. A. DiStasio Jr.,  H. Do,  A. D. Dutoi,  
 R. G. Edgar,  P.-T. Fang,  S. Fatehi,  Q. Feng,  L. Fusti-Molnar,  
 A. Ghysels,  A. Golubeva-Zadorozhnaya,  J. Gomes,  A. Gunina,  
 M. W. D. Hanson-Heine,  P. H. P. Harbach,  A. W. Hauser,  J. E. Herr,  
 E. G. Hohenstein,  Z. C. Holden,  K. Hui,  T.-C. Jagau,  H. Ji,  B. Kaduk,  
 K. Khistyaev,  Jaehoon Kim,  Jihan Kim,  R. A. King,  P. Klunzinger,  
 K. Koh,  D. Kosenkov,  T. Kowalczyk,  C. M. Krauter,  A. Kunitsa,  
 K. U. Lao,  A. Laurent,  K. V. Lawler,  J. Lee,  D. Lefrancois,  S. Lehtola,  
 S. V. Levchenko,  C. Y. Lin,  Y.-S. Lin,  F. Liu,  E. Livshits,  
 R. C. Lochan,  A. Luenser,  P. Manohar,  S. F. Manzer,  S.-P. Mao,  Y. Mao,  
 N. Mardirossian,  A. V. Marenich,  L. A. Martinez-Martinez,  S. A. Maurer,  
 N. J. Mayhall,  J.-M. Mewes,  A. F. Morrison,  K. Nanda,  T. S. Nguyen-Beck,  
 C. M. Oana,  R. Olivares-Amaya,  D. P. O'Neill,  J. A. Parkhill,  
 T. M. Perrine,  R. Peverati,  P. A. Pieniazek,  F. Plasser,  A. Prociuk,  
 D. R. Rehn,  E. Rosta,  N. J. Russ,  N. Sergueev,  S. M. Sharada,  
 S. Sharma,  D. W. Small,  A. Sodt,  T. Stauch,  T. Stein,  D. Stuck,  
 Y.-C. Su,  A. J. W. Thom,  T. Tsuchimochi,  L. Vogt,  O. Vydrov,  T. Wang,  
 M. A. Watson,  J. Wenzel,  A. White,  C. F. Williams,  V. Vanovschi,  
 K. Yao,  S. Yeganeh,  S. R. Yost,  Z.-Q. You,  I. Y. Zhang,  X. Zhang,  
 Y. Zhao,  B. R. Brooks,  G. K. L. Chan,  D. M. Chipman,  C. J. Cramer,  
 W. A. Goddard III,  M. S. Gordon,  W. J. Hehre,  A. Klamt,  
 H. F. Schaefer III,  M. W. Schmidt,  C. D. Sherrill,  D. G. Truhlar,  
 A. Warshel,  X. Xu,  A. Aspuru-Guzik,  R. Baer,  A. T. Bell,  N. A. Besley,  
 J.-D. Chai,  A. Dreuw,  B. D. Dunietz,  T. R. Furlani,  S. R. Gwaltney,  
 C.-P. Hsu,  Y. Jung,  J. Kong,  D. S. Lambrecht,  W. Liang,  C. Ochsenfeld,  
 V. A. Rassolov,  L. V. Slipchenko,  J. E. Subotnik,  T. Van Voorhis,  
 J. M. Herbert,  A. I. Krylov,  P. M. W. Gill,  M. Head-Gordon

 Contributors to earlier versions of Q-Chem not listed above: 
 R. D. Adamson,  J. Baker,  E. F. C. Byrd,  A. K. Chakraborty,  C.-L. Cheng,  
 H. Dachsel,  R. J. Doerksen,  G. Hawkins,  A. Heyden,  S. Hirata,  
 G. Kedziora,  F. J. Keil,  C. Kelley,  P. P. Korambath,  W. Kurlancheek,  
 A. M. Lee,  M. S. Lee,  D. Liotard,  I. Lotan,  P. E. Maslen,  N. Nair,  
 D. Neuhauser,  R. Olson,  B. Peters,  J. Ritchie,  N. E. Schultz,  
 N. Shenvi,  A. C. Simmonett,  K. S. Thanthiriwatte,  Q. Wu,  W. Zhang

 Please cite Q-Chem as follows:
 Y. Shao et al., Mol. Phys. 113, 184-215 (2015)
 DOI: 10.1080/00268976.2014.952696

 Q-Chem 4.4.2 for Intel X86 Linux

 Parts of Q-Chem use Armadillo 5.200.1 (Boston Tea Smuggler).
 http://arma.sourceforge.net/

 Q-Chem begins on Sun Oct 14 01:07:34 2018  

Host: 
0

     Scratch files written to /tmpu/cab_g/afmv_a/scratch_qchem/qchem42868//
 Dec716 11556_ 22328  22283 4050   
Processing $rem in /tmpu/appuserlic/qchem4.4/serial-multicore/config/preferences.
 MEM_TOTAL  2000 
FILE_GEOM_ORG=        593

Checking the input file for inconsistencies... 	...done.

--------------------------------------------------------------
User input:
--------------------------------------------------------------
$comment
SP
$end

$rem
MEM_STATIC 5000
MEM_TOTAL 20000
JOBTYPE SP
EXCHANGE B3LYP
BASIS 6-31g(d,p)
$end

$molecule
0 1
O         -11.272000    -15.779000     14.585000
C         -10.722000    -14.427000     14.297000
H         -11.340000    -13.796000     13.646000
H          -9.899000    -14.689000     13.620000
H         -10.455000    -13.907000     15.225000
O         -11.872000    -16.243000     12.436000
C         -11.832000    -16.530000     13.617000
C         -12.517000    -17.722000     14.271000
H         -12.732000    -17.429000     15.306000
H         -11.845000    -18.580000     14.388000
C         -13.837000    -18.105000     13.488000
H         -14.377000    -17.165000     13.317000
H         -13.505000    -18.514000     12.525000
C         -14.581000    -19.220000     14.322000
H         -13.856000    -19.957000     14.689000
H         -15.062000    -18.714000     15.168000
C         -15.598000    -19.960000     13.441000
C         -16.563000    -19.006000     12.922000
C         -16.458000    -18.487000     11.605000
H         -15.681000    -19.006000     11.052000
C         -17.161000    -17.323000     11.185000
H         -17.041000    -16.888000     10.197000
C         -18.020000    -16.731000     12.078000
H         -18.505000    -15.826000     11.725000
C         -18.231000    -17.307000     13.367000
H         -18.742000    -16.825000     14.196000
C         -17.466000    -18.428000     13.818000
H         -17.451000    -18.690000     14.872000
C         -19.280000    -24.047000     13.581000
C         -18.797000    -23.772000     11.163000
C         -16.470000    -27.633000     10.743000
C         -14.820000    -24.742000     16.140000
C         -13.382000    -26.099000     10.906000
C         -18.981000    -23.196000     12.472000
C         -13.083000    -26.107000     14.474000
C         -18.513000    -27.215000     12.023000
C         -15.049000    -22.396000     10.655000
C         -13.843000    -24.010000     15.473000
C         -15.276000    -21.204000     12.687000
C         -13.816000    -22.535000     11.327000
C         -12.767000    -23.889000     13.505000
C         -12.932000    -26.645000     13.195000
C         -17.347000    -22.034000     11.417000
C         -14.539000    -28.037000     11.855000
C         -16.096000    -21.327000     13.898000
C         -15.478000    -22.202000     15.010000
C         -14.282000    -27.200000     10.781000
C         -16.899000    -27.527000     15.154000
C         -16.624000    -28.387000     13.033000
C         -17.925000    -27.930000     13.128000
C         -19.158000    -25.991000     12.182000
C         -16.503000    -23.009000     15.578000
C         -15.952000    -21.761000     11.432000
C         -18.888000    -25.157000     11.066000
C         -12.986000    -24.697000     14.629000
C         -17.787000    -23.057000     10.567000
C         -13.175000    -23.773000     11.124000
C         -17.072000    -25.281000     15.968000
C         -17.798000    -27.118000     10.774000
C         -13.961000    -21.946000     12.578000
C         -18.806000    -26.100000     14.553000
C         -12.568000    -24.447000     12.242000
C         -15.523000    -23.445000      9.797000
C         -14.652000    -27.793000     14.273000
C         -14.104000    -26.834000     15.149000
C         -14.818000    -24.667000      9.562000
C         -16.199000    -24.249000     16.164000
C         -14.211000    -22.795000     14.855000
C         -16.350000    -26.513000     15.971000
C         -17.482000    -21.894000     13.785000
C         -17.053000    -25.118000      9.505000
C         -13.456000    -22.712000     13.684000
C         -13.641000    -24.837000     10.275000
C         -18.322000    -25.084000     15.364000
C         -15.484000    -26.971000     10.036000
C         -19.347000    -25.412000     13.447000
C         -15.933000    -28.294000     11.852000
C         -16.913000    -23.705000      9.675000
C         -15.781000    -25.682000      9.443000
C         -18.116000    -22.106000     12.570000
C         -17.691000    -22.763000     14.888000
C         -16.000000    -28.190000     14.311000
C         -18.042000    -25.853000     10.161000
C         -12.702000    -25.821000     12.087000
C         -14.975000    -26.151000     15.996000
C         -13.885000    -27.794000     13.074000
C         -18.605000    -23.824000     14.770000
C         -18.063000    -27.331000     14.381000
O          -9.119000    -28.894000      1.243000
C          -8.618000    -28.381000     -0.025000
H          -7.596000    -28.699000     -0.265000
H          -8.553000    -27.287000      0.036000
H          -9.144000    -28.765000     -0.907000
O          -7.886000    -27.496000      2.518000
C          -8.689000    -28.363000      2.466000
C          -9.275000    -28.935000      3.734000
H          -8.861000    -28.368000      4.576000
H          -9.074000    -30.014000      3.748000
C         -10.817000    -28.781000      3.848000
H         -11.258000    -28.450000      2.900000
H         -11.304000    -29.727000      4.114000
C         -11.159000    -27.769000      4.983000
H         -10.914000    -28.159000      5.979000
H         -10.670000    -26.798000      4.836000
C         -12.657000    -27.689000      5.116000
C         -13.241000    -28.860000      6.001000
C         -13.885000    -29.982000      5.399000
H         -14.128000    -29.916000      4.343000
C         -14.503000    -30.993000      6.087000
H         -14.937000    -31.846000      5.572000
C         -14.566000    -30.869000      7.457000
H         -15.170000    -31.646000      7.918000
C         -13.977000    -29.814000      8.170000
H         -14.046000    -29.753000      9.252000
C         -13.267000    -28.811000      7.426000
H         -12.808000    -27.961000      7.921000
C         -16.998000    -27.015000      1.677000
C         -17.897000    -26.304000      3.802000
C         -18.045000    -21.882000      2.914000
C         -12.688000    -24.494000      0.504000
C         -15.039000    -21.146000      4.579000
C         -17.073000    -27.123000      3.056000
C         -13.018000    -22.012000      1.733000
C         -18.652000    -23.782000      1.523000
C         -14.973000    -24.879000      6.141000
C         -12.096000    -24.247000      1.785000
C         -13.480000    -26.424000      5.059000
C         -13.841000    -24.184000      5.840000
C         -12.282000    -23.142000      3.808000
C         -13.798000    -21.184000      2.489000
C         -15.966000    -26.709000      5.048000
C         -16.131000    -20.758000      2.465000
C         -13.356000    -27.166000      3.785000
C         -12.706000    -26.448000      2.614000
C         -16.232000    -20.880000      3.847000
C         -15.849000    -23.419000     -0.616000
C         -17.153000    -22.070000      0.689000
C         -17.813000    -23.290000      0.512000
C         -18.576000    -25.124000      1.780000
C         -13.373000    -26.679000      1.436000
C         -14.857000    -26.219000      5.697000
C         -18.634000    -25.294000      3.190000
C         -12.233000    -22.980000      2.378000
C         -17.242000    -26.064000      5.074000
C         -13.882000    -22.771000      5.500000
C         -14.539000    -25.478000     -0.284000
C         -18.772000    -23.125000      2.781000
C         -12.895000    -25.050000      5.228000
C         -16.964000    -25.489000      0.040000
C         -13.022000    -22.261000      4.535000
C         -16.173000    -24.192000      6.108000
C         -14.807000    -21.585000      0.526000
C         -13.568000    -22.271000      0.518000
C         -16.256000    -22.820000      5.869000
C         -13.367000    -25.703000      0.370000
C         -12.142000    -25.176000      2.825000
C         -14.605000    -24.103000     -0.658000
C         -14.613000    -27.589000      3.161000
C         -18.118000    -23.780000      4.998000
C         -12.235000    -24.489000      4.094000
C         -15.080000    -22.088000      5.598000
C         -15.758000    -26.168000      0.034000
C         -17.363000    -21.603000      4.093000
C         -17.737000    -25.944000      1.085000
C         -17.274000    -21.356000      1.871000
C         -17.337000    -24.786000      5.597000
C         -17.396000    -22.583000      5.101000
C         -15.894000    -27.386000      3.825000
C         -14.581000    -27.382000      1.735000
C         -15.926000    -22.166000      0.020000
C         -18.751000    -24.056000      3.783000
C         -13.845000    -21.288000      3.877000
C         -13.421000    -23.522000     -0.087000
C         -14.911000    -20.883000      1.728000
C         -15.778000    -27.113000      1.041000
C         -16.994000    -24.079000     -0.299000
$end

--------------------------------------------------------------
 ----------------------------------------------------------------
             Standard Nuclear Orientation (Angstroms)
    I     Atom           X                Y                Z
 ----------------------------------------------------------------
    1      O       7.8240340031     6.4252568462    -5.1420120214
    2      C       7.7937743486     7.7723351558    -5.7727357177
    3      H       7.3821364076     8.5754466340    -5.1486746958
    4      H       6.9837547190     7.6316053735    -6.4996231422
    5      H       8.7792388593     8.0394828721    -6.1731914528
    6      O       5.7105539261     6.5230619037    -4.2951748854
    7      C       6.7806648605     5.9608775847    -4.4276187587
    8      C       7.2170887659     4.6895272405    -3.7127708889
    9      H       8.3095289317     4.7393337965    -3.6267895477
   10      H       7.0542108135     3.7905446350    -4.3183598977
   11      C       6.5255580282     4.5822687909    -2.2941592916
   12      H       6.6398547548     5.5658884212    -1.8210106035
   13      H       5.4623379716     4.3959928821    -2.4935042116
   14      C       7.1604870213     3.3460919365    -1.5451272774
   15      H       7.2608853621     2.5016845800    -2.2382213471
   16      H       8.1503460232     3.6630237475    -1.1946327929
   17      C       6.2567621631     2.8983902173    -0.3871572643
   18      C       6.0874318682     4.0034546022     0.5406692046
   19      C       4.9226075887     4.8144764979     0.5232656797
   20      H       4.1784483160     4.3977389244    -0.1486389055
   21      C       4.8669366902     6.0841611404     1.1638175197
   22      H       3.9988397281     6.7344209742     1.1060350575
   23      C       5.9659227683     6.4953868642     1.8772017109
   24      H       5.8899336091     7.4852582836     2.3167915434
   25      C       7.1028565661     5.6419942835     2.0072810809
   26      H       8.0742396598     5.9414715491     2.3912267187
   27      C       7.1911956075     4.4029700972     1.2985623218
   28      H       8.1472819895     3.8967695553     1.2013777474
   29      C       5.8768587077    -0.8812564877     3.5940783668
   30      C       3.5482096966    -0.0663474785     3.3314853552
   31      C       1.9817787075    -3.8452459288     1.3911579450
   32      C       7.6709749355    -2.4263815038    -1.0229381640
   33      C       2.1345400887    -2.5779077973    -1.8160194778
   34      C       4.9670305065     0.1906395600     3.3357481377
   35      C       5.5449811158    -3.4540199720    -2.4651792872
   36      C       3.5519710321    -3.6256470799     3.2548224559
   37      C       2.9396590428     1.1691908929    -0.4503204350
   38      C       7.0819952809    -1.6149464626    -1.9872607970
   39      C       5.2040290398     1.8534250168    -0.5269310129
   40      C       3.4136594636     0.8019953611    -1.7276947116
   41      C       5.0837195180    -1.0913572097    -2.8694111638
   42      C       4.1677386311    -3.6793920176    -2.4428952227
   43      C       4.0261075505     1.4729621147     1.7221999182
   44      C       2.7386997246    -4.6151267081    -0.5995392092
   45      C       6.4407937712     1.4934253162     0.1765341353
   46      C       7.2415212976     0.3438511800    -0.4726251162
   47      C       1.8643317833    -3.5626889316    -0.8185127914
   48      C       6.3174453348    -4.7692455281     1.3707217499
   49      C       4.0380940162    -5.1132315259     1.3805807532
   50      C       4.3863217124    -4.6166938276     2.6226205214
   51      C       4.0627695156    -2.4392678476     3.7754674660
   52      C       7.7231329114    -0.5138686850     0.5554142248
   53      C       3.9416049885     1.6523387669     0.3145556685
   54      C       3.1456246771    -1.3804838819     3.5480166819
   55      C       6.0086686664    -2.1298313778    -2.6955104019
   56      C       3.0200700376     0.7097445147     2.3288434856
   57      C       2.8575885392    -0.3872284874    -2.2388363407
   58      C       7.6419484431    -2.7759909687     1.2723918089
   59      C       2.2846887568    -3.2756410632     2.6614200436
   60      C       4.7749176595     1.0831316890    -1.7574518833
   61      C       6.2873557053    -3.1309469840     3.2008177842
   62      C       3.7117487954    -1.3427431656    -2.8946190459
   63      C       1.9238435233     0.3846680132     0.1930174867
   64      C       5.1440951743    -4.9485919605    -0.7475346694
   65      C       6.1479510730    -4.2599392843    -1.4584438241
   66      C       1.3331176903    -0.7851624673    -0.3797596402
   67      C       7.9679693315    -1.8734473676     0.3004378859
   68      C       6.8079083919    -0.2682237479    -1.6635521210
   69      C       7.2768713022    -4.0132657858     0.6600302260
   70      C       6.3617660218     1.0518925529     1.6097324585
   71      C       1.4335140820    -1.0778852927     1.8799104490
   72      C       5.6081079526     0.0472682022    -2.3031603881
   73      C       1.8460793734    -1.1889067829    -1.6030579845
   74      C       7.2489929201    -2.3677914201     2.5550001223
   75      C       1.3369656941    -3.0926561073     0.4277713464
   76      C       5.4403549039    -2.1685873449     3.7887927559
   77      C       2.8383695133    -4.7819133766     0.8045769329
   78      C       1.9073925797     0.2431164712     1.6052060462
   79      C       1.0958554371    -1.6843182633     0.6723717574
   80      C       5.2126808785     1.1732455903     2.3765451957
   81      C       7.2511971540    -0.0412918023     1.7809376766
   82      C       5.2457440317    -5.2635631279     0.6187075029
   83      C       2.0125680454    -1.8889026607     2.8574734068
   84      C       3.2606600612    -2.6298673094    -2.6306353484
   85      C       7.2248787777    -3.7488274944    -0.7362731677
   86      C       3.8964771336    -4.7085538726    -1.3891902943
   87      C       6.9986025509    -0.9881470454     2.7882619119
   88      C       5.7510058078    -4.3267505002     2.5848821234
   89      O      -8.3403416688    -3.2326655989    -4.8503080909
   90      C      -9.5051870402    -2.4623337413    -5.2646969055
   91      H      -9.9290462874    -2.7732118507    -6.2274565535
   92      H      -9.2014794903    -1.4201806963    -5.4273645268
   93      H     -10.3847743227    -2.5934482692    -4.6234549910
   94      O      -6.9292932652    -2.2537136780    -6.3169074019
   95      C      -7.0862685642    -3.0347471852    -5.4425233810
   96      C      -5.9251626064    -3.8572952695    -4.9388850147
   97      H      -5.0290080982    -3.5326863973    -5.4805354347
   98      H      -6.1838365112    -4.9183689121    -5.0486508381
   99      C      -5.6004838200    -3.6448992673    -3.4342429895
  100      H      -6.3887920954    -3.0721430831    -2.9309871733
  101      H      -5.5051515933    -4.5968506774    -2.8980142330
  102      C      -4.2308584030    -2.9145156482    -3.2928252187
  103      H      -3.3870302656    -3.5444345360    -3.6015277768
  104      H      -4.2056923651    -1.9668242702    -3.8449291243
  105      C      -3.9099998785    -2.7809614438    -1.8274562953
  106      C      -3.2572923646    -4.0929548183    -1.2373984282
  107      C      -4.0228894208    -4.9993352992    -0.4447070812
  108      H      -4.9996431177    -4.6693058542    -0.1047456408
  109      C      -3.5196509684    -6.1072584266     0.1850916198
  110      H      -4.1635365905    -6.7859184104     0.7382841107
  111      C      -2.1601972314    -6.3100647599     0.1014248519
  112      H      -1.8239157226    -7.1378400268     0.7201080136
  113      C      -1.2964320152    -5.4918820855    -0.6420815453
  114      H      -0.2290453303    -5.6867299040    -0.6859676755
  115      C      -1.8662976852    -4.3837472213    -1.3568788877
  116      H      -1.2453282341    -3.7046900037    -1.9326255647
  117      C      -6.5729324244    -1.0533113754     2.7604946087
  118      C      -4.2516361840    -0.8181773607     3.3814960253
  119      C      -4.0724387057     3.6888620743     3.2435982569
  120      C      -7.6250938587     1.4178420445    -1.6091537858
  121      C      -2.6431463716     3.8292571374     0.0362052891
  122      C      -5.2568997220    -1.4824582292     2.7073824244
  123      C      -5.8270052023     3.5501011441    -1.6128028605
  124      C      -5.7840141781     2.2142844838     4.1432983914
  125      C      -2.0027681656    -0.1658015934     0.1306006880
  126      C      -6.3992982708     1.3171380763    -2.3438087304
  127      C      -3.5777541828    -1.4929054408    -1.1123845991
  128      C      -2.2646890507     0.5134110717    -1.0205368388
  129      C      -4.1684490351     1.9167811487    -2.4528494264
  130      C      -4.8151134003     4.2181452590    -0.9840644080
  131      C      -3.3654900915    -1.6209820294     1.3776118553
  132      C      -4.4691850233     4.7734411967     1.2956112223
  133      C      -4.9940825696    -1.9156430310    -1.0466363651
  134      C      -6.0352346533    -0.9784438727    -1.6356398255
  135      C      -3.1504644562     4.3315300741     1.2691607863
  136      C      -8.0921798152     2.9121130745     1.5453558113
  137      C      -6.3689050564     3.9849722788     2.5953744937
  138      C      -6.7446602988     2.8831808753     3.3700955409
  139      C      -5.8540752892     0.8476353035     4.1555645507
  140      C      -7.1491254716    -0.8823999777    -0.8381708198
  141      C      -2.7542392839    -1.3656893287     0.1724645252
  142      C      -4.5243673968     0.3499987186     4.0877504648
  143      C      -5.5182789168     2.4119590132    -2.3734569018
  144      C      -3.0434641672    -0.9272099564     2.5858571180
  145      C      -2.2625010858     1.9666296879    -1.0652678838
  146      C      -8.3984220741     0.7602705099     0.3870837121
  147      C      -4.4032121871     2.5582056928     4.0823306642
  148      C      -3.1655012365    -0.2355293845    -1.8249257989
  149      C      -7.8064047797     0.8143467632     2.7603332316
  150      C      -3.1769937181     2.6407758153    -1.8653648930
  151      C      -1.7368780081     0.5783037247     1.2657956932
  152      C      -6.6868859256     4.3566168577     0.2445707006
  153      C      -6.9966829184     3.6209742950    -0.9253168338
  154      C      -1.6416953546     1.9701519237     1.2561596593
  155      C      -7.9545643791     0.3175724015    -0.8207795796
  156      C      -5.6034934554     0.1712691694    -2.3229246711
  157      C      -8.4349429956     2.1862243500     0.3737095499
  158      C      -5.5485453841    -2.1032821352     0.2971331664
  159      C      -2.4883963144     1.3562824494     3.2695018441
  160      C      -4.2082799276     0.5400676981    -2.4142803330
  161      C      -1.8712082418     2.6755012493     0.0553069774
  162      C      -8.1088238077     0.0869453600     1.6223776393
  163      C      -2.9482524654     3.6382317633     2.4271131874
  164      C      -6.8120405068     0.1693448952     3.4616115524
  165      C      -5.0482629990     4.4023303668     2.5381225704
  166      C      -2.2324100606     0.1925074266     2.5205714506
  167      C      -2.1966345043     2.4497939640     2.4425740276
  168      C      -4.7115190777    -1.9898264650     1.4843908357
  169      C      -6.8821583148    -1.5644403884     0.3891935985
  170      C      -7.1798136819     3.9795951154     1.4531379651
  171      C      -3.6523586663     1.4155363730     4.0407155733
  172      C      -3.4927141362     3.7890901241    -1.0661672543
  173      C      -7.8867660426     2.5439395169    -0.9057434143
  174      C      -5.3516635239     4.7565775301     0.1694934165
  175      C      -7.3516087502    -1.0680867950     1.6220988662
  176      C      -7.8052197521     2.2637746263     2.7048493122
 ----------------------------------------------------------------
 Molecular Point Group                 C1    NOp =  1
 Largest Abelian Subgroup              C1    NOp =  1
 Nuclear Repulsion Energy = 34402.3028174857 hartrees
 There are      462 alpha and      462 beta electrons
 Requested basis set is 6-31G(d,p)
 There are 676 shells and 2360 basis functions

 Total QAlloc Memory Limit  20000 MB
 Mega-Array Size      4888 MB
 MEM_STATIC part      5000 MB
 A cutoff of  1.0D-08 yielded  37071 shell pairs
 There are    521879 function pairs
 
 -------------------------------------------------------
 OpenMP Integral Computing Module                       
 Release: version 1.0, May 2013, Q-Chem Inc. Pittsburgh 
 -------------------------------------------------------
 Integral Job Info:
 Integral job number is                      11
 Integral operator is                         1
 short-range coefficients                     0
 long-range coefficients              100000000
 Omega coefficients                           0
 if combine SR and LR in K                    0
 Integral screening is                        0
 Integral computing path is                   2
 max size of driver memory is            800000
 size of driver memory is                593474
 size of scratch memory is              2260544
 max col of scratch BK array               1296
 max len of scratch array in speh3          155
 max len of scratch index in speh4           18
 max int batch size is                      520
 min int batch size is                       52
 fixed nKL is                                52
 max L of basis functions is                  2
 order of int derivative is                   0
 number of shells is                        676
 number of basis is                        2360
 number of cartesian basis is              2360
 number of contracted shell pairs         37071
 number of primitive shell pairs         112600
 maxK2 (contraction) of shell pair           36
 max number of K2 of shell pair               1
 max number of CS2 of shell pair           7086
 max number of PS2 of shell pair          34062
 mem total for path MDJ                 1480120
 -------------------------------------------------------
 Smallest overlap matrix eigenvalue = 2.40E-04

 Scale SEOQF with 1.000000e-02/1.000000e-02/1.000000e-02

 Standard Electronic Orientation quadrupole field applied
 Nucleus-field energy     =     0.0000001056 hartrees
 Guess from superposition of atomic densities
 Warning:  Energy on first SCF cycle will be non-variational
 A restricted hybrid HF-DFT SCF calculation will be
 performed using Pulay DIIS extrapolation
 Exchange:     0.2000 Hartree-Fock + 0.0800 Slater + 0.7200 B88
 Correlation:  0.1900 VWN1RPA + 0.8100 LYP
 Using SG-1 standard quadrature grid
 SCF converges when DIIS error is below 1.0E-05
 using 16 threads for integral computing 
 -------------------------------------------------------
 OpenMP BLAS3 based DFT computing Module                
 Release: version 1.0, May 2013, Q-Chem Inc. Pittsburgh 
 -------------------------------------------------------
 ---------------------------------------
  Cycle       Energy         DIIS Error
 ---------------------------------------
    1   -5858.3205840832      1.83E-02
    2   -5803.1155729759      1.29E-03
    3   -5802.3807509722      1.76E-03
    4   -5803.9338501682      6.58E-04
    5   -5804.1748748996      3.18E-04
    6   -5804.2452317522      1.29E-04
    7   -5804.2556514404      4.94E-05
    8   -5804.2566934439      3.22E-05
    9   -5804.2574576189      8.69E-06 Convergence criterion met
 ---------------------------------------
 SCF time:  CPU 8104.27 s  wall 833.43 s
 SCF   energy in the final basis set = -5804.2574576189
 Total energy in the final basis set = -5804.2574576189
 
 --------------------------------------------------------------
 
                    Orbital Energies (a.u.)
 --------------------------------------------------------------
 
 Alpha MOs
 -- Occupied --
-19.192 -19.181 -19.135 -19.132 -10.316 -10.312 -10.253 -10.242
-10.241 -10.241 -10.238 -10.237 -10.236 -10.236 -10.231 -10.230
-10.230 -10.228 -10.226 -10.225 -10.224 -10.224 -10.224 -10.224
-10.223 -10.223 -10.222 -10.222 -10.222 -10.222 -10.222 -10.221
-10.221 -10.221 -10.221 -10.221 -10.221 -10.221 -10.221 -10.220
-10.220 -10.220 -10.219 -10.219 -10.219 -10.219 -10.219 -10.219
-10.218 -10.218 -10.218 -10.218 -10.217 -10.217 -10.217 -10.217
-10.217 -10.217 -10.217 -10.216 -10.216 -10.216 -10.216 -10.216
-10.216 -10.215 -10.215 -10.215 -10.215 -10.214 -10.214 -10.213
-10.213 -10.213 -10.213 -10.213 -10.213 -10.213 -10.213 -10.213
-10.213 -10.213 -10.212 -10.212 -10.212 -10.212 -10.212 -10.212
-10.212 -10.211 -10.211 -10.211 -10.211 -10.211 -10.210 -10.210
-10.210 -10.210 -10.210 -10.210 -10.210 -10.210 -10.209 -10.209
-10.209 -10.209 -10.209 -10.209 -10.209 -10.209 -10.208 -10.208
-10.208 -10.208 -10.208 -10.208 -10.208 -10.208 -10.208 -10.207
-10.207 -10.207 -10.207 -10.207 -10.206 -10.206 -10.206 -10.205
-10.205 -10.204 -10.204 -10.204 -10.204 -10.204 -10.203 -10.203
-10.203 -10.202 -10.201 -10.201 -10.200 -10.200 -10.200 -10.200
-10.197 -10.194 -10.193 -10.191  -1.091  -1.087  -1.009  -1.009
 -0.983  -0.982  -0.965  -0.965  -0.962  -0.962  -0.961  -0.958
 -0.938  -0.931  -0.927  -0.926  -0.924  -0.924  -0.922  -0.922
 -0.921  -0.919  -0.899  -0.894  -0.890  -0.888  -0.886  -0.884
 -0.875  -0.870  -0.852  -0.851  -0.842  -0.841  -0.839  -0.838
 -0.838  -0.835  -0.821  -0.820  -0.805  -0.801  -0.799  -0.797
 -0.795  -0.794  -0.793  -0.792  -0.790  -0.790  -0.785  -0.781
 -0.772  -0.770  -0.770  -0.769  -0.768  -0.764  -0.762  -0.760
 -0.748  -0.748  -0.742  -0.737  -0.737  -0.729  -0.718  -0.715
 -0.714  -0.713  -0.712  -0.712  -0.709  -0.709  -0.708  -0.708
 -0.707  -0.705  -0.704  -0.703  -0.703  -0.701  -0.674  -0.671
 -0.659  -0.658  -0.656  -0.654  -0.648  -0.646  -0.631  -0.631
 -0.630  -0.626  -0.625  -0.622  -0.621  -0.620  -0.618  -0.615
 -0.615  -0.614  -0.613  -0.611  -0.610  -0.609  -0.608  -0.607
 -0.607  -0.604  -0.602  -0.602  -0.565  -0.564  -0.562  -0.562
 -0.559  -0.559  -0.558  -0.557  -0.556  -0.556  -0.555  -0.552
 -0.538  -0.534  -0.533  -0.530  -0.529  -0.529  -0.527  -0.523
 -0.522  -0.521  -0.520  -0.518  -0.515  -0.514  -0.513  -0.513
 -0.507  -0.505  -0.500  -0.500  -0.492  -0.491  -0.490  -0.485
 -0.484  -0.481  -0.480  -0.480  -0.478  -0.474  -0.474  -0.473
 -0.473  -0.470  -0.470  -0.468  -0.466  -0.465  -0.465  -0.465
 -0.463  -0.463  -0.462  -0.462  -0.461  -0.461  -0.459  -0.456
 -0.455  -0.453  -0.453  -0.451  -0.449  -0.445  -0.445  -0.443
 -0.442  -0.440  -0.440  -0.439  -0.439  -0.437  -0.434  -0.434
 -0.432  -0.431  -0.430  -0.427  -0.426  -0.425  -0.424  -0.424
 -0.422  -0.420  -0.420  -0.420  -0.419  -0.418  -0.417  -0.417
 -0.417  -0.416  -0.416  -0.415  -0.414  -0.414  -0.413  -0.412
 -0.412  -0.409  -0.407  -0.406  -0.402  -0.401  -0.400  -0.396
 -0.393  -0.393  -0.392  -0.392  -0.390  -0.386  -0.385  -0.383
 -0.377  -0.375  -0.373  -0.371  -0.369  -0.368  -0.368  -0.366
 -0.364  -0.363  -0.362  -0.362  -0.359  -0.359  -0.358  -0.357
 -0.357  -0.355  -0.355  -0.354  -0.354  -0.352  -0.351  -0.350
 -0.349  -0.348  -0.347  -0.346  -0.345  -0.345  -0.344  -0.343
 -0.343  -0.341  -0.340  -0.339  -0.339  -0.337  -0.335  -0.334
 -0.332  -0.331  -0.330  -0.329  -0.328  -0.327  -0.326  -0.323
 -0.310  -0.300  -0.297  -0.292  -0.291  -0.287  -0.272  -0.271
 -0.270  -0.269  -0.268  -0.267  -0.265  -0.265  -0.264  -0.263
 -0.262  -0.260  -0.259  -0.258  -0.257  -0.255  -0.253  -0.252
 -0.249  -0.248  -0.241  -0.240  -0.225  -0.221  -0.215  -0.211
 -0.209  -0.207  -0.206  -0.204  -0.199  -0.197
 -- Virtual --
 -0.125  -0.121  -0.118  -0.117  -0.107  -0.106  -0.080  -0.075
 -0.073  -0.069  -0.061  -0.059  -0.056  -0.053  -0.024  -0.022
 -0.021  -0.020  -0.018  -0.016  -0.015  -0.014  -0.014  -0.013
 -0.012  -0.011  -0.010  -0.009  -0.004  -0.003   0.003   0.009
  0.009   0.016   0.031   0.038   0.042   0.043   0.046   0.047
  0.050   0.052   0.057   0.059   0.062   0.062   0.065   0.068
  0.073   0.074   0.079   0.081   0.082   0.087   0.087   0.088
  0.092   0.094   0.095   0.096   0.098   0.101   0.104   0.106
  0.107   0.110   0.111   0.111   0.115   0.116   0.118   0.119
  0.121   0.123   0.124   0.126   0.127   0.131   0.132   0.134
  0.136   0.139   0.144   0.146   0.149   0.151   0.152   0.153
  0.156   0.160   0.160   0.162   0.163   0.164   0.166   0.168
  0.170   0.172   0.173   0.174   0.174   0.178   0.180   0.180
  0.183   0.185   0.187   0.188   0.189   0.190   0.191   0.192
  0.194   0.196   0.199   0.200   0.203   0.204   0.205   0.207
  0.208   0.210   0.211   0.213   0.214   0.218   0.218   0.219
  0.221   0.222   0.223   0.223   0.225   0.225   0.227   0.227
  0.229   0.232   0.234   0.234   0.235   0.238   0.238   0.240
  0.242   0.244   0.245   0.248   0.250   0.252   0.258   0.261
  0.265   0.270   0.272   0.274   0.275   0.277   0.278   0.279
  0.280   0.288   0.290   0.291   0.293   0.300   0.302   0.305
  0.307   0.310   0.311   0.313   0.313   0.314   0.316   0.316
  0.319   0.322   0.324   0.324   0.327   0.328   0.328   0.329
  0.332   0.338   0.341   0.343   0.344   0.345   0.347   0.350
  0.353   0.354   0.360   0.363   0.369   0.375   0.383   0.387
  0.389   0.393   0.397   0.400   0.402   0.405   0.406   0.408
  0.408   0.411   0.414   0.417   0.418   0.423   0.423   0.425
  0.427   0.432   0.433   0.435   0.440   0.440   0.443   0.448
  0.450   0.451   0.454   0.460   0.460   0.462   0.464   0.465
  0.468   0.469   0.470   0.470   0.473   0.475   0.476   0.477
  0.479   0.480   0.481   0.482   0.483   0.484   0.484   0.485
  0.488   0.488   0.490   0.491   0.493   0.494   0.495   0.497
  0.498   0.499   0.500   0.502   0.502   0.503   0.504   0.506
  0.506   0.508   0.508   0.509   0.509   0.510   0.511   0.512
  0.513   0.514   0.515   0.515   0.517   0.518   0.518   0.519
  0.520   0.521   0.521   0.522   0.522   0.524   0.525   0.526
  0.526   0.528   0.528   0.529   0.530   0.531   0.533   0.533
  0.534   0.534   0.536   0.537   0.538   0.538   0.539   0.540
  0.541   0.541   0.542   0.543   0.544   0.545   0.545   0.545
  0.546   0.547   0.548   0.548   0.549   0.550   0.551   0.551
  0.552   0.553   0.553   0.555   0.555   0.556   0.557   0.557
  0.558   0.558   0.559   0.560   0.561   0.562   0.563   0.564
  0.565   0.566   0.566   0.567   0.568   0.569   0.570   0.570
  0.572   0.573   0.574   0.574   0.575   0.575   0.576   0.578
  0.578   0.580   0.580   0.581   0.582   0.584   0.586   0.587
  0.587   0.588   0.589   0.591   0.592   0.592   0.593   0.594
  0.594   0.595   0.596   0.597   0.597   0.598   0.599   0.600
  0.600   0.601   0.602   0.603   0.603   0.604   0.606   0.606
  0.608   0.609   0.609   0.611   0.612   0.613   0.615   0.616
  0.618   0.619   0.620   0.620   0.621   0.622   0.624   0.625
  0.627   0.627   0.629   0.629   0.629   0.630   0.633   0.634
  0.635   0.635   0.636   0.637   0.638   0.638   0.640   0.641
  0.641   0.643   0.644   0.644   0.646   0.647   0.647   0.649
  0.650   0.651   0.652   0.654   0.655   0.655   0.656   0.656
  0.658   0.659   0.660   0.660   0.661   0.662   0.663   0.664
  0.665   0.666   0.667   0.668   0.668   0.669   0.669   0.671
  0.671   0.672   0.672   0.674   0.674   0.676   0.676   0.677
  0.679   0.680   0.682   0.683   0.684   0.685   0.687   0.688
  0.689   0.690   0.691   0.692   0.693   0.694   0.695   0.697
  0.698   0.699   0.701   0.702   0.703   0.705   0.705   0.706
  0.706   0.709   0.709   0.710   0.711   0.712   0.714   0.716
  0.717   0.717   0.720   0.721   0.722   0.723   0.724   0.725
  0.725   0.729   0.729   0.731   0.733   0.734   0.734   0.736
  0.736   0.737   0.739   0.740   0.741   0.741   0.744   0.745
  0.746   0.747   0.750   0.750   0.751   0.754   0.755   0.758
  0.759   0.761   0.762   0.762   0.764   0.764   0.766   0.767
  0.768   0.769   0.771   0.772   0.773   0.774   0.774   0.777
  0.778   0.779   0.780   0.782   0.782   0.786   0.786   0.788
  0.788   0.790   0.791   0.792   0.794   0.794   0.795   0.797
  0.799   0.799   0.800   0.801   0.802   0.802   0.804   0.804
  0.805   0.806   0.806   0.807   0.807   0.808   0.809   0.810
  0.811   0.812   0.813   0.814   0.815   0.816   0.816   0.817
  0.818   0.820   0.820   0.821   0.821   0.822   0.823   0.824
  0.825   0.826   0.827   0.828   0.828   0.830   0.831   0.831
  0.833   0.835   0.836   0.838   0.839   0.841   0.842   0.845
  0.846   0.849   0.850   0.853   0.857   0.858   0.861   0.863
  0.864   0.868   0.868   0.874   0.875   0.882   0.886   0.887
  0.888   0.890   0.896   0.899   0.902   0.905   0.906   0.908
  0.909   0.911   0.913   0.915   0.917   0.919   0.921   0.922
  0.924   0.925   0.929   0.930   0.933   0.933   0.935   0.936
  0.938   0.940   0.941   0.943   0.945   0.947   0.949   0.950
  0.952   0.954   0.955   0.958   0.960   0.961   0.963   0.970
  0.972   0.974   0.976   0.977   0.982   0.986   0.989   0.990
  0.990   0.992   0.994   0.998   1.000   1.002   1.004   1.005
  1.008   1.009   1.011   1.011   1.015   1.015   1.017   1.017
  1.019   1.022   1.023   1.025   1.026   1.028   1.030   1.031
  1.032   1.035   1.036   1.039   1.040   1.043   1.044   1.044
  1.045   1.047   1.049   1.050   1.052   1.054   1.054   1.058
  1.060   1.061   1.064   1.065   1.067   1.068   1.069   1.070
  1.071   1.074   1.076   1.079   1.080   1.081   1.081   1.083
  1.086   1.088   1.089   1.091   1.092   1.094   1.095   1.095
  1.098   1.098   1.100   1.102   1.105   1.107   1.108   1.109
  1.110   1.112   1.114   1.115   1.119   1.119   1.121   1.123
  1.128   1.129   1.132   1.134   1.137   1.139   1.141   1.146
  1.147   1.149   1.149   1.152   1.154   1.156   1.158   1.158
  1.159   1.162   1.163   1.164   1.164   1.168   1.169   1.170
  1.172   1.174   1.175   1.176   1.177   1.178   1.179   1.182
  1.185   1.187   1.188   1.191   1.192   1.196   1.197   1.197
  1.200   1.202   1.205   1.206   1.208   1.210   1.212   1.213
  1.219   1.220   1.222   1.224   1.227   1.231   1.236   1.238
  1.243   1.244   1.246   1.248   1.250   1.254   1.255   1.257
  1.260   1.260   1.263   1.266   1.267   1.268   1.270   1.273
  1.275   1.276   1.277   1.278   1.282   1.284   1.286   1.287
  1.288   1.292   1.293   1.295   1.300   1.302   1.302   1.305
  1.310   1.310   1.313   1.316   1.318   1.320   1.323   1.326
  1.327   1.330   1.333   1.336   1.340   1.342   1.345   1.348
  1.351   1.352   1.354   1.356   1.357   1.361   1.363   1.366
  1.367   1.368   1.371   1.374   1.375   1.380   1.382   1.386
  1.386   1.390   1.391   1.393   1.394   1.397   1.400   1.401
  1.404   1.409   1.410   1.413   1.414   1.415   1.416   1.424
  1.426   1.429   1.431   1.432   1.437   1.439   1.447   1.449
  1.453   1.456   1.456   1.459   1.460   1.462   1.463   1.465
  1.468   1.468   1.470   1.471   1.472   1.473   1.477   1.478
  1.479   1.482   1.483   1.486   1.488   1.494   1.495   1.495
  1.497   1.501   1.504   1.509   1.513   1.514   1.515   1.518
  1.519   1.522   1.526   1.527   1.528   1.533   1.535   1.539
  1.540   1.542   1.544   1.547   1.550   1.554   1.555   1.557
  1.561   1.562   1.566   1.567   1.568   1.569   1.570   1.572
  1.573   1.577   1.579   1.580   1.581   1.583   1.585   1.587
  1.589   1.589   1.594   1.594   1.597   1.607   1.613   1.618
  1.618   1.626   1.628   1.631   1.633   1.636   1.639   1.642
  1.646   1.648   1.651   1.653   1.656   1.659   1.663   1.664
  1.667   1.672   1.678   1.685   1.688   1.690   1.694   1.697
  1.700   1.703   1.703   1.706   1.707   1.710   1.711   1.713
  1.718   1.719   1.720   1.722   1.725   1.726   1.727   1.728
  1.729   1.733   1.736   1.736   1.737   1.739   1.741   1.741
  1.743   1.744   1.745   1.749   1.749   1.752   1.752   1.754
  1.755   1.757   1.759   1.761   1.763   1.764   1.766   1.768
  1.770   1.770   1.771   1.772   1.774   1.775   1.776   1.777
  1.779   1.780   1.782   1.783   1.784   1.786   1.787   1.789
  1.789   1.791   1.792   1.793   1.794   1.795   1.796   1.797
  1.799   1.799   1.800   1.802   1.803   1.805   1.806   1.808
  1.809   1.809   1.813   1.814   1.818   1.819   1.820   1.822
  1.822   1.824   1.825   1.827   1.828   1.831   1.834   1.835
  1.839   1.841   1.842   1.846   1.848   1.849   1.850   1.851
  1.852   1.853   1.856   1.858   1.860   1.862   1.864   1.864
  1.867   1.869   1.872   1.874   1.875   1.878   1.880   1.882
  1.883   1.886   1.888   1.889   1.890   1.892   1.893   1.895
  1.899   1.902   1.903   1.905   1.907   1.909   1.912   1.918
  1.920   1.921   1.922   1.925   1.929   1.930   1.932   1.935
  1.938   1.941   1.941   1.942   1.943   1.948   1.950   1.952
  1.953   1.954   1.956   1.957   1.959   1.960   1.963   1.964
  1.967   1.970   1.971   1.973   1.974   1.976   1.980   1.981
  1.983   1.984   1.987   1.989   1.991   1.993   1.994   1.996
  1.998   1.999   1.999   2.000   2.001   2.002   2.004   2.005
  2.007   2.007   2.008   2.009   2.010   2.011   2.014   2.016
  2.017   2.018   2.019   2.021   2.022   2.023   2.024   2.025
  2.026   2.027   2.028   2.030   2.031   2.032   2.033   2.034
  2.035   2.037   2.039   2.040   2.041   2.042   2.043   2.045
  2.047   2.048   2.049   2.051   2.051   2.052   2.054   2.055
  2.055   2.056   2.058   2.060   2.062   2.063   2.065   2.065
  2.066   2.068   2.069   2.069   2.071   2.073   2.074   2.077
  2.078   2.078   2.080   2.083   2.084   2.085   2.088   2.089
  2.091   2.092   2.093   2.095   2.097   2.099   2.102   2.103
  2.105   2.106   2.109   2.112   2.113   2.113   2.116   2.118
  2.119   2.121   2.123   2.129   2.132   2.135   2.136   2.142
  2.145   2.151   2.154   2.157   2.166   2.169   2.170   2.176
  2.178   2.181   2.183   2.186   2.192   2.193   2.196   2.200
  2.208   2.210   2.212   2.216   2.219   2.221   2.223   2.225
  2.229   2.232   2.233   2.235   2.237   2.242   2.245   2.245
  2.248   2.250   2.255   2.256   2.257   2.262   2.263   2.264
  2.265   2.267   2.270   2.272   2.274   2.275   2.278   2.279
  2.281   2.283   2.288   2.289   2.290   2.292   2.296   2.297
  2.299   2.303   2.304   2.306   2.310   2.311   2.311   2.317
  2.319   2.321   2.322   2.323   2.326   2.329   2.333   2.334
  2.336   2.337   2.343   2.345   2.346   2.348   2.351   2.354
  2.355   2.357   2.358   2.361   2.362   2.365   2.366   2.368
  2.370   2.372   2.375   2.376   2.377   2.379   2.380   2.380
  2.381   2.382   2.384   2.387   2.387   2.390   2.391   2.392
  2.396   2.396   2.398   2.399   2.401   2.403   2.405   2.407
  2.408   2.410   2.412   2.414   2.416   2.418   2.420   2.423
  2.423   2.425   2.426   2.427   2.430   2.434   2.437   2.440
  2.444   2.445   2.446   2.451   2.452   2.455   2.456   2.462
  2.464   2.466   2.468   2.469   2.470   2.475   2.475   2.476
  2.478   2.478   2.482   2.483   2.484   2.485   2.488   2.492
  2.493   2.494   2.495   2.499   2.500   2.503   2.504   2.506
  2.509   2.510   2.512   2.516   2.517   2.521   2.521   2.524
  2.527   2.529   2.529   2.531   2.535   2.536   2.538   2.539
  2.540   2.541   2.544   2.548   2.553   2.556   2.559   2.560
  2.564   2.566   2.573   2.578   2.579   2.582   2.583   2.587
  2.589   2.590   2.594   2.596   2.598   2.599   2.602   2.603
  2.605   2.606   2.608   2.612   2.613   2.615   2.616   2.618
  2.619   2.620   2.621   2.623   2.624   2.625   2.628   2.631
  2.632   2.634   2.636   2.637   2.640   2.641   2.642   2.643
  2.645   2.647   2.649   2.649   2.651   2.654   2.655   2.658
  2.660   2.661   2.665   2.667   2.671   2.671   2.672   2.674
  2.675   2.676   2.677   2.679   2.679   2.682   2.684   2.684
  2.687   2.688   2.691   2.694   2.695   2.699   2.701   2.703
  2.705   2.706   2.708   2.712   2.715   2.719   2.721   2.722
  2.726   2.726   2.730   2.732   2.734   2.735   2.739   2.743
  2.745   2.747   2.748   2.751   2.753   2.754   2.756   2.756
  2.757   2.758   2.763   2.764   2.766   2.766   2.770   2.770
  2.773   2.776   2.779   2.781   2.783   2.784   2.788   2.789
  2.792   2.793   2.794   2.801   2.803   2.804   2.809   2.811
  2.817   2.822   2.823   2.825   2.832   2.833   2.834   2.838
  2.841   2.845   2.849   2.851   2.852   2.855   2.857   2.860
  2.861   2.862   2.865   2.866   2.868   2.871   2.876   2.876
  2.877   2.878   2.880   2.882   2.884   2.886   2.887   2.888
  2.892   2.893   2.895   2.897   2.898   2.901   2.903   2.906
  2.907   2.910   2.910   2.912   2.913   2.914   2.915   2.917
  2.918   2.920   2.922   2.927   2.929   2.929   2.932   2.937
  2.939   2.941   2.942   2.945   2.947   2.949   2.953   2.956
  2.958   2.959   2.962   2.964   2.967   2.970   2.974   2.977
  2.979   2.981   2.984   2.990   2.992   2.998   2.999   3.002
  3.006   3.008   3.011   3.016   3.017   3.022   3.023   3.025
  3.026   3.028   3.029   3.031   3.036   3.039   3.040   3.041
  3.044   3.046   3.049   3.052   3.054   3.057   3.061   3.061
  3.065   3.066   3.068   3.074   3.075   3.088   3.091   3.105
  3.108   3.120   3.123   3.126   3.137   3.143   3.147   3.154
  3.157   3.162   3.164   3.165   3.175   3.178   3.179   3.189
  3.192   3.197   3.199   3.199   3.206   3.232   3.235   3.235
  3.243   3.246   3.247   3.251   3.260   3.267   3.277   3.285
  3.290   3.299   3.305   3.307   3.315   3.323   3.325   3.331
  3.331   3.334   3.342   3.345   3.350   3.356   3.370   3.381
  3.395   3.398   3.402   3.424   3.426   3.427   3.431   3.432
  3.442   3.448   3.453   3.461   3.469   3.475   3.491   3.492
  3.495   3.501   3.510   3.511   3.512   3.522   3.530   3.533
  3.537   3.544   3.556   3.558   3.564   3.571   3.595   3.598
  3.610   3.639   3.664   3.706   3.843   3.852   3.993   4.002
  4.074   4.083   4.085   4.088   4.090   4.093   4.094   4.096
  4.096   4.101   4.110   4.112   4.114   4.116   4.117   4.122
  4.127   4.130   4.133   4.135   4.142   4.147   4.149   4.151
  4.155   4.158   4.162   4.168   4.168   4.171   4.176   4.177
  4.183   4.184   4.186   4.189   4.197   4.213   4.226   4.236
  4.236   4.242   4.247   4.249   4.253   4.256   4.259   4.262
  4.265   4.266   4.271   4.279   4.281   4.287   4.289   4.291
  4.295   4.298   4.302   4.315   4.373   4.379   4.388   4.391
  4.395   4.401   4.401   4.406   4.408   4.410   4.412   4.414
  4.418   4.419   4.422   4.428   4.432   4.437   4.452   4.457
  4.472   4.472   4.507   4.509   4.526   4.538   4.541   4.549
  4.557   4.562   4.599   4.613   4.623   4.631   4.631   4.642
  4.647   4.665   4.666   4.685   4.691   4.692   4.694   4.698
  4.699   4.702   4.706   4.712   4.751   4.753   4.780   4.821
  4.836   4.841   4.855   4.865   4.869   4.870   4.878   4.888
  4.907   4.922   4.942   4.957   4.964   4.971   4.973   4.976
  4.984   4.995   5.005   5.019   5.144   5.166   5.180   5.190
  5.196   5.201   5.213   5.221   5.292   5.309   5.338   5.347
  5.364   5.378
 --------------------------------------------------------------
 
          Ground-State Mulliken Net Atomic Charges

     Atom                 Charge (a.u.)
  ----------------------------------------
      1 O                    -0.471261
      2 C                    -0.094675
      3 H                     0.137301
      4 H                     0.137218
      5 H                     0.133980
      6 O                    -0.477907
      7 C                     0.600399
      8 C                    -0.278949
      9 H                     0.126845
     10 H                     0.133396
     11 C                    -0.180872
     12 H                     0.130148
     13 H                     0.125142
     14 C                    -0.172850
     15 H                     0.105257
     16 H                     0.113904
     17 C                     0.001372
     18 C                     0.106145
     19 C                    -0.102827
     20 H                     0.089820
     21 C                    -0.085949
     22 H                     0.101142
     23 C                    -0.081948
     24 H                     0.092369
     25 C                    -0.099758
     26 H                     0.088987
     27 C                    -0.118454
     28 H                     0.093044
     29 C                     0.019021
     30 C                     0.001643
     31 C                     0.009014
     32 C                    -0.015522
     33 C                     0.004414
     34 C                    -0.021365
     35 C                     0.001403
     36 C                    -0.014887
     37 C                     0.017425
     38 C                    -0.010980
     39 C                    -0.093143
     40 C                    -0.006245
     41 C                     0.011028
     42 C                    -0.015400
     43 C                     0.010632
     44 C                    -0.022651
     45 C                    -0.100214
     46 C                     0.018886
     47 C                    -0.003362
     48 C                    -0.017378
     49 C                     0.005995
     50 C                    -0.011032
     51 C                     0.028485
     52 C                    -0.004432
     53 C                     0.041858
     54 C                     0.001160
     55 C                     0.005762
     56 C                    -0.005035
     57 C                     0.009942
     58 C                     0.020813
     59 C                    -0.023706
     60 C                     0.019419
     61 C                    -0.014412
     62 C                    -0.026721
     63 C                    -0.013484
     64 C                     0.029034
     65 C                    -0.007494
     66 C                    -0.004937
     67 C                    -0.009994
     68 C                     0.011765
     69 C                     0.004121
     70 C                     0.056956
     71 C                     0.017113
     72 C                    -0.003587
     73 C                    -0.014590
     74 C                     0.004634
     75 C                     0.001713
     76 C                    -0.010210
     77 C                     0.017931
     78 C                    -0.017295
     79 C                     0.008639
     80 C                    -0.003393
     81 C                     0.008679
     82 C                    -0.006283
     83 C                    -0.011416
     84 C                     0.012313
     85 C                    -0.004382
     86 C                    -0.020628
     87 C                    -0.028000
     88 C                     0.020968
     89 O                    -0.496926
     90 C                    -0.082542
     91 H                     0.117522
     92 H                     0.132317
     93 H                     0.125200
     94 O                    -0.435364
     95 C                     0.588202
     96 C                    -0.254225
     97 H                     0.142453
     98 H                     0.131895
     99 C                    -0.189388
    100 H                     0.125920
    101 H                     0.113004
    102 C                    -0.198844
    103 H                     0.114775
    104 H                     0.119297
    105 C                     0.013536
    106 C                     0.077816
    107 C                    -0.120958
    108 H                     0.089016
    109 C                    -0.073754
    110 H                     0.096936
    111 C                    -0.087542
    112 H                     0.085054
    113 C                    -0.082856
    114 H                     0.098840
    115 C                    -0.126094
    116 H                     0.093202
    117 C                    -0.017742
    118 C                     0.000674
    119 C                    -0.016106
    120 C                    -0.004213
    121 C                    -0.012532
    122 C                    -0.000197
    123 C                     0.021899
    124 C                    -0.012591
    125 C                     0.019368
    126 C                    -0.008178
    127 C                    -0.085202
    128 C                     0.011466
    129 C                     0.011351
    130 C                     0.015967
    131 C                     0.032652
    132 C                    -0.006183
    133 C                    -0.055766
    134 C                     0.007544
    135 C                    -0.001725
    136 C                     0.008488
    137 C                     0.006508
    138 C                     0.018407
    139 C                     0.000016
    140 C                     0.012528
    141 C                     0.023696
    142 C                    -0.002741
    143 C                    -0.026578
    144 C                    -0.031465
    145 C                     0.019856
    146 C                     0.012440
    147 C                    -0.008532
    148 C                    -0.014076
    149 C                    -0.024292
    150 C                    -0.033996
    151 C                     0.014235
    152 C                    -0.005314
    153 C                     0.009126
    154 C                    -0.007502
    155 C                    -0.006050
    156 C                    -0.000539
    157 C                    -0.027312
    158 C                    -0.001468
    159 C                    -0.014257
    160 C                     0.020055
    161 C                    -0.013089
    162 C                     0.002392
    163 C                     0.024822
    164 C                     0.023516
    165 C                    -0.013950
    166 C                    -0.002928
    167 C                     0.005702
    168 C                    -0.000074
    169 C                    -0.008259
    170 C                    -0.000450
    171 C                     0.024301
    172 C                     0.009818
    173 C                     0.001686
    174 C                    -0.021157
    175 C                     0.007621
    176 C                    -0.007768
  ----------------------------------------
  Sum of atomic charges =     0.000000

 -----------------------------------------------------------------
                    Cartesian Multipole Moments
 -----------------------------------------------------------------
    Charge (ESU x 10^10)
                 0.0000
    Dipole Moment (Debye)
         X       3.6962      Y       0.7177      Z      -0.7933
       Tot       3.8479
    Quadrupole Moments (Debye-Ang)
        XX    -765.6558     XY      44.4785     YY    -776.4490
        XZ     -15.4196     YZ      -5.5241     ZZ    -818.4094
    Octopole Moments (Debye-Ang^2)
       XXX     180.4195    XXY     269.4498    XYY     188.3399
       YYY     214.9060    XXZ    -273.1804    XYZ    -111.6136
       YYZ    -130.3104    XZZ     154.5516    YZZ     106.2075
       ZZZ    -133.9694
    Hexadecapole Moments (Debye-Ang^3)
      XXXX -136142.7353   XXXY    5226.1021   XXYY  -29460.7572
      XYYY    4057.0991   YYYY  -47063.1511   XXXZ     339.8538
      XXYZ    -944.3624   XYYZ    -888.4038   YYYZ   -1132.0046
      XXZZ  -27742.5353   XYZZ    1471.8539   YYZZ  -12225.7739
      XZZZ   -1194.6633   YZZZ    -958.4886   ZZZZ  -29745.5893
 -----------------------------------------------------------------
Archival summary:
1\1\mn251\SP\ProcedureUnspecified\6-31G**\428\afmv_a\SunOct1401:21:432018SunOct1401:21:432018\0\\#,ProcedureUnspecified,6-31G**,\\0,1\C\C,1,1.362\C,1,1.38313,2,117.539\C,3,1.39513,1,122.968,2,4.29328,0\C,4,1.39485,3,108.062,1,-143.105,0\C,5,1.40168,4,108.442,3,-7.2619,0\C,6,1.39753,5,117.765,4,142.724,0\C,7,1.36792,6,120.622,5,6.37046,0\C,7,1.37767,6,120.879,5,-132.821,0\C,9,1.39205,7,120.512,6,-0.986176,0\C,10,1.38067,9,120.585,7,138.792,0\C,11,1.38525,10,121.597,9,3.15211,0\C,12,1.37931,11,120.09,10,-139.033,0\C,13,1.38111,12,107.481,11,139.694,0\C,14,1.38402,13,108.657,12,0.273528,0\C,15,1.37716,14,109.287,13,-2.91472,0\C,16,1.36358,15,122.238,14,-145.403,0\C,17,1.3685,16,121.882,15,3.27568,0\C,18,1.40289,17,116.49,16,0.46348,0\C,19,1.39678,18,124.819,17,-4.84972,0\C,20,1.35909,19,110.8,18,146.434,0\C,19,1.39833,18,119.804,17,138.749,0\C,22,1.3862,19,121.072,18,-2.37682,0\C,23,1.39963,22,119.336,19,-1.49084,0\C,24,1.39033,23,106.636,22,-140.376,0\C,25,1.3647,24,111.099,23,-2.55102,0\C,26,1.39105,25,106.602,24,3.77187,0\C,22,1.40082,19,107.048,18,-147.317,0\C,28,1.35859,22,120.949,19,143.397,0\C,29,1.39586,28,118.322,22,0.30648,0\C,30,1.38148,29,107.743,28,-138.815,0\C,31,1.36584,30,106.695,29,-2.21017,0\C,32,1.3586,31,112.295,30,0.225454,0\C,31,1.39268,30,122.553,29,145.198,0\C,34,1.39234,31,121.589,30,-2.64338,0\C,35,1.38831,34,109.038,31,-139.501,0\C,36,1.3825,35,104.927,34,-1.01953,0\C,37,1.38958,36,113.842,35,-4.43882,0\C,38,1.36099,37,118.027,36,142.307,0\C,39,1.37783,38,122.718,37,7.78954,0\C,33,1.39737,32,121.016,31,144.675,0\C,41,1.35328,33,120.725,32,2.21341,0\C,42,1.39308,41,108.502,33,-137.936,0\C,43,1.36085,42,108.814,41,1.17072,0\C,3,1.40316,1,121.208,2,-140.53,0\C,45,1.38414,3,118.134,1,2.59278,0\C,32,1.40331,31,118.896,30,148.543,0\C,47,1.4056,32,118.842,31,-141.782,0\C,48,1.39526,47,106.409,32,140.37,0\C,49,1.40734,48,120.215,47,-147.194,0\C,50,1.37329,49,118.378,48,9.17971,0\C,13,1.40954,12,122.525,11,-2.8941,0\C,1,1.4164,2,110.207,3,-146.412,0\C,53,1.3752,1,114.77,2,135.049,0\C,54,1.39973,53,122.902,1,-131.795,0\C,21,1.42027,20,120.727,19,-140.644,0\C,2,1.42106,1,109.724,3,148.798,0\C,52,1.4413,13,119.715,12,-1.11122,0\C,58,1.46573,52,111.144,13,150.356,0\C,59,1.47953,58,116.068,52,-138.067,0\C,60,1.51023,59,64.3262,58,-122.255,0\C,61,1.50602,60,125.677,59,-95.2213,0\H,62,1.09707,61,114.09,60,-0.149063,0\H,62,1.09733,61,99.2534,60,-116.668,0\C,62,1.55863,61,108.485,60,125.835,0\H,65,1.0967,62,110.198,61,-59.695,0\H,65,1.09674,62,106.618,61,56.0179,0\C,65,1.55386,62,109.604,61,177.315,0\H,68,1.09629,65,105.495,62,-6.5456,0\H,68,1.09765,65,106.153,62,-129.521,0\C,68,1.50944,65,114.163,62,111.394,0\O,71,1.18288,68,120.29,65,-119.785,0\O,71,1.40092,68,118.071,65,60.5677,0\C,73,1.45671,71,121.39,68,-178.957,0\H,74,1.09638,73,114.325,71,170.756,0\H,74,1.09691,73,114.129,71,-75.2757,0\H,74,1.09763,73,108.844,71,40.6761,0\C,61,1.57972,60,116.141,59,114.266,0\C,78,1.42608,61,122.757,60,71.5128,0\H,79,1.08545,78,118.352,61,4.03195,0\C,78,1.42689,61,120.889,60,-102.793,0\H,81,1.08561,78,117.62,61,11.4385,0\C,81,1.37018,78,124.884,61,175.101,0\H,83,1.08683,81,121.419,78,177.136,0\C,83,1.37704,81,116.984,78,-3.78982,0\H,85,1.08677,83,112.524,81,-173.221,0\C,85,1.40297,83,123.65,81,3.46288,0\H,87,1.08591,85,121.463,83,179.794,0\C,88,2.98519,87,124.292,85,144.842,0\C,89,1.38567,88,83.9766,87,-170.051,0\C,90,1.40454,89,118.804,88,-134.082,0\C,90,1.4175,89,106.874,88,87.1128,0\C,92,1.37146,90,120.395,89,142.515,0\C,93,1.3822,92,120.731,90,-144.955,0\C,94,1.39566,93,107.258,92,141.477,0\C,92,1.39827,90,107.077,89,-1.84777,0\C,96,1.38213,92,110.987,90,-0.226246,0\C,95,1.41097,94,110.528,93,6.37512,0\C,98,1.39944,95,105.412,94,-3.78656,0\C,99,1.40576,98,119.901,95,-136.335,0\C,100,1.40974,99,123.235,98,-6.73232,0\C,101,1.39375,100,117.909,99,6.88442,0\C,98,1.41318,95,122.516,94,-139.455,0\C,101,1.42359,100,109.363,99,147.166,0\C,104,1.39574,101,108.375,100,3.0018,0\C,105,1.39984,104,121.078,101,-140.929,0\C,106,1.38919,105,120.646,104,-2.44323,0\C,106,1.39084,105,118.302,104,137.674,0\C,107,1.39504,106,118.873,105,4.81159,0\C,109,1.37553,107,122.109,106,138.537,0\C,110,1.39576,109,109.223,107,-142.902,0\C,109,1.4015,107,121.183,106,-5.41274,0\C,112,1.38519,109,107.422,107,146.828,0\C,113,1.39113,112,117.754,109,-141.219,0\C,111,1.40747,110,123.661,109,144.932,0\C,115,1.42285,111,116.968,110,-133.109,0\C,116,1.39569,115,108.413,111,139.478,0\C,116,1.40478,115,120.749,111,-10.7087,0\C,118,1.36586,116,117.954,115,141.248,0\C,119,1.40219,118,121.698,116,8.68853,0\C,120,1.38717,119,117.386,118,-144.969,0\C,117,1.40536,116,117.518,115,-148.473,0\C,122,1.38531,117,120.697,116,138.919,0\C,123,1.3732,122,105.518,117,-142.102,0\C,124,1.40399,123,119.425,122,139.976,0\C,125,1.39265,124,121.848,123,-144.583,0\C,125,1.41912,124,119.459,123,-0.614564,0\C,127,1.39137,125,122.862,124,-0.122744,0\C,128,1.37351,127,122.413,125,-134.408,0\C,129,1.40094,128,110.353,127,139.66,0\C,130,1.38779,129,106.988,128,0.64493,0\C,131,1.38677,130,117.817,129,-140.265,0\C,131,1.39497,130,109.012,129,-2.76379,0\C,129,1.40693,128,119.482,127,-8.99814,0\C,134,1.41936,129,118.002,128,135.385,0\C,127,1.42097,125,109.043,124,-147.676,0\C,136,1.39595,127,117.594,125,142.277,0\C,137,1.39281,136,117.048,127,-135.17,0\C,138,1.40419,137,109.259,136,143.589,0\C,139,1.38658,138,122.487,137,-141.688,0\C,130,1.42154,129,117.055,128,-142.094,0\C,141,1.34995,130,124.057,129,-2.05323,0\C,142,1.4111,141,110.899,130,146.287,0\C,143,1.3903,142,107.196,141,0.526309,0\C,143,1.40881,142,114.551,141,-140.156,0\C,96,1.4247,92,120.771,90,148.574,0\C,132,1.50175,131,123.065,130,-12.6996,0\C,147,1.46767,132,119.026,131,10.9755,0\C,148,1.48988,147,62.0726,132,-119.558,0\C,149,1.45283,148,120.734,147,106.684,0\C,150,1.39725,149,118.153,148,-138.6,0\H,151,1.08618,150,120.901,149,0.409119,0\C,150,1.41946,149,121.494,148,52.3976,0\H,153,1.08577,150,110.531,149,-8.1441,0\C,153,1.4232,150,122.433,149,163.598,0\H,155,1.08617,153,122.78,150,-176.373,0\C,155,1.37324,153,118.012,150,3.3396,0\H,157,1.08575,155,115.298,153,-177.839,0\C,157,1.42752,155,120.378,153,2.39527,0\H,159,1.08659,157,125.41,155,-168.296,0\C,149,1.53559,148,123.338,147,-105.271,0\H,161,1.09687,149,111.986,148,149.073,0\H,161,1.09703,149,107.811,148,27.9579,0\C,161,1.57871,149,110.45,148,-92.0861,0\H,164,1.09747,161,117.088,149,-78.8296,0\H,164,1.09767,161,110.05,149,46.8152,0\C,164,1.58183,161,107.624,149,161.641,0\H,167,1.0961,164,112.019,161,-60.5931,0\H,167,1.09695,164,111.602,161,54.5745,0\C,167,1.52243,164,110.634,161,172.994,0\O,170,1.21603,167,125.958,164,29.7066,0\O,170,1.34708,167,108.352,164,-144.89,0\C,172,1.48773,170,121.414,167,169.679,0\H,173,1.09676,172,110.92,170,-171.042,0\H,173,1.09722,172,115.42,170,-43.0114,0\H,173,1.09741,172,100.353,170,64.7356,0\\\@

 Total job time:  848.82s(wall), 8131.08s(cpu) 
 Sun Oct 14 01:21:43 2018

        *************************************************************
        *                                                           *
        *  Thank you very much for using Q-Chem.  Have a nice day.  *
        *                                                           *
        *************************************************************


