
Running Job 1 of 1 C169_0.qcin
qchem C169_0.qcin_105383.0 /home/Andres/temp/qchem105383/ 1
/usr/local/qchem44/bin/mpi/mpirun_qchem -machinefile /usr/local/qchem44/bin/mpi/machines -np 1 /usr/local/qchem44/exe/qcprog.exe C169_0.qcin_105383.0 /home/Andres/temp/qchem105383/

Process 0 of 1 is on localhost.localdomain - thread support 0
initial socket setup ...start
initial socket setup ...done 
now start server 0 ... 
localhost.localdomain 127.0.0
                  Welcome to Q-Chem
     A Quantum Leap Into The Future Of Chemistry


 Q-Chem 4.4, Q-Chem, Inc., Pleasanton, CA (2016)

 Y. Shao,  Z. Gan,  E. Epifanovsky,  A. T. B. Gilbert,  M. Wormit,  
 J. Kussmann,  A. W. Lange,  A. Behn,  J. Deng,  X. Feng,  D. Ghosh,  
 M. Goldey,  P. R. Horn,  L. D. Jacobson,  I. Kaliman,  R. Z. Khaliullin,  
 T. Kus,  A. Landau,  J. Liu,  E. I. Proynov,  Y. M. Rhee,  R. M. Richard,  
 M. A. Rohrdanz,  R. P. Steele,  E. J. Sundstrom,  H. L. Woodcock III,  
 P. M. Zimmerman,  D. Zuev,  B. Albrecht,  E. Alguire,  B. Austin,  
 S. A. Baeppler,  G. J. O. Beran,  Y. A. Bernard,  E. Berquist,  
 K. Brandhorst,  K. B. Bravaya,  S. T. Brown,  D. Casanova,  C.-M. Chang,  
 Y. Chen,  S. H. Chien,  K. D. Closser,  M. P. Coons,  D. L. Crittenden,  
 S. Dasgupta,  M. Diedenhofen,  R. A. DiStasio Jr.,  H. Do,  A. D. Dutoi,  
 R. G. Edgar,  P.-T. Fang,  S. Fatehi,  Q. Feng,  L. Fusti-Molnar,  
 A. Ghysels,  A. Golubeva-Zadorozhnaya,  J. Gomes,  A. Gunina,  
 M. W. D. Hanson-Heine,  P. H. P. Harbach,  A. W. Hauser,  E. G. Hohenstein,  
 Z. C. Holden,  K. Hui,  T.-C. Jagau,  H. Ji,  B. Kaduk,  K. Khistyaev,  
 Jaehoon Kim,  Jihan Kim,  R. A. King,  P. Klunzinger,  D. Kosenkov,  
 T. Kowalczyk,  C. M. Krauter,  A. Kunitsa,  K. U. Lao,  A. Laurent,  
 K. V. Lawler,  D. Lefrancois,  S. Lehtola,  S. V. Levchenko,  C. Y. Lin,  
 Y.-S. Lin,  F. Liu,  E. Livshits,  R. C. Lochan,  A. Luenser,  P. Manohar,  
 S. F. Manzer,  S.-P. Mao,  Y. Mao,  N. Mardirossian,  A. V. Marenich,  
 L. A. Martinez-Martinez,  S. A. Maurer,  N. J. Mayhall,  J.-M. Mewes,  
 A. F. Morrison,  K. Nanda,  C. M. Oana,  R. Olivares-Amaya,  D. P. O'Neill,  
 J. A. Parkhill,  T. M. Perrine,  R. Peverati,  P. A. Pieniazek,  F. Plasser,  
 A. Prociuk,  D. R. Rehn,  E. Rosta,  N. J. Russ,  N. Sergueev,  
 S. M. Sharada,  S. Sharma,  D. W. Small,  A. Sodt,  T. Stauch,  T. Stein,  
 D. Stuck,  Y.-C. Su,  A. J. W. Thom,  T. Tsuchimochi,  L. Vogt,  O. Vydrov,  
 T. Wang,  M. A. Watson,  J. Wenzel,  A. White,  C. F. Williams,  
 V. Vanovschi,  S. Yeganeh,  S. R. Yost,  Z.-Q. You,  I. Y. Zhang,  X. Zhang,  
 Y. Zhao,  B. R. Brooks,  G. K. L. Chan,  D. M. Chipman,  C. J. Cramer,  
 W. A. Goddard III,  M. S. Gordon,  W. J. Hehre,  A. Klamt,  
 H. F. Schaefer III,  M. W. Schmidt,  C. D. Sherrill,  D. G. Truhlar,  
 A. Warshel,  X. Xu,  A. Aspuru-Guzik,  R. Baer,  A. T. Bell,  N. A. Besley,  
 J.-D. Chai,  A. Dreuw,  B. D. Dunietz,  T. R. Furlani,  S. R. Gwaltney,  
 C.-P. Hsu,  Y. Jung,  J. Kong,  D. S. Lambrecht,  W. Liang,  C. Ochsenfeld,  
 V. A. Rassolov,  L. V. Slipchenko,  J. E. Subotnik,  T. Van Voorhis,  
 J. M. Herbert,  A. I. Krylov,  P. M. W. Gill,  M. Head-Gordon

 Contributors to earlier versions of Q-Chem not listed above: 
 R. D. Adamson,  J. Baker,  E. F. C. Byrd,  A. K. Chakraborty,  C.-L. Cheng,  
 H. Dachsel,  R. J. Doerksen,  G. Hawkins,  A. Heyden,  S. Hirata,  
 G. Kedziora,  F. J. Keil,  C. Kelley,  P. P. Korambath,  W. Kurlancheek,  
 A. M. Lee,  M. S. Lee,  D. Liotard,  I. Lotan,  P. E. Maslen,  N. Nair,  
 D. Neuhauser,  R. Olson,  B. Peters,  J. Ritchie,  N. E. Schultz,  
 N. Shenvi,  A. C. Simmonett,  K. S. Thanthiriwatte,  Q. Wu,  W. Zhang

 Please cite Q-Chem as follows:
 Y. Shao et al., Mol. Phys. 113, 184-215 (2015)
 DOI: 10.1080/00268976.2014.952696

 Q-Chem 4.4.0 for Intel X86 Linux

 Parts of Q-Chem use Armadillo 5.200.1 (Boston Tea Smuggler).
 http://arma.sourceforge.net/

 Q-Chem begins on Fri May 26 02:40:04 2017  

Host: 
0

     Scratch files written to /home/Andres/temp/qchem105383//
 Apr2716 1281_ 20995  20993 0   
 Parallel job on  1  processors
Processing $rem in /usr/local/qchem44/config/preferences.
 MEM_TOTAL  16000 

Checking the input file for inconsistencies... 	...done.

--------------------------------------------------------------
User input:
--------------------------------------------------------------
$comment
OPTIMIZATION
$end

$rem
JOBTYPE OPT
EXCHANGE omegaB97X-D
BASIS cc-pVTZ
$end

$molecule
0 1
C          7.67777        0.34642       -0.33993
C          6.98892        1.51270       -0.04885
C          6.94370       -0.80400       -0.58243
C          5.60978        1.47954       -0.00352
N          5.61883       -0.85095       -0.53894
C          4.96205        0.26974       -0.24819
C          3.47962        0.21444       -0.19685
N          2.83481        1.33798       -0.34991
C          2.73362       -0.98872        0.03061
C          1.48160        1.40094       -0.31172
N          3.19870       -2.21714        0.26374
C          1.30325       -0.91788        0.05914
C          0.63707        0.33357       -0.11468
S          1.92034       -3.16172        0.46998
N          0.72482       -2.09492        0.29058
C         -0.80985        0.47767       -0.05204
S         -1.88040       -0.86682       -0.09381
C         -1.56638        1.64356        0.06446
C         -3.30736        0.06120        0.00792
N         -1.07341        2.91209        0.13774
C         -2.97696        1.40790        0.10327
C         -4.62265       -0.54017        0.00653
C         -1.95462        3.85869        0.23857
N         -3.87207        2.42642        0.21102
C         -5.78850       -0.01133        0.48882
S         -4.90180       -2.11612       -0.66218
C         -3.36222        3.61771        0.27514
C         -6.89590       -0.87751        0.33181
C         -6.56731       -2.05254       -0.26686
H          8.75733        0.32596       -0.37845
H          7.52022        2.43532        0.14280
H          7.44267       -1.73482       -0.82711
H          5.02391        2.35976        0.21256
H          1.06741        2.38942       -0.42819
H         -1.58537        4.87694        0.29040
H         -5.83313        0.97106        0.92819
H         -4.04850        4.45242        0.36420
H         -7.89525       -0.63350        0.65875
H         -7.21448       -2.87971       -0.50357
$end

$opt
CONSTRAINT
tors 4 6 7 8 0.00000
tors 10 13 16 17 168.54979
tors 17 19 22 25 157.50653
ENDCONSTRAINT
$end
--------------------------------------------------------------
 ----------------------------------------------------------------
             Standard Nuclear Orientation (Angstroms)
    I     Atom           X                Y                Z
 ----------------------------------------------------------------
    1      C       7.6790646706     0.3357776156    -0.1901574176
    2      C       6.9953457650     1.5134072055     0.0651226925
    3      C       6.9394475788    -0.8136223967    -0.4203255317
    4      C       5.6154272506     1.4922114787     0.0887271134
    5      N       5.6137050930    -0.8490762594    -0.3973890048
    6      C       4.9616771691     0.2827122658    -0.1409598184
    7      C       3.4782048724     0.2403329076    -0.1125604266
    8      N       2.8453028886     1.3654915503    -0.2996500815
    9      C       2.7186666511    -0.9517618987     0.1279800074
   10      C       1.4922241183     1.4400335468    -0.2847815285
   11      N       3.1697089002    -2.1786476177     0.3943951378
   12      C       1.2886613222    -0.8689308809     0.1317728068
   13      C       0.6357900964     0.3838365667    -0.0791043429
   14      S       1.8803890142    -3.1084320375     0.5996407658
   15      N       0.6968188597    -2.0361644220     0.3784654499
   16      C      -0.8107016964     0.5407620540    -0.0430217882
   17      S      -1.8915840427    -0.7957311462    -0.0739196004
   18      C      -1.5592864030     1.7148501935     0.0366485360
   19      C      -3.3122293539     0.1455815049    -0.0149081816
   20      N      -1.0570275698     2.9806746905     0.0912575804
   21      C      -2.9722187018     1.4913190244     0.0574793682
   22      C      -4.6322818449    -0.4451760996    -0.0250307764
   23      C      -1.9318433094     3.9361917148     0.1578455000
   24      N      -3.8604454045     2.5189948369     0.1292478448
   25      C      -5.8012964791     0.1030227479     0.4270360557
   26      S      -4.9137403457    -2.0326365997    -0.6649264415
   27      C      -3.3418043230     3.7072707799     0.1765973204
   28      C      -6.9131932778    -0.7574253230     0.2702900224
   29      C      -6.5848036424    -1.9474334721    -0.2981407213
   30      H       8.7588969426     0.3058998959    -0.2106947418
   31      H       7.5311493700     2.4356071423     0.2459509268
   32      H       7.4345295048    -1.7533569340    -0.6372543719
   33      H       5.0334985720     2.3814471795     0.2767174142
   34      H       1.0881931887     2.4291013365    -0.4287094366
   35      H      -1.5550204283     4.9523331451     0.1942609334
   36      H      -5.8448136482     1.0948076058     0.8448841113
   37      H      -4.0224631273     4.5491231291     0.2369373612
   38      H      -7.9156062429    -0.4985960738     0.5757515314
   39      H      -7.2349402893    -2.7742365525    -0.5279011362
 ----------------------------------------------------------------
 Molecular Point Group                 C1    NOp =  1
 Largest Abelian Subgroup              C1    NOp =  1
 Nuclear Repulsion Energy =  2930.0548933317 hartrees
 There are      110 alpha and      110 beta electrons
 Requested basis set is cc-pVTZ
 There are 356 shells and 1022 basis functions

 Total QAlloc Memory Limit  16000 MB
 Mega-Array Size        61 MB
 MEM_STATIC part        62 MB
 A cutoff of  1.0D-11 yielded  30933 shell pairs
 There are    243953 function pairs (    318403 Cartesian)
 
 -------------------------------------------------------
 OpenMP Integral Computing Module                       
 Release: version 1.0, May 2013, Q-Chem Inc. Pittsburgh 
 -------------------------------------------------------
 Integral Job Info:
 Integral job number is                      11
 Integral operator is                         1
 short-range coefficients              22203600
 long-range coefficients              100000000
 Omega coefficients                         200
 if combine SR and LR in K                    1
 Integral screening is                        0
 Integral computing path is                   2
 max size of driver memory is            800000
 size of driver memory is                776718
 size of scratch memory is             26248924
 max col of scratch BK array              10000
 max len of scratch array in speh3          662
 max len of scratch index in speh4           32
 max int batch size is                      520
 min int batch size is                       52
 fixed nKL is                                52
 max L of basis functions is                  3
 order of int derivative is                   0
 number of shells is                        356
 number of basis is                        1177
 number of cartesian basis is              1177
 number of contracted shell pairs         30933
 number of primitive shell pairs          93723
 maxK2 (contraction) of shell pair          121
 max number of K2 of shell pair               1
 max number of CS2 of shell pair           4271
 max number of PS2 of shell pair          13034
 mem total for path MDJ                  837060
 -------------------------------------------------------
 Smallest overlap matrix eigenvalue = 2.55E-05

 Scale SEOQF with 1.000000e-02/1.000000e-01/1.000000e+00

 Standard Electronic Orientation quadrupole field applied
 Nucleus-field energy     =     0.0000000443 hartrees
 Guess from superposition of atomic densities
 Warning:  Energy on first SCF cycle will be non-variational
 Long-range K will be added via erf
 Coulomb attenuation parameter = 0.2 bohr**(-1)
 A restricted hybrid HF-DFT SCF calculation will be
 performed using Pulay DIIS extrapolation
 Exchange:     0.2220 Hartree-Fock + 1.0000 wB97X-D + LR-HF
 Correlation:  1.0000 wB97X-D
 Using SG-1 standard quadrature grid
 Dispersion:   Grimme D
 SCF converges when DIIS error is below 1.0E-08
 using 4 threads for integral computing 
 using 4 threads for integral computing 
 K construction time:  CPU 72.61 s  wall 18.39 s
 -------------------------------------------------------
 OpenMP BLAS3 based DFT computing Module                
 Release: version 1.0, May 2013, Q-Chem Inc. Pittsburgh 
 -------------------------------------------------------
 ---------------------------------------
  Cycle       Energy         DIIS Error
 ---------------------------------------
    1   -2301.5513386548      1.84E-02
 K construction time:  CPU 1261.95 s  wall 317.68 s
    2   -2290.9476660118      1.33E-03
 K construction time:  CPU 1222.84 s  wall 307.64 s
    3   -2290.9799997013      1.34E-03
 K construction time:  CPU 1172.77 s  wall 295.14 s
    4   -2291.1887023358      2.13E-04
 K construction time:  CPU 1084.51 s  wall 272.82 s
    5   -2291.1931482385      1.38E-04
 K construction time:  CPU 1027.66 s  wall 258.57 s
    6   -2291.1953109137      4.88E-05
 K construction time:  CPU 965.23 s  wall 242.85 s
    7   -2291.1956160827      1.79E-05
 K construction time:  CPU 904.01 s  wall 227.47 s
    8   -2291.1956700472      5.57E-06
 K construction time:  CPU 872.59 s  wall 219.33 s
    9   -2291.1956820859      3.73E-06
 K construction time:  CPU 828.47 s  wall 208.29 s
   10   -2291.1956861255      1.32E-06
 K construction time:  CPU 747.72 s  wall 187.96 s
   11   -2291.1956866906      7.36E-07
 K construction time:  CPU 701.65 s  wall 176.27 s
   12   -2291.1956868534      2.12E-07
 K construction time:  CPU 616.73 s  wall 154.90 s
   13   -2291.1956868685      1.18E-07
 K construction time:  CPU 547.00 s  wall 137.35 s
   14   -2291.1956868703      3.36E-08
 K construction time:  CPU 466.13 s  wall 116.99 s
   15   -2291.1956868702      1.65E-08
 K construction time:  CPU 1282.77 s  wall 322.77 s
   16   -2291.1956868708      5.28E-09 Convergence criterion met
 ---------------------------------------
 SCF time:  CPU 18164.30 s  wall 4588.21 s
 SCF   energy in the final basis set = -2291.1956868708
 Total energy in the final basis set = -2291.1956868708
 
 --------------------------------------------------------------
 
                    Orbital Energies (a.u.)
 --------------------------------------------------------------
 
 Alpha MOs
 -- Occupied --
-89.153 -89.107 -89.087 -14.482 -14.479 -14.463 -14.463 -14.445
-14.434 -10.355 -10.352 -10.351 -10.346 -10.344 -10.344 -10.342
-10.341 -10.338 -10.336 -10.335 -10.330 -10.326 -10.324 -10.320
-10.309 -10.301 -10.298 -10.295 -10.293  -8.157  -8.116  -8.097
 -6.107  -6.102  -6.101  -6.064  -6.061  -6.059  -6.046  -6.042
 -6.039  -1.143  -1.102  -1.068  -1.048  -1.030  -1.013  -1.003
 -0.986  -0.925  -0.911  -0.895  -0.879  -0.869  -0.853  -0.838
 -0.811  -0.777  -0.772  -0.748  -0.738  -0.731  -0.716  -0.711
 -0.672  -0.655  -0.648  -0.629  -0.628  -0.620  -0.607  -0.603
 -0.587  -0.575  -0.568  -0.560  -0.557  -0.548  -0.543  -0.526
 -0.512  -0.507  -0.501  -0.498  -0.493  -0.492  -0.485  -0.484
 -0.473  -0.466  -0.462  -0.461  -0.451  -0.443  -0.429  -0.427
 -0.418  -0.411  -0.392  -0.377  -0.372  -0.359  -0.358  -0.351
 -0.343  -0.339  -0.334  -0.334  -0.320  -0.264
 -- Virtual --
 -0.055  -0.024   0.024   0.032   0.042   0.051   0.071   0.073
  0.085   0.089   0.117   0.124   0.125   0.127   0.132   0.136
  0.150   0.153   0.156   0.164   0.169   0.176   0.183   0.190
  0.199   0.205   0.212   0.216   0.222   0.232   0.244   0.248
  0.258   0.267   0.268   0.277   0.283   0.288   0.294   0.294
  0.301   0.304   0.308   0.314   0.318   0.324   0.324   0.331
  0.333   0.339   0.342   0.346   0.351   0.353   0.355   0.357
  0.364   0.369   0.371   0.379   0.382   0.384   0.386   0.390
  0.392   0.394   0.397   0.400   0.402   0.408   0.411   0.411
  0.414   0.419   0.421   0.427   0.431   0.433   0.437   0.442
  0.445   0.447   0.449   0.455   0.458   0.461   0.463   0.464
  0.468   0.474   0.475   0.479   0.484   0.484   0.487   0.493
  0.494   0.501   0.504   0.509   0.511   0.516   0.518   0.520
  0.526   0.531   0.533   0.536   0.538   0.542   0.550   0.557
  0.558   0.564   0.567   0.576   0.579   0.591   0.596   0.601
  0.607   0.607   0.609   0.616   0.618   0.626   0.635   0.641
  0.644   0.648   0.653   0.656   0.662   0.666   0.668   0.676
  0.680   0.686   0.695   0.697   0.703   0.708   0.712   0.719
  0.725   0.727   0.732   0.735   0.740   0.744   0.748   0.758
  0.759   0.766   0.769   0.775   0.779   0.781   0.788   0.790
  0.792   0.799   0.803   0.806   0.810   0.820   0.823   0.826
  0.829   0.835   0.840   0.843   0.845   0.851   0.852   0.858
  0.862   0.868   0.870   0.875   0.882   0.888   0.899   0.906
  0.908   0.917   0.917   0.922   0.925   0.930   0.933   0.942
  0.947   0.951   0.954   0.957   0.961   0.965   0.968   0.972
  0.975   0.982   0.988   0.998   1.001   1.008   1.014   1.018
  1.019   1.031   1.031   1.038   1.049   1.051   1.057   1.058
  1.066   1.068   1.077   1.085   1.087   1.092   1.095   1.101
  1.105   1.108   1.112   1.117   1.122   1.128   1.136   1.141
  1.150   1.154   1.163   1.169   1.176   1.184   1.191   1.195
  1.205   1.210   1.216   1.218   1.231   1.234   1.236   1.243
  1.255   1.257   1.265   1.273   1.279   1.291   1.299   1.303
  1.311   1.312   1.322   1.329   1.339   1.343   1.350   1.355
  1.356   1.367   1.372   1.377   1.378   1.385   1.387   1.392
  1.397   1.406   1.414   1.420   1.425   1.429   1.436   1.438
  1.446   1.448   1.452   1.460   1.468   1.475   1.481   1.482
  1.490   1.494   1.503   1.509   1.513   1.513   1.527   1.536
  1.543   1.563   1.568   1.569   1.578   1.583   1.586   1.593
  1.605   1.611   1.616   1.626   1.631   1.641   1.643   1.649
  1.657   1.659   1.666   1.667   1.674   1.689   1.694   1.701
  1.705   1.711   1.720   1.727   1.728   1.735   1.742   1.746
  1.756   1.771   1.776   1.783   1.790   1.798   1.804   1.808
  1.819   1.831   1.843   1.856   1.869   1.876   1.882   1.886
  1.896   1.904   1.911   1.916   1.926   1.936   1.944   1.952
  1.958   1.971   1.973   1.983   1.988   1.995   2.001   2.007
  2.014   2.019   2.034   2.039   2.042   2.053   2.063   2.070
  2.075   2.092   2.097   2.104   2.109   2.114   2.120   2.128
  2.139   2.153   2.163   2.176   2.178   2.182   2.186   2.198
  2.202   2.209   2.215   2.220   2.235   2.244   2.246   2.252
  2.262   2.278   2.287   2.294   2.295   2.300   2.313   2.316
  2.319   2.328   2.338   2.344   2.350   2.367   2.371   2.375
  2.387   2.393   2.397   2.402   2.410   2.417   2.424   2.427
  2.436   2.442   2.453   2.456   2.461   2.466   2.473   2.483
  2.486   2.496   2.507   2.515   2.522   2.528   2.530   2.533
  2.539   2.544   2.548   2.553   2.558   2.567   2.588   2.604
  2.609   2.614   2.624   2.633   2.638   2.642   2.649   2.658
  2.661   2.667   2.672   2.683   2.687   2.697   2.713   2.722
  2.729   2.734   2.742   2.759   2.766   2.773   2.774   2.780
  2.783   2.788   2.791   2.805   2.806   2.813   2.821   2.830
  2.836   2.837   2.847   2.853   2.863   2.870   2.875   2.879
  2.884   2.888   2.894   2.908   2.916   2.922   2.929   2.935
  2.941   2.943   2.947   2.950   2.954   2.967   2.973   2.980
  2.989   2.990   3.001   3.006   3.007   3.012   3.014   3.021
  3.023   3.032   3.038   3.039   3.043   3.054   3.056   3.062
  3.065   3.069   3.072   3.076   3.080   3.082   3.084   3.086
  3.093   3.099   3.100   3.105   3.117   3.121   3.124   3.129
  3.135   3.139   3.148   3.157   3.159   3.165   3.166   3.168
  3.173   3.179   3.187   3.193   3.197   3.199   3.202   3.209
  3.212   3.217   3.219   3.222   3.225   3.233   3.236   3.241
  3.244   3.245   3.248   3.258   3.261   3.265   3.270   3.272
  3.279   3.284   3.288   3.291   3.297   3.299   3.306   3.308
  3.308   3.312   3.318   3.323   3.324   3.333   3.337   3.340
  3.352   3.358   3.363   3.369   3.377   3.383   3.388   3.396
  3.400   3.401   3.408   3.413   3.418   3.422   3.424   3.434
  3.441   3.445   3.446   3.456   3.461   3.463   3.474   3.476
  3.480   3.483   3.490   3.498   3.508   3.511   3.514   3.519
  3.524   3.530   3.535   3.558   3.561   3.566   3.570   3.584
  3.584   3.597   3.610   3.620   3.621   3.634   3.641   3.644
  3.653   3.669   3.676   3.687   3.688   3.693   3.700   3.712
  3.713   3.721   3.731   3.735   3.739   3.750   3.753   3.756
  3.770   3.775   3.781   3.789   3.790   3.800   3.802   3.812
  3.816   3.831   3.836   3.839   3.852   3.857   3.874   3.878
  3.889   3.904   3.906   3.911   3.915   3.922   3.927   3.931
  3.934   3.937   3.940   3.952   3.957   3.960   3.967   3.982
  3.984   3.992   3.998   4.006   4.018   4.024   4.030   4.038
  4.046   4.059   4.068   4.073   4.077   4.091   4.098   4.103
  4.114   4.117   4.125   4.145   4.153   4.157   4.169   4.172
  4.186   4.193   4.200   4.204   4.207   4.218   4.221   4.227
  4.231   4.234   4.238   4.249   4.254   4.263   4.269   4.284
  4.286   4.293   4.298   4.313   4.322   4.323   4.329   4.337
  4.348   4.354   4.358   4.362   4.374   4.378   4.392   4.396
  4.406   4.410   4.426   4.433   4.437   4.443   4.447   4.452
  4.460   4.481   4.495   4.499   4.514   4.523   4.526   4.531
  4.546   4.554   4.563   4.573   4.584   4.591   4.603   4.607
  4.624   4.642   4.646   4.650   4.660   4.677   4.681   4.691
  4.714   4.725   4.733   4.743   4.755   4.773   4.779   4.792
  4.795   4.807   4.810   4.817   4.827   4.844   4.848   4.867
  4.874   4.878   4.887   4.893   4.902   4.916   4.922   4.936
  4.938   4.950   4.958   4.962   4.972   4.978   4.986   4.994
  4.999   5.004   5.010   5.018   5.034   5.046   5.048   5.055
  5.072   5.083   5.097   5.099   5.106   5.114   5.117   5.130
  5.137   5.144   5.151   5.156   5.172   5.176   5.185   5.192
  5.212   5.222   5.243   5.248   5.268   5.303   5.307   5.315
  5.321   5.344   5.353   5.377   5.384   5.403   5.424   5.429
  5.452   5.467   5.478   5.490   5.497   5.500   5.530   5.541
  5.563   5.577   5.578   5.592   5.599   5.609   5.628   5.648
  5.674   5.697   5.720   5.723   5.745   5.753   5.755   5.792
  5.799   5.832   5.840   5.859   5.881   5.900   5.912   5.928
  5.953   5.977   6.017   6.044   6.087   6.133   6.158   6.184
  6.204   6.244   6.254   6.303   6.325   6.354   6.383   6.432
  6.446   6.492   6.639   6.874   6.988   7.080   8.068   8.889
  9.818  10.202  10.667  11.139  11.260  11.685  12.018  12.133
 12.416  12.639  12.766  12.832  12.856  12.965  13.087  13.176
 13.331  13.430  13.555  14.165  14.389  14.664  15.067  15.103
 --------------------------------------------------------------
 
          Ground-State Mulliken Net Atomic Charges

     Atom                 Charge (a.u.)
  ----------------------------------------
      1 C                    -0.088177
      2 C                    -0.131289
      3 C                    -0.081094
      4 C                    -0.120571
      5 N                    -0.145347
      6 C                     0.082593
      7 C                     0.099467
      8 N                    -0.177879
      9 C                    -0.015325
     10 C                    -0.083836
     11 N                    -0.218732
     12 C                     0.050396
     13 C                     0.059417
     14 S                     0.407288
     15 N                    -0.306516
     16 C                    -0.071694
     17 S                     0.177897
     18 C                     0.060497
     19 C                    -0.055102
     20 N                    -0.170327
     21 C                     0.063624
     22 C                    -0.011915
     23 C                    -0.042316
     24 N                    -0.161342
     25 C                    -0.137249
     26 S                     0.103465
     27 C                    -0.046651
     28 C                    -0.158396
     29 C                    -0.182129
     30 H                     0.129231
     31 H                     0.121146
     32 H                     0.120738
     33 H                     0.139364
     34 H                     0.136419
     35 H                     0.124321
     36 H                     0.133399
     37 H                     0.129067
     38 H                     0.131289
     39 H                     0.136264
  ----------------------------------------
  Sum of atomic charges =     0.000000

 -----------------------------------------------------------------
                    Cartesian Multipole Moments
 -----------------------------------------------------------------
    Charge (ESU x 10^10)
                 0.0000
    Dipole Moment (Debye)
         X      -0.3440      Y       1.5655      Z       0.7673
       Tot       1.7770
    Quadrupole Moments (Debye-Ang)
        XX    -151.7291     XY       3.4581     YY    -164.8040
        XZ       0.1741     YZ       2.5887     ZZ    -186.8655
    Octopole Moments (Debye-Ang^2)
       XXX     104.5787    XXY      14.5667    XYY     -38.1539
       YYY      38.6875    XXZ      15.9767    XYZ      -7.1076
       YYZ       5.7402    XZZ       0.9422    YZZ      -7.7038
       ZZZ       2.9580
    Hexadecapole Moments (Debye-Ang^3)
      XXXX  -15944.9100   XXXY     566.7096   XXYY   -3533.5695
      XYYY    -160.8537   YYYY   -3425.9776   XXXZ    -115.6314
      XXYZ     134.6528   XYYZ      36.7843   YYYZ      20.7398
      XXZZ   -3459.9133   XYZZ     -30.2526   YYZZ    -724.9878
      XZZZ      12.4655   YZZZ      -6.4981   ZZZZ    -322.2447
 -----------------------------------------------------------------
 Calculating analytic gradient of the SCF energy
 K construction time:  CPU 2716.81 s  wall 681.12 s
 Gradient of SCF Energy
            1           2           3           4           5           6
    1  -0.0000017   0.0001032   0.0000023   0.0000183  -0.0000176   0.0000505
    2   0.0000514  -0.0000061  -0.0000299   0.0000283   0.0000318   0.0001094
    3  -0.0000937  -0.0000574   0.0002199   0.0000163   0.0000248   0.0000014
            7           8           9          10          11          12
    1  -0.0000119   0.0000755  -0.0001662  -0.0001526   0.0000393  -0.0001797
    2  -0.0001004   0.0000461  -0.0000666   0.0001309   0.0000561   0.0000162
    3   0.0000334  -0.0000880   0.0002083  -0.0001001  -0.0001673   0.0001622
           13          14          15          16          17          18
    1   0.0001821  -0.0000413   0.0000594   0.0000055   0.0000369  -0.0001210
    2  -0.0001422  -0.0000613   0.0000414   0.0000448  -0.0000268   0.0001128
    3  -0.0002115   0.0001006  -0.0000845  -0.0000214  -0.0001183   0.0001207
           19          20          21          22          23          24
    1   0.0001849  -0.0000391  -0.0002398  -0.0001094  -0.0000262   0.0000449
    2  -0.0000886  -0.0000412   0.0000029   0.0000097  -0.0000024   0.0000454
    3   0.0000931  -0.0000496   0.0000650   0.0000266   0.0001021  -0.0000061
           25          26          27          28          29          30
    1   0.0000251   0.0000820   0.0000789   0.0002169  -0.0001608   0.0000067
    2  -0.0000215  -0.0000717  -0.0000177   0.0001102   0.0000102  -0.0000577
    3   0.0000995  -0.0001184  -0.0000684   0.0000834   0.0000153   0.0001315
           31          32          33          34          35          36
    1   0.0000029  -0.0000574  -0.0000560   0.0001235   0.0001023  -0.0000442
    2   0.0000058   0.0000057  -0.0000320   0.0000128  -0.0000084   0.0000436
    3   0.0000253  -0.0001051  -0.0000658   0.0001355  -0.0000831  -0.0002010
           37          38          39
    1   0.0000057  -0.0000137  -0.0000082
    2  -0.0000403  -0.0000821  -0.0000187
    3   0.0000785  -0.0000910  -0.0000125
 Max gradient component =       2.398E-04
 RMS gradient           =       9.121E-05
 Gradient time:  CPU 3220.36 s  wall 808.22 s
 Geometry Optimization Parameters
   NAtoms,    NIC,     NZ,  NCons,   NDum,   NFix, NCnnct, MaxDiis
       39     293       0       3       0       0       0       0


** CONSTRAINED OPTIMIZATION IN DELOCALIZED INTERNAL COORDINATES **
   Searching for a Minimum

   Optimization Cycle:   1

                       Coordinates (Angstroms)
     ATOM                X               Y               Z
      1  C         7.6790646706    0.3357776156   -0.1901574176
      2  C         6.9953457650    1.5134072055    0.0651226925
      3  C         6.9394475788   -0.8136223967   -0.4203255317
      4  C         5.6154272506    1.4922114787    0.0887271134
      5  N         5.6137050930   -0.8490762594   -0.3973890048
      6  C         4.9616771691    0.2827122658   -0.1409598184
      7  C         3.4782048724    0.2403329076   -0.1125604266
      8  N         2.8453028886    1.3654915503   -0.2996500815
      9  C         2.7186666511   -0.9517618987    0.1279800074
     10  C         1.4922241183    1.4400335468   -0.2847815285
     11  N         3.1697089002   -2.1786476177    0.3943951378
     12  C         1.2886613222   -0.8689308809    0.1317728068
     13  C         0.6357900964    0.3838365667   -0.0791043429
     14  S         1.8803890142   -3.1084320375    0.5996407658
     15  N         0.6968188597   -2.0361644220    0.3784654499
     16  C        -0.8107016964    0.5407620540   -0.0430217882
     17  S        -1.8915840427   -0.7957311462   -0.0739196004
     18  C        -1.5592864030    1.7148501935    0.0366485360
     19  C        -3.3122293539    0.1455815049   -0.0149081816
     20  N        -1.0570275698    2.9806746905    0.0912575804
     21  C        -2.9722187018    1.4913190244    0.0574793682
     22  C        -4.6322818449   -0.4451760996   -0.0250307764
     23  C        -1.9318433094    3.9361917148    0.1578455000
     24  N        -3.8604454045    2.5189948369    0.1292478448
     25  C        -5.8012964791    0.1030227479    0.4270360557
     26  S        -4.9137403457   -2.0326365997   -0.6649264415
     27  C        -3.3418043230    3.7072707799    0.1765973204
     28  C        -6.9131932778   -0.7574253230    0.2702900224
     29  C        -6.5848036424   -1.9474334721   -0.2981407213
     30  H         8.7588969426    0.3058998959   -0.2106947418
     31  H         7.5311493700    2.4356071423    0.2459509268
     32  H         7.4345295048   -1.7533569340   -0.6372543719
     33  H         5.0334985720    2.3814471795    0.2767174142
     34  H         1.0881931887    2.4291013365   -0.4287094366
     35  H        -1.5550204283    4.9523331451    0.1942609334
     36  H        -5.8448136482    1.0948076058    0.8448841113
     37  H        -4.0224631273    4.5491231291    0.2369373612
     38  H        -7.9156062429   -0.4985960738    0.5757515314
     39  H        -7.2349402893   -2.7742365525   -0.5279011362
   Point Group: c1    Number of degrees of freedom:   111


   Energy is  -2291.195686871

              Constraints and their Current Values
                                        Value     Constraint
   Dihedral:        4   6   7   8       21.385        0.000
   Dihedral:       10  13  16  17      168.550      168.550
   Dihedral:       17  19  22  25      157.507      157.507

 Attempting to Generate Delocalized Internal Coordinates
**WARNING** Constraint Gradient Reduced for constraint   1

   Using Lagrange Multiplier Algorithm


114 Hessian modes will be used to form the next step
  Hessian Eigenvalues:
    -0.977753   -0.977753   -0.977753    0.045000    0.045000    0.045000
     0.045000    0.045000    0.045000    0.045000    0.045000    0.045000
     0.045000    0.045000    0.045000    0.045000    0.045001    0.045001
     0.045001    0.045001    0.045001    0.045001    0.045001    0.045002
     0.045002    0.045002    0.045002    0.045003    0.045003    0.045005
     0.045005    0.045007    0.045011    0.045014    0.045024    0.045038
     0.159979    0.159988    0.159995    0.159997    0.159998    0.159999
     0.159999    0.160000    0.160000    0.160000    0.219998    0.221293
     0.223767    0.224238    0.233058    0.237960    0.243335    0.244279
     0.249699    0.249896    0.249928    0.249967    0.249969    0.249974
     0.249978    0.249983    0.249989    0.249991    0.249993    0.249994
     0.249997    0.312648    0.327909    0.333771    0.340764    0.341529
     0.354711    0.354827    0.355039    0.357807    0.359411    0.360654
     0.360884    0.362299    0.363479    0.364081    0.369035    0.372880
     0.375428    0.387406    0.391082    0.406768    0.407215    0.419671
     0.432407    0.441186    0.460025    0.465913    0.470115    0.473382
     0.482756    0.484227    0.485021    0.485943    0.503852    0.517208
     0.519359    0.525121    0.558131    0.573050    0.582460    0.590605
     0.639844    0.655325    0.664015    1.022753    1.022753    1.022753

 Minimum Search - Taking P-RFO Step
 Searching for Lamda that Maximizes Along the Constraint modes Only
 Value Taken    Lamda =   0.04505173


 ********************************************
 ** ERROR IN DETERMINING Lamda IN CONFormD **
 ********************************************


 ** Scaling Hessian by  2.002299 **


114 Hessian modes will be used to form the next step
  Hessian Eigenvalues:
    -0.955963   -0.955963   -0.955963    0.090103    0.090103    0.090103
     0.090103    0.090103    0.090104    0.090104    0.090104    0.090104
     0.090104    0.090104    0.090104    0.090104    0.090105    0.090105
     0.090105    0.090105    0.090105    0.090106    0.090106    0.090108
     0.090108    0.090108    0.090108    0.090109    0.090109    0.090113
     0.090113    0.090118    0.090126    0.090131    0.090152    0.090181
     0.320326    0.320344    0.320357    0.320362    0.320364    0.320366
     0.320367    0.320367    0.320367    0.320368    0.440501    0.443094
     0.448048    0.448991    0.466652    0.476468    0.487229    0.489119
     0.499972    0.500368    0.500431    0.500509    0.500513    0.500523
     0.500531    0.500540    0.500553    0.500557    0.500561    0.500564
     0.500569    0.626014    0.656572    0.668308    0.682311    0.683844
     0.710237    0.710470    0.710894    0.716437    0.719649    0.722138
     0.722598    0.725430    0.727794    0.728999    0.738919    0.746618
     0.751719    0.775703    0.783063    0.814472    0.815366    0.840307
     0.865809    0.883387    0.921107    0.932897    0.941310    0.947851
     0.966623    0.969567    0.971157    0.973004    1.008863    1.035604
     1.039911    1.046066    1.046066    1.046066    1.051448    1.117546
     1.147418    1.166259    1.182568    1.281160    1.312156    1.329556

 Minimum Search - Taking P-RFO Step
 Searching for Lamda that Maximizes Along the Constraint modes Only
 Value Taken    Lamda =   0.04695510
 Searching for Lamda that Minimizes Along All other modes
 Value Taken    Lamda =  -0.03952874
 Step Taken.  Stepsize is  0.287478

                             Maximum     Tolerance    Cnvgd?
         Gradient            0.300000       0.000300      NO
         Displacement        0.287444       0.001200      NO
         Energy change     *********       0.000001      NO


 New Cartesian Coordinates Obtained by Inverse Iteration

 Displacement from previous Coordinates is:  1.353023
 ----------------------------------------------------------------
             Standard Nuclear Orientation (Angstroms)
    I     Atom           X                Y                Z
 ----------------------------------------------------------------
    1      C       7.6781166371     0.3563402524    -0.1670780126
    2      C       6.9769031241     1.5489682408    -0.0964849206
    3      C       6.9550509921    -0.8243264579    -0.2300907152
    4      C       5.5974070226     1.5114706034    -0.0715374589
    5      N       5.6298292597    -0.8745114314    -0.2041421289
    6      C       4.9615375735     0.2709636419    -0.0878337047
    7      C       3.4792255298     0.2179076895    -0.1436457279
    8      N       2.8485637334     1.3524759451    -0.2742620624
    9      C       2.7169055456    -0.9714957587     0.1030472746
   10      C       1.4958270205     1.4304572628    -0.2573741159
   11      N       3.1649070466    -2.2000391422     0.3673156546
   12      C       1.2869559668    -0.8850971472     0.1121860244
   13      C       0.6366624229     0.3722133047    -0.0776867838
   14      S       1.8735284202    -3.1281699203     0.5670869997
   15      N       0.6922439285    -2.0524612856     0.3509531882
   16      C      -0.8093364370     0.5329259398    -0.0380020391
   17      S      -1.8952098273    -0.7984194045    -0.1016352053
   18      C      -1.5537192225     1.7077285583     0.0667264764
   19      C      -3.3124730699     0.1465730053    -0.0224949636
   20      N      -1.0472173517     2.9703472055     0.1502114181
   21      C      -2.9674566645     1.4889666271     0.0806042708
   22      C      -4.6347898268    -0.4386171455    -0.0475149059
   23      C      -1.9189086650     3.9271982855     0.2366999321
   24      N      -3.8523023206     2.5178291601     0.1739534619
   25      C      -5.8021806893     0.1036591532     0.4158536442
   26      S      -4.9219164442    -2.0096926079    -0.7240767697
   27      C      -3.3296988174     3.7029532166     0.2483534505
   28      C      -6.9174615500    -0.7483426512     0.2379730341
   29      C      -6.5930646822    -1.9261675030    -0.3575068497
   30      H       8.7582745357     0.3394347174    -0.1848750517
   31      H       7.4987136837     2.4960713115    -0.0659564155
   32      H       7.4636464890    -1.7781106419    -0.3131897576
   33      H       5.0023878443     2.4111910893    -0.0370503772
   34      H       1.0941717617     2.4243466997    -0.3720277076
   35      H      -1.5389078276     4.9410306302     0.2964563694
   36      H      -5.8420581548     1.0854708734     0.8570248683
   37      H      -4.0074911402     4.5457179028     0.3261002993
   38      H      -7.9190698182    -0.4924093845     0.5485449597
   39      H      -7.2461943312    -2.7448184302    -0.6070525202
 ----------------------------------------------------------------
 Molecular Point Group                 C1    NOp =  1
 Largest Abelian Subgroup              C1    NOp =  1
 Nuclear Repulsion Energy =  2930.3298387583 hartrees
 There are      110 alpha and      110 beta electrons
 Applying Cartesian multipole field
    Component          Value
    ---------          -----
     (2,0,0)        1.00000E-12
     (0,2,0)        2.00000E-11
     (0,0,2)       -3.00000E-10
 Nucleus-field energy     =     0.0000000455 hartrees
 Requested basis set is cc-pVTZ
 There are 356 shells and 1022 basis functions
 A cutoff of  1.0D-11 yielded  30938 shell pairs
 There are    243984 function pairs (    318431 Cartesian)
 Smallest overlap matrix eigenvalue = 2.55E-05
 Guess MOs from SCF MO coefficient file
 Reading MOs from coefficient file
 Reading MOs from coefficient file
 Long-range K will be added via erf
 Coulomb attenuation parameter = 0.2 bohr**(-1)
 A restricted hybrid HF-DFT SCF calculation will be
 performed using Pulay DIIS extrapolation
 Exchange:     0.2220 Hartree-Fock + 1.0000 wB97X-D + LR-HF
 Correlation:  1.0000 wB97X-D
 Using SG-1 standard quadrature grid
 Dispersion:   Grimme D
 SCF converges when DIIS error is below 1.0E-08
 Geometry optimization detected.  Setting ReadMinima to 0
 Setting SaveMinima to 0
 using 4 threads for integral computing 
 using 4 threads for integral computing 
 K construction time:  CPU 1408.09 s  wall 355.80 s
 -------------------------------------------------------
 OpenMP BLAS3 based DFT computing Module                
 Release: version 1.0, May 2013, Q-Chem Inc. Pittsburgh 
 -------------------------------------------------------
 ---------------------------------------
  Cycle       Energy         DIIS Error
 ---------------------------------------
    1   -2291.1368642640      8.86E-04
 K construction time:  CPU 1430.12 s  wall 359.78 s
    2   -2291.1882740396      1.46E-04
 K construction time:  CPU 1047.16 s  wall 263.41 s
    3   -2291.1915663625      1.24E-04
 K construction time:  CPU 999.35 s  wall 251.45 s
    4   -2291.1935655320      3.98E-05
 K construction time:  CPU 937.50 s  wall 235.87 s
    5   -2291.1937791335      2.48E-05
 K construction time:  CPU 893.69 s  wall 224.74 s
    6   -2291.1938737172      8.71E-06
 K construction time:  CPU 816.36 s  wall 205.30 s
    7   -2291.1938842606      2.93E-06
 K construction time:  CPU 769.10 s  wall 193.31 s
    8   -2291.1938861398      9.31E-07
 K construction time:  CPU 725.94 s  wall 182.46 s
    9   -2291.1938864806      5.97E-07
 K construction time:  CPU 671.71 s  wall 168.71 s
   10   -2291.1938865692      2.32E-07
 K construction time:  CPU 624.33 s  wall 156.78 s
   11   -2291.1938865932      1.13E-07
 K construction time:  CPU 566.87 s  wall 142.28 s
   12   -2291.1938865980      4.76E-08
 K construction time:  CPU 497.42 s  wall 124.85 s
   13   -2291.1938865999      1.67E-08
 K construction time:  CPU 435.26 s  wall 109.21 s
   14   -2291.1938866019      6.24E-09 Convergence criterion met
 ---------------------------------------
 SCF time:  CPU 15664.61 s  wall 3957.41 s
 SCF   energy in the final basis set = -2291.1938866019
 Total energy in the final basis set = -2291.1938866019
 
 --------------------------------------------------------------
 
                    Orbital Energies (a.u.)
 --------------------------------------------------------------
 
 Alpha MOs
 -- Occupied --
-89.152 -89.107 -89.087 -14.481 -14.479 -14.463 -14.463 -14.445
-14.433 -10.355 -10.352 -10.350 -10.346 -10.344 -10.344 -10.343
-10.342 -10.339 -10.336 -10.335 -10.330 -10.326 -10.323 -10.320
-10.309 -10.301 -10.297 -10.295 -10.293  -8.157  -8.116  -8.097
 -6.106  -6.101  -6.100  -6.064  -6.061  -6.059  -6.046  -6.042
 -6.039  -1.142  -1.102  -1.068  -1.048  -1.030  -1.013  -1.003
 -0.986  -0.925  -0.911  -0.895  -0.879  -0.869  -0.853  -0.838
 -0.811  -0.776  -0.772  -0.749  -0.737  -0.731  -0.715  -0.711
 -0.672  -0.655  -0.649  -0.629  -0.628  -0.620  -0.607  -0.603
 -0.587  -0.574  -0.567  -0.560  -0.557  -0.548  -0.543  -0.526
 -0.511  -0.509  -0.501  -0.498  -0.493  -0.492  -0.485  -0.484
 -0.473  -0.467  -0.462  -0.460  -0.451  -0.443  -0.429  -0.427
 -0.418  -0.411  -0.392  -0.377  -0.372  -0.360  -0.356  -0.351
 -0.343  -0.339  -0.334  -0.332  -0.320  -0.263
 -- Virtual --
 -0.055  -0.025   0.024   0.032   0.042   0.051   0.073   0.073
  0.086   0.089   0.118   0.124   0.125   0.127   0.132   0.136
  0.150   0.154   0.156   0.164   0.169   0.176   0.183   0.191
  0.200   0.205   0.213   0.216   0.221   0.234   0.243   0.249
  0.263   0.265   0.268   0.277   0.280   0.288   0.294   0.295
  0.300   0.304   0.309   0.314   0.318   0.324   0.325   0.331
  0.334   0.339   0.343   0.348   0.350   0.352   0.355   0.357
  0.364   0.368   0.371   0.378   0.382   0.384   0.386   0.390
  0.392   0.395   0.397   0.399   0.403   0.408   0.409   0.411
  0.414   0.420   0.422   0.427   0.431   0.434   0.438   0.442
  0.446   0.447   0.450   0.455   0.458   0.461   0.464   0.465
  0.469   0.474   0.475   0.478   0.483   0.484   0.487   0.493
  0.496   0.501   0.503   0.509   0.511   0.517   0.518   0.521
  0.526   0.531   0.533   0.536   0.539   0.543   0.548   0.556
  0.558   0.565   0.569   0.576   0.578   0.590   0.594   0.600
  0.607   0.608   0.608   0.617   0.618   0.626   0.635   0.642
  0.643   0.651   0.656   0.660   0.662   0.667   0.669   0.678
  0.685   0.686   0.695   0.698   0.703   0.708   0.712   0.719
  0.723   0.728   0.733   0.736   0.746   0.747   0.754   0.758
  0.763   0.768   0.772   0.775   0.776   0.782   0.788   0.790
  0.793   0.799   0.802   0.807   0.809   0.818   0.823   0.826
  0.831   0.835   0.840   0.841   0.846   0.850   0.854   0.859
  0.862   0.870   0.872   0.875   0.884   0.888   0.899   0.904
  0.907   0.912   0.919   0.921   0.923   0.930   0.934   0.942
  0.947   0.951   0.953   0.957   0.963   0.965   0.968   0.972
  0.972   0.983   0.990   0.997   0.999   1.009   1.014   1.017
  1.020   1.031   1.031   1.039   1.045   1.050   1.057   1.059
  1.068   1.071   1.076   1.085   1.087   1.092   1.093   1.102
  1.104   1.109   1.117   1.121   1.122   1.129   1.138   1.140
  1.151   1.155   1.164   1.171   1.176   1.185   1.191   1.193
  1.205   1.212   1.214   1.219   1.231   1.234   1.239   1.251
  1.257   1.260   1.268   1.277   1.284   1.292   1.297   1.309
  1.312   1.315   1.319   1.330   1.340   1.342   1.348   1.354
  1.356   1.367   1.371   1.373   1.380   1.384   1.388   1.394
  1.396   1.405   1.413   1.422   1.424   1.427   1.438   1.439
  1.445   1.450   1.455   1.460   1.471   1.475   1.480   1.491
  1.491   1.497   1.504   1.514   1.515   1.517   1.528   1.534
  1.543   1.564   1.569   1.570   1.577   1.581   1.587   1.593
  1.606   1.611   1.616   1.628   1.632   1.641   1.643   1.649
  1.656   1.658   1.665   1.669   1.674   1.690   1.695   1.703
  1.706   1.714   1.721   1.728   1.730   1.732   1.744   1.752
  1.756   1.772   1.775   1.783   1.787   1.798   1.805   1.814
  1.819   1.834   1.844   1.857   1.869   1.875   1.880   1.886
  1.895   1.901   1.908   1.917   1.926   1.935   1.943   1.952
  1.958   1.968   1.973   1.983   1.994   1.997   2.003   2.008
  2.016   2.020   2.034   2.040   2.042   2.049   2.063   2.069
  2.087   2.094   2.096   2.100   2.110   2.113   2.118   2.128
  2.146   2.157   2.164   2.174   2.179   2.185   2.191   2.196
  2.203   2.209   2.212   2.219   2.236   2.244   2.248   2.252
  2.261   2.283   2.287   2.290   2.295   2.300   2.313   2.319
  2.323   2.326   2.337   2.341   2.356   2.356   2.372   2.376
  2.389   2.394   2.401   2.407   2.416   2.418   2.426   2.432
  2.438   2.443   2.455   2.458   2.460   2.468   2.473   2.483
  2.494   2.499   2.508   2.516   2.521   2.527   2.529   2.532
  2.541   2.545   2.556   2.560   2.560   2.571   2.591   2.607
  2.609   2.615   2.623   2.632   2.639   2.642   2.651   2.660
  2.665   2.669   2.674   2.683   2.688   2.696   2.713   2.719
  2.729   2.742   2.756   2.759   2.770   2.773   2.779   2.781
  2.784   2.789   2.795   2.801   2.807   2.813   2.821   2.833
  2.838   2.840   2.846   2.856   2.864   2.872   2.877   2.883
  2.885   2.888   2.900   2.908   2.915   2.927   2.928   2.935
  2.941   2.942   2.948   2.954   2.956   2.968   2.970   2.980
  2.984   2.991   2.997   3.006   3.010   3.014   3.015   3.021
  3.025   3.030   3.037   3.044   3.045   3.052   3.059   3.063
  3.066   3.070   3.073   3.074   3.076   3.080   3.082   3.092
  3.093   3.097   3.100   3.107   3.115   3.121   3.122   3.130
  3.133   3.137   3.142   3.155   3.159   3.165   3.166   3.167
  3.178   3.179   3.188   3.194   3.197   3.202   3.204   3.209
  3.212   3.213   3.219   3.223   3.227   3.234   3.236   3.237
  3.242   3.245   3.247   3.251   3.258   3.266   3.266   3.271
  3.278   3.284   3.290   3.292   3.297   3.300   3.306   3.309
  3.310   3.312   3.320   3.325   3.326   3.334   3.336   3.344
  3.353   3.358   3.366   3.371   3.379   3.381   3.387   3.396
  3.397   3.401   3.408   3.411   3.416   3.423   3.427   3.436
  3.438   3.443   3.448   3.457   3.458   3.463   3.468   3.475
  3.482   3.485   3.493   3.499   3.504   3.505   3.513   3.518
  3.524   3.532   3.533   3.558   3.561   3.568   3.575   3.581
  3.585   3.597   3.616   3.620   3.622   3.631   3.636   3.646
  3.654   3.668   3.680   3.686   3.689   3.692   3.701   3.711
  3.714   3.721   3.730   3.734   3.738   3.745   3.753   3.755
  3.771   3.778   3.784   3.789   3.792   3.801   3.803   3.811
  3.816   3.829   3.840   3.841   3.850   3.859   3.875   3.880
  3.890   3.900   3.906   3.910   3.914   3.923   3.929   3.932
  3.935   3.938   3.948   3.952   3.953   3.959   3.968   3.982
  3.987   3.994   3.997   4.008   4.018   4.025   4.032   4.039
  4.046   4.061   4.069   4.074   4.077   4.085   4.096   4.105
  4.112   4.124   4.129   4.145   4.154   4.161   4.167   4.171
  4.186   4.190   4.202   4.204   4.208   4.217   4.224   4.228
  4.232   4.232   4.238   4.251   4.256   4.263   4.268   4.282
  4.293   4.296   4.303   4.312   4.321   4.322   4.334   4.344
  4.350   4.352   4.359   4.362   4.375   4.377   4.392   4.400
  4.406   4.411   4.427   4.433   4.437   4.441   4.447   4.452
  4.460   4.483   4.495   4.502   4.512   4.525   4.533   4.541
  4.553   4.557   4.567   4.578   4.585   4.590   4.606   4.613
  4.626   4.635   4.645   4.647   4.661   4.677   4.684   4.691
  4.714   4.721   4.735   4.741   4.755   4.776   4.780   4.791
  4.795   4.806   4.809   4.813   4.828   4.844   4.847   4.867
  4.877   4.879   4.885   4.892   4.902   4.914   4.919   4.930
  4.935   4.952   4.957   4.962   4.972   4.977   4.988   4.991
  4.999   5.003   5.011   5.016   5.035   5.042   5.051   5.058
  5.079   5.084   5.090   5.097   5.105   5.113   5.120   5.130
  5.137   5.143   5.153   5.157   5.171   5.180   5.191   5.196
  5.214   5.222   5.245   5.248   5.267   5.303   5.311   5.315
  5.321   5.338   5.359   5.377   5.382   5.405   5.428   5.433
  5.447   5.469   5.480   5.487   5.502   5.506   5.530   5.543
  5.573   5.580   5.585   5.593   5.599   5.611   5.629   5.653
  5.685   5.703   5.716   5.722   5.746   5.754   5.759   5.793
  5.801   5.832   5.843   5.871   5.883   5.907   5.911   5.930
  5.957   5.984   6.014   6.040   6.088   6.132   6.159   6.186
  6.209   6.245   6.254   6.306   6.327   6.356   6.383   6.431
  6.445   6.501   6.639   6.863   6.988   7.089   8.080   8.904
  9.820  10.200  10.663  11.138  11.260  11.677  12.030  12.127
 12.415  12.679  12.774  12.828  12.856  12.973  13.088  13.176
 13.339  13.465  13.555  14.165  14.388  14.659  15.083  15.113
 --------------------------------------------------------------
 
          Ground-State Mulliken Net Atomic Charges

     Atom                 Charge (a.u.)
  ----------------------------------------
      1 C                    -0.086579
      2 C                    -0.128874
      3 C                    -0.083819
      4 C                    -0.120326
      5 N                    -0.142446
      6 C                     0.063819
      7 C                     0.107653
      8 N                    -0.175149
      9 C                    -0.006474
     10 C                    -0.088080
     11 N                    -0.217248
     12 C                     0.046654
     13 C                     0.062185
     14 S                     0.405770
     15 N                    -0.306235
     16 C                    -0.071131
     17 S                     0.178237
     18 C                     0.060459
     19 C                    -0.055351
     20 N                    -0.170327
     21 C                     0.063847
     22 C                    -0.011946
     23 C                    -0.042771
     24 N                    -0.161590
     25 C                    -0.137628
     26 S                     0.103650
     27 C                    -0.046473
     28 C                    -0.158292
     29 C                    -0.182140
     30 H                     0.128785
     31 H                     0.118949
     32 H                     0.118761
     33 H                     0.144593
     34 H                     0.134468
     35 H                     0.124722
     36 H                     0.133799
     37 H                     0.128947
     38 H                     0.131313
     39 H                     0.136265
  ----------------------------------------
  Sum of atomic charges =     0.000000

 -----------------------------------------------------------------
                    Cartesian Multipole Moments
 -----------------------------------------------------------------
    Charge (ESU x 10^10)
                 0.0000
    Dipole Moment (Debye)
         X      -0.3926      Y       1.6183      Z       0.4869
       Tot       1.7350
    Quadrupole Moments (Debye-Ang)
        XX    -152.1888     XY       3.7550     YY    -164.7391
        XZ      -1.3041     YZ       2.2515     ZZ    -186.7784
    Octopole Moments (Debye-Ang^2)
       XXX      99.7989    XXY      15.9474    XYY     -35.9186
       YYY      41.2810    XXZ       8.8483    XYZ     -14.0252
       YYZ       5.1549    XZZ      -0.0880    YZZ      -7.5062
       ZZZ       4.0817
    Hexadecapole Moments (Debye-Ang^3)
      XXXX  -15971.3584   XXXY     577.5460   XXYY   -3533.6659
      XYYY    -151.3839   YYYY   -3431.1735   XXXZ    -153.2474
      XXYZ      98.1716   XYYZ      15.4680   YYYZ       9.9924
      XXZZ   -3461.6809   XYZZ     -28.2631   YYZZ    -724.4349
      XZZZ      -7.5573   YZZZ     -20.7252   ZZZZ    -317.3662
 -----------------------------------------------------------------
 Calculating analytic gradient of the SCF energy
 K construction time:  CPU 2778.92 s  wall 696.60 s
 Gradient of SCF Energy
            1           2           3           4           5           6
    1   0.0006292  -0.0010312  -0.0006287   0.0001863  -0.0010137  -0.0011705
    2   0.0002340   0.0002067   0.0000476  -0.0008969   0.0000818  -0.0003924
    3   0.0000903  -0.0008102  -0.0003136  -0.0041945  -0.0030661   0.0169712
            7           8           9          10          11          12
    1   0.0000760   0.0016589  -0.0000493  -0.0008589   0.0007283   0.0001055
    2  -0.0017982   0.0006755   0.0008438  -0.0001286   0.0008964   0.0001944
    3  -0.0169857   0.0042146   0.0025109   0.0011625   0.0012714   0.0007136
           13          14          15          16          17          18
    1   0.0004083  -0.0000663   0.0003214  -0.0000701  -0.0001015  -0.0000179
    2   0.0000972  -0.0002391  -0.0000892   0.0000025   0.0000258  -0.0000203
    3  -0.0003225  -0.0002991  -0.0003135  -0.0000527  -0.0002441  -0.0000452
           19          20          21          22          23          24
    1   0.0001252   0.0000812  -0.0001368  -0.0000289  -0.0000502   0.0000147
    2  -0.0000044  -0.0000741  -0.0000412   0.0000236   0.0000528   0.0000080
    3   0.0001934   0.0000360   0.0000923  -0.0000611  -0.0001496  -0.0000622
           25          26          27          28          29          30
    1  -0.0001606   0.0000236   0.0000502   0.0000751  -0.0000041  -0.0000164
    2   0.0000975   0.0000050   0.0000314  -0.0000342   0.0000069   0.0000913
    3  -0.0001234  -0.0000616   0.0000577  -0.0000203   0.0000930   0.0001702
           31          32          33          34          35          36
    1   0.0007722   0.0004390  -0.0004098   0.0000057   0.0000904   0.0000386
    2  -0.0000800   0.0000637   0.0002458   0.0000236  -0.0000461  -0.0000255
    3   0.0002854  -0.0001204  -0.0005864  -0.0001100   0.0001343   0.0000737
           37          38          39
    1  -0.0000262  -0.0000183   0.0000296
    2  -0.0000207  -0.0000560  -0.0000085
    3   0.0000165  -0.0000476  -0.0000973
 Max gradient component =       1.699E-02
 RMS gradient           =       2.355E-03
 Gradient time:  CPU 3293.99 s  wall 826.58 s
 Geometry Optimization Parameters
   NAtoms,    NIC,     NZ,  NCons,   NDum,   NFix, NCnnct, MaxDiis
       39     293       0       3       0       0       0       0

 Cartesian Hessian Update
 Hessian Updated using BFGS Update


** CONSTRAINED OPTIMIZATION IN DELOCALIZED INTERNAL COORDINATES **
   Searching for a Minimum

   Optimization Cycle:   2

                       Coordinates (Angstroms)
     ATOM                X               Y               Z
      1  C         7.6781166371    0.3563402524   -0.1670780126
      2  C         6.9769031241    1.5489682408   -0.0964849206
      3  C         6.9550509921   -0.8243264579   -0.2300907152
      4  C         5.5974070226    1.5114706034   -0.0715374589
      5  N         5.6298292597   -0.8745114314   -0.2041421289
      6  C         4.9615375735    0.2709636419   -0.0878337047
      7  C         3.4792255298    0.2179076895   -0.1436457279
      8  N         2.8485637334    1.3524759451   -0.2742620624
      9  C         2.7169055456   -0.9714957587    0.1030472746
     10  C         1.4958270205    1.4304572628   -0.2573741159
     11  N         3.1649070466   -2.2000391422    0.3673156546
     12  C         1.2869559668   -0.8850971472    0.1121860244
     13  C         0.6366624229    0.3722133047   -0.0776867838
     14  S         1.8735284202   -3.1281699203    0.5670869997
     15  N         0.6922439285   -2.0524612856    0.3509531882
     16  C        -0.8093364370    0.5329259398   -0.0380020391
     17  S        -1.8952098273   -0.7984194045   -0.1016352053
     18  C        -1.5537192225    1.7077285583    0.0667264764
     19  C        -3.3124730699    0.1465730053   -0.0224949636
     20  N        -1.0472173517    2.9703472055    0.1502114181
     21  C        -2.9674566645    1.4889666271    0.0806042708
     22  C        -4.6347898268   -0.4386171455   -0.0475149059
     23  C        -1.9189086650    3.9271982855    0.2366999321
     24  N        -3.8523023206    2.5178291601    0.1739534619
     25  C        -5.8021806893    0.1036591532    0.4158536442
     26  S        -4.9219164442   -2.0096926079   -0.7240767697
     27  C        -3.3296988174    3.7029532166    0.2483534505
     28  C        -6.9174615500   -0.7483426512    0.2379730341
     29  C        -6.5930646822   -1.9261675030   -0.3575068497
     30  H         8.7582745357    0.3394347174   -0.1848750517
     31  H         7.4987136837    2.4960713115   -0.0659564155
     32  H         7.4636464890   -1.7781106419   -0.3131897576
     33  H         5.0023878443    2.4111910893   -0.0370503772
     34  H         1.0941717617    2.4243466997   -0.3720277076
     35  H        -1.5389078276    4.9410306302    0.2964563694
     36  H        -5.8420581548    1.0854708734    0.8570248683
     37  H        -4.0074911402    4.5457179028    0.3261002993
     38  H        -7.9190698182   -0.4924093845    0.5485449597
     39  H        -7.2461943312   -2.7448184302   -0.6070525202
   Point Group: c1    Number of degrees of freedom:   111


   Energy is  -2291.193886602

              Constraints and their Current Values
                                        Value     Constraint
   Dihedral:        4   6   7   8        4.916        0.000
   Dihedral:       10  13  16  17      168.550      168.550
   Dihedral:       17  19  22  25      157.506      157.507
 Hessian Updated using BFGS Update

   Using Lagrange Multiplier Algorithm


112 Hessian modes will be used to form the next step
  Hessian Eigenvalues:
    -0.981185   -0.955942    0.090091    0.090103    0.090103    0.090103
     0.090104    0.090104    0.090104    0.090104    0.090104    0.090104
     0.090104    0.090104    0.090104    0.090105    0.090105    0.090105
     0.090105    0.090105    0.090106    0.090107    0.090107    0.090108
     0.090108    0.090108    0.090109    0.090111    0.090112    0.090117
     0.090125    0.090130    0.090152    0.090181    0.100568    0.320324
     0.320344    0.320356    0.320359    0.320363    0.320366    0.320366
     0.320367    0.320368    0.320878    0.440501    0.443093    0.448048
     0.449012    0.466782    0.476467    0.487229    0.489373    0.499979
     0.500340    0.500439    0.500503    0.500510    0.500516    0.500537
     0.500544    0.500553    0.500560    0.500562    0.500567    0.502767
     0.626016    0.656572    0.668320    0.683518    0.683848    0.710237
     0.710470    0.710903    0.716464    0.719649    0.722138    0.722651
     0.725432    0.727795    0.728999    0.739509    0.746618    0.751722
     0.775703    0.783771    0.814518    0.815367    0.840314    0.865990
     0.883386    0.921144    0.932901    0.941313    0.947852    0.966627
     0.969566    0.971155    0.973005    1.008858    1.019903    1.035604
     1.039913    1.046089    1.051661    1.117573    1.147420    1.166265
     1.182624    1.281313    1.312154    1.329559

 Minimum Search - Taking P-RFO Step
 Searching for Lamda that Maximizes Along the Constraint modes Only
 Value Taken    Lamda =   0.00273329
 Searching for Lamda that Minimizes Along All other modes
 Value Taken    Lamda =  -0.00527711
 Step Taken.  Stepsize is  0.110578

                             Maximum     Tolerance    Cnvgd?
         Gradient            0.085801       0.000300      NO
         Displacement        0.085440       0.001200      NO
         Energy change      0.001800       0.000001      NO


 New Cartesian Coordinates Obtained by Inverse Iteration

 Displacement from previous Coordinates is:  0.503076
 ----------------------------------------------------------------
             Standard Nuclear Orientation (Angstroms)
    I     Atom           X                Y                Z
 ----------------------------------------------------------------
    1      C       7.6821103404     0.3584358543    -0.1535733729
    2      C       6.9794846994     1.5523502229    -0.1531212594
    3      C       6.9604655628    -0.8244296882    -0.1535273788
    4      C       5.5998199971     1.5152190487    -0.1323586542
    5      N       5.6353175884    -0.8736391888    -0.1312141122
    6      C       4.9643779529     0.2751590230    -0.0770739929
    7      C       3.4810168460     0.2170006913    -0.1447478020
    8      N       2.8482277212     1.3529596359    -0.2545417798
    9      C       2.7167387510    -0.9757126782     0.0874575968
   10      C       1.4960355413     1.4316032573    -0.2417507733
   11      N       3.1613135715    -2.2098668028     0.3317857344
   12      C       1.2861884753    -0.8874554138     0.0998249563
   13      C       0.6362322429     0.3722521341    -0.0737535110
   14      S       1.8683529902    -3.1368338876     0.5260102783
   15      N       0.6890484023    -2.0560550837     0.3261002256
   16      C      -0.8096903483     0.5329585876    -0.0333269387
   17      S      -1.8954269646    -0.7977804897    -0.1116363229
   18      C      -1.5543152408     1.7070678873     0.0784137688
   19      C      -3.3128651422     0.1463750386    -0.0255478504
   20      N      -1.0485933610     2.9694721234     0.1703622828
   21      C      -2.9679996839     1.4879812486     0.0873005000
   22      C      -4.6354559018    -0.4379653366    -0.0538731934
   23      C      -1.9209139819     3.9254924269     0.2600301826
   24      N      -3.8535054956     2.5158140044     0.1855026743
   25      C      -5.8016929165     0.1027676151     0.4140214717
   26      S      -4.9251383810    -2.0047758566    -0.7391675751
   27      C      -3.3316111799     3.7007030320     0.2674220093
   28      C      -6.9182305695    -0.7467477011     0.2325526440
   29      C      -6.5958289735    -1.9215144995    -0.3700483796
   30      H       8.7623463650     0.3413916519    -0.1669948510
   31      H       7.4978546574     2.5012588933    -0.1758549618
   32      H       7.4684054291    -1.7816103000    -0.1815526765
   33      H       5.0051602478     2.4152512192    -0.1499695559
   34      H       1.0952013446     2.4273484625    -0.3420667075
   35      H      -1.5418608267     4.9393628798     0.3249421975
   36      H      -5.8400451359     1.0821211174     0.8607436932
   37      H      -4.0098162247     4.5428918825     0.3477792979
   38      H      -7.9190491768    -0.4912182632     0.5460191650
   39      H      -7.2502575243    -2.7380703440    -0.6229938971
 ----------------------------------------------------------------
 Molecular Point Group                 C1    NOp =  1
 Largest Abelian Subgroup              C1    NOp =  1
 Nuclear Repulsion Energy =  2929.9795604508 hartrees
 There are      110 alpha and      110 beta electrons
 Applying Cartesian multipole field
    Component          Value
    ---------          -----
     (2,0,0)        1.00000E-12
     (0,2,0)        2.00000E-11
     (0,0,2)       -3.00000E-10
 Nucleus-field energy     =     0.0000000463 hartrees
 Requested basis set is cc-pVTZ
 There are 356 shells and 1022 basis functions
 A cutoff of  1.0D-11 yielded  30933 shell pairs
 There are    243975 function pairs (    318445 Cartesian)
 Smallest overlap matrix eigenvalue = 2.54E-05
 Guess MOs from SCF MO coefficient file
 Reading MOs from coefficient file
 Reading MOs from coefficient file
 Long-range K will be added via erf
 Coulomb attenuation parameter = 0.2 bohr**(-1)
 A restricted hybrid HF-DFT SCF calculation will be
 performed using Pulay DIIS extrapolation
 Exchange:     0.2220 Hartree-Fock + 1.0000 wB97X-D + LR-HF
 Correlation:  1.0000 wB97X-D
 Using SG-1 standard quadrature grid
 Dispersion:   Grimme D
 SCF converges when DIIS error is below 1.0E-08
 Geometry optimization detected.  Setting ReadMinima to 0
 Setting SaveMinima to 0
 using 4 threads for integral computing 
 using 4 threads for integral computing 
 K construction time:  CPU 1299.51 s  wall 327.08 s
 -------------------------------------------------------
 OpenMP BLAS3 based DFT computing Module                
 Release: version 1.0, May 2013, Q-Chem Inc. Pittsburgh 
 -------------------------------------------------------
 ---------------------------------------
  Cycle       Energy         DIIS Error
 ---------------------------------------
    1   -2291.1853264786      3.37E-04
 K construction time:  CPU 1292.59 s  wall 325.33 s
    2   -2291.1928030091      3.83E-05
 K construction time:  CPU 948.60 s  wall 238.60 s
    3   -2291.1932674888      2.27E-05
 K construction time:  CPU 897.42 s  wall 225.74 s
    4   -2291.1933425165      1.27E-05
 K construction time:  CPU 858.01 s  wall 215.80 s
    5   -2291.1933690356      6.80E-06
 K construction time:  CPU 802.04 s  wall 201.63 s
    6   -2291.1933758332      2.35E-06
 K construction time:  CPU 725.29 s  wall 182.30 s
    7   -2291.1933766523      9.53E-07
 K construction time:  CPU 674.18 s  wall 169.35 s
    8   -2291.1933768526      3.42E-07
 K construction time:  CPU 641.08 s  wall 161.02 s
    9   -2291.1933769041      1.45E-07
 K construction time:  CPU 588.00 s  wall 147.60 s
   10   -2291.1933769105      8.64E-08
 K construction time:  CPU 549.81 s  wall 138.03 s
   11   -2291.1933769131      3.23E-08
 K construction time:  CPU 461.53 s  wall 115.82 s
   12   -2291.1933769126      1.34E-08
 K construction time:  CPU 395.69 s  wall 99.28 s
   13   -2291.1933769143      4.70E-09 Convergence criterion met
 ---------------------------------------
 SCF time:  CPU 13482.81 s  wall 3405.58 s
 SCF   energy in the final basis set = -2291.1933769143
 Total energy in the final basis set = -2291.1933769143
 
 --------------------------------------------------------------
 
                    Orbital Energies (a.u.)
 --------------------------------------------------------------
 
 Alpha MOs
 -- Occupied --
-89.152 -89.107 -89.087 -14.481 -14.479 -14.463 -14.463 -14.445
-14.433 -10.355 -10.352 -10.350 -10.346 -10.344 -10.344 -10.343
-10.342 -10.339 -10.336 -10.335 -10.330 -10.326 -10.323 -10.320
-10.309 -10.301 -10.296 -10.295 -10.293  -8.157  -8.116  -8.097
 -6.106  -6.101  -6.100  -6.064  -6.061  -6.059  -6.046  -6.042
 -6.039  -1.142  -1.102  -1.068  -1.048  -1.030  -1.013  -1.003
 -0.986  -0.925  -0.911  -0.895  -0.879  -0.869  -0.853  -0.838
 -0.812  -0.776  -0.772  -0.748  -0.737  -0.731  -0.715  -0.711
 -0.672  -0.655  -0.649  -0.629  -0.628  -0.620  -0.607  -0.603
 -0.587  -0.573  -0.567  -0.560  -0.557  -0.548  -0.543  -0.526
 -0.511  -0.509  -0.501  -0.498  -0.493  -0.492  -0.485  -0.484
 -0.473  -0.466  -0.462  -0.460  -0.451  -0.443  -0.429  -0.427
 -0.418  -0.411  -0.392  -0.377  -0.372  -0.359  -0.356  -0.351
 -0.343  -0.339  -0.334  -0.331  -0.320  -0.263
 -- Virtual --
 -0.055  -0.025   0.024   0.032   0.041   0.051   0.073   0.073
  0.086   0.089   0.118   0.124   0.125   0.127   0.132   0.136
  0.150   0.154   0.156   0.164   0.169   0.176   0.183   0.191
  0.200   0.205   0.213   0.216   0.221   0.234   0.243   0.250
  0.263   0.265   0.269   0.277   0.280   0.288   0.294   0.295
  0.300   0.305   0.309   0.315   0.318   0.324   0.325   0.331
  0.334   0.339   0.343   0.348   0.350   0.352   0.355   0.357
  0.364   0.368   0.371   0.378   0.382   0.384   0.385   0.389
  0.392   0.396   0.397   0.399   0.403   0.408   0.409   0.411
  0.414   0.420   0.422   0.427   0.431   0.434   0.439   0.443
  0.446   0.447   0.450   0.455   0.458   0.461   0.464   0.464
  0.469   0.473   0.475   0.478   0.483   0.484   0.487   0.493
  0.496   0.500   0.503   0.509   0.511   0.517   0.518   0.521
  0.526   0.531   0.533   0.536   0.540   0.544   0.548   0.556
  0.559   0.565   0.570   0.575   0.578   0.589   0.594   0.600
  0.607   0.608   0.608   0.617   0.618   0.627   0.635   0.642
  0.643   0.652   0.656   0.660   0.663   0.667   0.670   0.677
  0.685   0.686   0.696   0.698   0.703   0.708   0.712   0.719
  0.724   0.729   0.733   0.736   0.746   0.749   0.756   0.758
  0.764   0.769   0.772   0.775   0.776   0.782   0.788   0.790
  0.794   0.798   0.802   0.806   0.809   0.818   0.822   0.827
  0.831   0.835   0.839   0.841   0.847   0.851   0.854   0.859
  0.862   0.870   0.874   0.875   0.885   0.889   0.900   0.902
  0.907   0.911   0.919   0.921   0.923   0.930   0.934   0.942
  0.947   0.952   0.953   0.957   0.962   0.965   0.968   0.971
  0.973   0.983   0.991   0.997   0.998   1.008   1.013   1.017
  1.021   1.029   1.032   1.039   1.044   1.050   1.057   1.060
  1.068   1.071   1.076   1.085   1.087   1.092   1.093   1.100
  1.105   1.111   1.119   1.122   1.124   1.130   1.137   1.141
  1.152   1.155   1.163   1.172   1.176   1.187   1.190   1.193
  1.205   1.211   1.213   1.219   1.231   1.234   1.241   1.253
  1.256   1.261   1.270   1.278   1.286   1.292   1.297   1.310
  1.315   1.316   1.318   1.331   1.341   1.342   1.350   1.353
  1.356   1.367   1.371   1.373   1.380   1.384   1.388   1.395
  1.396   1.404   1.413   1.422   1.424   1.427   1.438   1.440
  1.445   1.450   1.455   1.460   1.473   1.476   1.480   1.491
  1.492   1.498   1.505   1.514   1.516   1.518   1.528   1.533
  1.543   1.565   1.568   1.570   1.578   1.581   1.587   1.593
  1.606   1.611   1.617   1.628   1.632   1.641   1.643   1.649
  1.656   1.658   1.665   1.670   1.675   1.690   1.695   1.701
  1.707   1.715   1.721   1.728   1.731   1.732   1.744   1.754
  1.757   1.773   1.775   1.784   1.787   1.799   1.805   1.814
  1.820   1.835   1.844   1.857   1.868   1.874   1.880   1.886
  1.894   1.899   1.909   1.918   1.925   1.935   1.942   1.952
  1.958   1.966   1.973   1.984   1.996   1.997   2.005   2.009
  2.016   2.020   2.035   2.040   2.042   2.047   2.063   2.069
  2.090   2.095   2.095   2.102   2.111   2.113   2.119   2.128
  2.147   2.158   2.164   2.175   2.179   2.185   2.192   2.196
  2.201   2.209   2.211   2.219   2.235   2.245   2.249   2.252
  2.261   2.283   2.289   2.289   2.295   2.300   2.312   2.319
  2.323   2.327   2.336   2.340   2.355   2.358   2.373   2.377
  2.387   2.394   2.401   2.406   2.416   2.420   2.426   2.435
  2.439   2.448   2.455   2.458   2.459   2.469   2.473   2.483
  2.494   2.501   2.508   2.516   2.520   2.528   2.529   2.533
  2.542   2.546   2.557   2.562   2.565   2.574   2.591   2.606
  2.609   2.615   2.623   2.632   2.639   2.641   2.652   2.660
  2.666   2.670   2.675   2.684   2.688   2.697   2.712   2.719
  2.727   2.744   2.758   2.760   2.769   2.774   2.780   2.782
  2.784   2.791   2.796   2.800   2.808   2.813   2.821   2.834
  2.838   2.842   2.847   2.857   2.865   2.871   2.878   2.883
  2.886   2.888   2.901   2.909   2.914   2.928   2.930   2.935
  2.940   2.943   2.949   2.955   2.959   2.967   2.970   2.979
  2.984   2.991   2.995   3.006   3.009   3.015   3.016   3.021
  3.026   3.030   3.037   3.044   3.047   3.051   3.058   3.063
  3.066   3.069   3.071   3.075   3.076   3.078   3.082   3.092
  3.094   3.096   3.100   3.108   3.115   3.120   3.122   3.130
  3.132   3.136   3.142   3.154   3.158   3.164   3.167   3.168
  3.178   3.179   3.187   3.194   3.197   3.200   3.205   3.209
  3.211   3.212   3.219   3.222   3.227   3.233   3.234   3.236
  3.240   3.245   3.247   3.251   3.257   3.265   3.267   3.271
  3.279   3.284   3.290   3.292   3.297   3.299   3.306   3.309
  3.311   3.312   3.319   3.325   3.326   3.334   3.335   3.346
  3.353   3.357   3.367   3.372   3.380   3.381   3.385   3.395
  3.397   3.401   3.408   3.410   3.416   3.423   3.427   3.436
  3.438   3.443   3.449   3.456   3.457   3.463   3.466   3.474
  3.482   3.486   3.493   3.498   3.503   3.504   3.512   3.517
  3.524   3.533   3.534   3.558   3.561   3.568   3.575   3.581
  3.585   3.598   3.617   3.620   3.622   3.631   3.635   3.647
  3.654   3.667   3.679   3.686   3.688   3.693   3.702   3.710
  3.714   3.721   3.728   3.734   3.738   3.745   3.754   3.756
  3.771   3.779   3.784   3.789   3.793   3.801   3.803   3.811
  3.815   3.827   3.841   3.842   3.849   3.859   3.875   3.881
  3.890   3.898   3.906   3.910   3.914   3.924   3.929   3.932
  3.935   3.937   3.949   3.953   3.953   3.960   3.968   3.982
  3.987   3.995   3.999   4.009   4.018   4.025   4.032   4.039
  4.047   4.062   4.068   4.074   4.078   4.084   4.095   4.105
  4.113   4.125   4.128   4.145   4.153   4.161   4.167   4.172
  4.185   4.190   4.201   4.204   4.209   4.216   4.224   4.228
  4.232   4.233   4.239   4.251   4.256   4.264   4.269   4.282
  4.293   4.296   4.306   4.312   4.321   4.322   4.335   4.342
  4.350   4.354   4.360   4.361   4.375   4.376   4.392   4.401
  4.406   4.411   4.428   4.433   4.436   4.440   4.447   4.451
  4.459   4.483   4.494   4.502   4.511   4.525   4.533   4.540
  4.556   4.556   4.568   4.577   4.586   4.590   4.607   4.615
  4.625   4.635   4.643   4.647   4.659   4.679   4.684   4.691
  4.715   4.721   4.736   4.741   4.755   4.779   4.780   4.791
  4.796   4.805   4.809   4.812   4.828   4.845   4.848   4.866
  4.877   4.882   4.885   4.891   4.902   4.914   4.919   4.929
  4.932   4.953   4.957   4.963   4.970   4.977   4.987   4.991
  4.998   5.002   5.012   5.016   5.036   5.040   5.052   5.058
  5.079   5.085   5.090   5.096   5.106   5.113   5.121   5.130
  5.137   5.143   5.153   5.159   5.170   5.179   5.191   5.197
  5.214   5.221   5.245   5.249   5.267   5.303   5.312   5.315
  5.322   5.337   5.359   5.377   5.383   5.403   5.428   5.435
  5.448   5.468   5.478   5.487   5.503   5.506   5.530   5.544
  5.574   5.581   5.587   5.594   5.598   5.611   5.629   5.654
  5.686   5.704   5.716   5.722   5.746   5.755   5.761   5.795
  5.803   5.832   5.844   5.871   5.883   5.906   5.911   5.932
  5.957   5.985   6.011   6.039   6.088   6.131   6.160   6.187
  6.210   6.245   6.254   6.305   6.327   6.357   6.381   6.431
  6.447   6.503   6.640   6.860   6.988   7.089   8.082   8.910
  9.819  10.199  10.662  11.136  11.259  11.674  12.030  12.119
 12.414  12.679  12.774  12.817  12.856  12.976  13.090  13.175
 13.342  13.471  13.555  14.166  14.389  14.655  15.084  15.116
 --------------------------------------------------------------
 
          Ground-State Mulliken Net Atomic Charges

     Atom                 Charge (a.u.)
  ----------------------------------------
      1 C                    -0.085225
      2 C                    -0.129572
      3 C                    -0.084862
      4 C                    -0.118991
      5 N                    -0.140886
      6 C                     0.063572
      7 C                     0.105852
      8 N                    -0.174906
      9 C                    -0.005134
     10 C                    -0.089672
     11 N                    -0.216492
     12 C                     0.046036
     13 C                     0.063216
     14 S                     0.404899
     15 N                    -0.306057
     16 C                    -0.071432
     17 S                     0.178154
     18 C                     0.060564
     19 C                    -0.055390
     20 N                    -0.170252
     21 C                     0.063855
     22 C                    -0.011824
     23 C                    -0.042843
     24 N                    -0.161627
     25 C                    -0.137384
     26 S                     0.103642
     27 C                    -0.046400
     28 C                    -0.158310
     29 C                    -0.182099
     30 H                     0.128679
     31 H                     0.118807
     32 H                     0.117863
     33 H                     0.145354
     34 H                     0.133803
     35 H                     0.124833
     36 H                     0.133818
     37 H                     0.128889
     38 H                     0.131282
     39 H                     0.136240
  ----------------------------------------
  Sum of atomic charges =     0.000000

 -----------------------------------------------------------------
                    Cartesian Multipole Moments
 -----------------------------------------------------------------
    Charge (ESU x 10^10)
                 0.0000
    Dipole Moment (Debye)
         X      -0.4037      Y       1.6206      Z       0.3856
       Tot       1.7140
    Quadrupole Moments (Debye-Ang)
        XX    -152.2276     XY       3.7555     YY    -164.7572
        XZ      -1.8002     YZ       2.0875     ZZ    -186.7227
    Octopole Moments (Debye-Ang^2)
       XXX      99.3474    XXY      16.0487    XYY     -35.6680
       YYY      41.5190    XXZ       7.5365    XYZ     -16.3584
       YYZ       4.9985    XZZ      -0.0499    YZZ      -7.3116
       ZZZ       5.4059
    Hexadecapole Moments (Debye-Ang^3)
      XXXX  -15986.9609   XXXY     577.2470   XXYY   -3536.7453
      XYYY    -151.2410   YYYY   -3434.7966   XXXZ    -159.8766
      XXYZ      82.3158   XYYZ       9.0446   YYYZ       2.4020
      XXZZ   -3462.1851   XYZZ     -27.2310   YYZZ    -724.1148
      XZZZ     -11.1710   YZZZ     -28.7305   ZZZZ    -314.0587
 -----------------------------------------------------------------
 Calculating analytic gradient of the SCF energy
 K construction time:  CPU 2725.35 s  wall 683.07 s
 Gradient of SCF Energy
            1           2           3           4           5           6
    1   0.0004548  -0.0007153  -0.0005957   0.0000655  -0.0004307  -0.0009946
    2   0.0000984   0.0002571  -0.0001346  -0.0008047  -0.0001942   0.0005940
    3   0.0000312  -0.0001739  -0.0008049  -0.0051246  -0.0038916   0.0192894
            7           8           9          10          11          12
    1   0.0004691   0.0010820  -0.0002183  -0.0008762   0.0006768   0.0001531
    2  -0.0018505   0.0006404   0.0010556  -0.0003047   0.0007512  -0.0000081
    3  -0.0191357   0.0052872   0.0028992   0.0005579   0.0011827   0.0004229
           13          14          15          16          17          18
    1   0.0004291  -0.0002278   0.0000961  -0.0001223   0.0000622   0.0000381
    2   0.0002065  -0.0001722  -0.0001790  -0.0000675   0.0000634  -0.0000537
    3   0.0000860  -0.0000294  -0.0003289   0.0000933  -0.0004531   0.0000008
           19          20          21          22          23          24
    1   0.0000400   0.0000493  -0.0000479  -0.0000244  -0.0000340  -0.0000208
    2   0.0000579  -0.0000392  -0.0000687   0.0000409   0.0000494  -0.0000389
    3   0.0003241   0.0000394  -0.0000657  -0.0000602  -0.0001201  -0.0000251
           25          26          27          28          29          30
    1  -0.0001190   0.0000047   0.0000044   0.0000105   0.0000398  -0.0000188
    2   0.0000480   0.0000234   0.0000173  -0.0000171  -0.0000116   0.0000465
    3  -0.0001739  -0.0000754   0.0000833  -0.0000442   0.0000970   0.0001734
           31          32          33          34          35          36
    1   0.0004619   0.0004824  -0.0002469  -0.0000065   0.0000242   0.0000718
    2  -0.0000728   0.0000787   0.0000768  -0.0000040  -0.0000297  -0.0000196
    3   0.0001643   0.0000558  -0.0003420  -0.0000259   0.0001091   0.0001104
[...]


   Energy is  -2291.195157993

              Constraints and their Current Values
                                        Value     Constraint
   Dihedral:        4   6   7   8        0.000        0.000
   Dihedral:       10  13  16  17      168.550      168.550
   Dihedral:       17  19  22  25      157.507      157.507
 Hessian Updated using BFGS Update

107 Hessian modes will be used to form the next step
  Hessian Eigenvalues:
     0.011243    0.015183    0.031976    0.057878    0.087650    0.090104
     0.090104    0.090104    0.090104    0.090104    0.090104    0.090104
     0.090104    0.090105    0.090105    0.090105    0.090106    0.090106
     0.090106    0.090107    0.090108    0.090110    0.090112    0.090114
     0.090120    0.090132    0.090140    0.090154    0.090167    0.090370
     0.091676    0.092612    0.300344    0.313903    0.320081    0.320347
     0.320359    0.320366    0.320376    0.320394    0.320608    0.321605
     0.434722    0.441394    0.443754    0.448020    0.465746    0.475331
     0.483166    0.484416    0.488126    0.496561    0.499164    0.500251
     0.500484    0.500508    0.500538    0.500546    0.500569    0.500665
     0.507137    0.550195    0.625645    0.628631    0.660943    0.668177
     0.682361    0.687001    0.710231    0.710432    0.710499    0.715090
     0.719661    0.721266    0.722151    0.726116    0.727899    0.728994
     0.740555    0.751242    0.752389    0.775781    0.787385    0.815185
     0.818900    0.840399    0.865804    0.888266    0.921690    0.935045
     0.941887    0.947849    0.964659    0.966848    0.970556    0.974131
     1.008990    1.035761    1.040075    1.051295    1.117432    1.147820
     1.166233    1.182562    1.282100    1.312424    1.328993

 Minimum Search - Taking Simple RFO Step
 Searching for Lamda that Minimizes Along All modes
 Value Taken    Lamda =   0.00000000
 Step Taken.  Stepsize is  0.002529

                             Maximum     Tolerance    Cnvgd?
         Gradient           0.000050      0.000300     YES
         Displacement       0.001066      0.001200     YES
         Energy change     -0.000001      0.000001     YES

 Final energy is   -2291.19515799328     


 ******************************
 **  OPTIMIZATION CONVERGED  **
 ******************************

                       Coordinates (Angstroms)
     ATOM                X               Y               Z
      1  C         7.6875786559    0.3743149133   -0.1001418480
      2  C         6.9803360222    1.5537686447   -0.2692294146
      3  C         6.9692939797   -0.8001298685    0.0562356157
      4  C         5.6009054490    1.5114803795   -0.2759063990
      5  N         5.6444617379   -0.8544953921    0.0509065347
      6  C         4.9674497246    0.2788105355   -0.1151312781
      7  C         3.4817625622    0.2182112306   -0.1046016449
      8  N         2.8450308848    1.3481302738   -0.2497783802
      9  C         2.7171330827   -0.9867749410    0.0566536970
     10  C         1.4946534236    1.4283517982   -0.2320339674
     11  N         3.1560224690   -2.2396872545    0.1945114507
     12  C         1.2851266205   -0.8962028862    0.0667332963
     13  C         0.6348117648    0.3677731191   -0.0681576877
     14  S         1.8605783347   -3.1728629072    0.3243177337
     15  N         0.6850353910   -2.0757958462    0.2137772772
     16  C        -0.8108071820    0.5285688386   -0.0229648721
     17  S        -1.8995170244   -0.8002999823   -0.1063629919
     18  C        -1.5535954206    1.7029886381    0.1001393895
     19  C        -3.3149492199    0.1463136778   -0.0146147266
     20  N        -1.0455965887    2.9638161194    0.2003970743
     21  C        -2.9675939227    1.4863057465    0.1098471119
     22  C        -4.6386618970   -0.4352155510   -0.0475168570
     23  C        -1.9159015826    3.9204729280    0.3011967705
     24  N        -3.8510170555    2.5148504211    0.2193222875
     25  C        -5.8038488521    0.1048924932    0.4234945019
     26  S        -4.9321620480   -1.9956451000   -0.7459475947
     27  C        -3.3269006092    3.6979372067    0.3111643778
     28  C        -6.9229041298   -0.7390991168    0.2324104081
     29  C        -6.6035538562   -1.9095468011   -0.3802033910
     30  H         8.7678950476    0.3618078050   -0.0885374251
     31  H         7.4958732971    2.4970626618   -0.3886857423
     32  H         7.4807678611   -1.7466768228    0.1891351567
     33  H         5.0033189436    2.4003186746   -0.4048242495
     34  H         1.0938442662    2.4240677816   -0.3327126921
     35  H        -1.5352421765    4.9334016544    0.3715761579
     36  H        -5.8412142958    1.0822166592    0.8745829951
     37  H        -4.0032579936    4.5404227689    0.4030424010
     38  H        -7.9234409907   -0.4822690416    0.5456662334
     39  H        -7.2603129751   -2.7220210542   -0.6401861767

Z-matrix Print:
$molecule
0 1
S 
C  1 1.705269
C  2 1.389865 1 109.424679
N  3 1.360267 2 125.022541 1 179.421658 0
C  4 1.297238 3 115.651901 2 179.248446 0
H  5 1.084289 4 117.554881 3 179.806949 0
C  5 1.428475 4 122.728927 3 0.085344 0
H  7 1.084380 5 119.459756 4 -179.415710 0
N  7 1.297221 5 123.253707 4 0.017243 0
C  9 1.363012 7 115.966655 5 -0.078472 0
C  10 1.395045 9 125.929105 7 -179.708409 0
C  2 1.446193 1 122.364095 3 179.140175 0
C  12 1.367929 2 127.810250 1 -157.506517 0
H  13 1.077051 12 122.143209 2 -1.134711 0
C  13 1.414609 12 113.063102 2 179.835263 0
H  15 1.079428 13 123.511013 12 -179.629667 0
C  15 1.359128 13 112.880427 12 0.030842 0
H  17 1.076586 15 127.982330 13 -179.874656 0
C  11 1.455236 10 128.659375 9 -0.226249 0
C  19 1.375140 11 122.658133 10 12.050727 0
H  20 1.078070 19 119.406133 11 0.031018 0
N  20 1.352875 19 125.447142 11 -178.310001 0
C  22 1.305075 20 122.470694 19 0.188205 0
C  19 1.427845 11 123.183477 10 -167.281989 0
N  24 1.331605 19 126.111575 11 -1.797415 0
C  24 1.434903 19 120.646882 11 177.993277 0
N  26 1.334698 24 112.748948 19 -179.943800 0
C  23 1.486960 22 116.833509 20 178.720689 0
N  28 1.330525 23 118.216114 22 -179.006653 0
C  29 1.325958 28 118.292754 23 179.283046 0
H  30 1.084075 29 115.855267 28 179.694792 0
C  30 1.385535 29 123.523395 28 -0.087464 0
H  32 1.080451 30 120.485998 29 179.960540 0
C  32 1.385602 30 118.079511 29 -0.086239 0
H  34 1.081597 32 120.834741 30 -179.592956 0
C  34 1.380095 32 118.991805 30 0.042170 0
H  36 1.078778 34 121.938753 32 179.943751 0
S  27 1.601825 26 106.816501 24 0.144954 0
S  17 1.713106 15 111.639111 13 0.466910 0
$end

 
 --------------------------------------------------------------
 
                    Orbital Energies (a.u.)
 --------------------------------------------------------------
 
 Alpha MOs
 -- Occupied --
-89.152 -89.107 -89.087 -14.481 -14.479 -14.463 -14.463 -14.444
-14.433 -10.355 -10.353 -10.351 -10.346 -10.344 -10.344 -10.343
-10.342 -10.338 -10.336 -10.335 -10.330 -10.326 -10.323 -10.320
-10.309 -10.300 -10.296 -10.295 -10.293  -8.157  -8.116  -8.097
 -6.106  -6.101  -6.100  -6.064  -6.061  -6.059  -6.046  -6.042
 -6.039  -1.142  -1.102  -1.068  -1.048  -1.030  -1.013  -1.003
 -0.986  -0.925  -0.911  -0.895  -0.879  -0.869  -0.853  -0.838
 -0.812  -0.777  -0.772  -0.748  -0.737  -0.731  -0.715  -0.711
 -0.672  -0.655  -0.649  -0.629  -0.628  -0.620  -0.607  -0.603
 -0.587  -0.573  -0.567  -0.560  -0.557  -0.548  -0.543  -0.526
 -0.511  -0.509  -0.501  -0.499  -0.493  -0.492  -0.485  -0.484
 -0.473  -0.466  -0.462  -0.460  -0.451  -0.443  -0.429  -0.427
 -0.418  -0.411  -0.391  -0.377  -0.372  -0.358  -0.357  -0.352
 -0.344  -0.339  -0.334  -0.331  -0.319  -0.263
 -- Virtual --
 -0.056  -0.024   0.024   0.032   0.041   0.052   0.073   0.073
  0.086   0.089   0.119   0.124   0.124   0.127   0.132   0.137
  0.150   0.154   0.156   0.164   0.170   0.176   0.183   0.190
  0.200   0.205   0.212   0.216   0.222   0.233   0.243   0.254
  0.259   0.264   0.268   0.277   0.279   0.286   0.294   0.295
  0.300   0.304   0.308   0.315   0.318   0.323   0.324   0.331
  0.334   0.339   0.343   0.348   0.349   0.352   0.354   0.358
  0.364   0.369   0.371   0.378   0.382   0.384   0.385   0.391
  0.392   0.395   0.397   0.399   0.403   0.408   0.409   0.412
  0.414   0.419   0.423   0.427   0.432   0.433   0.439   0.443
  0.447   0.448   0.450   0.456   0.458   0.460   0.464   0.466
  0.469   0.474   0.475   0.479   0.483   0.484   0.489   0.493
  0.495   0.504   0.506   0.508   0.511   0.517   0.519   0.521
  0.526   0.531   0.533   0.535   0.540   0.545   0.547   0.559
  0.560   0.565   0.569   0.573   0.580   0.588   0.593   0.599
  0.606   0.606   0.608   0.616   0.618   0.630   0.636   0.642
  0.643   0.654   0.658   0.661   0.665   0.668   0.670   0.676
  0.686   0.689   0.695   0.698   0.704   0.707   0.712   0.719
  0.727   0.731   0.732   0.737   0.746   0.749   0.756   0.762
  0.766   0.771   0.773   0.775   0.780   0.781   0.787   0.790
  0.796   0.799   0.802   0.804   0.810   0.818   0.821   0.829
  0.832   0.835   0.838   0.841   0.850   0.850   0.854   0.856
  0.863   0.870   0.872   0.878   0.879   0.893   0.897   0.903
  0.907   0.909   0.920   0.921   0.924   0.931   0.932   0.944
  0.947   0.952   0.955   0.955   0.962   0.965   0.968   0.970
  0.976   0.984   0.988   0.997   0.998   1.006   1.013   1.018
  1.025   1.027   1.032   1.040   1.042   1.051   1.057   1.062
  1.066   1.072   1.079   1.085   1.087   1.091   1.094   1.098
  1.106   1.112   1.119   1.123   1.127   1.131   1.136   1.142
  1.152   1.157   1.169   1.172   1.180   1.188   1.189   1.195
  1.204   1.208   1.213   1.218   1.231   1.235   1.243   1.252
  1.257   1.262   1.272   1.279   1.285   1.291   1.299   1.309
  1.317   1.320   1.327   1.329   1.343   1.345   1.352   1.356
  1.364   1.368   1.372   1.378   1.378   1.385   1.389   1.392
  1.399   1.404   1.413   1.420   1.424   1.427   1.436   1.440
  1.447   1.450   1.453   1.459   1.474   1.480   1.482   1.489
  1.494   1.500   1.504   1.515   1.519   1.521   1.530   1.537
  1.544   1.563   1.568   1.571   1.580   1.583   1.589   1.595
  1.606   1.613   1.618   1.631   1.632   1.641   1.644   1.647
  1.655   1.660   1.666   1.670   1.679   1.692   1.694   1.701
  1.709   1.717   1.719   1.727   1.733   1.734   1.746   1.756
  1.759   1.771   1.779   1.784   1.795   1.799   1.802   1.817
  1.822   1.840   1.846   1.855   1.859   1.875   1.882   1.888
  1.897   1.898   1.913   1.918   1.922   1.936   1.947   1.954
  1.961   1.969   1.973   1.986   1.996   1.999   2.008   2.011
  2.018   2.021   2.035   2.039   2.042   2.053   2.063   2.069
  2.092   2.095   2.102   2.110   2.113   2.116   2.123   2.128
  2.151   2.158   2.162   2.179   2.183   2.184   2.189   2.198
  2.201   2.207   2.212   2.218   2.235   2.245   2.248   2.257
  2.261   2.285   2.289   2.290   2.295   2.300   2.313   2.320
  2.324   2.329   2.338   2.346   2.358   2.372   2.379   2.384
  2.389   2.393   2.398   2.405   2.414   2.417   2.423   2.434
  2.439   2.451   2.454   2.459   2.460   2.471   2.472   2.478
  2.494   2.498   2.505   2.516   2.521   2.528   2.531   2.534
  2.542   2.549   2.556   2.561   2.569   2.573   2.585   2.607
  2.609   2.612   2.623   2.634   2.638   2.642   2.651   2.662
  2.666   2.674   2.678   2.684   2.690   2.701   2.711   2.720
  2.728   2.740   2.751   2.758   2.768   2.773   2.781   2.783
  2.787   2.794   2.795   2.805   2.809   2.822   2.822   2.835
  2.836   2.845   2.848   2.853   2.867   2.871   2.877   2.882
  2.884   2.890   2.900   2.910   2.917   2.926   2.931   2.935
  2.938   2.943   2.950   2.956   2.958   2.970   2.973   2.977
  2.985   2.990   3.000   3.003   3.006   3.016   3.020   3.025
  3.028   3.031   3.038   3.039   3.050   3.053   3.058   3.064
  3.066   3.070   3.072   3.074   3.076   3.080   3.083   3.089
  3.092   3.095   3.099   3.106   3.113   3.118   3.123   3.126
  3.136   3.142   3.145   3.152   3.159   3.162   3.167   3.167
  3.174   3.180   3.185   3.195   3.197   3.197   3.201   3.205
  3.210   3.213   3.215   3.221   3.223   3.228   3.232   3.236
  3.241   3.246   3.248   3.251   3.257   3.264   3.267   3.272
  3.284   3.287   3.288   3.290   3.296   3.300   3.303   3.310
  3.311   3.312   3.319   3.322   3.323   3.330   3.338   3.344
  3.354   3.359   3.362   3.374   3.377   3.387   3.391   3.394
  3.397   3.403   3.407   3.413   3.417   3.418   3.424   3.435
  3.439   3.443   3.453   3.457   3.460   3.462   3.468   3.470
  3.486   3.487   3.491   3.501   3.503   3.504   3.511   3.518
  3.524   3.534   3.540   3.553   3.559   3.562   3.568   3.582
  3.587   3.603   3.616   3.624   3.626   3.633   3.636   3.646
  3.652   3.667   3.679   3.688   3.688   3.691   3.706   3.711
  3.714   3.722   3.730   3.736   3.739   3.750   3.754   3.759
  3.768   3.780   3.783   3.790   3.792   3.797   3.801   3.810
  3.815   3.827   3.840   3.844   3.848   3.862   3.876   3.885
  3.890   3.902   3.905   3.911   3.913   3.923   3.929   3.931
  3.933   3.938   3.949   3.953   3.954   3.960   3.968   3.982
  3.989   3.996   4.002   4.005   4.021   4.027   4.034   4.045
  4.049   4.062   4.072   4.075   4.080   4.089   4.094   4.104
  4.116   4.117   4.128   4.144   4.149   4.161   4.170   4.177
  4.183   4.191   4.199   4.205   4.210   4.216   4.222   4.227
  4.232   4.234   4.241   4.249   4.258   4.269   4.273   4.284
  4.293   4.300   4.310   4.313   4.322   4.326   4.337   4.340
  4.348   4.355   4.362   4.366   4.370   4.376   4.392   4.400
  4.407   4.412   4.427   4.434   4.439   4.442   4.446   4.450
  4.461   4.482   4.495   4.503   4.512   4.526   4.535   4.538
  4.560   4.564   4.566   4.576   4.587   4.595   4.604   4.616
  4.631   4.638   4.645   4.648   4.655   4.679   4.685   4.692
  4.717   4.730   4.741   4.744   4.756   4.777   4.785   4.790
  4.796   4.801   4.811   4.817   4.828   4.842   4.848   4.869
  4.878   4.886   4.889   4.892   4.911   4.912   4.924   4.929
  4.937   4.955   4.960   4.963   4.969   4.978   4.989   4.991
  4.997   5.000   5.014   5.017   5.038   5.040   5.053   5.059
  5.080   5.089   5.094   5.102   5.106   5.112   5.122   5.129
  5.138   5.144   5.153   5.167   5.171   5.175   5.192   5.197
  5.217   5.224   5.248   5.249   5.267   5.303   5.313   5.319
  5.323   5.339   5.353   5.378   5.389   5.394   5.432   5.440
  5.446   5.478   5.479   5.489   5.509   5.510   5.531   5.543
  5.577   5.582   5.588   5.595   5.597   5.609   5.628   5.652
  5.687   5.706   5.720   5.727   5.747   5.756   5.763   5.797
  5.808   5.833   5.846   5.874   5.884   5.909   5.920   5.939
  5.961   5.986   6.012   6.044   6.088   6.132   6.161   6.191
  6.211   6.245   6.255   6.310   6.329   6.359   6.383   6.432
  6.455   6.516   6.640   6.863   6.988   7.111   8.095   8.922
  9.880  10.225  10.673  11.139  11.272  11.701  12.035  12.127
 12.414  12.719  12.787  12.830  12.865  12.985  13.097  13.180
 13.377  13.554  13.566  14.190  14.409  14.704  15.097  15.132
 --------------------------------------------------------------
 
          Ground-State Mulliken Net Atomic Charges

     Atom                 Charge (a.u.)
  ----------------------------------------
      1 C                    -0.084498
      2 C                    -0.133085
      3 C                    -0.084047
      4 C                    -0.115463
      5 N                    -0.137286
      6 C                     0.064511
      7 C                     0.102465
      8 N                    -0.175824
      9 C                    -0.009529
     10 C                    -0.088096
     11 N                    -0.215320
     12 C                     0.047914
     13 C                     0.060945
     14 S                     0.404469
     15 N                    -0.306401
     16 C                    -0.070736
     17 S                     0.177540
     18 C                     0.060717
     19 C                    -0.054851
     20 N                    -0.170481
     21 C                     0.063642
     22 C                    -0.011861
     23 C                    -0.042913
     24 N                    -0.161774
     25 C                    -0.137810
     26 S                     0.103717
     27 C                    -0.046219
     28 C                    -0.158074
     29 C                    -0.182205
     30 H                     0.128984
     31 H                     0.119512
     32 H                     0.118653
     33 H                     0.144681
     34 H                     0.133557
     35 H                     0.125026
     36 H                     0.134032
     37 H                     0.128674
     38 H                     0.131248
     39 H                     0.136186
  ----------------------------------------
  Sum of atomic charges =     0.000000

 -----------------------------------------------------------------
                    Cartesian Multipole Moments
 -----------------------------------------------------------------
    Charge (ESU x 10^10)
                 0.0000
    Dipole Moment (Debye)
         X      -0.4057      Y       1.6085      Z       0.2108
       Tot       1.6722
    Quadrupole Moments (Debye-Ang)
        XX    -152.3330     XY       3.7417     YY    -164.7747
        XZ      -2.4301     YZ       1.9257     ZZ    -186.6322
    Octopole Moments (Debye-Ang^2)
       XXX      99.1606    XXY      16.9774    XYY     -35.4282
       YYY      42.0452    XXZ       8.5345    XYZ     -20.5783
       YYZ       5.1734    XZZ       0.4520    YZZ      -6.2068
       ZZZ      10.7109
    Hexadecapole Moments (Debye-Ang^3)
      XXXX  -16002.8437   XXXY     579.6750   XXYY   -3549.8484
      XYYY    -154.3732   YYYY   -3446.2368   XXXZ    -127.3214
      XXYZ      44.6452   XYYZ       2.0812   YYYZ     -21.0298
      XXZZ   -3458.3732   XYZZ     -25.3394   YYZZ    -723.7231
      XZZZ      -0.8480   YZZZ     -55.8198   ZZZZ    -303.9811
 -----------------------------------------------------------------
Archival summary:
1\1\chiqspirix\OPT\ProcedureUnspecified\BasisUnspecified\362010\Andres\FriMay2615:31:532017FriMay2615:31:532017\0\\#,OPT,ProcedureUnspecified,BasisUnspecified,\\0,1\S\C,1,1.70527\C,2,1.38987,1,109.425\N,3,1.36027,2,125.023,1,179.422,0\C,4,1.29724,3,115.652,2,179.248,0\H,5,1.08429,4,117.555,3,179.807,0\C,5,1.42847,4,122.729,3,0.0853444,0\H,7,1.08438,5,119.46,4,-179.416,0\N,7,1.29722,5,123.254,4,0.017243,0\C,9,1.36301,7,115.967,5,-0.0784724,0\C,10,1.39505,9,125.929,7,-179.708,0\C,2,1.44619,1,122.364,3,179.14,0\C,12,1.36793,2,127.81,1,-157.507,0\H,13,1.07705,12,122.143,2,-1.13471,0\C,13,1.41461,12,113.063,2,179.835,0\H,15,1.07943,13,123.511,12,-179.63,0\C,15,1.35913,13,112.88,12,0.0308422,0\H,17,1.07659,15,127.982,13,-179.875,0\C,11,1.45524,10,128.659,9,-0.226249,0\C,19,1.37514,11,122.658,10,12.0507,0\H,20,1.07807,19,119.406,11,0.0310179,0\N,20,1.35287,19,125.447,11,-178.31,0\C,22,1.30507,20,122.471,19,0.188205,0\C,19,1.42784,11,123.183,10,-167.282,0\N,24,1.3316,19,126.112,11,-1.79741,0\C,24,1.4349,19,120.647,11,177.993,0\N,26,1.3347,24,112.749,19,-179.944,0\C,23,1.48696,22,116.834,20,178.721,0\N,28,1.33052,23,118.216,22,-179.007,0\C,29,1.32596,28,118.293,23,179.283,0\H,30,1.08408,29,115.855,28,179.695,0\C,30,1.38554,29,123.523,28,-0.0874643,0\H,32,1.08045,30,120.486,29,179.961,0\C,32,1.3856,30,118.08,29,-0.0862389,0\H,34,1.0816,32,120.835,30,-179.593,0\C,34,1.38009,32,118.992,30,0.0421703,0\H,36,1.07878,34,121.939,32,179.944,0\S,27,1.60182,26,106.817,24,0.144954,0\S,17,1.71311,15,111.639,13,0.46691,0\\\@

 Total job time:  46308.88s(wall), 183499.32s(cpu) 
 Fri May 26 15:31:53 2017

        *************************************************************
        *                                                           *
        *  Thank you very much for using Q-Chem.  Have a nice day.  *
        *                                                           *
        *************************************************************


0 sent ACK to 0 
now end server 0 ... 
cleanup process ... done
