
Running Job 1 of 1 C169_90.qcin
qchem C169_90.qcin_5633.0 /home/Andres/temp/qchem5633/ 1
/usr/local/qchem44/bin/mpi/mpirun_qchem -machinefile /usr/local/qchem44/bin/mpi/machines -np 1 /usr/local/qchem44/exe/qcprog.exe C169_90.qcin_5633.0 /home/Andres/temp/qchem5633/

Process 0 of 1 is on localhost.localdomain - thread support 0
initial socket setup ...start
initial socket setup ...done 
now start server 0 ... 
localhost.localdomain 127.0.0
                  Welcome to Q-Chem
     A Quantum Leap Into The Future Of Chemistry


 Q-Chem 4.4, Q-Chem, Inc., Pleasanton, CA (2016)

 Y. Shao,  Z. Gan,  E. Epifanovsky,  A. T. B. Gilbert,  M. Wormit,  
 J. Kussmann,  A. W. Lange,  A. Behn,  J. Deng,  X. Feng,  D. Ghosh,  
 M. Goldey,  P. R. Horn,  L. D. Jacobson,  I. Kaliman,  R. Z. Khaliullin,  
 T. Kus,  A. Landau,  J. Liu,  E. I. Proynov,  Y. M. Rhee,  R. M. Richard,  
 M. A. Rohrdanz,  R. P. Steele,  E. J. Sundstrom,  H. L. Woodcock III,  
 P. M. Zimmerman,  D. Zuev,  B. Albrecht,  E. Alguire,  B. Austin,  
 S. A. Baeppler,  G. J. O. Beran,  Y. A. Bernard,  E. Berquist,  
 K. Brandhorst,  K. B. Bravaya,  S. T. Brown,  D. Casanova,  C.-M. Chang,  
 Y. Chen,  S. H. Chien,  K. D. Closser,  M. P. Coons,  D. L. Crittenden,  
 S. Dasgupta,  M. Diedenhofen,  R. A. DiStasio Jr.,  H. Do,  A. D. Dutoi,  
 R. G. Edgar,  P.-T. Fang,  S. Fatehi,  Q. Feng,  L. Fusti-Molnar,  
 A. Ghysels,  A. Golubeva-Zadorozhnaya,  J. Gomes,  A. Gunina,  
 M. W. D. Hanson-Heine,  P. H. P. Harbach,  A. W. Hauser,  E. G. Hohenstein,  
 Z. C. Holden,  K. Hui,  T.-C. Jagau,  H. Ji,  B. Kaduk,  K. Khistyaev,  
 Jaehoon Kim,  Jihan Kim,  R. A. King,  P. Klunzinger,  D. Kosenkov,  
 T. Kowalczyk,  C. M. Krauter,  A. Kunitsa,  K. U. Lao,  A. Laurent,  
 K. V. Lawler,  D. Lefrancois,  S. Lehtola,  S. V. Levchenko,  C. Y. Lin,  
 Y.-S. Lin,  F. Liu,  E. Livshits,  R. C. Lochan,  A. Luenser,  P. Manohar,  
 S. F. Manzer,  S.-P. Mao,  Y. Mao,  N. Mardirossian,  A. V. Marenich,  
 L. A. Martinez-Martinez,  S. A. Maurer,  N. J. Mayhall,  J.-M. Mewes,  
 A. F. Morrison,  K. Nanda,  C. M. Oana,  R. Olivares-Amaya,  D. P. O'Neill,  
 J. A. Parkhill,  T. M. Perrine,  R. Peverati,  P. A. Pieniazek,  F. Plasser,  
 A. Prociuk,  D. R. Rehn,  E. Rosta,  N. J. Russ,  N. Sergueev,  
 S. M. Sharada,  S. Sharma,  D. W. Small,  A. Sodt,  T. Stauch,  T. Stein,  
 D. Stuck,  Y.-C. Su,  A. J. W. Thom,  T. Tsuchimochi,  L. Vogt,  O. Vydrov,  
 T. Wang,  M. A. Watson,  J. Wenzel,  A. White,  C. F. Williams,  
 V. Vanovschi,  S. Yeganeh,  S. R. Yost,  Z.-Q. You,  I. Y. Zhang,  X. Zhang,  
 Y. Zhao,  B. R. Brooks,  G. K. L. Chan,  D. M. Chipman,  C. J. Cramer,  
 W. A. Goddard III,  M. S. Gordon,  W. J. Hehre,  A. Klamt,  
 H. F. Schaefer III,  M. W. Schmidt,  C. D. Sherrill,  D. G. Truhlar,  
 A. Warshel,  X. Xu,  A. Aspuru-Guzik,  R. Baer,  A. T. Bell,  N. A. Besley,  
 J.-D. Chai,  A. Dreuw,  B. D. Dunietz,  T. R. Furlani,  S. R. Gwaltney,  
 C.-P. Hsu,  Y. Jung,  J. Kong,  D. S. Lambrecht,  W. Liang,  C. Ochsenfeld,  
 V. A. Rassolov,  L. V. Slipchenko,  J. E. Subotnik,  T. Van Voorhis,  
 J. M. Herbert,  A. I. Krylov,  P. M. W. Gill,  M. Head-Gordon

 Contributors to earlier versions of Q-Chem not listed above: 
 R. D. Adamson,  J. Baker,  E. F. C. Byrd,  A. K. Chakraborty,  C.-L. Cheng,  
 H. Dachsel,  R. J. Doerksen,  G. Hawkins,  A. Heyden,  S. Hirata,  
 G. Kedziora,  F. J. Keil,  C. Kelley,  P. P. Korambath,  W. Kurlancheek,  
 A. M. Lee,  M. S. Lee,  D. Liotard,  I. Lotan,  P. E. Maslen,  N. Nair,  
 D. Neuhauser,  R. Olson,  B. Peters,  J. Ritchie,  N. E. Schultz,  
 N. Shenvi,  A. C. Simmonett,  K. S. Thanthiriwatte,  Q. Wu,  W. Zhang

 Please cite Q-Chem as follows:
 Y. Shao et al., Mol. Phys. 113, 184-215 (2015)
 DOI: 10.1080/00268976.2014.952696

 Q-Chem 4.4.0 for Intel X86 Linux

 Parts of Q-Chem use Armadillo 5.200.1 (Boston Tea Smuggler).
 http://arma.sourceforge.net/

 Q-Chem begins on Wed May 31 16:53:03 2017  

Host: 
0

     Scratch files written to /home/Andres/temp/qchem5633//
 Apr2716 1281_ 20995  20993 0   
 Parallel job on  1  processors
Processing $rem in /usr/local/qchem44/config/preferences.
 MEM_TOTAL  16000 

Checking the input file for inconsistencies... 	...done.

--------------------------------------------------------------
User input:
--------------------------------------------------------------
$comment
OPTIMIZATION
$end

$rem
JOBTYPE OPT
EXCHANGE omegaB97X-D
BASIS cc-pVTZ
$end

$molecule
0 1
C          0.00000        0.00000        0.00000
C         -0.65442       -1.22189        0.00029
C          1.38558        0.00000        0.00000
C          0.09563       -2.38039        0.00926
N          2.11898       -1.10529        0.01182
C          1.48579       -2.27657        0.02342
C          2.30845       -3.51149        0.04024
N          2.65150       -4.01543       -1.11351
C          2.71928       -4.18069        1.23986
C          3.39394       -5.14462       -1.21226
N          2.42993       -3.86352        2.50247
C          3.51373       -5.36822        1.12934
C          3.86843       -5.88471       -0.15470
S          3.13132       -4.96995        3.42722
N          3.82076       -5.90422        2.30903
C          4.63404       -7.10971       -0.33286
S          5.46865       -7.87949        0.95810
C          4.81820       -7.86205       -1.49254
C          6.08481       -9.15657        0.01083
N          4.30241       -7.57625       -2.72074
C          5.63475       -9.02102       -1.29737
C          6.92826      -10.19364        0.56413
C          4.60198       -8.40932       -3.67005
N          5.92654       -9.87289       -2.31629
C          7.14062      -11.45289        0.07471
S          7.84118       -9.94440        2.01751
C          5.41850       -9.56359       -3.47011
C          8.02467      -12.21556        0.87413
C          8.47650      -11.53354        1.96073
H         -0.54818        0.93041       -0.00000
H         -1.73449       -1.27032       -0.00344
H          1.93674        0.93371       -0.01430
H         -0.36223       -3.35775        0.00507
H          3.59283       -5.47428       -2.21904
H          4.20891       -8.19654       -4.65800
H          6.67987      -11.79981       -0.83437
H          5.62986      -10.22325       -4.30332
H          8.30541      -13.23293        0.64915
H          9.15392      -11.87723        2.72426
$end

$opt
CONSTRAINT
tors 4 6 7 8 90.00000
tors 10 13 16 17 168.54979
tors 17 19 22 25 157.50653
ENDCONSTRAINT
$end
--------------------------------------------------------------
 ----------------------------------------------------------------
             Standard Nuclear Orientation (Angstroms)
    I     Atom           X                Y                Z
 ----------------------------------------------------------------
    1      C      -7.6773733898     0.3627976819     0.2304517044
    2      C      -7.0419599456     0.5507112179    -0.9870124842
    3      C      -6.8920593129     0.1589146797     1.3536371113
    4      C      -5.6629218467     0.5186336427    -1.0317636221
    5      N      -5.5663429637     0.1224741033     1.3248360310
    6      C      -4.9608244849     0.2923026116     0.1511807902
    7      C      -3.4778651850     0.2475465778     0.1210410063
    8      N      -2.8432984309     1.3728586151     0.3048227840
    9      C      -2.7199684783    -0.9456981184    -0.1186624572
   10      C      -1.4903695793     1.4459352215     0.2880268223
   11      N      -3.1726464532    -2.1722273356    -0.3817460445
   12      C      -1.2892576421    -0.8642783960    -0.1241675423
   13      C      -0.6349178229     0.3887619523     0.0833463566
   14      S      -1.8839922546    -3.1042499899    -0.5866898602
   15      N      -0.6994602466    -2.0326119186    -0.3698659943
   16      C       0.8117782299     0.5439536748     0.0444784039
   17      S       1.8907126967    -0.7941677500     0.0767938929
   18      C       1.5609972430     1.7171775827    -0.0392151802
   19      C       3.3123263670     0.1454675516     0.0134930454
   20      N       1.0599956403     2.9828911100    -0.0954545355
   21      C       2.9740627405     1.4917102221    -0.0608267858
   22      C       4.6324529800    -0.4463327255     0.0235496409
   23      C       1.9365382149     3.9377273524    -0.1654413267
   24      N       3.8631933743     2.5177582194    -0.1362859827
   25      C       5.8005584310     0.0998242381    -0.4320614814
   26      S       4.9129896588    -2.0328092921     0.6656152170
   27      C       3.3456121028     3.7072064807    -0.1852163925
   28      C       6.9123508701    -0.7613251409    -0.2751488077
   29      C       6.5831001256    -1.9507683320     0.2965329496
   30      H      -8.7543400795     0.3734798728     0.3091455459
   31      H      -7.6141508265     0.7169609090    -1.8891594893
   32      H      -7.3483527768     0.0216882105     2.3276809351
   33      H      -5.1173964781     0.6636502582    -1.9516865312
   34      H      -1.0842405760     2.4344021747     0.4288502267
   35      H       1.5600035083     4.9539284945    -0.2026086413
   36      H       5.8449088808     1.0902962902    -0.8516668280
   37      H       4.0268160860     4.5474758024    -0.2482391634
   38      H       7.9142516559    -0.5042271383    -0.5826680710
   39      H       7.2334948454    -2.7776297659     0.5273697121
 ----------------------------------------------------------------
 Molecular Point Group                 C1    NOp =  1
 Largest Abelian Subgroup              C1    NOp =  1
 Nuclear Repulsion Energy =  2926.3942172462 hartrees
 There are      110 alpha and      110 beta electrons
 Requested basis set is cc-pVTZ
 There are 356 shells and 1022 basis functions

 Total QAlloc Memory Limit  16000 MB
 Mega-Array Size        61 MB
 MEM_STATIC part        62 MB
 A cutoff of  1.0D-11 yielded  30877 shell pairs
 There are    243809 function pairs (    318263 Cartesian)
 
 -------------------------------------------------------
 OpenMP Integral Computing Module                       
 Release: version 1.0, May 2013, Q-Chem Inc. Pittsburgh 
 -------------------------------------------------------
 Integral Job Info:
 Integral job number is                      11
 Integral operator is                         1
 short-range coefficients              22203600
 long-range coefficients              100000000
 Omega coefficients                         200
 if combine SR and LR in K                    1
 Integral screening is                        0
 Integral computing path is                   2
 max size of driver memory is            800000
 size of driver memory is                776718
 size of scratch memory is             26248924
 max col of scratch BK array              10000
 max len of scratch array in speh3          662
 max len of scratch index in speh4           32
 max int batch size is                      520
 min int batch size is                       52
 fixed nKL is                                52
 max L of basis functions is                  3
 order of int derivative is                   0
 number of shells is                        356
 number of basis is                        1177
 number of cartesian basis is              1177
 number of contracted shell pairs         30877
 number of primitive shell pairs          93494
 maxK2 (contraction) of shell pair          121
 max number of K2 of shell pair               1
 max number of CS2 of shell pair           4274
 max number of PS2 of shell pair          13027
 mem total for path MDJ                  840168
 -------------------------------------------------------
 Smallest overlap matrix eigenvalue = 2.57E-05

 Scale SEOQF with 1.000000e-02/1.000000e-01/1.000000e-01

 Standard Electronic Orientation quadrupole field applied
 Nucleus-field energy     =     0.0000000591 hartrees
 Guess from superposition of atomic densities
 Warning:  Energy on first SCF cycle will be non-variational
 Long-range K will be added via erf
 Coulomb attenuation parameter = 0.2 bohr**(-1)
 A restricted hybrid HF-DFT SCF calculation will be
 performed using Pulay DIIS extrapolation
 Exchange:     0.2220 Hartree-Fock + 1.0000 wB97X-D + LR-HF
 Correlation:  1.0000 wB97X-D
 Using SG-1 standard quadrature grid
 Dispersion:   Grimme D
 SCF converges when DIIS error is below 1.0E-08
 using 4 threads for integral computing 
 using 4 threads for integral computing 
 K construction time:  CPU 82.12 s  wall 20.73 s
 -------------------------------------------------------
 OpenMP BLAS3 based DFT computing Module                
 Release: version 1.0, May 2013, Q-Chem Inc. Pittsburgh 
 -------------------------------------------------------
 ---------------------------------------
  Cycle       Energy         DIIS Error
 ---------------------------------------
    1   -2301.4298036052      1.83E-02
 K construction time:  CPU 1353.79 s  wall 340.84 s
    2   -2290.9370422801      1.34E-03
 K construction time:  CPU 1295.28 s  wall 325.97 s
    3   -2290.9673168596      1.35E-03
 K construction time:  CPU 1232.52 s  wall 310.24 s
    4   -2291.1829134441      2.05E-04
 K construction time:  CPU 1164.49 s  wall 293.00 s
    5   -2291.1876634658      1.12E-04
 K construction time:  CPU 1067.04 s  wall 268.52 s
    6   -2291.1891854180      4.01E-05
 K construction time:  CPU 1012.79 s  wall 254.75 s
    7   -2291.1893869289      1.70E-05
 K construction time:  CPU 944.20 s  wall 237.46 s
    8   -2291.1894330516      5.83E-06
 K construction time:  CPU 899.67 s  wall 226.29 s
    9   -2291.1894439059      3.41E-06
 K construction time:  CPU 848.53 s  wall 213.39 s
   10   -2291.1894472685      1.13E-06
 K construction time:  CPU 769.98 s  wall 193.48 s
   11   -2291.1894477288      7.78E-07
 K construction time:  CPU 739.64 s  wall 185.69 s
   12   -2291.1894478862      2.10E-07
 K construction time:  CPU 649.11 s  wall 163.03 s
   13   -2291.1894479023      1.21E-07
 K construction time:  CPU 578.34 s  wall 145.19 s
   14   -2291.1894479061      3.55E-08
 K construction time:  CPU 502.38 s  wall 126.05 s
   15   -2291.1894479050      2.06E-08
 K construction time:  CPU 1389.49 s  wall 349.63 s
   16   -2291.1894479039      7.28E-09 Convergence criterion met
 ---------------------------------------
 SCF time:  CPU 19159.55 s  wall 4840.50 s
 SCF   energy in the final basis set = -2291.1894479039
 Total energy in the final basis set = -2291.1894479039
 
 --------------------------------------------------------------
 
                    Orbital Energies (a.u.)
 --------------------------------------------------------------
 
 Alpha MOs
 -- Occupied --
-89.158 -89.108 -89.088 -14.489 -14.484 -14.463 -14.463 -14.445
-14.436 -10.358 -10.355 -10.352 -10.346 -10.345 -10.344 -10.343
-10.342 -10.339 -10.338 -10.335 -10.331 -10.326 -10.325 -10.320
-10.312 -10.302 -10.301 -10.296 -10.294  -8.163  -8.117  -8.097
 -6.112  -6.107  -6.106  -6.065  -6.061  -6.060  -6.046  -6.043
 -6.040  -1.148  -1.102  -1.068  -1.047  -1.030  -1.016  -1.006
 -0.987  -0.925  -0.912  -0.900  -0.880  -0.870  -0.855  -0.839
 -0.812  -0.778  -0.773  -0.745  -0.739  -0.733  -0.724  -0.712
 -0.674  -0.656  -0.649  -0.632  -0.629  -0.621  -0.607  -0.605
 -0.588  -0.585  -0.568  -0.565  -0.560  -0.548  -0.543  -0.528
 -0.514  -0.504  -0.501  -0.499  -0.493  -0.491  -0.486  -0.485
 -0.476  -0.467  -0.463  -0.462  -0.452  -0.443  -0.430  -0.429
 -0.422  -0.412  -0.397  -0.376  -0.372  -0.359  -0.356  -0.345
 -0.344  -0.340  -0.338  -0.335  -0.331  -0.266
 -- Virtual --
 -0.053  -0.025   0.028   0.035   0.043   0.046   0.061   0.072
  0.081   0.086   0.106   0.120   0.123   0.126   0.129   0.135
  0.148   0.150   0.154   0.164   0.168   0.170   0.182   0.187
  0.193   0.204   0.211   0.214   0.217   0.226   0.236   0.244
  0.255   0.264   0.267   0.274   0.279   0.288   0.292   0.294
  0.299   0.300   0.304   0.312   0.317   0.322   0.323   0.330
  0.333   0.337   0.341   0.345   0.352   0.355   0.356   0.361
  0.364   0.367   0.370   0.379   0.380   0.381   0.384   0.387
  0.392   0.395   0.397   0.400   0.403   0.406   0.408   0.411
  0.416   0.418   0.423   0.426   0.430   0.432   0.433   0.439
  0.443   0.447   0.450   0.454   0.456   0.458   0.459   0.461
  0.464   0.464   0.471   0.475   0.478   0.483   0.484   0.492
  0.494   0.496   0.498   0.504   0.506   0.516   0.518   0.523
  0.524   0.527   0.531   0.536   0.536   0.543   0.548   0.553
  0.557   0.562   0.566   0.570   0.585   0.591   0.593   0.600
  0.605   0.607   0.609   0.617   0.623   0.628   0.631   0.636
  0.638   0.645   0.652   0.653   0.658   0.664   0.668   0.675
  0.679   0.686   0.690   0.695   0.700   0.703   0.707   0.711
  0.720   0.725   0.728   0.733   0.740   0.742   0.743   0.750
  0.758   0.763   0.768   0.768   0.774   0.781   0.786   0.789
  0.793   0.799   0.801   0.803   0.808   0.811   0.815   0.820
  0.824   0.826   0.834   0.837   0.843   0.848   0.852   0.855
  0.859   0.867   0.868   0.872   0.880   0.881   0.891   0.899
  0.905   0.907   0.911   0.919   0.921   0.930   0.931   0.933
  0.946   0.951   0.952   0.958   0.960   0.963   0.967   0.973
  0.976   0.978   0.987   0.992   1.001   1.002   1.009   1.014
  1.018   1.023   1.026   1.036   1.050   1.053   1.062   1.065
  1.069   1.072   1.081   1.084   1.085   1.091   1.093   1.099
  1.105   1.109   1.118   1.124   1.128   1.139   1.146   1.149
  1.151   1.162   1.164   1.174   1.178   1.181   1.190   1.200
  1.203   1.209   1.216   1.224   1.229   1.237   1.241   1.244
  1.254   1.263   1.269   1.272   1.281   1.288   1.290   1.304
  1.311   1.318   1.322   1.336   1.340   1.345   1.352   1.355
  1.362   1.367   1.374   1.376   1.378   1.384   1.388   1.388
  1.403   1.404   1.410   1.417   1.422   1.430   1.440   1.442
  1.445   1.450   1.455   1.461   1.472   1.475   1.480   1.489
  1.492   1.501   1.505   1.508   1.519   1.522   1.527   1.538
  1.542   1.552   1.565   1.569   1.582   1.586   1.588   1.596
  1.602   1.607   1.612   1.622   1.631   1.640   1.641   1.643
  1.651   1.654   1.659   1.666   1.677   1.688   1.690   1.705
  1.711   1.715   1.717   1.727   1.730   1.735   1.741   1.751
  1.763   1.767   1.772   1.782   1.785   1.795   1.801   1.818
  1.829   1.835   1.847   1.852   1.870   1.877   1.882   1.887
  1.896   1.899   1.905   1.914   1.924   1.927   1.930   1.950
  1.958   1.967   1.968   1.974   1.978   1.992   1.996   2.006
  2.006   2.017   2.032   2.037   2.041   2.058   2.058   2.067
  2.070   2.086   2.094   2.098   2.105   2.114   2.125   2.127
  2.131   2.150   2.166   2.173   2.179   2.185   2.187   2.189
  2.199   2.207   2.210   2.219   2.227   2.241   2.247   2.251
  2.259   2.272   2.284   2.287   2.292   2.298   2.310   2.312
  2.317   2.318   2.331   2.337   2.340   2.346   2.359   2.372
  2.385   2.388   2.396   2.400   2.404   2.415   2.422   2.425
  2.437   2.440   2.453   2.457   2.460   2.464   2.470   2.478
  2.492   2.496   2.502   2.507   2.515   2.521   2.524   2.533
  2.538   2.541   2.546   2.560   2.562   2.579   2.590   2.598
  2.610   2.617   2.625   2.632   2.640   2.645   2.647   2.660
  2.664   2.668   2.675   2.683   2.688   2.692   2.706   2.720
  2.723   2.739   2.745   2.752   2.757   2.764   2.776   2.778
  2.782   2.789   2.795   2.803   2.807   2.809   2.820   2.827
  2.835   2.846   2.848   2.852   2.855   2.865   2.867   2.877
  2.879   2.887   2.891   2.909   2.918   2.920   2.923   2.938
  2.939   2.945   2.946   2.952   2.956   2.962   2.968   2.977
  2.983   2.992   2.996   2.998   3.006   3.010   3.015   3.017
  3.023   3.025   3.032   3.035   3.040   3.049   3.058   3.062
  3.063   3.073   3.074   3.075   3.079   3.081   3.089   3.095
  3.098   3.101   3.109   3.112   3.120   3.123   3.131   3.135
  3.137   3.142   3.147   3.153   3.158   3.162   3.164   3.168
  3.170   3.174   3.177   3.182   3.190   3.196   3.197   3.206
  3.208   3.211   3.216   3.219   3.221   3.229   3.237   3.241
  3.243   3.247   3.251   3.258   3.266   3.269   3.275   3.280
  3.281   3.286   3.286   3.296   3.298   3.301   3.306   3.309
  3.311   3.316   3.321   3.323   3.326   3.332   3.340   3.345
  3.353   3.358   3.364   3.369   3.380   3.382   3.390   3.392
  3.400   3.402   3.411   3.414   3.418   3.419   3.425   3.431
  3.436   3.446   3.450   3.456   3.458   3.461   3.469   3.470
  3.475   3.477   3.489   3.499   3.501   3.504   3.512   3.519
  3.530   3.535   3.540   3.554   3.559   3.562   3.569   3.581
  3.584   3.591   3.607   3.616   3.618   3.628   3.635   3.646
  3.656   3.664   3.672   3.677   3.692   3.694   3.704   3.715
  3.718   3.726   3.730   3.732   3.735   3.741   3.753   3.758
  3.763   3.771   3.784   3.792   3.798   3.801   3.805   3.813
  3.821   3.828   3.837   3.838   3.850   3.868   3.870   3.881
  3.891   3.894   3.901   3.904   3.911   3.918   3.924   3.927
  3.929   3.932   3.938   3.944   3.952   3.952   3.957   3.964
  3.971   3.980   3.984   4.004   4.021   4.023   4.028   4.038
  4.047   4.055   4.067   4.069   4.086   4.090   4.095   4.116
  4.118   4.126   4.140   4.143   4.148   4.157   4.163   4.174
  4.182   4.187   4.196   4.198   4.204   4.214   4.217   4.220
  4.225   4.230   4.234   4.244   4.247   4.252   4.260   4.278
  4.289   4.295   4.303   4.305   4.313   4.328   4.334   4.342
  4.349   4.356   4.362   4.371   4.373   4.381   4.384   4.392
  4.400   4.408   4.423   4.427   4.436   4.440   4.445   4.449
  4.458   4.478   4.480   4.496   4.505   4.513   4.520   4.529
  4.537   4.547   4.559   4.563   4.585   4.588   4.601   4.619
  4.622   4.636   4.645   4.657   4.661   4.679   4.686   4.700
  4.707   4.710   4.735   4.742   4.748   4.755   4.774   4.784
  4.790   4.800   4.809   4.817   4.830   4.839   4.849   4.862
  4.874   4.884   4.886   4.898   4.903   4.918   4.921   4.925
  4.938   4.940   4.957   4.963   4.970   4.972   4.983   4.987
  4.993   4.999   5.007   5.018   5.029   5.037   5.042   5.052
  5.070   5.077   5.083   5.101   5.102   5.112   5.119   5.130
  5.134   5.138   5.144   5.146   5.158   5.167   5.182   5.192
  5.200   5.221   5.238   5.246   5.262   5.299   5.304   5.313
  5.320   5.328   5.354   5.377   5.383   5.392   5.412   5.423
  5.431   5.456   5.462   5.487   5.494   5.507   5.527   5.540
  5.542   5.569   5.574   5.590   5.592   5.612   5.627   5.646
  5.687   5.703   5.711   5.716   5.732   5.746   5.753   5.777
  5.796   5.824   5.832   5.850   5.877   5.896   5.910   5.919
  5.941   5.966   6.018   6.038   6.093   6.135   6.157   6.171
  6.176   6.217   6.247   6.264   6.320   6.348   6.387   6.419
  6.431   6.440   6.638   6.880   6.988   7.004   8.056   8.908
  9.530  10.150  10.654  11.145  11.232  11.697  11.981  12.133
 12.457  12.507  12.703  12.803  12.841  12.944  13.069  13.146
 13.187  13.363  13.543  14.158  14.381  14.615  15.029  15.092
 --------------------------------------------------------------
 
          Ground-State Mulliken Net Atomic Charges

     Atom                 Charge (a.u.)
  ----------------------------------------
      1 C                    -0.091072
      2 C                    -0.130078
      3 C                    -0.079599
      4 C                    -0.109610
      5 N                    -0.176550
      6 C                     0.137788
      7 C                     0.071145
      8 N                    -0.157664
      9 C                     0.006392
     10 C                    -0.090620
     11 N                    -0.251905
     12 C                     0.041242
     13 C                     0.060770
     14 S                     0.409543
     15 N                    -0.303182
     16 C                    -0.075989
     17 S                     0.176682
     18 C                     0.062252
     19 C                    -0.055585
     20 N                    -0.169863
     21 C                     0.064170
     22 C                    -0.011620
     23 C                    -0.041522
     24 N                    -0.161721
     25 C                    -0.137314
     26 S                     0.103690
     27 C                    -0.046270
     28 C                    -0.158579
     29 C                    -0.182298
     30 H                     0.130228
     31 H                     0.120714
     32 H                     0.120913
     33 H                     0.129624
     34 H                     0.139735
     35 H                     0.125267
     36 H                     0.133697
     37 H                     0.129349
     38 H                     0.131513
     39 H                     0.136326
  ----------------------------------------
  Sum of atomic charges =     0.000000

 -----------------------------------------------------------------
                    Cartesian Multipole Moments
 -----------------------------------------------------------------
    Charge (ESU x 10^10)
                 0.0000
    Dipole Moment (Debye)
         X       0.5029      Y       0.3012      Z      -2.1124
       Tot       2.1922
    Quadrupole Moments (Debye-Ang)
        XX    -151.4360     XY       2.9238     YY    -169.2133
        XZ       6.8300     YZ      -3.1324     ZZ    -183.8080
    Octopole Moments (Debye-Ang^2)
       XXX    -109.9245    XXY     -13.1019    XYY      73.7496
       YYY      28.1869    XXZ     -46.7724    XYZ      -5.0057
       YYZ      -3.6831    XZZ     -27.7071    YZZ      -3.7254
       ZZZ      -8.5498
    Hexadecapole Moments (Debye-Ang^3)
      XXXX  -15876.0850   XXXY    -459.1803   XXYY   -3753.8818
      XYYY     231.1244   YYYY   -3231.1578   XXXZ      20.2293
      XXYZ    -141.5793   XYYZ      27.5935   YYYZ     -14.2573
      XXZZ   -3270.7582   XYZZ       5.2973   YYZZ    -722.1377
      XZZZ      32.6755   YZZZ      -0.0412   ZZZZ    -524.4084
 -----------------------------------------------------------------
 Calculating analytic gradient of the SCF energy
 K construction time:  CPU 2937.65 s  wall 736.39 s
 Gradient of SCF Energy
            1           2           3           4           5           6
    1  -0.0018509   0.0020571   0.0019859  -0.0043011  -0.0071698   0.0116602
    2  -0.0005541   0.0002239  -0.0003303   0.0015465   0.0020985   0.0030568
    3   0.0010220  -0.0003794   0.0005364  -0.0047941   0.0006096   0.0037844
            7           8           9          10          11          12
    1  -0.0124859   0.0076372  -0.0012415  -0.0032992   0.0041284  -0.0001270
    2  -0.0038651   0.0024349  -0.0038145   0.0016151  -0.0020523  -0.0011981
    3  -0.0027022   0.0002662   0.0004158  -0.0001239  -0.0016901  -0.0001228
           13          14          15          16          17          18
    1   0.0010291  -0.0003152   0.0016707  -0.0004873  -0.0002364  -0.0001565
    2  -0.0003105   0.0013704   0.0007129   0.0001084  -0.0004725   0.0006645
    3   0.0001057  -0.0001130   0.0003528   0.0001947   0.0000546  -0.0002701
           19          20          21          22          23          24
    1  -0.0004533  -0.0005177   0.0005833   0.0007422   0.0010262   0.0000211
    2  -0.0000944  -0.0008679   0.0002767   0.0000415   0.0005359  -0.0006866
    3  -0.0001807   0.0002273   0.0001093   0.0000519  -0.0003017  -0.0000380
           25          26          27          28          29          30
    1  -0.0006833   0.0000996  -0.0002694   0.0004755  -0.0005383   0.0002974
    2   0.0003898   0.0000156   0.0009644   0.0008686  -0.0007422  -0.0001279
    3  -0.0002523  -0.0000272   0.0000863  -0.0004703   0.0004307   0.0002976
           31          32          33          34          35          36
    1   0.0003893  -0.0001760   0.0007279   0.0000917  -0.0001539   0.0000985
    2  -0.0002683  -0.0002599  -0.0000726  -0.0002227   0.0000036  -0.0002724
    3   0.0002588   0.0003652   0.0017980  -0.0000746   0.0001122   0.0003189
           37          38          39
    1  -0.0003162  -0.0001752   0.0002325
    2  -0.0003714  -0.0001171  -0.0002269
    3  -0.0000528   0.0001200   0.0000749
 Max gradient component =       1.249E-02
 RMS gradient           =       2.250E-03
 Gradient time:  CPU 3468.41 s  wall 870.41 s
 Geometry Optimization Parameters
   NAtoms,    NIC,     NZ,  NCons,   NDum,   NFix, NCnnct, MaxDiis
       39     293       0       3       0       0       0       0


** CONSTRAINED OPTIMIZATION IN DELOCALIZED INTERNAL COORDINATES **
   Searching for a Minimum

   Optimization Cycle:   1

                       Coordinates (Angstroms)
     ATOM                X               Y               Z
      1  C        -7.6773733898    0.3627976819    0.2304517044
      2  C        -7.0419599456    0.5507112179   -0.9870124842
      3  C        -6.8920593129    0.1589146797    1.3536371113
      4  C        -5.6629218467    0.5186336427   -1.0317636221
      5  N        -5.5663429637    0.1224741033    1.3248360310
      6  C        -4.9608244849    0.2923026116    0.1511807902
      7  C        -3.4778651850    0.2475465778    0.1210410063
      8  N        -2.8432984309    1.3728586151    0.3048227840
      9  C        -2.7199684783   -0.9456981184   -0.1186624572
     10  C        -1.4903695793    1.4459352215    0.2880268223
     11  N        -3.1726464532   -2.1722273356   -0.3817460445
     12  C        -1.2892576421   -0.8642783960   -0.1241675423
     13  C        -0.6349178229    0.3887619523    0.0833463566
     14  S        -1.8839922546   -3.1042499899   -0.5866898602
     15  N        -0.6994602466   -2.0326119186   -0.3698659943
     16  C         0.8117782299    0.5439536748    0.0444784039
     17  S         1.8907126967   -0.7941677500    0.0767938929
     18  C         1.5609972430    1.7171775827   -0.0392151802
     19  C         3.3123263670    0.1454675516    0.0134930454
     20  N         1.0599956403    2.9828911100   -0.0954545355
     21  C         2.9740627405    1.4917102221   -0.0608267858
     22  C         4.6324529800   -0.4463327255    0.0235496409
     23  C         1.9365382149    3.9377273524   -0.1654413267
     24  N         3.8631933743    2.5177582194   -0.1362859827
     25  C         5.8005584310    0.0998242381   -0.4320614814
     26  S         4.9129896588   -2.0328092921    0.6656152170
     27  C         3.3456121028    3.7072064807   -0.1852163925
     28  C         6.9123508701   -0.7613251409   -0.2751488077
     29  C         6.5831001256   -1.9507683320    0.2965329496
     30  H        -8.7543400795    0.3734798728    0.3091455459
     31  H        -7.6141508265    0.7169609090   -1.8891594893
     32  H        -7.3483527768    0.0216882105    2.3276809351
     33  H        -5.1173964781    0.6636502582   -1.9516865312
     34  H        -1.0842405760    2.4344021747    0.4288502267
     35  H         1.5600035083    4.9539284945   -0.2026086413
     36  H         5.8449088808    1.0902962902   -0.8516668280
     37  H         4.0268160860    4.5474758024   -0.2482391634
     38  H         7.9142516559   -0.5042271383   -0.5826680710
     39  H         7.2334948454   -2.7776297659    0.5273697121
   Point Group: c1    Number of degrees of freedom:   111


   Energy is  -2291.189447904

              Constraints and their Current Values
                                        Value     Constraint
   Dihedral:        4   6   7   8       90.000       90.000
   Dihedral:       10  13  16  17      168.542      168.550
   Dihedral:       17  19  22  25      157.471      157.507

 Attempting to Generate Delocalized Internal Coordinates

   Using Lagrange Multiplier Algorithm


114 Hessian modes will be used to form the next step
  Hessian Eigenvalues:
    -0.977753   -0.977753   -0.977753    0.045000    0.045000    0.045000
     0.045000    0.045000    0.045000    0.045000    0.045000    0.045000
     0.045000    0.045000    0.045001    0.045001    0.045001    0.045001
     0.045001    0.045001    0.045001    0.045001    0.045001    0.045002
     0.045002    0.045002    0.045003    0.045003    0.045003    0.045005
     0.045005    0.045007    0.045011    0.045014    0.045024    0.045038
     0.159978    0.159986    0.159994    0.159997    0.159997    0.159999
     0.159999    0.159999    0.160000    0.160000    0.219998    0.221296
     0.223763    0.224236    0.233054    0.237970    0.243342    0.244276
     0.249699    0.249894    0.249926    0.249965    0.249971    0.249976
     0.249976    0.249983    0.249990    0.249992    0.249993    0.249993
     0.249999    0.312874    0.327837    0.334372    0.341223    0.341483
     0.354733    0.354748    0.355697    0.358543    0.360075    0.360792
     0.361024    0.362509    0.363553    0.364081    0.368474    0.372717
     0.375315    0.386749    0.390961    0.406309    0.407684    0.419168
     0.432399    0.441235    0.459434    0.465826    0.470568    0.473619
     0.482727    0.483776    0.485034    0.485249    0.504698    0.518065
     0.518138    0.525484    0.558704    0.572255    0.583000    0.590216
     0.638648    0.653354    0.661938    1.022753    1.022753    1.022753

 Minimum Search - Taking P-RFO Step
 Searching for Lamda that Maximizes Along the Constraint modes Only
 Value Taken    Lamda =   0.00000092
 Searching for Lamda that Minimizes Along All other modes
 Value Taken    Lamda =  -0.00158636
 Step Taken.  Stepsize is  0.090178

                             Maximum     Tolerance    Cnvgd?
         Gradient            0.009390       0.000300      NO
         Displacement        0.040875       0.001200      NO
         Energy change     *********       0.000001      NO


 New Cartesian Coordinates Obtained by Inverse Iteration

 Displacement from previous Coordinates is:  0.473591
 ----------------------------------------------------------------
             Standard Nuclear Orientation (Angstroms)
    I     Atom           X                Y                Z
 ----------------------------------------------------------------
    1      C      -7.6680100453     0.3117883192     0.2074450144
    2      C      -7.0362372395     0.5033882852    -1.0090722900
    3      C      -6.8831772040     0.1249648000     1.3344349832
    4      C      -5.6558989842     0.4990171973    -1.0459424009
    5      N      -5.5550856818     0.1134670095     1.3136330383
    6      C      -4.9598622924     0.3000369093     0.1410553519
    7      C      -3.4707330004     0.2961646508     0.1309974040
    8      N      -2.8442110947     1.4212518182     0.3132115184
    9      C      -2.7262599195    -0.8957330312    -0.0927227061
   10      C      -1.4860300064     1.4788006201     0.2993463661
   11      N      -3.2117806866    -2.1138710814    -0.3307308474
   12      C      -1.2995251844    -0.8351238251    -0.1021593814
   13      C      -0.6362760879     0.4148939912     0.0952711466
   14      S      -1.9421941177    -3.0746613961    -0.5279285173
   15      N      -0.7367392791    -2.0196733879    -0.3369953155
   16      C       0.8123194241     0.5607267482     0.0539185347
   17      S       1.8846355915    -0.7825758462     0.0869369214
   18      C       1.5685641637     1.7292175215    -0.0301519526
   19      C       3.3115330834     0.1479773663     0.0155302808
   20      N       1.0753925577     2.9984962608    -0.0838354777
   21      C       2.9801214627     1.4957725312    -0.0553969377
   22      C       4.6277370472    -0.4517764432     0.0166596835
   23      C       1.9572622343     3.9477175701    -0.1524575759
   24      N       3.8755325407     2.5165967949    -0.1309235059
   25      C       5.7967200281     0.0881118278    -0.4453694627
   26      S       4.9035851047    -2.0407328754     0.6543252606
   27      C       3.3652836547     3.7087882147    -0.1756015223
   28      C       6.9041516724    -0.7798568425    -0.2979173061
   29      C       6.5717469420    -1.9674690818     0.2734104791
   30      H      -8.7457316135     0.3039201001     0.2815430618
   31      H      -7.6099892724     0.6550950541    -1.9136142827
   32      H      -7.3414613149    -0.0161986409     2.3062495342
   33      H      -5.1155621378     0.6522760926    -1.9696077375
   34      H      -1.0723155643     2.4649148890     0.4365245675
   35      H       1.5877672199     4.9664934857    -0.1873567582
   36      H       5.8435111253     1.0789133944    -0.8653018563
   37      H       4.0519600104     4.5456433581    -0.2369411389
   38      H       7.9054245844    -0.5279802144    -0.6128601163
   39      H       7.2182371577    -2.7985732994     0.4976588969
 ----------------------------------------------------------------
 Molecular Point Group                 C1    NOp =  1
 Largest Abelian Subgroup              C1    NOp =  1
 Nuclear Repulsion Energy =  2928.0315899819 hartrees
 There are      110 alpha and      110 beta electrons
 Applying Cartesian multipole field
    Component          Value
    ---------          -----
     (2,0,0)        1.00000E-12
     (0,2,0)        2.00000E-11
     (0,0,2)       -3.00000E-11
 Nucleus-field energy     =     0.0000000591 hartrees
 Requested basis set is cc-pVTZ
 There are 356 shells and 1022 basis functions
 A cutoff of  1.0D-11 yielded  30892 shell pairs
 There are    244056 function pairs (    318642 Cartesian)
 Smallest overlap matrix eigenvalue = 2.56E-05
 Guess MOs from SCF MO coefficient file
 Reading MOs from coefficient file
 Reading MOs from coefficient file
 Long-range K will be added via erf
 Coulomb attenuation parameter = 0.2 bohr**(-1)
 A restricted hybrid HF-DFT SCF calculation will be
 performed using Pulay DIIS extrapolation
 Exchange:     0.2220 Hartree-Fock + 1.0000 wB97X-D + LR-HF
 Correlation:  1.0000 wB97X-D
 Using SG-1 standard quadrature grid
 Dispersion:   Grimme D
 SCF converges when DIIS error is below 1.0E-08
 Geometry optimization detected.  Setting ReadMinima to 0
 Setting SaveMinima to 0
 using 4 threads for integral computing 
 using 4 threads for integral computing 
 K construction time:  CPU 1382.77 s  wall 348.06 s
 -------------------------------------------------------
 OpenMP BLAS3 based DFT computing Module                
 Release: version 1.0, May 2013, Q-Chem Inc. Pittsburgh 
 -------------------------------------------------------
 ---------------------------------------
  Cycle       Energy         DIIS Error
 ---------------------------------------
    1   -2291.1834326685      2.58E-04
 K construction time:  CPU 1375.24 s  wall 346.19 s
    2   -2291.1901784046      3.04E-05
 K construction time:  CPU 1003.74 s  wall 252.46 s
    3   -2291.1902626067      3.40E-05
 K construction time:  CPU 928.67 s  wall 233.59 s
    4   -2291.1903873539      9.66E-06
 K construction time:  CPU 891.84 s  wall 224.23 s
    5   -2291.1904007535      4.37E-06
 K construction time:  CPU 825.21 s  wall 207.52 s
    6   -2291.1904035135      1.53E-06
 K construction time:  CPU 760.09 s  wall 191.02 s
    7   -2291.1904039350      5.06E-07
 K construction time:  CPU 706.43 s  wall 177.50 s
    8   -2291.1904039929      2.53E-07
 K construction time:  CPU 649.23 s  wall 163.10 s
    9   -2291.1904040084      1.12E-07
 K construction time:  CPU 578.65 s  wall 145.22 s
   10   -2291.1904040119      5.56E-08
 K construction time:  CPU 533.48 s  wall 133.81 s
   11   -2291.1904040120      1.86E-08
 K construction time:  CPU 490.69 s  wall 123.05 s
   12   -2291.1904040113      9.78E-09 Convergence criterion met
 ---------------------------------------
 SCF time:  CPU 13406.11 s  wall 3386.14 s
 SCF   energy in the final basis set = -2291.1904040113
 Total energy in the final basis set = -2291.1904040113
 
 --------------------------------------------------------------
 
                    Orbital Energies (a.u.)
 --------------------------------------------------------------
 
 Alpha MOs
 -- Occupied --
-89.158 -89.108 -89.087 -14.489 -14.484 -14.463 -14.463 -14.445
-14.436 -10.358 -10.352 -10.350 -10.346 -10.345 -10.344 -10.343
-10.342 -10.339 -10.337 -10.335 -10.332 -10.327 -10.325 -10.320
-10.312 -10.302 -10.301 -10.296 -10.294  -8.163  -8.117  -8.097
 -6.112  -6.107  -6.106  -6.065  -6.061  -6.060  -6.046  -6.042
 -6.040  -1.148  -1.102  -1.069  -1.048  -1.030  -1.016  -1.006
 -0.987  -0.925  -0.913  -0.900  -0.879  -0.870  -0.855  -0.839
 -0.812  -0.778  -0.772  -0.746  -0.740  -0.733  -0.724  -0.712
 -0.674  -0.656  -0.649  -0.632  -0.630  -0.621  -0.607  -0.605
 -0.588  -0.585  -0.568  -0.565  -0.560  -0.548  -0.543  -0.527
 -0.513  -0.504  -0.501  -0.499  -0.493  -0.492  -0.486  -0.485
 -0.477  -0.467  -0.463  -0.462  -0.451  -0.443  -0.430  -0.429
 -0.422  -0.411  -0.396  -0.376  -0.372  -0.359  -0.357  -0.345
 -0.344  -0.340  -0.338  -0.334  -0.331  -0.266
 -- Virtual --
 -0.053  -0.025   0.028   0.035   0.043   0.047   0.061   0.072
  0.081   0.086   0.107   0.120   0.123   0.127   0.129   0.135
  0.148   0.150   0.154   0.164   0.168   0.170   0.182   0.187
  0.193   0.205   0.211   0.214   0.217   0.227   0.236   0.244
  0.255   0.264   0.267   0.274   0.279   0.289   0.293   0.295
  0.299   0.300   0.304   0.311   0.317   0.322   0.323   0.330
  0.333   0.338   0.341   0.345   0.351   0.355   0.356   0.361
  0.366   0.368   0.370   0.379   0.380   0.382   0.384   0.387
  0.392   0.395   0.398   0.400   0.403   0.406   0.408   0.411
  0.417   0.418   0.422   0.426   0.430   0.432   0.433   0.439
  0.443   0.446   0.451   0.454   0.456   0.458   0.460   0.462
  0.464   0.465   0.471   0.475   0.478   0.484   0.485   0.492
  0.494   0.497   0.499   0.504   0.507   0.516   0.518   0.522
  0.523   0.529   0.531   0.536   0.536   0.543   0.548   0.553
  0.558   0.563   0.566   0.570   0.585   0.593   0.594   0.601
  0.605   0.607   0.609   0.617   0.624   0.629   0.632   0.638
  0.638   0.645   0.652   0.653   0.658   0.664   0.668   0.675
  0.679   0.686   0.690   0.696   0.700   0.704   0.707   0.715
  0.721   0.724   0.730   0.734   0.741   0.743   0.745   0.752
  0.758   0.764   0.767   0.768   0.774   0.780   0.786   0.789
  0.792   0.799   0.802   0.803   0.809   0.812   0.816   0.819
  0.824   0.826   0.834   0.838   0.843   0.848   0.853   0.855
  0.859   0.867   0.868   0.871   0.880   0.882   0.891   0.899
  0.906   0.909   0.911   0.919   0.920   0.930   0.932   0.934
  0.946   0.950   0.954   0.958   0.960   0.964   0.967   0.975
  0.975   0.978   0.989   0.993   1.002   1.005   1.008   1.013
  1.017   1.024   1.027   1.037   1.050   1.054   1.062   1.067
  1.071   1.073   1.080   1.084   1.087   1.091   1.093   1.099
  1.105   1.110   1.117   1.124   1.128   1.139   1.145   1.149
  1.152   1.163   1.165   1.173   1.179   1.181   1.191   1.201
  1.204   1.209   1.216   1.227   1.229   1.238   1.242   1.244
  1.255   1.263   1.269   1.272   1.283   1.288   1.290   1.308
  1.311   1.319   1.322   1.336   1.340   1.344   1.353   1.355
  1.362   1.367   1.374   1.376   1.378   1.383   1.387   1.389
  1.403   1.405   1.410   1.419   1.423   1.431   1.440   1.442
  1.444   1.452   1.457   1.460   1.471   1.477   1.479   1.488
  1.493   1.502   1.504   1.510   1.521   1.527   1.528   1.540
  1.543   1.552   1.566   1.568   1.582   1.586   1.587   1.596
  1.602   1.607   1.613   1.622   1.632   1.640   1.642   1.645
  1.651   1.655   1.659   1.666   1.677   1.688   1.690   1.705
  1.712   1.716   1.719   1.727   1.730   1.741   1.742   1.752
  1.763   1.767   1.773   1.782   1.786   1.794   1.801   1.818
  1.829   1.836   1.850   1.853   1.871   1.877   1.883   1.889
  1.896   1.899   1.906   1.914   1.924   1.927   1.930   1.949
  1.956   1.966   1.969   1.976   1.979   1.991   1.994   2.005
  2.006   2.017   2.031   2.036   2.041   2.056   2.058   2.066
  2.069   2.089   2.094   2.099   2.106   2.113   2.125   2.128
  2.132   2.153   2.165   2.175   2.179   2.185   2.188   2.192
  2.202   2.207   2.212   2.219   2.228   2.239   2.246   2.248
  2.258   2.271   2.284   2.286   2.292   2.298   2.309   2.312
  2.316   2.318   2.330   2.337   2.342   2.347   2.359   2.372
  2.382   2.387   2.397   2.400   2.404   2.415   2.423   2.425
  2.437   2.439   2.453   2.457   2.460   2.463   2.470   2.478
  2.491   2.496   2.503   2.508   2.515   2.523   2.524   2.533
  2.538   2.541   2.548   2.561   2.563   2.580   2.590   2.598
  2.610   2.617   2.625   2.632   2.641   2.645   2.648   2.661
  2.665   2.670   2.676   2.683   2.688   2.694   2.709   2.721
  2.724   2.740   2.743   2.755   2.756   2.763   2.775   2.779
  2.782   2.789   2.795   2.800   2.807   2.809   2.820   2.827
  2.835   2.846   2.847   2.854   2.855   2.864   2.868   2.877
  2.880   2.889   2.891   2.908   2.915   2.921   2.923   2.937
  2.939   2.945   2.945   2.952   2.958   2.964   2.969   2.978
  2.984   2.992   2.997   3.000   3.006   3.010   3.015   3.017
  3.023   3.025   3.034   3.035   3.042   3.049   3.058   3.061
  3.064   3.074   3.075   3.076   3.079   3.081   3.089   3.097
  3.099   3.102   3.108   3.112   3.121   3.124   3.132   3.135
  3.138   3.142   3.146   3.155   3.159   3.163   3.167   3.168
  3.173   3.175   3.178   3.182   3.190   3.196   3.197   3.207
  3.207   3.212   3.217   3.221   3.221   3.230   3.237   3.240
  3.245   3.247   3.253   3.258   3.267   3.270   3.275   3.280
  3.282   3.284   3.286   3.297   3.298   3.302   3.305   3.309
  3.311   3.316   3.322   3.324   3.325   3.333   3.340   3.344
  3.355   3.358   3.365   3.372   3.381   3.383   3.391   3.395
  3.401   3.404   3.411   3.414   3.419   3.419   3.425   3.432
  3.437   3.447   3.450   3.456   3.459   3.463   3.468   3.470
  3.476   3.479   3.492   3.498   3.501   3.505   3.511   3.521
  3.531   3.537   3.539   3.555   3.560   3.562   3.571   3.581
  3.584   3.590   3.608   3.617   3.621   3.627   3.636   3.647
  3.656   3.665   3.672   3.679   3.693   3.695   3.708   3.714
  3.718   3.726   3.730   3.732   3.737   3.742   3.753   3.758
  3.763   3.772   3.784   3.792   3.798   3.802   3.805   3.816
  3.823   3.829   3.839   3.840   3.852   3.869   3.871   3.881
  3.893   3.896   3.902   3.906   3.912   3.918   3.926   3.929
  3.931   3.933   3.938   3.946   3.952   3.953   3.957   3.965
  3.971   3.980   3.984   4.005   4.021   4.023   4.028   4.042
  4.047   4.056   4.068   4.071   4.087   4.094   4.096   4.114
  4.120   4.126   4.140   4.144   4.148   4.158   4.165   4.172
  4.181   4.187   4.195   4.201   4.205   4.214   4.219   4.220
  4.229   4.230   4.234   4.244   4.247   4.253   4.261   4.278
  4.291   4.296   4.302   4.307   4.315   4.329   4.334   4.343
  4.347   4.357   4.364   4.372   4.373   4.384   4.387   4.395
  4.402   4.409   4.423   4.429   4.437   4.441   4.445   4.449
  4.459   4.478   4.484   4.495   4.509   4.517   4.521   4.530
  4.537   4.547   4.560   4.563   4.585   4.588   4.602   4.621
  4.630   4.638   4.646   4.662   4.664   4.678   4.685   4.701
  4.710   4.713   4.737   4.741   4.750   4.756   4.775   4.784
  4.789   4.802   4.809   4.816   4.831   4.840   4.850   4.866
  4.876   4.885   4.887   4.900   4.907   4.919   4.920   4.929
  4.937   4.941   4.958   4.961   4.970   4.974   4.983   4.988
  4.994   4.999   5.008   5.018   5.028   5.038   5.042   5.054
  5.070   5.078   5.083   5.100   5.105   5.111   5.121   5.130
  5.135   5.138   5.144   5.146   5.157   5.166   5.184   5.192
  5.201   5.221   5.236   5.246   5.262   5.300   5.304   5.314
  5.320   5.329   5.352   5.377   5.387   5.394   5.411   5.423
  5.433   5.452   5.467   5.487   5.498   5.509   5.528   5.541
  5.543   5.570   5.575   5.591   5.594   5.614   5.627   5.645
  5.688   5.707   5.715   5.718   5.735   5.746   5.754   5.779
  5.796   5.828   5.833   5.851   5.878   5.897   5.913   5.920
  5.948   5.968   6.021   6.039   6.096   6.138   6.155   6.172
  6.179   6.222   6.247   6.271   6.320   6.349   6.384   6.421
  6.431   6.441   6.638   6.883   6.988   7.005   8.051   8.901
  9.523  10.149  10.651  11.185  11.240  11.713  11.985  12.186
 12.479  12.534  12.732  12.837  12.849  12.947  13.072  13.157
 13.203  13.393  13.555  14.164  14.389  14.632  15.050  15.096
 --------------------------------------------------------------
 
          Ground-State Mulliken Net Atomic Charges

     Atom                 Charge (a.u.)
  ----------------------------------------
      1 C                    -0.090980
      2 C                    -0.129090
      3 C                    -0.080739
      4 C                    -0.108598
      5 N                    -0.177208
      6 C                     0.133641
      7 C                     0.078154
      8 N                    -0.159087
      9 C                     0.011225
     10 C                    -0.085079
     11 N                    -0.252535
     12 C                     0.036916
     13 C                     0.055296
     14 S                     0.409160
     15 N                    -0.303650
     16 C                    -0.075305
     17 S                     0.176182
     18 C                     0.062072
     19 C                    -0.055632
     20 N                    -0.169775
     21 C                     0.063844
     22 C                    -0.011785
     23 C                    -0.041799
     24 N                    -0.161374
     25 C                    -0.136964
     26 S                     0.103597
     27 C                    -0.045965
     28 C                    -0.158487
     29 C                    -0.182342
     30 H                     0.129855
     31 H                     0.120605
     32 H                     0.121012
     33 H                     0.129254
     34 H                     0.139927
     35 H                     0.125346
     36 H                     0.133427
     37 H                     0.129032
     38 H                     0.131431
     39 H                     0.136416
  ----------------------------------------
  Sum of atomic charges =     0.000000

 -----------------------------------------------------------------
                    Cartesian Multipole Moments
 -----------------------------------------------------------------
    Charge (ESU x 10^10)
                 0.0000
    Dipole Moment (Debye)
         X       0.4513      Y       0.2282      Z      -2.1241
       Tot       2.1834
    Quadrupole Moments (Debye-Ang)
        XX    -151.1976     XY       3.6445     YY    -169.3071
        XZ       6.9319     YZ      -3.1461     ZZ    -183.7179
    Octopole Moments (Debye-Ang^2)
       XXX    -108.9267    XXY     -18.7069    XYY      74.9699
       YYY      24.2116    XXZ     -50.7200    XYZ      -4.6380
       YYZ      -4.1481    XZZ     -27.3914    YZZ      -4.8642
       ZZZ     -11.7356
    Hexadecapole Moments (Debye-Ang^3)
      XXXX  -15889.6619   XXXY    -444.6564   XXYY   -3747.0690
      XYYY     220.5781   YYYY   -3221.5125   XXXZ      29.3968
      XXYZ    -136.0758   XYYZ      28.2989   YYYZ      -8.4116
      XXZZ   -3265.7752   XYZZ       1.6298   YYZZ    -720.4654
      XZZZ      38.5097   YZZZ       5.5720   ZZZZ    -515.8768
 -----------------------------------------------------------------
 Calculating analytic gradient of the SCF energy
 K construction time:  CPU 2990.94 s  wall 749.76 s
 Gradient of SCF Energy
            1           2           3           4           5           6
    1  -0.0004028   0.0007947   0.0016418  -0.0018862  -0.0012940   0.0022981
    2  -0.0000599   0.0001554   0.0001523  -0.0001196   0.0006038   0.0008571
    3  -0.0003120   0.0002541  -0.0002625  -0.0010473  -0.0001962   0.0026987
            7           8           9          10          11          12
    1  -0.0024568   0.0030248  -0.0011684  -0.0023710   0.0018326  -0.0000513
    2  -0.0033566   0.0003064  -0.0007022   0.0009164  -0.0003921   0.0013529
    3  -0.0015177   0.0003396   0.0005734   0.0001201  -0.0010377   0.0007948
           13          14          15          16          17          18
    1   0.0012474  -0.0013744  -0.0004428  -0.0003027   0.0004879  -0.0001568
    2  -0.0005894   0.0001974   0.0007947  -0.0004130   0.0002162   0.0003564
    3  -0.0003546   0.0001001  -0.0001995  -0.0000806   0.0003871  -0.0001388
           19          20          21          22          23          24
    1  -0.0001196  -0.0001897   0.0002836   0.0000435   0.0004725  -0.0000733
    2  -0.0001153  -0.0004384   0.0002581  -0.0000521   0.0001456  -0.0003821
    3  -0.0002500   0.0001203   0.0002385  -0.0000351  -0.0001458  -0.0000546
           25          26          27          28          29          30
    1  -0.0001265   0.0000522  -0.0002799   0.0001390  -0.0001730   0.0000418
    2  -0.0001513   0.0000672   0.0002514   0.0001601  -0.0000983  -0.0002417
    3   0.0000096  -0.0000245   0.0000413  -0.0000557   0.0001274  -0.0001583
           31          32          33          34          35          36
    1  -0.0000593   0.0000861   0.0002743   0.0000416   0.0000474   0.0000629
    2  -0.0000673   0.0000652   0.0002073   0.0000710  -0.0000168   0.0000562
    3  -0.0000913   0.0000592   0.0001128  -0.0001531   0.0001062   0.0001197
           37          38          39
    1   0.0000006   0.0000157   0.0000400
    2  -0.0000327  -0.0000196   0.0000571
    3  -0.0000380   0.0000034  -0.0000528
 Max gradient component =       3.357E-03
 RMS gradient           =       8.048E-04
 Gradient time:  CPU 3520.10 s  wall 883.27 s
 Geometry Optimization Parameters
   NAtoms,    NIC,     NZ,  NCons,   NDum,   NFix, NCnnct, MaxDiis
       39     293       0       3       0       0       0       0

 Cartesian Hessian Update
 Hessian Updated using BFGS Update


** CONSTRAINED OPTIMIZATION IN DELOCALIZED INTERNAL COORDINATES **
   Searching for a Minimum

   Optimization Cycle:   2

                       Coordinates (Angstroms)
     ATOM                X               Y               Z
      1  C        -7.6680100453    0.3117883192    0.2074450144
      2  C        -7.0362372395    0.5033882852   -1.0090722900
      3  C        -6.8831772040    0.1249648000    1.3344349832
      4  C        -5.6558989842    0.4990171973   -1.0459424009
      5  N        -5.5550856818    0.1134670095    1.3136330383
      6  C        -4.9598622924    0.3000369093    0.1410553519
      7  C        -3.4707330004    0.2961646508    0.1309974040
      8  N        -2.8442110947    1.4212518182    0.3132115184
      9  C        -2.7262599195   -0.8957330312   -0.0927227061
     10  C        -1.4860300064    1.4788006201    0.2993463661
     11  N        -3.2117806866   -2.1138710814   -0.3307308474
     12  C        -1.2995251844   -0.8351238251   -0.1021593814
     13  C        -0.6362760879    0.4148939912    0.0952711466
     14  S        -1.9421941177   -3.0746613961   -0.5279285173
     15  N        -0.7367392791   -2.0196733879   -0.3369953155
     16  C         0.8123194241    0.5607267482    0.0539185347
     17  S         1.8846355915   -0.7825758462    0.0869369214
     18  C         1.5685641637    1.7292175215   -0.0301519526
     19  C         3.3115330834    0.1479773663    0.0155302808
     20  N         1.0753925577    2.9984962608   -0.0838354777
     21  C         2.9801214627    1.4957725312   -0.0553969377
     22  C         4.6277370472   -0.4517764432    0.0166596835
     23  C         1.9572622343    3.9477175701   -0.1524575759
     24  N         3.8755325407    2.5165967949   -0.1309235059
     25  C         5.7967200281    0.0881118278   -0.4453694627
     26  S         4.9035851047   -2.0407328754    0.6543252606
     27  C         3.3652836547    3.7087882147   -0.1756015223
     28  C         6.9041516724   -0.7798568425   -0.2979173061
     29  C         6.5717469420   -1.9674690818    0.2734104791
     30  H        -8.7457316135    0.3039201001    0.2815430618
     31  H        -7.6099892724    0.6550950541   -1.9136142827
     32  H        -7.3414613149   -0.0161986409    2.3062495342
     33  H        -5.1155621378    0.6522760926   -1.9696077375
     34  H        -1.0723155643    2.4649148890    0.4365245675
     35  H         1.5877672199    4.9664934857   -0.1873567582
     36  H         5.8435111253    1.0789133944   -0.8653018563
     37  H         4.0519600104    4.5456433581   -0.2369411389
     38  H         7.9054245844   -0.5279802144   -0.6128601163
     39  H         7.2182371577   -2.7985732994    0.4976588969
   Point Group: c1    Number of degrees of freedom:   111


   Energy is  -2291.190404011

              Constraints and their Current Values
                                        Value     Constraint
   Dihedral:        4   6   7   8       90.000       90.000
   Dihedral:       10  13  16  17      168.550      168.550
   Dihedral:       17  19  22  25      157.507      157.507
 Hessian Updated using BFGS Update

103 Hessian modes will be used to form the next step
  Hessian Eigenvalues:
     0.040700    0.045000    0.045000    0.045000    0.045000    0.045000
     0.045000    0.045000    0.045000    0.045000    0.045001    0.045001
     0.045001    0.045001    0.045001    0.045001    0.045001    0.045001
     0.045002    0.045002    0.045003    0.045003    0.045005    0.045005
     0.045006    0.045011    0.045014    0.045023    0.045030    0.045392
     0.158334    0.159979    0.159986    0.159994    0.159997    0.159998
     0.159999    0.160000    0.160282    0.196843    0.220142    0.221337
     0.223771    0.225184    0.234316    0.237973    0.243343    0.245087
     0.249749    0.249907    0.249956    0.249966    0.249973    0.249978
     0.249989    0.249991    0.249992    0.249999    0.267399    0.312875
     0.327857    0.334368    0.337537    0.341556    0.354732    0.354767
     0.355714    0.358592    0.360069    0.360966    0.361050    0.362514
     0.363566    0.364095    0.367184    0.372736    0.375545    0.386745
     0.401002    0.407650    0.414723    0.419262    0.431070    0.441398
     0.460707    0.465804    0.471010    0.472462    0.482575    0.484229
     0.484617    0.488606    0.504704    0.517825    0.518258    0.522493
     0.558386    0.579939    0.583800    0.589637    0.633356    0.653396
     0.661767

 Minimum Search - Taking Simple RFO Step
 Searching for Lamda that Minimizes Along All modes
 Value Taken    Lamda =  -0.00022911
 Step Taken.  Stepsize is  0.052723

                             Maximum     Tolerance    Cnvgd?
         Gradient           0.001891      0.000300      NO
         Displacement       0.016570      0.001200      NO
         Energy change     -0.000956      0.000001      NO


 New Cartesian Coordinates Obtained by Inverse Iteration

 Displacement from previous Coordinates is:  0.257266
 ----------------------------------------------------------------
             Standard Nuclear Orientation (Angstroms)
    I     Atom           X                Y                Z
 ----------------------------------------------------------------
    1      C      -7.6663037831     0.2851503819     0.1974755861
    2      C      -7.0345355654     0.4800454213    -1.0187839822
    3      C      -6.8830531370     0.1016347892     1.3255006485
    4      C      -5.6529405204     0.4887342688    -1.0539284235
    5      N      -5.5533632792     0.1042224762     1.3056998516
    6      C      -4.9593644404     0.3021642612     0.1340106473
    7      C      -3.4669402256     0.3194598840     0.1335319011
    8      N      -2.8469734286     1.4459533837     0.3166353965
    9      C      -2.7216078170    -0.8735737167    -0.0811517341
   10      C      -1.4855425402     1.4977718264     0.3051039358
   11      N      -3.2133777235    -2.0929908163    -0.3005246967
   12      C      -1.2963873069    -0.8192475515    -0.0929434326
   13      C      -0.6371125778     0.4334418735     0.0993256337
   14      S      -1.9446792849    -3.0593217176    -0.4928375901
   15      N      -0.7349688203    -2.0073216639    -0.3160184421
   16      C       0.8113934748     0.5770149620     0.0564102156
   17      S       1.8762529213    -0.7716067151     0.0874556961
   18      C       1.5723108345     1.7420377055    -0.0275387138
   19      C       3.3075598571     0.1524182444     0.0142962559
   20      N       1.0845530986     3.0137925522    -0.0797170746
   21      C       2.9824926978     1.5019779330    -0.0546567334
   22      C       4.6202223288    -0.4548169971     0.0119064615
   23      C       1.9701095337     3.9591139942    -0.1467920271
   24      N       3.8824601231     2.5194062189    -0.1284449757
   25      C       5.7915901126     0.0787177064    -0.4517453163
   26      S       4.8876695083    -2.0464566366     0.6467521503
   27      C       3.3774707299     3.7137579891    -0.1704839438
   28      C       6.8936444220    -0.7967625650    -0.3082787838
   29      C       6.5554252947    -1.9830612601     0.2619237577
   30      H      -8.7441497650     0.2709355084     0.2706990973
   31      H      -7.6084073126     0.6272175350    -1.9238673058
   32      H      -7.3423522592    -0.0454007356     2.2958697285
   33      H      -5.1150962337     0.6460092501    -1.9784142654
   34      H      -1.0696206809     2.4826710713     0.4436181744
   35      H       1.6048161846     4.9794809474    -0.1812100444
   36      H       5.8430384597     1.0692906030    -0.8717490836
   37      H       4.0678155867     4.5478679896    -0.2298647893
   38      H       7.8956101859    -0.5506523384    -0.6256042006
   39      H       7.1967462258    -2.8188672184     0.4836053747
 ----------------------------------------------------------------
 Molecular Point Group                 C1    NOp =  1
 Largest Abelian Subgroup              C1    NOp =  1
 Nuclear Repulsion Energy =  2929.1501602631 hartrees
 There are      110 alpha and      110 beta electrons
 Applying Cartesian multipole field
    Component          Value
    ---------          -----
     (2,0,0)        1.00000E-12
     (0,2,0)        2.00000E-11
     (0,0,2)       -3.00000E-11
 Nucleus-field energy     =     0.0000000593 hartrees
 Requested basis set is cc-pVTZ
 There are 356 shells and 1022 basis functions
 A cutoff of  1.0D-11 yielded  30909 shell pairs
 There are    244161 function pairs (    318779 Cartesian)
 Smallest overlap matrix eigenvalue = 2.54E-05
 Guess MOs from SCF MO coefficient file
 Reading MOs from coefficient file
 Reading MOs from coefficient file
 Long-range K will be added via erf
 Coulomb attenuation parameter = 0.2 bohr**(-1)
 A restricted hybrid HF-DFT SCF calculation will be
 performed using Pulay DIIS extrapolation
 Exchange:     0.2220 Hartree-Fock + 1.0000 wB97X-D + LR-HF
 Correlation:  1.0000 wB97X-D
 Using SG-1 standard quadrature grid
 Dispersion:   Grimme D
 SCF converges when DIIS error is below 1.0E-08
 Geometry optimization detected.  Setting ReadMinima to 0
 Setting SaveMinima to 0
 using 4 threads for integral computing 
 using 4 threads for integral computing 
 K construction time:  CPU 1361.25 s  wall 342.60 s
 -------------------------------------------------------
 OpenMP BLAS3 based DFT computing Module                
 Release: version 1.0, May 2013, Q-Chem Inc. Pittsburgh 
 -------------------------------------------------------
 ---------------------------------------
  Cycle       Energy         DIIS Error
 ---------------------------------------
    1   -2291.1862073369      1.25E-04
 K construction time:  CPU 1363.77 s  wall 343.26 s
    2   -2291.1904656908      1.38E-05
 K construction time:  CPU 941.51 s  wall 236.84 s
    3   -2291.1904976742      1.39E-05
 K construction time:  CPU 876.54 s  wall 220.44 s
    4   -2291.1905183240      4.77E-06
 K construction time:  CPU 867.17 s  wall 217.91 s
    5   -2291.1905216716      2.32E-06
 K construction time:  CPU 831.11 s  wall 208.80 s
    6   -2291.1905224449      7.97E-07
 K construction time:  CPU 704.92 s  wall 177.06 s
    7   -2291.1905225572      2.47E-07
 K construction time:  CPU 631.34 s  wall 158.58 s
    8   -2291.1905225719      1.24E-07
 K construction time:  CPU 590.53 s  wall 148.20 s
    9   -2291.1905225751      5.03E-08
 K construction time:  CPU 507.52 s  wall 127.37 s
   10   -2291.1905225776      2.70E-08
 K construction time:  CPU 480.34 s  wall 120.53 s
   11   -2291.1905225788      9.31E-09 Convergence criterion met
 ---------------------------------------
 SCF time:  CPU 12154.29 s  wall 3069.38 s
 SCF   energy in the final basis set = -2291.1905225788
 Total energy in the final basis set = -2291.1905225788
 
 --------------------------------------------------------------
 
                    Orbital Energies (a.u.)
 --------------------------------------------------------------
 
 Alpha MOs
 -- Occupied --
-89.158 -89.107 -89.087 -14.489 -14.484 -14.463 -14.463 -14.446
-14.437 -10.358 -10.352 -10.350 -10.346 -10.344 -10.344 -10.343
-10.342 -10.339 -10.337 -10.335 -10.332 -10.327 -10.325 -10.320
-10.312 -10.302 -10.301 -10.296 -10.294  -8.163  -8.117  -8.097
 -6.112  -6.107  -6.106  -6.065  -6.061  -6.060  -6.046  -6.042
 -6.040  -1.147  -1.102  -1.069  -1.048  -1.030  -1.016  -1.006
 -0.987  -0.926  -0.913  -0.900  -0.879  -0.870  -0.855  -0.839
 -0.812  -0.778  -0.772  -0.746  -0.740  -0.734  -0.724  -0.712
 -0.674  -0.656  -0.649  -0.632  -0.629  -0.621  -0.607  -0.605
 -0.587  -0.585  -0.568  -0.565  -0.559  -0.548  -0.543  -0.528
 -0.513  -0.504  -0.501  -0.499  -0.493  -0.492  -0.486  -0.485
 -0.476  -0.467  -0.463  -0.462  -0.451  -0.443  -0.430  -0.429
 -0.422  -0.411  -0.397  -0.376  -0.372  -0.359  -0.358  -0.345
 -0.344  -0.341  -0.339  -0.334  -0.331  -0.266
 -- Virtual --
 -0.052  -0.025   0.028   0.035   0.043   0.048   0.060   0.072
  0.081   0.086   0.107   0.120   0.123   0.127   0.129   0.135
  0.148   0.150   0.154   0.164   0.168   0.170   0.182   0.187
  0.193   0.205   0.211   0.214   0.217   0.227   0.236   0.244
  0.255   0.263   0.267   0.274   0.279   0.289   0.293   0.296
  0.299   0.300   0.304   0.311   0.317   0.322   0.323   0.330
  0.333   0.338   0.340   0.345   0.351   0.355   0.356   0.361
  0.365   0.368   0.370   0.378   0.380   0.382   0.384   0.387
  0.392   0.395   0.398   0.400   0.403   0.406   0.408   0.411
  0.417   0.418   0.422   0.426   0.431   0.432   0.433   0.439
  0.443   0.446   0.451   0.454   0.457   0.458   0.460   0.462
  0.464   0.465   0.471   0.475   0.478   0.483   0.485   0.492
  0.493   0.497   0.500   0.504   0.507   0.516   0.518   0.522
  0.523   0.529   0.531   0.536   0.536   0.543   0.547   0.553
  0.558   0.563   0.567   0.571   0.585   0.592   0.594   0.601
  0.605   0.607   0.609   0.617   0.624   0.629   0.632   0.638
  0.639   0.645   0.652   0.653   0.658   0.664   0.669   0.675
  0.679   0.686   0.690   0.697   0.701   0.705   0.707   0.716
  0.721   0.724   0.731   0.735   0.741   0.743   0.746   0.752
  0.758   0.764   0.767   0.768   0.774   0.780   0.786   0.789
  0.792   0.799   0.802   0.802   0.809   0.812   0.815   0.819
  0.823   0.826   0.833   0.838   0.843   0.847   0.853   0.855
  0.859   0.866   0.869   0.871   0.880   0.883   0.890   0.898
  0.906   0.909   0.912   0.919   0.921   0.930   0.932   0.934
  0.946   0.950   0.955   0.958   0.960   0.964   0.967   0.975
  0.976   0.978   0.989   0.994   1.002   1.005   1.008   1.014
  1.018   1.024   1.028   1.037   1.050   1.054   1.062   1.067
  1.072   1.074   1.080   1.084   1.088   1.091   1.092   1.099
  1.105   1.110   1.117   1.125   1.128   1.138   1.144   1.149
  1.152   1.163   1.165   1.173   1.179   1.181   1.191   1.201
  1.204   1.209   1.215   1.229   1.230   1.239   1.242   1.243
  1.255   1.264   1.268   1.271   1.283   1.287   1.290   1.309
  1.311   1.319   1.322   1.335   1.340   1.344   1.353   1.355
  1.362   1.367   1.374   1.376   1.378   1.383   1.386   1.389
  1.403   1.405   1.410   1.419   1.423   1.432   1.440   1.441
  1.444   1.452   1.457   1.459   1.470   1.477   1.478   1.487
  1.493   1.502   1.504   1.510   1.521   1.527   1.529   1.540
  1.544   1.552   1.565   1.569   1.582   1.586   1.587   1.596
  1.602   1.607   1.613   1.622   1.632   1.640   1.642   1.645
  1.652   1.655   1.660   1.667   1.677   1.688   1.691   1.705
  1.712   1.716   1.719   1.727   1.730   1.741   1.743   1.751
  1.762   1.767   1.773   1.782   1.786   1.793   1.802   1.817
  1.828   1.836   1.851   1.853   1.871   1.877   1.883   1.889
  1.896   1.898   1.906   1.915   1.924   1.926   1.930   1.950
  1.958   1.965   1.969   1.977   1.979   1.991   1.994   2.004
  2.006   2.017   2.031   2.036   2.041   2.055   2.058   2.064
  2.069   2.090   2.094   2.099   2.106   2.113   2.125   2.128
  2.133   2.152   2.164   2.176   2.179   2.185   2.188   2.193
  2.202   2.207   2.212   2.218   2.227   2.239   2.246   2.248
  2.258   2.270   2.283   2.285   2.292   2.298   2.307   2.311
  2.315   2.318   2.330   2.337   2.342   2.347   2.358   2.372
  2.381   2.386   2.397   2.400   2.405   2.415   2.423   2.425
  2.437   2.439   2.453   2.457   2.460   2.463   2.471   2.477
  2.491   2.495   2.502   2.508   2.515   2.522   2.524   2.533
  2.538   2.542   2.549   2.561   2.563   2.581   2.591   2.597
  2.609   2.618   2.625   2.631   2.641   2.644   2.648   2.661
  2.665   2.670   2.676   2.682   2.688   2.694   2.710   2.721
  2.724   2.741   2.742   2.754   2.756   2.764   2.775   2.779
  2.782   2.789   2.795   2.799   2.807   2.810   2.820   2.827
  2.835   2.846   2.847   2.855   2.855   2.864   2.868   2.876
  2.880   2.889   2.892   2.908   2.915   2.921   2.923   2.937
  2.940   2.944   2.946   2.952   2.958   2.965   2.970   2.977
  2.984   2.992   2.997   3.001   3.007   3.011   3.015   3.017
  3.023   3.024   3.034   3.035   3.041   3.049   3.058   3.061
  3.064   3.074   3.075   3.077   3.079   3.081   3.089   3.097
  3.099   3.103   3.107   3.113   3.121   3.125   3.132   3.135
  3.138   3.142   3.146   3.155   3.158   3.163   3.167   3.168
  3.173   3.176   3.178   3.182   3.191   3.196   3.197   3.206
  3.207   3.212   3.217   3.221   3.222   3.230   3.237   3.240
  3.245   3.247   3.253   3.258   3.267   3.270   3.275   3.279
  3.283   3.284   3.285   3.297   3.299   3.302   3.304   3.309
  3.311   3.317   3.322   3.324   3.325   3.333   3.340   3.344
  3.355   3.358   3.365   3.372   3.382   3.383   3.391   3.395
  3.401   3.404   3.411   3.414   3.418   3.419   3.425   3.431
  3.437   3.447   3.450   3.456   3.459   3.463   3.467   3.470
  3.476   3.480   3.493   3.497   3.501   3.506   3.511   3.521
  3.532   3.536   3.539   3.554   3.560   3.561   3.570   3.581
  3.585   3.590   3.609   3.618   3.622   3.628   3.637   3.647
  3.654   3.665   3.672   3.679   3.693   3.695   3.708   3.713
  3.718   3.726   3.730   3.731   3.737   3.741   3.753   3.757
  3.763   3.771   3.784   3.792   3.797   3.802   3.805   3.817
  3.822   3.829   3.838   3.840   3.853   3.869   3.872   3.880
  3.892   3.896   3.901   3.906   3.913   3.918   3.926   3.928
  3.931   3.933   3.938   3.946   3.951   3.953   3.958   3.965
  3.971   3.980   3.983   4.005   4.021   4.024   4.028   4.040
  4.047   4.056   4.068   4.071   4.087   4.095   4.096   4.114
  4.119   4.125   4.139   4.144   4.149   4.158   4.165   4.171
  4.181   4.188   4.194   4.202   4.204   4.214   4.219   4.220
  4.230   4.230   4.234   4.244   4.247   4.253   4.262   4.278
  4.290   4.295   4.301   4.308   4.315   4.330   4.334   4.343
  4.347   4.357   4.365   4.372   4.373   4.384   4.388   4.396
  4.402   4.410   4.422   4.429   4.437   4.441   4.445   4.450
  4.459   4.478   4.485   4.495   4.509   4.516   4.522   4.530
  4.536   4.547   4.559   4.561   4.585   4.588   4.602   4.620
  4.630   4.638   4.646   4.662   4.665   4.678   4.685   4.701
  4.711   4.713   4.737   4.741   4.750   4.756   4.775   4.784
  4.789   4.802   4.808   4.815   4.831   4.839   4.851   4.865
  4.876   4.885   4.887   4.900   4.908   4.918   4.919   4.930
  4.936   4.941   4.957   4.960   4.969   4.973   4.983   4.989
  4.994   4.999   5.008   5.018   5.028   5.038   5.042   5.053
  5.070   5.079   5.083   5.100   5.105   5.111   5.120   5.129
  5.135   5.137   5.144   5.145   5.156   5.166   5.184   5.192
  5.201   5.222   5.235   5.246   5.260   5.300   5.304   5.314
  5.321   5.328   5.350   5.377   5.387   5.394   5.408   5.422
  5.434   5.449   5.467   5.486   5.498   5.509   5.528   5.541
  5.542   5.570   5.575   5.591   5.593   5.615   5.627   5.644
  5.687   5.707   5.714   5.718   5.734   5.746   5.754   5.779
  5.796   5.827   5.833   5.849   5.878   5.897   5.912   5.918
  5.950   5.968   6.020   6.037   6.096   6.139   6.153   6.173
  6.179   6.222   6.247   6.273   6.320   6.349   6.380   6.418
  6.432   6.441   6.639   6.880   6.988   7.002   8.049   8.904
  9.516  10.148  10.648  11.185  11.239  11.715  11.975  12.187
 12.482  12.541  12.726  12.831  12.850  12.943  13.070  13.150
 13.208  13.402  13.556  14.169  14.392  14.638  15.041  15.096
 --------------------------------------------------------------
 
          Ground-State Mulliken Net Atomic Charges

     Atom                 Charge (a.u.)
  ----------------------------------------
      1 C                    -0.090734
      2 C                    -0.128790
      3 C                    -0.080675
      4 C                    -0.108622
      5 N                    -0.178247
      6 C                     0.132670
      7 C                     0.079807
      8 N                    -0.159499
      9 C                     0.010971
     10 C                    -0.082670
     11 N                    -0.252293
     12 C                     0.038468
     13 C                     0.053375
     14 S                     0.407906
     15 N                    -0.303927
     16 C                    -0.074832
     17 S                     0.175574
     18 C                     0.062232
     19 C                    -0.055466
     20 N                    -0.169960
     21 C                     0.063547
     22 C                    -0.011645
     23 C                    -0.041933
     24 N                    -0.161377
     25 C                    -0.137438
     26 S                     0.103427
     27 C                    -0.045949
     28 C                    -0.158578
     29 C                    -0.182529
     30 H                     0.129793
     31 H                     0.120709
     32 H                     0.121203
     33 H                     0.129506
     34 H                     0.139830
     35 H                     0.125495
     36 H                     0.133728
     37 H                     0.128927
     38 H                     0.131464
     39 H                     0.136533
  ----------------------------------------
  Sum of atomic charges =     0.000000

 -----------------------------------------------------------------
                    Cartesian Multipole Moments
 -----------------------------------------------------------------
    Charge (ESU x 10^10)
                 0.0000
    Dipole Moment (Debye)
         X       0.4076      Y       0.1920      Z      -2.1285
       Tot       2.1757
    Quadrupole Moments (Debye-Ang)
        XX    -151.1613     XY       3.8684     YY    -169.3841
        XZ       6.9255     YZ      -3.1361     ZZ    -183.6763
    Octopole Moments (Debye-Ang^2)
       XXX    -110.8624    XXY     -21.1649    XYY      76.0624
       YYY      22.1520    XXZ     -52.0441    XYZ      -4.3315
       YYZ      -4.2430    XZZ     -27.4228    YZZ      -5.5410
       ZZZ     -13.0835
    Hexadecapole Moments (Debye-Ang^3)
      XXXX  -15869.1646   XXXY    -436.4177   XXYY   -3741.3639
      XYYY     214.9450   YYYY   -3225.2058   XXXZ      32.0244
      XXYZ    -133.3140   XYYZ      29.3660   YYYZ      -4.7323
      XXZZ   -3258.2327   XYZZ       0.3720   YYZZ    -721.1062
      XZZZ      43.7733   YZZZ       9.3567   ZZZZ    -510.9143
 -----------------------------------------------------------------
 Calculating analytic gradient of the SCF energy
 K construction time:  CPU 2928.81 s  wall 734.15 s
 Gradient of SCF Energy
            1           2           3           4           5           6
    1   0.0000293   0.0000615  -0.0002731   0.0001324   0.0004559  -0.0005029
    2   0.0001118   0.0000622  -0.0000686  -0.0007383   0.0000960   0.0004532
    3   0.0001858  -0.0000972   0.0000480   0.0000963  -0.0003187   0.0005339
            7           8           9          10          11          12
    1   0.0006655   0.0005174  -0.0006757  -0.0011703   0.0001539   0.0001094
    2  -0.0010493   0.0002043   0.0006045   0.0002829   0.0001924   0.0002751
    3  -0.0011077   0.0006297   0.0003362   0.0003054  -0.0001542   0.0004710
           13          14          15          16          17          18
    1   0.0005467  -0.0000708   0.0004681  -0.0001371  -0.0000975  -0.0001491
    2  -0.0006513   0.0007224  -0.0003470  -0.0005316   0.0001169   0.0002151
    3  -0.0005003  -0.0000908  -0.0002220  -0.0001814   0.0004333  -0.0001007
           19          20          21          22          23          24
    1   0.0000196   0.0002049  -0.0000171  -0.0001578   0.0000703  -0.0001025
    2  -0.0001885   0.0000185   0.0002076  -0.0001459  -0.0000192  -0.0001372
    3  -0.0002176   0.0000069   0.0001646  -0.0000887  -0.0000174  -0.0000087
           25          26          27          28          29          30
    1  -0.0000036   0.0000868  -0.0001120   0.0000097  -0.0000517   0.0000016
    2   0.0000086   0.0000344   0.0000754  -0.0000585  -0.0000192  -0.0002159
    3  -0.0000139  -0.0000337   0.0000300   0.0000717   0.0000917  -0.0000257
           31          32          33          34          35          36
    1  -0.0000415  -0.0000963   0.0000417  -0.0000576   0.0000363   0.0000775
    2   0.0000112   0.0001973   0.0001703  -0.0000085   0.0000064   0.0000218
    3  -0.0000288  -0.0000028  -0.0000817  -0.0001431   0.0000630   0.0000553
           37          38          39
    1   0.0000239  -0.0000029   0.0000073
    2   0.0000242   0.0000259   0.0000405
    3  -0.0000350  -0.0000195  -0.0000336
 Max gradient component =       1.170E-03
 RMS gradient           =       3.089E-04
 Gradient time:  CPU 3459.73 s  wall 868.71 s
 Geometry Optimization Parameters
   NAtoms,    NIC,     NZ,  NCons,   NDum,   NFix, NCnnct, MaxDiis
       39     293       0       3       0       0       0       0

 Cartesian Hessian Update
 Hessian Updated using BFGS Update


** CONSTRAINED OPTIMIZATION IN DELOCALIZED INTERNAL COORDINATES **
   Searching for a Minimum

   Optimization Cycle:   3

                       Coordinates (Angstroms)
     ATOM                X               Y               Z
      1  C        -7.6663037831    0.2851503819    0.1974755861
      2  C        -7.0345355654    0.4800454213   -1.0187839822
      3  C        -6.8830531370    0.1016347892    1.3255006485
      4  C        -5.6529405204    0.4887342688   -1.0539284235
      5  N        -5.5533632792    0.1042224762    1.3056998516
      6  C        -4.9593644404    0.3021642612    0.1340106473
      7  C        -3.4669402256    0.3194598840    0.1335319011
      8  N        -2.8469734286    1.4459533837    0.3166353965
      9  C        -2.7216078170   -0.8735737167   -0.0811517341
     10  C        -1.4855425402    1.4977718264    0.3051039358
     11  N        -3.2133777235   -2.0929908163   -0.3005246967
     12  C        -1.2963873069   -0.8192475515   -0.0929434326
     13  C        -0.6371125778    0.4334418735    0.0993256337
     14  S        -1.9446792849   -3.0593217176   -0.4928375901
     15  N        -0.7349688203   -2.0073216639   -0.3160184421
     16  C         0.8113934748    0.5770149620    0.0564102156
     17  S         1.8762529213   -0.7716067151    0.0874556961
     18  C         1.5723108345    1.7420377055   -0.0275387138
     19  C         3.3075598571    0.1524182444    0.0142962559
     20  N         1.0845530986    3.0137925522   -0.0797170746
     21  C         2.9824926978    1.5019779330   -0.0546567334
     22  C         4.6202223288   -0.4548169971    0.0119064615
     23  C         1.9701095337    3.9591139942   -0.1467920271
     24  N         3.8824601231    2.5194062189   -0.1284449757
     25  C         5.7915901126    0.0787177064   -0.4517453163
     26  S         4.8876695083   -2.0464566366    0.6467521503
     27  C         3.3774707299    3.7137579891   -0.1704839438
[...]
   Point Group: c1    Number of degrees of freedom:   111


   Energy is  -2291.190550503

              Constraints and their Current Values
                                        Value     Constraint
   Dihedral:        4   6   7   8       90.000       90.000
   Dihedral:       10  13  16  17      168.550      168.550
   Dihedral:       17  19  22  25      157.507      157.507
 Hessian Updated using BFGS Update

102 Hessian modes will be used to form the next step
  Hessian Eigenvalues:
     0.013862    0.034282    0.044273    0.045000    0.045000    0.045000
     0.045000    0.045000    0.045001    0.045001    0.045001    0.045001
     0.045001    0.045002    0.045002    0.045002    0.045004    0.045004
     0.045005    0.045009    0.045011    0.045021    0.045027    0.045090
     0.045252    0.045423    0.046345    0.157519    0.159105    0.159965
     0.159994    0.159998    0.159999    0.160041    0.160219    0.160570
     0.161017    0.199652    0.219995    0.221313    0.223837    0.225365
     0.231765    0.238090    0.241550    0.243681    0.245137    0.249456
     0.249863    0.249962    0.249982    0.249987    0.249989    0.249993
     0.251632    0.280828    0.312802    0.323924    0.332576    0.335761
     0.339359    0.340795    0.354676    0.354730    0.355724    0.358601
     0.359998    0.360351    0.361015    0.361101    0.363565    0.363736
     0.369855    0.373369    0.380796    0.385616    0.404369    0.407575
     0.413939    0.419578    0.431847    0.438799    0.459563    0.464338
     0.471001    0.473927    0.477769    0.483107    0.488064    0.499399
     0.503451    0.509280    0.518166    0.521244    0.564644    0.582684
     0.587975    0.619087    0.631398    0.634870    0.661745    0.675386

 Minimum Search - Taking Simple RFO Step
 Searching for Lamda that Minimizes Along All modes
 Value Taken    Lamda =   0.00000000
 Step Taken.  Stepsize is  0.002304

                             Maximum     Tolerance    Cnvgd?
         Gradient           0.000074      0.000300     YES
         Displacement       0.000980      0.001200     YES
         Energy change      0.000000      0.000001     YES

 Final energy is   -2291.19055050342     


 ******************************
 **  OPTIMIZATION CONVERGED  **
 ******************************

                       Coordinates (Angstroms)
     ATOM                X               Y               Z
      1  C        -7.6669538095    0.2914990130    0.1821342005
      2  C        -7.0289316212    0.4896357337   -1.0300681556
      3  C        -6.8890534595    0.1004298887    1.3128950107
      4  C        -5.6471337249    0.4958911087   -1.0587378724
      5  N        -5.5597039885    0.1030976015    1.3000441946
      6  C        -4.9591267650    0.3070056960    0.1321792476
      7  C        -3.4672213179    0.3202075459    0.1384457620
      8  N        -2.8449454110    1.4441704947    0.3246453152
      9  C        -2.7231579744   -0.8771759486   -0.0695052757
     10  C        -1.4821661349    1.4933034289    0.3163389527
     11  N        -3.2166054966   -2.0986813787   -0.2718910161
     12  C        -1.2980468964   -0.8245477941   -0.0812637844
     13  C        -0.6367238235    0.4289417385    0.1071789622
     14  S        -1.9488579437   -3.0702334826   -0.4509046116
     15  N        -0.7386826385   -2.0157716241   -0.2881397387
     16  C         0.8121917276    0.5733723442    0.0611239176
     17  S         1.8791071531   -0.7742347905    0.0878159090
     18  C         1.5715387230    1.7389912927   -0.0243041913
     19  C         3.3091142661    0.1523071442    0.0126926719
     20  N         1.0814657423    3.0100657989   -0.0764120041
     21  C         2.9819867734    1.5010420090   -0.0549829594
     22  C         4.6226500073   -0.4530322510    0.0068354592
     23  C         1.9654408028    3.9566227146   -0.1450805802
     24  N         3.8804988095    2.5201065849   -0.1287959180
     25  C         5.7923436634    0.0824832946   -0.4585736514
     26  S         4.8926701492   -2.0457790426    0.6377201727
     27  C         3.3734754052    3.7134728650   -0.1696685648
     28  C         6.8953783867   -0.7926233703   -0.3199821008
     29  C         6.5594164186   -1.9804486114    0.2484428224
     30  H        -8.7451236267    0.2815735550    0.2507532253
     31  H        -7.5978322399    0.6400775779   -1.9376908482
     32  H        -7.3528452620   -0.0569951240    2.2795454466
     33  H        -5.1047367270    0.6515006071   -1.9806874999
     34  H        -1.0652437963    2.4767890490    0.4613432221
     35  H         1.5984992283    4.9763732513   -0.1806040959
     36  H         5.8412554475    1.0733962320   -0.8780745697
     37  H         4.0622818755    4.5488658000   -0.2281840579
     38  H         7.8964958213   -0.5452515174   -0.6389495850
     39  H         7.2016871344   -2.8162385902    0.4676315421

Z-matrix Print:
$molecule
0 1
S 
C  1 1.705592
C  2 1.389488 1 109.393849
N  3 1.360612 2 125.042104 1 179.853374 0
C  4 1.297253 3 115.632795 2 179.281084 0
H  5 1.084325 4 117.525932 3 -179.964422 0
C  5 1.429086 4 122.755980 3 0.248123 0
H  7 1.084343 5 119.528724 4 -179.934751 0
N  7 1.296957 5 123.248494 4 -0.200588 0
C  9 1.363274 7 115.943143 5 -0.149759 0
C  10 1.393762 9 125.890690 7 -179.557210 0
C  2 1.446322 1 122.293799 3 179.249335 0
C  12 1.368052 2 127.883147 1 -157.506519 0
H  13 1.077164 12 122.101067 2 -0.836488 0
C  13 1.414816 12 113.025770 2 179.460487 0
H  15 1.079430 13 123.530098 12 -179.485994 0
C  15 1.359009 13 112.883424 12 0.086520 0
H  17 1.076615 15 128.039441 13 179.907296 0
C  11 1.456824 10 128.807848 9 -0.338650 0
C  19 1.375277 11 122.648684 10 12.285950 0
H  20 1.078005 19 119.259825 11 0.527376 0
N  20 1.363690 19 125.970959 11 -177.501297 0
C  22 1.298149 20 120.621046 19 -0.769385 0
C  23 1.424992 22 119.878360 20 -0.353523 0
N  24 1.332864 23 126.792586 22 -179.935485 0
C  24 1.426131 23 119.470420 22 0.498825 0
N  26 1.332179 24 112.821951 23 179.880877 0
C  23 1.491977 22 119.182767 20 179.030801 0
N  28 1.328977 23 116.715099 22 90.310254 0
C  29 1.329414 28 117.431635 23 -179.414818 0
H  30 1.083651 29 115.905217 28 179.343313 0
C  30 1.385733 29 123.584885 28 -0.289693 0
H  32 1.080397 30 120.471742 29 179.873403 0
C  32 1.384112 30 118.399978 29 -0.335922 0
H  34 1.081693 32 120.819468 30 -179.837515 0
C  34 1.382109 32 118.664019 30 0.362827 0
H  36 1.080925 34 121.333627 32 179.702966 0
S  25 1.607216 24 106.193436 23 -179.812903 0
S  17 1.712848 15 111.651046 13 0.523600 0
$end

 
 --------------------------------------------------------------
 
                    Orbital Energies (a.u.)
 --------------------------------------------------------------
 
 Alpha MOs
 -- Occupied --
-89.158 -89.107 -89.087 -14.489 -14.484 -14.463 -14.463 -14.446
-14.437 -10.358 -10.352 -10.350 -10.346 -10.344 -10.344 -10.343
-10.342 -10.339 -10.337 -10.335 -10.332 -10.327 -10.325 -10.320
-10.312 -10.302 -10.301 -10.296 -10.294  -8.162  -8.116  -8.097
 -6.112  -6.107  -6.106  -6.065  -6.061  -6.060  -6.046  -6.042
 -6.040  -1.147  -1.102  -1.069  -1.048  -1.030  -1.016  -1.006
 -0.987  -0.926  -0.913  -0.900  -0.879  -0.870  -0.855  -0.839
 -0.812  -0.778  -0.772  -0.746  -0.740  -0.734  -0.724  -0.712
 -0.674  -0.656  -0.649  -0.632  -0.629  -0.621  -0.607  -0.605
 -0.587  -0.585  -0.568  -0.565  -0.559  -0.548  -0.543  -0.528
 -0.513  -0.504  -0.501  -0.499  -0.493  -0.492  -0.486  -0.485
 -0.477  -0.467  -0.463  -0.462  -0.451  -0.443  -0.430  -0.428
 -0.422  -0.411  -0.396  -0.376  -0.372  -0.359  -0.358  -0.345
 -0.344  -0.341  -0.339  -0.334  -0.331  -0.266
 -- Virtual --
 -0.052  -0.025   0.028   0.035   0.043   0.047   0.060   0.071
  0.081   0.086   0.107   0.120   0.123   0.127   0.129   0.135
  0.148   0.150   0.154   0.164   0.168   0.170   0.182   0.187
  0.193   0.205   0.211   0.214   0.216   0.226   0.236   0.244
  0.255   0.263   0.267   0.274   0.279   0.289   0.293   0.296
  0.299   0.300   0.304   0.311   0.316   0.322   0.323   0.330
  0.332   0.338   0.340   0.345   0.351   0.356   0.356   0.361
  0.365   0.368   0.369   0.378   0.379   0.382   0.384   0.388
  0.393   0.395   0.398   0.399   0.403   0.406   0.408   0.411
  0.417   0.418   0.422   0.426   0.430   0.432   0.433   0.439
  0.443   0.446   0.452   0.455   0.457   0.458   0.460   0.462
  0.464   0.465   0.470   0.475   0.478   0.483   0.485   0.492
  0.493   0.497   0.500   0.504   0.507   0.516   0.518   0.522
  0.523   0.529   0.531   0.536   0.536   0.543   0.547   0.553
  0.558   0.563   0.566   0.570   0.585   0.592   0.594   0.601
  0.605   0.607   0.609   0.617   0.624   0.629   0.632   0.638
  0.639   0.645   0.652   0.653   0.657   0.665   0.668   0.674
  0.679   0.686   0.690   0.697   0.700   0.705   0.706   0.716
  0.721   0.724   0.731   0.735   0.741   0.743   0.746   0.753
  0.758   0.764   0.767   0.768   0.774   0.780   0.786   0.788
  0.792   0.799   0.802   0.802   0.809   0.811   0.815   0.819
  0.823   0.827   0.833   0.838   0.843   0.846   0.853   0.855
  0.859   0.865   0.870   0.871   0.879   0.883   0.890   0.898
  0.906   0.908   0.912   0.919   0.920   0.930   0.932   0.934
  0.946   0.950   0.955   0.958   0.960   0.964   0.968   0.975
  0.976   0.979   0.989   0.994   1.002   1.005   1.008   1.014
  1.018   1.023   1.029   1.037   1.051   1.054   1.062   1.067
  1.072   1.074   1.080   1.084   1.088   1.091   1.092   1.098
  1.105   1.110   1.117   1.125   1.128   1.138   1.144   1.149
  1.152   1.163   1.165   1.172   1.179   1.181   1.191   1.201
  1.204   1.209   1.215   1.228   1.230   1.238   1.243   1.244
  1.255   1.263   1.267   1.272   1.283   1.287   1.290   1.309
  1.311   1.319   1.322   1.335   1.340   1.344   1.353   1.355
  1.362   1.367   1.374   1.376   1.379   1.382   1.386   1.389
  1.403   1.404   1.410   1.419   1.423   1.432   1.440   1.441
  1.444   1.452   1.456   1.459   1.471   1.477   1.478   1.487
  1.493   1.502   1.503   1.510   1.521   1.527   1.528   1.541
  1.545   1.553   1.566   1.568   1.581   1.587   1.587   1.597
  1.602   1.607   1.613   1.622   1.632   1.639   1.642   1.645
  1.652   1.655   1.660   1.666   1.677   1.687   1.691   1.705
  1.712   1.716   1.719   1.727   1.730   1.741   1.744   1.751
  1.763   1.767   1.773   1.781   1.786   1.793   1.802   1.817
  1.828   1.836   1.851   1.853   1.871   1.876   1.883   1.888
  1.895   1.899   1.905   1.915   1.923   1.925   1.930   1.950
  1.957   1.965   1.970   1.977   1.979   1.991   1.994   2.004
  2.006   2.017   2.031   2.036   2.041   2.055   2.058   2.064
  2.068   2.090   2.094   2.099   2.106   2.113   2.125   2.128
  2.132   2.152   2.163   2.176   2.179   2.185   2.187   2.193
  2.202   2.207   2.211   2.218   2.228   2.239   2.245   2.248
  2.258   2.270   2.283   2.285   2.292   2.298   2.307   2.311
  2.315   2.318   2.330   2.337   2.342   2.347   2.357   2.372
  2.381   2.385   2.397   2.400   2.405   2.415   2.423   2.425
  2.436   2.439   2.453   2.457   2.460   2.463   2.470   2.478
  2.490   2.495   2.502   2.508   2.515   2.521   2.524   2.533
  2.538   2.542   2.549   2.561   2.563   2.581   2.590   2.598
  2.609   2.618   2.624   2.631   2.641   2.645   2.648   2.661
  2.665   2.670   2.675   2.682   2.689   2.694   2.710   2.721
  2.724   2.740   2.741   2.754   2.756   2.763   2.775   2.779
  2.782   2.789   2.795   2.799   2.807   2.810   2.820   2.827
  2.835   2.845   2.847   2.855   2.855   2.865   2.868   2.876
  2.880   2.888   2.892   2.907   2.914   2.921   2.923   2.937
  2.940   2.944   2.946   2.952   2.959   2.965   2.970   2.977
  2.984   2.992   2.997   3.001   3.006   3.011   3.015   3.018
  3.023   3.024   3.034   3.035   3.041   3.049   3.058   3.061
  3.064   3.074   3.075   3.077   3.079   3.080   3.089   3.097
  3.099   3.103   3.108   3.113   3.121   3.124   3.132   3.135
  3.138   3.142   3.146   3.155   3.158   3.162   3.167   3.168
  3.173   3.176   3.177   3.182   3.191   3.196   3.197   3.206
  3.207   3.212   3.217   3.221   3.222   3.230   3.237   3.240
  3.244   3.246   3.254   3.257   3.267   3.270   3.275   3.279
  3.283   3.284   3.285   3.296   3.298   3.302   3.304   3.309
  3.311   3.316   3.321   3.325   3.325   3.333   3.340   3.343
  3.355   3.357   3.365   3.372   3.381   3.383   3.392   3.396
  3.401   3.404   3.411   3.414   3.418   3.419   3.426   3.431
  3.437   3.448   3.450   3.457   3.459   3.462   3.468   3.469
  3.476   3.480   3.493   3.497   3.501   3.505   3.511   3.521
  3.532   3.536   3.538   3.554   3.560   3.561   3.570   3.581
  3.585   3.589   3.608   3.618   3.622   3.627   3.637   3.647
  3.654   3.665   3.672   3.679   3.693   3.696   3.708   3.713
  3.718   3.725   3.731   3.731   3.737   3.741   3.753   3.757
  3.762   3.772   3.784   3.792   3.797   3.802   3.805   3.817
  3.822   3.829   3.838   3.840   3.852   3.869   3.872   3.880
  3.892   3.896   3.901   3.906   3.912   3.918   3.926   3.928
  3.931   3.933   3.938   3.946   3.952   3.953   3.957   3.965
  3.971   3.979   3.983   4.005   4.021   4.023   4.028   4.039
  4.046   4.056   4.068   4.070   4.087   4.095   4.096   4.114
  4.119   4.125   4.139   4.144   4.150   4.158   4.165   4.171
  4.181   4.187   4.194   4.202   4.204   4.214   4.219   4.220
  4.229   4.230   4.234   4.244   4.248   4.254   4.261   4.278
  4.290   4.295   4.301   4.308   4.314   4.330   4.334   4.343
  4.347   4.357   4.365   4.371   4.373   4.383   4.388   4.396
  4.402   4.409   4.422   4.429   4.437   4.441   4.445   4.450
  4.458   4.477   4.485   4.495   4.510   4.516   4.522   4.530
  4.536   4.547   4.559   4.561   4.584   4.588   4.601   4.620
  4.630   4.637   4.646   4.661   4.665   4.678   4.685   4.701
  4.712   4.713   4.736   4.741   4.750   4.756   4.775   4.784
  4.789   4.801   4.808   4.815   4.830   4.840   4.851   4.865
  4.876   4.885   4.888   4.901   4.907   4.918   4.919   4.929
  4.936   4.942   4.957   4.960   4.969   4.973   4.982   4.989
  4.994   4.999   5.008   5.018   5.027   5.038   5.042   5.053
  5.071   5.079   5.083   5.100   5.105   5.110   5.121   5.129
  5.135   5.136   5.144   5.145   5.156   5.166   5.184   5.192
  5.201   5.222   5.235   5.246   5.260   5.300   5.304   5.314
  5.321   5.328   5.350   5.377   5.387   5.394   5.407   5.421
  5.435   5.449   5.467   5.486   5.498   5.509   5.528   5.540
  5.542   5.570   5.575   5.591   5.594   5.614   5.626   5.644
  5.686   5.706   5.713   5.718   5.733   5.746   5.754   5.779
  5.795   5.828   5.833   5.849   5.878   5.896   5.911   5.917
  5.950   5.968   6.020   6.036   6.095   6.139   6.152   6.172
  6.178   6.222   6.248   6.272   6.319   6.348   6.380   6.418
  6.432   6.441   6.638   6.878   6.988   7.002   8.050   8.901
  9.517  10.146  10.646  11.181  11.238  11.713  11.975  12.180
 12.481  12.540  12.721  12.826  12.850  12.939  13.068  13.149
 13.214  13.401  13.558  14.172  14.394  14.638  15.041  15.095
 --------------------------------------------------------------
 
          Ground-State Mulliken Net Atomic Charges

     Atom                 Charge (a.u.)
  ----------------------------------------
      1 C                    -0.090611
      2 C                    -0.128782
      3 C                    -0.080754
      4 C                    -0.109295
      5 N                    -0.177960
      6 C                     0.133158
      7 C                     0.079530
      8 N                    -0.159555
      9 C                     0.010230
     10 C                    -0.082554
     11 N                    -0.251962
     12 C                     0.039318
     13 C                     0.053286
     14 S                     0.407424
     15 N                    -0.303682
     16 C                    -0.075214
     17 S                     0.175213
     18 C                     0.062229
     19 C                    -0.055447
     20 N                    -0.170020
     21 C                     0.063478
     22 C                    -0.011520
     23 C                    -0.041937
     24 N                    -0.161382
     25 C                    -0.137044
     26 S                     0.103356
     27 C                    -0.046026
     28 C                    -0.158645
     29 C                    -0.182411
     30 H                     0.129643
     31 H                     0.120697
     32 H                     0.121531
     33 H                     0.129648
     34 H                     0.140045
     35 H                     0.125546
     36 H                     0.133541
     37 H                     0.129022
     38 H                     0.131423
     39 H                     0.136484
  ----------------------------------------
  Sum of atomic charges =     0.000000

 -----------------------------------------------------------------
                    Cartesian Multipole Moments
 -----------------------------------------------------------------
    Charge (ESU x 10^10)
                 0.0000
    Dipole Moment (Debye)
         X       0.4100      Y       0.2029      Z      -2.1352
       Tot       2.1837
    Quadrupole Moments (Debye-Ang)
        XX    -151.2314     XY       3.8318     YY    -169.3497
        XZ       6.9648     YZ      -3.1775     ZZ    -183.6929
    Octopole Moments (Debye-Ang^2)
       XXX    -110.4121    XXY     -20.8510    XYY      75.8070
       YYY      22.5346    XXZ     -53.6402    XYZ      -3.9528
       YYZ      -4.6071    XZZ     -27.2714    YZZ      -5.1887
       ZZZ     -14.7993
    Hexadecapole Moments (Debye-Ang^3)
      XXXX  -15879.2234   XXXY    -438.6651   XXYY   -3743.0469
      XYYY     215.8985   YYYY   -3229.0693   XXXZ      40.1341
      XXYZ    -132.1556   XYYZ      30.6689   YYYZ      -0.4037
      XXZZ   -3259.7887   XYZZ       0.7864   YYZZ    -721.4428
      XZZZ      51.2339   YZZZ      13.9106   ZZZZ    -506.0969
 -----------------------------------------------------------------
Archival summary:
1\1\chiqspirix\OPT\ProcedureUnspecified\BasisUnspecified\362010\Andres\ThuJun100:29:162017ThuJun100:29:162017\0\\#,OPT,ProcedureUnspecified,BasisUnspecified,\\0,1\S\C,1,1.70559\C,2,1.38949,1,109.394\N,3,1.36061,2,125.042,1,179.853,0\C,4,1.29725,3,115.633,2,179.281,0\H,5,1.08432,4,117.526,3,-179.964,0\C,5,1.42909,4,122.756,3,0.248123,0\H,7,1.08434,5,119.529,4,-179.935,0\N,7,1.29696,5,123.248,4,-0.200588,0\C,9,1.36327,7,115.943,5,-0.149759,0\C,10,1.39376,9,125.891,7,-179.557,0\C,2,1.44632,1,122.294,3,179.249,0\C,12,1.36805,2,127.883,1,-157.507,0\H,13,1.07716,12,122.101,2,-0.836488,0\C,13,1.41482,12,113.026,2,179.46,0\H,15,1.07943,13,123.53,12,-179.486,0\C,15,1.35901,13,112.883,12,0.08652,0\H,17,1.07662,15,128.039,13,179.907,0\C,11,1.45682,10,128.808,9,-0.33865,0\C,19,1.37528,11,122.649,10,12.2859,0\H,20,1.078,19,119.26,11,0.527376,0\N,20,1.36369,19,125.971,11,-177.501,0\C,22,1.29815,20,120.621,19,-0.769385,0\C,23,1.42499,22,119.878,20,-0.353523,0\N,24,1.33286,23,126.793,22,-179.935,0\C,24,1.42613,23,119.47,22,0.498825,0\N,26,1.33218,24,112.822,23,179.881,0\C,23,1.49198,22,119.183,20,179.031,0\N,28,1.32898,23,116.715,22,90.3103,0\C,29,1.32941,28,117.432,23,-179.415,0\H,30,1.08365,29,115.905,28,179.343,0\C,30,1.38573,29,123.585,28,-0.289693,0\H,32,1.0804,30,120.472,29,179.873,0\C,32,1.38411,30,118.4,29,-0.335922,0\H,34,1.08169,32,120.819,30,-179.838,0\C,34,1.38211,32,118.664,30,0.362827,0\H,36,1.08093,34,121.334,32,179.703,0\S,25,1.60722,24,106.193,23,-179.813,0\S,17,1.71285,15,111.651,13,0.5236,0\\\@

 Total job time:  27372.50s(wall), 108469.37s(cpu) 
 Thu Jun  1 00:29:16 2017

        *************************************************************
        *                                                           *
        *  Thank you very much for using Q-Chem.  Have a nice day.  *
        *                                                           *
        *************************************************************


0 sent ACK to 0 
now end server 0 ... 
cleanup process ... done
