
Running Job 1 of 1 C169_75.qcin
qchem C169_75.qcin_41096.0 /home/Andres/temp/qchem41096/ 1
/usr/local/qchem44/bin/mpi/mpirun_qchem -machinefile /usr/local/qchem44/bin/mpi/machines -np 1 /usr/local/qchem44/exe/qcprog.exe C169_75.qcin_41096.0 /home/Andres/temp/qchem41096/

Process 0 of 1 is on localhost.localdomain - thread support 0
initial socket setup ...start
initial socket setup ...done 
now start server 0 ... 
localhost.localdomain 127.0.0
                  Welcome to Q-Chem
     A Quantum Leap Into The Future Of Chemistry


 Q-Chem 4.4, Q-Chem, Inc., Pleasanton, CA (2016)

 Y. Shao,  Z. Gan,  E. Epifanovsky,  A. T. B. Gilbert,  M. Wormit,  
 J. Kussmann,  A. W. Lange,  A. Behn,  J. Deng,  X. Feng,  D. Ghosh,  
 M. Goldey,  P. R. Horn,  L. D. Jacobson,  I. Kaliman,  R. Z. Khaliullin,  
 T. Kus,  A. Landau,  J. Liu,  E. I. Proynov,  Y. M. Rhee,  R. M. Richard,  
 M. A. Rohrdanz,  R. P. Steele,  E. J. Sundstrom,  H. L. Woodcock III,  
 P. M. Zimmerman,  D. Zuev,  B. Albrecht,  E. Alguire,  B. Austin,  
 S. A. Baeppler,  G. J. O. Beran,  Y. A. Bernard,  E. Berquist,  
 K. Brandhorst,  K. B. Bravaya,  S. T. Brown,  D. Casanova,  C.-M. Chang,  
 Y. Chen,  S. H. Chien,  K. D. Closser,  M. P. Coons,  D. L. Crittenden,  
 S. Dasgupta,  M. Diedenhofen,  R. A. DiStasio Jr.,  H. Do,  A. D. Dutoi,  
 R. G. Edgar,  P.-T. Fang,  S. Fatehi,  Q. Feng,  L. Fusti-Molnar,  
 A. Ghysels,  A. Golubeva-Zadorozhnaya,  J. Gomes,  A. Gunina,  
 M. W. D. Hanson-Heine,  P. H. P. Harbach,  A. W. Hauser,  E. G. Hohenstein,  
 Z. C. Holden,  K. Hui,  T.-C. Jagau,  H. Ji,  B. Kaduk,  K. Khistyaev,  
 Jaehoon Kim,  Jihan Kim,  R. A. King,  P. Klunzinger,  D. Kosenkov,  
 T. Kowalczyk,  C. M. Krauter,  A. Kunitsa,  K. U. Lao,  A. Laurent,  
 K. V. Lawler,  D. Lefrancois,  S. Lehtola,  S. V. Levchenko,  C. Y. Lin,  
 Y.-S. Lin,  F. Liu,  E. Livshits,  R. C. Lochan,  A. Luenser,  P. Manohar,  
 S. F. Manzer,  S.-P. Mao,  Y. Mao,  N. Mardirossian,  A. V. Marenich,  
 L. A. Martinez-Martinez,  S. A. Maurer,  N. J. Mayhall,  J.-M. Mewes,  
 A. F. Morrison,  K. Nanda,  C. M. Oana,  R. Olivares-Amaya,  D. P. O'Neill,  
 J. A. Parkhill,  T. M. Perrine,  R. Peverati,  P. A. Pieniazek,  F. Plasser,  
 A. Prociuk,  D. R. Rehn,  E. Rosta,  N. J. Russ,  N. Sergueev,  
 S. M. Sharada,  S. Sharma,  D. W. Small,  A. Sodt,  T. Stauch,  T. Stein,  
 D. Stuck,  Y.-C. Su,  A. J. W. Thom,  T. Tsuchimochi,  L. Vogt,  O. Vydrov,  
 T. Wang,  M. A. Watson,  J. Wenzel,  A. White,  C. F. Williams,  
 V. Vanovschi,  S. Yeganeh,  S. R. Yost,  Z.-Q. You,  I. Y. Zhang,  X. Zhang,  
 Y. Zhao,  B. R. Brooks,  G. K. L. Chan,  D. M. Chipman,  C. J. Cramer,  
 W. A. Goddard III,  M. S. Gordon,  W. J. Hehre,  A. Klamt,  
 H. F. Schaefer III,  M. W. Schmidt,  C. D. Sherrill,  D. G. Truhlar,  
 A. Warshel,  X. Xu,  A. Aspuru-Guzik,  R. Baer,  A. T. Bell,  N. A. Besley,  
 J.-D. Chai,  A. Dreuw,  B. D. Dunietz,  T. R. Furlani,  S. R. Gwaltney,  
 C.-P. Hsu,  Y. Jung,  J. Kong,  D. S. Lambrecht,  W. Liang,  C. Ochsenfeld,  
 V. A. Rassolov,  L. V. Slipchenko,  J. E. Subotnik,  T. Van Voorhis,  
 J. M. Herbert,  A. I. Krylov,  P. M. W. Gill,  M. Head-Gordon

 Contributors to earlier versions of Q-Chem not listed above: 
 R. D. Adamson,  J. Baker,  E. F. C. Byrd,  A. K. Chakraborty,  C.-L. Cheng,  
 H. Dachsel,  R. J. Doerksen,  G. Hawkins,  A. Heyden,  S. Hirata,  
 G. Kedziora,  F. J. Keil,  C. Kelley,  P. P. Korambath,  W. Kurlancheek,  
 A. M. Lee,  M. S. Lee,  D. Liotard,  I. Lotan,  P. E. Maslen,  N. Nair,  
 D. Neuhauser,  R. Olson,  B. Peters,  J. Ritchie,  N. E. Schultz,  
 N. Shenvi,  A. C. Simmonett,  K. S. Thanthiriwatte,  Q. Wu,  W. Zhang

 Please cite Q-Chem as follows:
 Y. Shao et al., Mol. Phys. 113, 184-215 (2015)
 DOI: 10.1080/00268976.2014.952696

 Q-Chem 4.4.0 for Intel X86 Linux

 Parts of Q-Chem use Armadillo 5.200.1 (Boston Tea Smuggler).
 http://arma.sourceforge.net/

 Q-Chem begins on Wed Jun  7 11:35:02 2017  

Host: 
0

     Scratch files written to /home/Andres/temp/qchem41096//
 Apr2716 1281_ 20995  20993 0   
 Parallel job on  1  processors
Processing $rem in /usr/local/qchem44/config/preferences.
 MEM_TOTAL  16000 

Checking the input file for inconsistencies... 	...done.

--------------------------------------------------------------
User input:
--------------------------------------------------------------
$comment
OPTIMIZATION
$end

$rem
JOBTYPE OPT
EXCHANGE omegaB97X-D
BASIS cc-pVTZ
$end

$molecule
0 1
C          0.00000        0.00000        0.00000
C         -0.65442       -1.22189        0.00029
C          1.38558        0.00000        0.00000
C          0.09563       -2.38039        0.00926
N          2.11898       -1.10529        0.01182
C          1.48579       -2.27657        0.02342
C          2.30845       -3.51149        0.04024
N          2.40110       -4.18173       -1.07555
C          2.97678       -4.00961        1.20683
C          3.11916       -5.32707       -1.16831
N          2.96243       -3.50960        2.44306
C          3.74383       -5.21534        1.09989
C          3.81993       -5.91686       -0.14245
S          3.86078       -4.48513        3.34450
N          4.30481       -5.58256        2.25041
C          4.54472       -7.16881       -0.30312
S          5.64780       -7.76128        0.87497
C          4.48412       -8.08272       -1.35472
C          6.06152       -9.17209        0.01104
N          3.71205       -7.96613       -2.47119
C          5.33829       -9.21684       -1.17524
C          7.01762      -10.13481        0.51314
C          3.81052       -8.93196       -3.33282
N          5.41441      -10.21110       -2.09973
C          7.13554      -11.45490        0.17579
S          8.21915       -9.69714        1.68472
C          4.66565      -10.06074       -3.14940
C          8.18083      -12.11163        0.86741
C          8.84755      -11.28961        1.72170
H         -0.54818        0.93041       -0.00000
H         -1.73449       -1.27032       -0.00344
H          1.93674        0.93371       -0.01430
H         -0.36223       -3.35775        0.00507
H          3.10051       -5.80112       -2.13617
H          3.21101       -8.85551       -4.23313
H          6.49410      -11.91973       -0.55330
H          4.70080      -10.83672       -3.90484
H          8.41944      -13.15578        0.73599
H          9.67799      -11.53304        2.36288
$end

$opt
CONSTRAINT
tors 4 6 7 8 75.00000
tors 10 13 16 17 168.54979
tors 17 19 22 25 157.50653
ENDCONSTRAINT
$end
--------------------------------------------------------------
 ----------------------------------------------------------------
             Standard Nuclear Orientation (Angstroms)
    I     Atom           X                Y                Z
 ----------------------------------------------------------------
    1      C      -7.6778870010     0.3487794987     0.2297996636
    2      C      -7.0313191983     0.8586492619    -0.8852176878
    3      C      -6.9030374321    -0.1591032155     1.2600885700
    4      C      -5.6520758201     0.8318473921    -0.9270157350
    5      N      -5.5772670328    -0.1941465408     1.2320516287
    6      C      -4.9610374019     0.2865264301     0.1540091845
    7      C      -3.4780503894     0.2429176031     0.1235528982
    8      N      -2.8440396464     1.3655685295     0.3247450439
    9      C      -2.7195391577    -0.9461636552    -0.1342594830
   10      C      -1.4911484469     1.4395179953     0.3094096052
   11      N      -3.1715903029    -2.1687091236    -0.4162397576
   12      C      -1.2888677846    -0.8639996399    -0.1381576852
   13      C      -0.6351527979     0.3860027526     0.0887364110
   14      S      -1.8824649778    -3.0968882478    -0.6351575201
   15      N      -0.6984761313    -2.0281611674    -0.4016173461
   16      C       0.8114769733     0.5424372068     0.0526149203
   17      S       1.8910196033    -0.7955258833     0.0646446716
   18      C       1.5601670776     1.7171459084    -0.0128755536
   19      C       3.3122201410     0.1456222102     0.0161324360
   20      N       1.0586005084     2.9833441216    -0.0498029874
   21      C       2.9733397308     1.4926921842    -0.0375982493
   22      C       4.6326141094    -0.4456640904     0.0174352256
   23      C       1.9347094139     3.9395484529    -0.1049087870
   24      N       3.8620183899     2.5201852408    -0.0970727942
   25      C       5.8005754445     0.1079593740    -0.4294597693
   26      S       4.9137237721    -2.0416747680     0.6351376950
   27      C       3.3438992258     3.7100010682    -0.1278559832
   28      C       6.9127315952    -0.7549719414    -0.2855085874
   29      C       6.5838823950    -1.9532148267     0.2677689507
   30      H      -8.7554441478     0.3439281765     0.3005890733
   31      H      -7.5950982549     1.2686301892    -1.7116433634
   32      H      -7.3682085278    -0.5547229096     2.1561338306
   33      H      -5.0981137628     1.2196324037    -1.7682260114
   34      H      -1.0855078702     2.4258846067     0.4654891843
   35      H       1.5577150008     4.9560234697    -0.1265580708
   36      H       5.8445633914     1.1047867904    -0.8337920498
   37      H       4.0247255273     4.5514579009    -0.1778161921
   38      H       7.9145781389    -0.4927235447    -0.5887979747
   39      H       7.2346115896    -2.7832219351     0.4860354533
 ----------------------------------------------------------------
 Molecular Point Group                 C1    NOp =  1
 Largest Abelian Subgroup              C1    NOp =  1
 Nuclear Repulsion Energy =  2926.6016270943 hartrees
 There are      110 alpha and      110 beta electrons
 Requested basis set is cc-pVTZ
 There are 356 shells and 1022 basis functions

 Total QAlloc Memory Limit  16000 MB
 Mega-Array Size        61 MB
 MEM_STATIC part        62 MB
 A cutoff of  1.0D-11 yielded  30875 shell pairs
 There are    243833 function pairs (    318299 Cartesian)
 
 -------------------------------------------------------
 OpenMP Integral Computing Module                       
 Release: version 1.0, May 2013, Q-Chem Inc. Pittsburgh 
 -------------------------------------------------------
 Integral Job Info:
 Integral job number is                      11
 Integral operator is                         1
 short-range coefficients              22203600
 long-range coefficients              100000000
 Omega coefficients                         200
 if combine SR and LR in K                    1
 Integral screening is                        0
 Integral computing path is                   2
 max size of driver memory is            800000
 size of driver memory is                776718
 size of scratch memory is             26248924
 max col of scratch BK array              10000
 max len of scratch array in speh3          662
 max len of scratch index in speh4           32
 max int batch size is                      520
 min int batch size is                       52
 fixed nKL is                                52
 max L of basis functions is                  3
 order of int derivative is                   0
 number of shells is                        356
 number of basis is                        1177
 number of cartesian basis is              1177
 number of contracted shell pairs         30875
 number of primitive shell pairs          93543
 maxK2 (contraction) of shell pair          121
 max number of K2 of shell pair               1
 max number of CS2 of shell pair           4265
 max number of PS2 of shell pair          13034
 mem total for path MDJ                  839132
 -------------------------------------------------------
 Smallest overlap matrix eigenvalue = 2.57E-05

 Scale SEOQF with 1.000000e-02/1.000000e-01/1.000000e-01

 Standard Electronic Orientation quadrupole field applied
 Nucleus-field energy     =     0.0000000604 hartrees
 Guess from superposition of atomic densities
 Warning:  Energy on first SCF cycle will be non-variational
 Long-range K will be added via erf
 Coulomb attenuation parameter = 0.2 bohr**(-1)
 A restricted hybrid HF-DFT SCF calculation will be
 performed using Pulay DIIS extrapolation
 Exchange:     0.2220 Hartree-Fock + 1.0000 wB97X-D + LR-HF
 Correlation:  1.0000 wB97X-D
 Using SG-1 standard quadrature grid
 Dispersion:   Grimme D
 SCF converges when DIIS error is below 1.0E-08
 using 4 threads for integral computing 
 using 4 threads for integral computing 
 K construction time:  CPU 68.98 s  wall 17.52 s
 -------------------------------------------------------
 OpenMP BLAS3 based DFT computing Module                
 Release: version 1.0, May 2013, Q-Chem Inc. Pittsburgh 
 -------------------------------------------------------
 ---------------------------------------
  Cycle       Energy         DIIS Error
 ---------------------------------------
    1   -2301.4037053276      1.83E-02
 K construction time:  CPU 1130.65 s  wall 284.64 s
    2   -2290.9386338791      1.34E-03
 K construction time:  CPU 1238.58 s  wall 310.87 s
    3   -2290.9709866837      1.35E-03
 K construction time:  CPU 1075.92 s  wall 270.65 s
    4   -2291.1839193424      2.06E-04
 K construction time:  CPU 953.50 s  wall 240.90 s
    5   -2291.1886325105      1.14E-04
 K construction time:  CPU 896.82 s  wall 225.62 s
    6   -2291.1901784703      4.20E-05
 K construction time:  CPU 841.34 s  wall 212.51 s
    7   -2291.1903967251      1.74E-05
 K construction time:  CPU 788.78 s  wall 198.39 s
    8   -2291.1904451182      5.70E-06
 K construction time:  CPU 751.84 s  wall 189.13 s
    9   -2291.1904560093      3.43E-06
 K construction time:  CPU 712.83 s  wall 179.20 s
   10   -2291.1904594244      1.15E-06
 K construction time:  CPU 646.64 s  wall 162.52 s
   11   -2291.1904598954      7.73E-07
 K construction time:  CPU 611.35 s  wall 153.61 s
   12   -2291.1904600540      2.08E-07
 K construction time:  CPU 542.59 s  wall 136.26 s
   13   -2291.1904600697      1.21E-07
 K construction time:  CPU 580.17 s  wall 145.61 s
   14   -2291.1904600730      3.53E-08
 K construction time:  CPU 418.05 s  wall 105.20 s
   15   -2291.1904600721      2.04E-08
 K construction time:  CPU 1136.65 s  wall 286.08 s
   16   -2291.1904600722      7.19E-09 Convergence criterion met
 ---------------------------------------
 SCF time:  CPU 16386.40 s  wall 4141.31 s
 SCF   energy in the final basis set = -2291.1904600722
 Total energy in the final basis set = -2291.1904600722
 
 --------------------------------------------------------------
 
                    Orbital Energies (a.u.)
 --------------------------------------------------------------
 
 Alpha MOs
 -- Occupied --
-89.157 -89.108 -89.088 -14.488 -14.483 -14.463 -14.463 -14.445
-14.436 -10.358 -10.354 -10.353 -10.346 -10.345 -10.344 -10.343
-10.342 -10.339 -10.338 -10.335 -10.331 -10.326 -10.325 -10.320
-10.311 -10.302 -10.301 -10.296 -10.294  -8.162  -8.117  -8.097
 -6.111  -6.106  -6.105  -6.065  -6.061  -6.060  -6.046  -6.042
 -6.040  -1.147  -1.102  -1.068  -1.048  -1.030  -1.015  -1.006
 -0.987  -0.925  -0.912  -0.899  -0.880  -0.870  -0.855  -0.839
 -0.812  -0.778  -0.773  -0.745  -0.739  -0.732  -0.724  -0.712
 -0.673  -0.656  -0.649  -0.632  -0.629  -0.621  -0.607  -0.605
 -0.588  -0.585  -0.568  -0.565  -0.559  -0.548  -0.543  -0.528
 -0.514  -0.504  -0.501  -0.498  -0.493  -0.492  -0.486  -0.485
 -0.476  -0.467  -0.463  -0.462  -0.452  -0.443  -0.430  -0.428
 -0.421  -0.412  -0.396  -0.377  -0.371  -0.359  -0.357  -0.345
 -0.344  -0.340  -0.338  -0.334  -0.330  -0.266
 -- Virtual --
 -0.053  -0.025   0.028   0.034   0.041   0.050   0.061   0.072
  0.081   0.086   0.107   0.121   0.123   0.126   0.130   0.135
  0.149   0.150   0.154   0.164   0.168   0.171   0.182   0.188
  0.194   0.204   0.210   0.215   0.216   0.226   0.236   0.244
  0.256   0.265   0.267   0.274   0.279   0.288   0.293   0.295
  0.300   0.301   0.305   0.312   0.316   0.322   0.323   0.331
  0.333   0.337   0.341   0.344   0.352   0.355   0.356   0.360
  0.366   0.367   0.369   0.379   0.381   0.382   0.384   0.388
  0.392   0.395   0.397   0.401   0.403   0.405   0.407   0.411
  0.416   0.418   0.424   0.425   0.431   0.431   0.434   0.439
  0.443   0.447   0.449   0.454   0.457   0.458   0.459   0.462
  0.465   0.465   0.471   0.474   0.478   0.482   0.485   0.492
  0.493   0.496   0.500   0.504   0.507   0.516   0.518   0.522
  0.524   0.529   0.532   0.535   0.536   0.545   0.548   0.553
  0.558   0.562   0.565   0.566   0.585   0.590   0.596   0.600
  0.605   0.606   0.608   0.617   0.620   0.630   0.632   0.638
  0.640   0.646   0.651   0.653   0.657   0.664   0.669   0.674
  0.682   0.686   0.689   0.694   0.700   0.704   0.708   0.711
  0.719   0.721   0.731   0.735   0.737   0.745   0.749   0.754
  0.757   0.763   0.766   0.768   0.774   0.779   0.782   0.787
  0.793   0.795   0.800   0.801   0.811   0.813   0.817   0.821
  0.825   0.828   0.836   0.837   0.842   0.849   0.853   0.857
  0.861   0.866   0.870   0.874   0.875   0.884   0.892   0.899
  0.906   0.909   0.915   0.920   0.921   0.929   0.932   0.935
  0.943   0.950   0.952   0.958   0.959   0.961   0.968   0.971
  0.975   0.979   0.983   0.995   1.001   1.005   1.010   1.014
  1.017   1.024   1.028   1.038   1.050   1.051   1.056   1.061
  1.072   1.077   1.078   1.084   1.089   1.092   1.098   1.098
  1.104   1.111   1.118   1.124   1.130   1.139   1.140   1.148
  1.153   1.158   1.166   1.170   1.175   1.184   1.192   1.198
  1.202   1.208   1.218   1.226   1.230   1.236   1.242   1.253
  1.254   1.258   1.264   1.275   1.283   1.286   1.295   1.298
  1.312   1.317   1.322   1.336   1.340   1.345   1.349   1.355
  1.363   1.364   1.375   1.377   1.379   1.384   1.386   1.393
  1.399   1.405   1.411   1.415   1.423   1.427   1.439   1.443
  1.445   1.446   1.451   1.460   1.472   1.474   1.480   1.481
  1.491   1.496   1.501   1.511   1.514   1.520   1.526   1.541
  1.543   1.556   1.566   1.571   1.573   1.581   1.587   1.595
  1.602   1.607   1.612   1.623   1.628   1.638   1.642   1.644
  1.651   1.652   1.660   1.666   1.676   1.686   1.690   1.704
  1.709   1.713   1.717   1.728   1.732   1.739   1.745   1.751
  1.764   1.766   1.770   1.781   1.784   1.793   1.801   1.814
  1.824   1.833   1.843   1.851   1.868   1.881   1.882   1.887
  1.892   1.898   1.912   1.915   1.922   1.926   1.927   1.949
  1.954   1.958   1.966   1.972   1.985   1.990   1.996   2.006
  2.009   2.017   2.032   2.039   2.042   2.056   2.060   2.066
  2.069   2.083   2.095   2.096   2.107   2.114   2.127   2.132
  2.134   2.149   2.167   2.171   2.179   2.184   2.188   2.193
  2.202   2.208   2.211   2.218   2.234   2.240   2.247   2.251
  2.261   2.273   2.286   2.288   2.293   2.298   2.306   2.312
  2.316   2.319   2.331   2.337   2.342   2.344   2.358   2.371
  2.381   2.393   2.395   2.404   2.404   2.415   2.425   2.429
  2.437   2.443   2.449   2.458   2.462   2.469   2.470   2.483
  2.488   2.495   2.501   2.508   2.512   2.515   2.524   2.533
  2.538   2.540   2.548   2.560   2.570   2.586   2.592   2.599
  2.611   2.618   2.625   2.633   2.637   2.646   2.648   2.662
  2.665   2.669   2.676   2.678   2.688   2.692   2.700   2.708
  2.721   2.734   2.740   2.753   2.757   2.763   2.775   2.777
  2.782   2.789   2.793   2.800   2.805   2.809   2.818   2.826
  2.834   2.843   2.847   2.848   2.855   2.864   2.866   2.876
  2.882   2.887   2.894   2.906   2.914   2.918   2.923   2.936
  2.941   2.945   2.947   2.951   2.959   2.966   2.970   2.978
  2.987   2.990   2.996   3.005   3.007   3.011   3.017   3.021
  3.024   3.028   3.034   3.035   3.041   3.049   3.058   3.060
  3.063   3.070   3.074   3.078   3.080   3.082   3.091   3.093
  3.099   3.103   3.109   3.112   3.119   3.120   3.129   3.136
  3.138   3.142   3.145   3.152   3.153   3.157   3.161   3.168
  3.170   3.177   3.180   3.186   3.188   3.193   3.196   3.206
  3.207   3.210   3.214   3.216   3.223   3.228   3.237   3.238
  3.243   3.247   3.250   3.259   3.265   3.268   3.271   3.276
  3.283   3.284   3.289   3.293   3.296   3.300   3.304   3.308
  3.313   3.314   3.322   3.324   3.331   3.334   3.339   3.347
  3.350   3.360   3.366   3.369   3.379   3.381   3.386   3.392
  3.402   3.404   3.410   3.413   3.419   3.422   3.426   3.432
  3.435   3.449   3.451   3.457   3.459   3.460   3.466   3.473
  3.475   3.482   3.489   3.498   3.500   3.502   3.509   3.516
  3.525   3.532   3.543   3.553   3.560   3.564   3.571   3.579
  3.583   3.593   3.606   3.617   3.627   3.629   3.637   3.646
  3.655   3.667   3.670   3.676   3.693   3.694   3.703   3.713
  3.717   3.725   3.729   3.733   3.737   3.743   3.753   3.760
  3.760   3.771   3.783   3.792   3.798   3.802   3.807   3.813
  3.819   3.827   3.835   3.841   3.850   3.867   3.869   3.883
  3.891   3.893   3.899   3.909   3.912   3.923   3.925   3.928
  3.931   3.933   3.939   3.942   3.949   3.952   3.956   3.963
  3.969   3.977   3.985   4.005   4.019   4.024   4.028   4.034
  4.047   4.055   4.062   4.077   4.083   4.093   4.098   4.112
  4.119   4.130   4.141   4.142   4.148   4.159   4.163   4.172
  4.180   4.187   4.197   4.203   4.208   4.214   4.217   4.219
  4.227   4.233   4.236   4.246   4.247   4.258   4.260   4.278
  4.289   4.294   4.295   4.306   4.312   4.325   4.334   4.343
  4.351   4.355   4.358   4.362   4.373   4.375   4.384   4.389
  4.400   4.405   4.424   4.427   4.432   4.440   4.447   4.448
  4.458   4.480   4.488   4.496   4.502   4.514   4.518   4.530
  4.537   4.548   4.555   4.567   4.584   4.588   4.603   4.620
  4.625   4.634   4.645   4.654   4.662   4.679   4.685   4.696
  4.704   4.719   4.735   4.743   4.751   4.756   4.774   4.783
  4.785   4.800   4.809   4.815   4.829   4.843   4.850   4.863
  4.873   4.884   4.886   4.897   4.903   4.918   4.920   4.925
  4.936   4.941   4.957   4.963   4.971   4.972   4.978   4.991
  4.995   4.998   5.008   5.016   5.031   5.036   5.040   5.054
  5.070   5.082   5.082   5.101   5.102   5.114   5.125   5.131
  5.134   5.138   5.143   5.148   5.156   5.165   5.177   5.192
  5.205   5.221   5.235   5.246   5.261   5.299   5.305   5.313
  5.320   5.331   5.351   5.376   5.381   5.388   5.415   5.422
  5.428   5.454   5.473   5.491   5.492   5.509   5.532   5.541
  5.547   5.573   5.575   5.591   5.594   5.611   5.627   5.645
  5.688   5.698   5.711   5.718   5.734   5.746   5.753   5.764
  5.794   5.831   5.836   5.845   5.877   5.896   5.909   5.919
  5.936   5.964   6.015   6.037   6.091   6.130   6.165   6.173
  6.176   6.227   6.248   6.261   6.319   6.348   6.392   6.413
  6.431   6.443   6.638   6.881   6.988   7.005   8.049   8.905
  9.544  10.150  10.654  11.143  11.234  11.706  11.994  12.138
 12.431  12.503  12.716  12.807  12.844  12.939  13.072  13.147
 13.185  13.361  13.543  14.159  14.381  14.613  15.029  15.092
 --------------------------------------------------------------
 
          Ground-State Mulliken Net Atomic Charges

     Atom                 Charge (a.u.)
  ----------------------------------------
      1 C                    -0.090401
      2 C                    -0.129183
      3 C                    -0.078606
      4 C                    -0.123869
      5 N                    -0.175320
      6 C                     0.142193
      7 C                     0.081846
      8 N                    -0.161979
      9 C                    -0.003400
     10 C                    -0.091583
     11 N                    -0.247572
     12 C                     0.043627
     13 C                     0.061457
     14 S                     0.409973
     15 N                    -0.303561
     16 C                    -0.075323
     17 S                     0.177191
     18 C                     0.061686
     19 C                    -0.055390
     20 N                    -0.169902
     21 C                     0.064130
     22 C                    -0.011755
     23 C                    -0.041431
     24 N                    -0.161548
     25 C                    -0.137062
     26 S                     0.103715
     27 C                    -0.046521
     28 C                    -0.158563
     29 C                    -0.182220
     30 H                     0.130147
     31 H                     0.120769
     32 H                     0.119341
     33 H                     0.133775
     34 H                     0.139799
     35 H                     0.124831
     36 H                     0.133482
     37 H                     0.129499
     38 H                     0.131434
     39 H                     0.136295
  ----------------------------------------
  Sum of atomic charges =     0.000000

 -----------------------------------------------------------------
                    Cartesian Multipole Moments
 -----------------------------------------------------------------
    Charge (ESU x 10^10)
                 0.0000
    Dipole Moment (Debye)
         X       0.4865      Y       0.7276      Z      -1.9775
       Tot       2.1625
    Quadrupole Moments (Debye-Ang)
        XX    -151.4586     XY       0.7459     YY    -168.3003
        XZ       6.2154     YZ      -3.5927     ZZ    -184.4270
    Octopole Moments (Debye-Ang^2)
       XXX    -109.4273    XXY      -3.0332    XYY      67.5337
       YYY      28.5335    XXZ     -43.5912    XYZ       2.6007
       YYZ      -5.2755    XZZ     -23.2450    YZZ      -2.6417
       ZZZ      -6.9549
    Hexadecapole Moments (Debye-Ang^3)
      XXXX  -15879.6869   XXXY    -500.4043   XXYY   -3710.9072
      XYYY     224.9196   YYYY   -3267.6713   XXXZ      -4.0282
      XXYZ    -191.6071   XYYZ      43.4690   YYYZ      -8.3086
      XXZZ   -3307.3099   XYZZ       2.2020   YYZZ    -717.8395
      XZZZ      24.9556   YZZZ      -3.2301   ZZZZ    -496.3613
 -----------------------------------------------------------------
 Calculating analytic gradient of the SCF energy
 K construction time:  CPU 2280.23 s  wall 572.27 s
 Gradient of SCF Energy
            1           2           3           4           5           6
    1  -0.0023071   0.0029576   0.0020822  -0.0055267  -0.0071516   0.0117282
    2   0.0001294  -0.0000614  -0.0013511   0.0014418   0.0033197   0.0018509
    3   0.0002851  -0.0004099   0.0003983  -0.0038895   0.0013870   0.0030539
            7           8           9          10          11          12
    1  -0.0111769   0.0076182  -0.0011981  -0.0034860   0.0038504   0.0001441
    2  -0.0025630   0.0017730  -0.0030242   0.0015823  -0.0021382  -0.0009299
    3  -0.0026066   0.0016727  -0.0010435   0.0001491  -0.0014172  -0.0002168
           13          14          15          16          17          18
    1   0.0010045  -0.0001080   0.0014835  -0.0004627  -0.0002113  -0.0001249
    2  -0.0004551   0.0011675   0.0005624   0.0001039  -0.0004705   0.0007058
    3   0.0001158  -0.0001811   0.0004274   0.0002097   0.0001011  -0.0004101
           19          20          21          22          23          24
    1  -0.0004780  -0.0004800   0.0006115   0.0007942   0.0009686   0.0000386
    2  -0.0001017  -0.0008745   0.0002510   0.0000322   0.0005344  -0.0006364
    3  -0.0001890   0.0002933   0.0001280  -0.0000407  -0.0004686  -0.0000820
           25          26          27          28          29          30
    1  -0.0007602   0.0000445  -0.0002580   0.0004194  -0.0004498   0.0002733
    2   0.0003034  -0.0000153   0.0009105   0.0009805  -0.0007480  -0.0001596
    3  -0.0003642   0.0000392   0.0002076  -0.0005151   0.0004506   0.0002262
           31          32          33          34          35          36
    1  -0.0000232  -0.0004776   0.0009002   0.0000621  -0.0001674   0.0001148
    2  -0.0002906   0.0001833  -0.0008280  -0.0002157   0.0000054  -0.0002329
    3   0.0003631   0.0003133   0.0014548  -0.0002575   0.0002830   0.0004841
           37          38          39
    1  -0.0003278  -0.0001760   0.0002555
    2  -0.0003805  -0.0001297  -0.0002309
    3  -0.0001048   0.0001385   0.0000147
 Max gradient component =       1.173E-02
 RMS gradient           =       2.176E-03
 Gradient time:  CPU 2725.10 s  wall 684.58 s
 Geometry Optimization Parameters
   NAtoms,    NIC,     NZ,  NCons,   NDum,   NFix, NCnnct, MaxDiis
       39     293       0       3       0       0       0       0


** CONSTRAINED OPTIMIZATION IN DELOCALIZED INTERNAL COORDINATES **
   Searching for a Minimum

   Optimization Cycle:   1

                       Coordinates (Angstroms)
     ATOM                X               Y               Z
      1  C        -7.6778870010    0.3487794987    0.2297996636
      2  C        -7.0313191983    0.8586492619   -0.8852176878
      3  C        -6.9030374321   -0.1591032155    1.2600885700
      4  C        -5.6520758201    0.8318473921   -0.9270157350
      5  N        -5.5772670328   -0.1941465408    1.2320516287
      6  C        -4.9610374019    0.2865264301    0.1540091845
      7  C        -3.4780503894    0.2429176031    0.1235528982
      8  N        -2.8440396464    1.3655685295    0.3247450439
      9  C        -2.7195391577   -0.9461636552   -0.1342594830
     10  C        -1.4911484469    1.4395179953    0.3094096052
     11  N        -3.1715903029   -2.1687091236   -0.4162397576
     12  C        -1.2888677846   -0.8639996399   -0.1381576852
     13  C        -0.6351527979    0.3860027526    0.0887364110
     14  S        -1.8824649778   -3.0968882478   -0.6351575201
     15  N        -0.6984761313   -2.0281611674   -0.4016173461
     16  C         0.8114769733    0.5424372068    0.0526149203
     17  S         1.8910196033   -0.7955258833    0.0646446716
     18  C         1.5601670776    1.7171459084   -0.0128755536
     19  C         3.3122201410    0.1456222102    0.0161324360
     20  N         1.0586005084    2.9833441216   -0.0498029874
     21  C         2.9733397308    1.4926921842   -0.0375982493
     22  C         4.6326141094   -0.4456640904    0.0174352256
     23  C         1.9347094139    3.9395484529   -0.1049087870
     24  N         3.8620183899    2.5201852408   -0.0970727942
     25  C         5.8005754445    0.1079593740   -0.4294597693
     26  S         4.9137237721   -2.0416747680    0.6351376950
     27  C         3.3438992258    3.7100010682   -0.1278559832
     28  C         6.9127315952   -0.7549719414   -0.2855085874
     29  C         6.5838823950   -1.9532148267    0.2677689507
     30  H        -8.7554441478    0.3439281765    0.3005890733
     31  H        -7.5950982549    1.2686301892   -1.7116433634
     32  H        -7.3682085278   -0.5547229096    2.1561338306
     33  H        -5.0981137628    1.2196324037   -1.7682260114
     34  H        -1.0855078702    2.4258846067    0.4654891843
     35  H         1.5577150008    4.9560234697   -0.1265580708
     36  H         5.8445633914    1.1047867904   -0.8337920498
     37  H         4.0247255273    4.5514579009   -0.1778161921
     38  H         7.9145781389   -0.4927235447   -0.5887979747
     39  H         7.2346115896   -2.7832219351    0.4860354533
   Point Group: c1    Number of degrees of freedom:   111


   Energy is  -2291.190460072

              Constraints and their Current Values
                                        Value     Constraint
   Dihedral:        4   6   7   8       75.000       75.000
   Dihedral:       10  13  16  17      168.543      168.550
   Dihedral:       17  19  22  25      157.470      157.507

 Attempting to Generate Delocalized Internal Coordinates

   Using Lagrange Multiplier Algorithm


114 Hessian modes will be used to form the next step
  Hessian Eigenvalues:
    -0.977753   -0.977753   -0.977753    0.045000    0.045000    0.045000
     0.045000    0.045000    0.045000    0.045000    0.045000    0.045000
     0.045000    0.045000    0.045001    0.045001    0.045001    0.045001
     0.045001    0.045001    0.045001    0.045001    0.045001    0.045002
     0.045002    0.045002    0.045003    0.045003    0.045003    0.045005
     0.045005    0.045007    0.045011    0.045014    0.045024    0.045038
     0.159978    0.159986    0.159994    0.159997    0.159997    0.159999
     0.159999    0.159999    0.160000    0.160000    0.219998    0.221296
     0.223763    0.224236    0.233054    0.237970    0.243342    0.244276
     0.249699    0.249894    0.249926    0.249965    0.249971    0.249976
     0.249976    0.249983    0.249990    0.249992    0.249993    0.249993
     0.249999    0.312882    0.327840    0.334373    0.341223    0.341479
     0.354738    0.354748    0.355694    0.358543    0.360075    0.360792
     0.361034    0.362518    0.363552    0.364073    0.368475    0.372718
     0.375319    0.386750    0.390954    0.406308    0.407680    0.419177
     0.432399    0.441241    0.459434    0.465827    0.470563    0.473619
     0.482714    0.483776    0.485034    0.485247    0.504699    0.518063
     0.518116    0.525497    0.558711    0.572255    0.583001    0.590216
     0.638634    0.653365    0.661949    1.022753    1.022753    1.022753

 Minimum Search - Taking P-RFO Step
 Searching for Lamda that Maximizes Along the Constraint modes Only
 Value Taken    Lamda =   0.00001090
 Searching for Lamda that Minimizes Along All other modes
 Value Taken    Lamda =  -0.00182824
 Step Taken.  Stepsize is  0.108558

                             Maximum     Tolerance    Cnvgd?
         Gradient            0.009124       0.000300      NO
         Displacement        0.042312       0.001200      NO
         Energy change     *********       0.000001      NO


 New Cartesian Coordinates Obtained by Inverse Iteration

 Displacement from previous Coordinates is:  0.753562
 ----------------------------------------------------------------
             Standard Nuclear Orientation (Angstroms)
    I     Atom           X                Y                Z
 ----------------------------------------------------------------
    1      C      -7.6632668114     0.2509079130     0.2376141839
    2      C      -7.0546863129     0.8102703748    -0.8736038299
    3      C      -6.8584331359    -0.2464172359     1.2498151665
    4      C      -5.6745980592     0.8423110650    -0.9274116150
    5      N      -5.5315416678    -0.2268014238     1.2106571918
    6      C      -4.9591458726     0.3127742286     0.1405972630
    7      C      -3.4720585618     0.3143888695     0.1085153892
    8      N      -2.8453387904     1.4357363651     0.3146035483
    9      C      -2.7278711780    -0.8733140387    -0.1385912797
   10      C      -1.4869926854     1.4939634722     0.2986449948
   11      N      -3.2129659697    -2.0866407663    -0.3996769313
   12      C      -1.3013462558    -0.8128327794    -0.1438441907
   13      C      -0.6377320648     0.4327476842     0.0792156577
   14      S      -1.9431313277    -3.0434438519    -0.6121855997
   15      N      -0.7377266462    -1.9925302649    -0.3996331238
   16      C       0.8112843494     0.5754526702     0.0454375778
   17      S       1.8771840326    -0.7730816683     0.0589422071
   18      C       1.5731059554     1.7415913769    -0.0199274974
   19      C       3.3087231007     0.1516409040     0.0140484131
   20      N       1.0862840277     3.0138226314    -0.0611043990
   21      C       2.9838477085     1.5018137408    -0.0414711519
   22      C       4.6214140684    -0.4557769419     0.0210864503
   23      C       1.9730789156     3.9594996054    -0.1147049207
   24      N       3.8844443058     2.5192197934    -0.0987383205
   25      C       5.7993896968     0.0811948094    -0.4214083148
   26      S       4.8792726368    -2.0533514884     0.6444108530
   27      C       3.3800776493     3.7142636508    -0.1328049626
   28      C       6.8993204650    -0.7957910719    -0.2696126336
   29      C       6.5522884708    -1.9869993729     0.2852987369
   30      H      -8.7393261328     0.1983472086     0.3170452726
   31      H      -7.6433991375     1.2121042203    -1.6872894793
   32      H      -7.2964917133    -0.6858868798     2.1383283165
   33      H      -5.1518420207     1.2718166649    -1.7701599663
   34      H      -1.0727326887     2.4766114325     0.4576412291
   35      H       1.6086572692     4.9803098988    -0.1423353493
   36      H       5.8576826498     1.0756941611    -0.8311066464
   37      H       4.0710194960     4.5484881466    -0.1810716430
   38      H       7.9059621098    -0.5473330919    -0.5698029442
   39      H       7.1904360687    -2.8245727331     0.5093752050
 ----------------------------------------------------------------
 Molecular Point Group                 C1    NOp =  1
 Largest Abelian Subgroup              C1    NOp =  1
 Nuclear Repulsion Energy =  2929.2181661615 hartrees
 There are      110 alpha and      110 beta electrons
 Applying Cartesian multipole field
    Component          Value
    ---------          -----
     (2,0,0)        1.00000E-12
     (0,2,0)        2.00000E-11
     (0,0,2)       -3.00000E-11
 Nucleus-field energy     =     0.0000000604 hartrees
 Requested basis set is cc-pVTZ
 There are 356 shells and 1022 basis functions
 A cutoff of  1.0D-11 yielded  30918 shell pairs
 There are    244154 function pairs (    318763 Cartesian)
 Smallest overlap matrix eigenvalue = 2.57E-05
 Guess MOs from SCF MO coefficient file
 Reading MOs from coefficient file
 Reading MOs from coefficient file
 Long-range K will be added via erf
 Coulomb attenuation parameter = 0.2 bohr**(-1)
 A restricted hybrid HF-DFT SCF calculation will be
 performed using Pulay DIIS extrapolation
 Exchange:     0.2220 Hartree-Fock + 1.0000 wB97X-D + LR-HF
 Correlation:  1.0000 wB97X-D
 Using SG-1 standard quadrature grid
 Dispersion:   Grimme D
 SCF converges when DIIS error is below 1.0E-08
 Geometry optimization detected.  Setting ReadMinima to 0
 Setting SaveMinima to 0
 using 4 threads for integral computing 
 using 4 threads for integral computing 
 K construction time:  CPU 1132.30 s  wall 284.94 s
 -------------------------------------------------------
 OpenMP BLAS3 based DFT computing Module                
 Release: version 1.0, May 2013, Q-Chem Inc. Pittsburgh 
 -------------------------------------------------------
 ---------------------------------------
  Cycle       Energy         DIIS Error
 ---------------------------------------
    1   -2291.1839935220      3.82E-04
 K construction time:  CPU 1136.86 s  wall 286.13 s
    2   -2291.1910854240      4.26E-05
 K construction time:  CPU 843.09 s  wall 212.75 s
    3   -2291.1913601304      3.92E-05
 K construction time:  CPU 796.65 s  wall 200.42 s
    4   -2291.1915306581      1.41E-05
 K construction time:  CPU 751.67 s  wall 189.03 s
    5   -2291.1915555878      7.15E-06
 K construction time:  CPU 710.56 s  wall 178.65 s
    6   -2291.1915621336      2.09E-06
 K construction time:  CPU 642.96 s  wall 162.26 s
    7   -2291.1915628600      6.86E-07
 K construction time:  CPU 573.25 s  wall 144.01 s
    8   -2291.1915629485      2.79E-07
 K construction time:  CPU 535.72 s  wall 134.56 s
    9   -2291.1915629668      9.67E-08
 K construction time:  CPU 474.48 s  wall 119.14 s
   10   -2291.1915629706      5.66E-08
 K construction time:  CPU 437.74 s  wall 109.97 s
   11   -2291.1915629716      2.28E-08
 K construction time:  CPU 414.29 s  wall 103.90 s
   12   -2291.1915629719      1.34E-08
 K construction time:  CPU 364.32 s  wall 91.35 s
   13   -2291.1915629735      5.19E-09 Convergence criterion met
 ---------------------------------------
 SCF time:  CPU 11776.91 s  wall 2976.56 s
 SCF   energy in the final basis set = -2291.1915629735
 Total energy in the final basis set = -2291.1915629735
 
 --------------------------------------------------------------
 
                    Orbital Energies (a.u.)
 --------------------------------------------------------------
 
 Alpha MOs
 -- Occupied --
-89.157 -89.107 -89.087 -14.487 -14.483 -14.463 -14.463 -14.446
-14.437 -10.357 -10.351 -10.350 -10.346 -10.344 -10.344 -10.343
-10.342 -10.339 -10.337 -10.335 -10.332 -10.327 -10.325 -10.320
-10.312 -10.302 -10.301 -10.296 -10.294  -8.162  -8.116  -8.097
 -6.111  -6.106  -6.105  -6.065  -6.061  -6.060  -6.046  -6.042
 -6.040  -1.147  -1.102  -1.069  -1.049  -1.030  -1.015  -1.005
 -0.987  -0.925  -0.913  -0.899  -0.879  -0.870  -0.855  -0.839
 -0.812  -0.778  -0.772  -0.746  -0.740  -0.733  -0.723  -0.712
 -0.673  -0.656  -0.649  -0.631  -0.629  -0.621  -0.607  -0.604
 -0.587  -0.585  -0.568  -0.564  -0.559  -0.548  -0.543  -0.527
 -0.513  -0.504  -0.501  -0.498  -0.494  -0.493  -0.486  -0.485
 -0.476  -0.467  -0.462  -0.461  -0.451  -0.443  -0.429  -0.428
 -0.422  -0.411  -0.395  -0.377  -0.371  -0.359  -0.358  -0.346
 -0.344  -0.340  -0.338  -0.334  -0.330  -0.266
 -- Virtual --
 -0.052  -0.024   0.028   0.034   0.042   0.050   0.061   0.072
  0.082   0.086   0.108   0.121   0.123   0.127   0.130   0.135
  0.149   0.150   0.154   0.164   0.169   0.171   0.182   0.187
  0.194   0.205   0.211   0.215   0.217   0.226   0.236   0.245
  0.257   0.265   0.267   0.275   0.279   0.289   0.293   0.296
  0.300   0.301   0.306   0.312   0.316   0.322   0.323   0.331
  0.333   0.337   0.341   0.344   0.351   0.355   0.356   0.360
  0.367   0.368   0.369   0.380   0.381   0.382   0.384   0.389
  0.393   0.395   0.399   0.401   0.403   0.406   0.408   0.411
  0.417   0.419   0.424   0.426   0.431   0.431   0.434   0.440
  0.443   0.447   0.450   0.455   0.458   0.458   0.459   0.463
  0.465   0.465   0.472   0.475   0.479   0.482   0.485   0.492
  0.493   0.496   0.501   0.504   0.509   0.516   0.518   0.522
  0.523   0.531   0.531   0.535   0.536   0.544   0.548   0.553
  0.559   0.563   0.566   0.567   0.586   0.591   0.597   0.601
  0.605   0.606   0.609   0.617   0.621   0.629   0.633   0.638
  0.641   0.645   0.650   0.653   0.657   0.664   0.669   0.673
  0.682   0.685   0.689   0.695   0.701   0.705   0.708   0.712
  0.718   0.722   0.731   0.736   0.738   0.747   0.752   0.757
  0.760   0.762   0.768   0.768   0.774   0.779   0.782   0.787
  0.794   0.796   0.800   0.801   0.811   0.814   0.817   0.821
  0.824   0.827   0.836   0.837   0.842   0.848   0.850   0.858
  0.862   0.865   0.869   0.874   0.875   0.887   0.894   0.899
  0.906   0.909   0.917   0.920   0.923   0.930   0.933   0.939
  0.942   0.951   0.952   0.959   0.960   0.961   0.969   0.972
  0.975   0.979   0.983   0.996   1.002   1.005   1.009   1.013
  1.017   1.025   1.029   1.038   1.050   1.052   1.058   1.061
  1.075   1.078   1.079   1.085   1.090   1.092   1.097   1.098
  1.105   1.111   1.118   1.126   1.131   1.138   1.141   1.147
  1.152   1.158   1.167   1.172   1.175   1.184   1.194   1.199
  1.203   1.208   1.219   1.227   1.231   1.236   1.241   1.251
  1.256   1.259   1.263   1.275   1.285   1.285   1.295   1.300
  1.312   1.318   1.322   1.336   1.341   1.345   1.350   1.355
  1.362   1.364   1.374   1.376   1.378   1.385   1.387   1.395
  1.400   1.405   1.411   1.418   1.423   1.429   1.439   1.443
  1.445   1.445   1.452   1.460   1.471   1.475   1.478   1.479
  1.490   1.494   1.502   1.511   1.518   1.523   1.526   1.541
  1.543   1.557   1.567   1.570   1.574   1.581   1.587   1.596
  1.603   1.607   1.613   1.623   1.628   1.639   1.642   1.645
  1.650   1.653   1.660   1.666   1.676   1.686   1.691   1.704
  1.710   1.713   1.717   1.728   1.731   1.740   1.749   1.756
  1.763   1.766   1.772   1.781   1.783   1.792   1.802   1.815
  1.826   1.832   1.844   1.853   1.870   1.880   1.884   1.888
  1.892   1.900   1.912   1.920   1.921   1.926   1.929   1.949
  1.955   1.957   1.967   1.973   1.982   1.990   1.996   2.006
  2.010   2.017   2.031   2.038   2.041   2.052   2.059   2.064
  2.069   2.086   2.095   2.098   2.107   2.114   2.127   2.132
  2.134   2.150   2.166   2.172   2.179   2.184   2.189   2.196
  2.203   2.207   2.214   2.219   2.235   2.237   2.246   2.251
  2.261   2.272   2.288   2.290   2.292   2.298   2.303   2.313
  2.316   2.319   2.330   2.337   2.343   2.345   2.357   2.372
  2.380   2.392   2.397   2.402   2.406   2.415   2.425   2.432
  2.439   2.442   2.450   2.457   2.463   2.470   2.470   2.483
  2.484   2.494   2.502   2.509   2.513   2.515   2.524   2.533
  2.537   2.541   2.549   2.560   2.576   2.588   2.593   2.600
  2.611   2.619   2.626   2.633   2.638   2.647   2.649   2.662
  2.666   2.671   2.674   2.680   2.688   2.691   2.701   2.711
  2.721   2.734   2.741   2.754   2.759   2.763   2.775   2.779
  2.782   2.788   2.793   2.798   2.805   2.809   2.818   2.825
  2.834   2.844   2.846   2.848   2.855   2.863   2.866   2.879
  2.883   2.889   2.895   2.904   2.915   2.918   2.924   2.935
  2.941   2.945   2.946   2.952   2.960   2.965   2.971   2.978
  2.988   2.992   2.997   3.006   3.007   3.011   3.017   3.022
  3.024   3.028   3.034   3.037   3.042   3.049   3.057   3.061
  3.063   3.071   3.074   3.079   3.080   3.083   3.091   3.095
  3.100   3.105   3.110   3.112   3.119   3.122   3.130   3.136
  3.137   3.143   3.148   3.153   3.156   3.158   3.160   3.168
  3.172   3.177   3.181   3.187   3.188   3.194   3.196   3.206
  3.208   3.210   3.217   3.218   3.224   3.227   3.236   3.237
  3.245   3.247   3.249   3.260   3.266   3.269   3.271   3.277
  3.282   3.285   3.290   3.293   3.298   3.300   3.303   3.308
  3.313   3.315   3.322   3.324   3.331   3.335   3.341   3.347
  3.351   3.360   3.367   3.371   3.379   3.382   3.388   3.393
  3.402   3.406   3.410   3.414   3.420   3.422   3.426   3.432
  3.435   3.448   3.453   3.457   3.459   3.462   3.466   3.472
  3.478   3.482   3.491   3.496   3.502   3.503   3.508   3.517
  3.522   3.533   3.546   3.554   3.561   3.564   3.571   3.579
  3.584   3.593   3.608   3.619   3.628   3.633   3.638   3.647
  3.656   3.667   3.672   3.677   3.695   3.697   3.705   3.714
  3.717   3.726   3.730   3.735   3.740   3.743   3.754   3.756
  3.761   3.772   3.784   3.792   3.797   3.802   3.807   3.818
  3.822   3.829   3.836   3.843   3.851   3.868   3.870   3.884
  3.892   3.895   3.899   3.909   3.914   3.923   3.926   3.931
  3.933   3.935   3.942   3.943   3.948   3.953   3.957   3.964
  3.969   3.978   3.984   4.006   4.018   4.025   4.028   4.035
  4.046   4.056   4.064   4.079   4.085   4.094   4.098   4.112
  4.118   4.129   4.141   4.145   4.149   4.159   4.166   4.170
  4.180   4.187   4.196   4.206   4.210   4.214   4.216   4.220
  4.228   4.232   4.240   4.246   4.248   4.258   4.264   4.277
  4.289   4.294   4.300   4.309   4.314   4.326   4.335   4.344
  4.348   4.355   4.358   4.364   4.372   4.377   4.387   4.392
  4.400   4.405   4.425   4.428   4.432   4.441   4.448   4.449
  4.460   4.479   4.493   4.497   4.505   4.517   4.523   4.531
  4.538   4.548   4.555   4.567   4.584   4.588   4.603   4.620
  4.632   4.639   4.644   4.658   4.664   4.678   4.684   4.699
  4.708   4.723   4.739   4.743   4.752   4.757   4.774   4.785
  4.785   4.802   4.809   4.816   4.830   4.845   4.852   4.867
  4.875   4.886   4.887   4.901   4.905   4.917   4.920   4.930
  4.936   4.941   4.957   4.961   4.970   4.972   4.977   4.992
  4.999   5.000   5.008   5.016   5.031   5.036   5.039   5.056
  5.071   5.081   5.086   5.101   5.104   5.113   5.127   5.130
  5.134   5.137   5.144   5.146   5.156   5.165   5.178   5.192
  5.206   5.222   5.234   5.246   5.261   5.300   5.305   5.314
  5.321   5.332   5.349   5.376   5.383   5.390   5.414   5.422
  5.432   5.451   5.479   5.490   5.496   5.510   5.535   5.542
  5.549   5.573   5.577   5.591   5.596   5.612   5.627   5.646
  5.689   5.696   5.720   5.721   5.736   5.747   5.753   5.767
  5.794   5.832   5.839   5.840   5.877   5.896   5.907   5.923
  5.942   5.968   6.020   6.040   6.094   6.132   6.165   6.175
  6.176   6.232   6.248   6.269   6.319   6.348   6.385   6.415
  6.432   6.447   6.638   6.884   6.988   7.008   8.039   8.893
  9.548  10.148  10.651  11.184  11.239  11.722  12.007  12.188
 12.448  12.538  12.747  12.844  12.859  12.943  13.074  13.164
 13.199  13.388  13.554  14.163  14.387  14.626  15.052  15.093
 --------------------------------------------------------------
 
          Ground-State Mulliken Net Atomic Charges

     Atom                 Charge (a.u.)
  ----------------------------------------
      1 C                    -0.090951
      2 C                    -0.128421
      3 C                    -0.078922
      4 C                    -0.124707
      5 N                    -0.173395
      6 C                     0.139594
      7 C                     0.088029
      8 N                    -0.164219
      9 C                     0.000415
     10 C                    -0.086787
     11 N                    -0.247557
     12 C                     0.041948
     13 C                     0.055458
     14 S                     0.408809
     15 N                    -0.304283
     16 C                    -0.074534
     17 S                     0.176458
     18 C                     0.061837
     19 C                    -0.055037
     20 N                    -0.170172
     21 C                     0.063752
     22 C                    -0.011910
     23 C                    -0.041942
     24 N                    -0.161220
     25 C                    -0.138328
     26 S                     0.103819
     27 C                    -0.046322
     28 C                    -0.158724
     29 C                    -0.182601
     30 H                     0.130694
     31 H                     0.121334
     32 H                     0.118681
     33 H                     0.132876
     34 H                     0.139625
     35 H                     0.125203
     36 H                     0.134131
     37 H                     0.129012
     38 H                     0.131680
     39 H                     0.136677
  ----------------------------------------
  Sum of atomic charges =     0.000000

 -----------------------------------------------------------------
                    Cartesian Multipole Moments
 -----------------------------------------------------------------
    Charge (ESU x 10^10)
                 0.0000
    Dipole Moment (Debye)
         X       0.3527      Y       0.6224      Z      -1.9401
       Tot       2.0678
    Quadrupole Moments (Debye-Ang)
        XX    -150.6474     XY       1.6863     YY    -168.3755
        XZ       6.1703     YZ      -3.8087     ZZ    -184.3393
    Octopole Moments (Debye-Ang^2)
       XXX    -111.9108    XXY     -11.4030    XYY      68.7814
       YYY      21.8198    XXZ     -44.0044    XYZ       3.4475
       YYZ      -4.8460    XZZ     -22.7123    YZZ      -4.8728
       ZZZ      -6.6894
    Hexadecapole Moments (Debye-Ang^3)
      XXXX  -15857.5804   XXXY    -468.3356   XXYY   -3692.5922
      XYYY     211.2385   YYYY   -3260.5492   XXXZ      -0.9067
      XXYZ    -195.8423   XYYZ      39.7088   YYYZ      -0.3181
      XXZZ   -3299.1842   XYZZ      -3.1177   YYZZ    -715.3766
      XZZZ      13.7004   YZZZ       7.2246   ZZZZ    -490.0459
 -----------------------------------------------------------------
 Calculating analytic gradient of the SCF energy
 K construction time:  CPU 2276.80 s  wall 570.70 s
 Gradient of SCF Energy
            1           2           3           4           5           6
    1   0.0001730   0.0008231   0.0008897  -0.0021437  -0.0012014   0.0018372
    2   0.0003623   0.0000521   0.0000800  -0.0011226   0.0014757   0.0013201
    3  -0.0002571   0.0001053  -0.0001248  -0.0020455   0.0002753   0.0035271
            7           8           9          10          11          12
    1  -0.0021591   0.0027848  -0.0010534  -0.0025715   0.0015290   0.0001470
    2  -0.0033519  -0.0001994  -0.0001445   0.0010685  -0.0004095   0.0013389
    3  -0.0030323   0.0023796  -0.0008359  -0.0001903  -0.0005116   0.0007034
           13          14          15          16          17          18
    1   0.0012147  -0.0012125  -0.0003906  -0.0002825   0.0004191  -0.0002662
    2  -0.0008620   0.0002488   0.0007432  -0.0004751   0.0003027   0.0003955
    3   0.0002033   0.0000822  -0.0001400   0.0002826  -0.0000815  -0.0002706
           19          20          21          22          23          24
    1  -0.0000254   0.0000646   0.0002142  -0.0001083   0.0003998  -0.0001925
    2  -0.0001559  -0.0002877   0.0002603  -0.0001858   0.0001053  -0.0002915
    3  -0.0000720   0.0000727   0.0000236   0.0001254  -0.0000646  -0.0000030
           25          26          27          28          29          30
    1  -0.0002212   0.0001408  -0.0001817   0.0001653  -0.0001495   0.0001448
    2  -0.0000000   0.0001485   0.0002301  -0.0000206  -0.0001736  -0.0003343
    3  -0.0002171  -0.0001573   0.0000776  -0.0000209   0.0002283  -0.0001205
           31          32          33          34          35          36
    1   0.0001257   0.0003710   0.0003901  -0.0000549   0.0001201   0.0002374
    2   0.0001388  -0.0002173  -0.0001033  -0.0000181  -0.0000128   0.0000170
    3  -0.0001603   0.0000923   0.0000867  -0.0001255   0.0000762   0.0001787
           37          38          39
    1  -0.0000061   0.0000050   0.0000240
    2  -0.0000310   0.0000095   0.0000996
    3  -0.0001110   0.0000156   0.0000059
 Max gradient component =       3.527E-03
 RMS gradient           =       8.938E-04
 Gradient time:  CPU 2724.32 s  wall 683.62 s
 Geometry Optimization Parameters
   NAtoms,    NIC,     NZ,  NCons,   NDum,   NFix, NCnnct, MaxDiis
       39     293       0       3       0       0       0       0

 Cartesian Hessian Update
 Hessian Updated using BFGS Update


** CONSTRAINED OPTIMIZATION IN DELOCALIZED INTERNAL COORDINATES **
   Searching for a Minimum

   Optimization Cycle:   2

                       Coordinates (Angstroms)
     ATOM                X               Y               Z
      1  C        -7.6632668114    0.2509079130    0.2376141839
      2  C        -7.0546863129    0.8102703748   -0.8736038299
      3  C        -6.8584331359   -0.2464172359    1.2498151665
      4  C        -5.6745980592    0.8423110650   -0.9274116150
      5  N        -5.5315416678   -0.2268014238    1.2106571918
      6  C        -4.9591458726    0.3127742286    0.1405972630
      7  C        -3.4720585618    0.3143888695    0.1085153892
      8  N        -2.8453387904    1.4357363651    0.3146035483
      9  C        -2.7278711780   -0.8733140387   -0.1385912797
     10  C        -1.4869926854    1.4939634722    0.2986449948
     11  N        -3.2129659697   -2.0866407663   -0.3996769313
     12  C        -1.3013462558   -0.8128327794   -0.1438441907
     13  C        -0.6377320648    0.4327476842    0.0792156577
     14  S        -1.9431313277   -3.0434438519   -0.6121855997
     15  N        -0.7377266462   -1.9925302649   -0.3996331238
     16  C         0.8112843494    0.5754526702    0.0454375778
     17  S         1.8771840326   -0.7730816683    0.0589422071
     18  C         1.5731059554    1.7415913769   -0.0199274974
     19  C         3.3087231007    0.1516409040    0.0140484131
     20  N         1.0862840277    3.0138226314   -0.0611043990
     21  C         2.9838477085    1.5018137408   -0.0414711519
     22  C         4.6214140684   -0.4557769419    0.0210864503
     23  C         1.9730789156    3.9594996054   -0.1147049207
     24  N         3.8844443058    2.5192197934   -0.0987383205
     25  C         5.7993896968    0.0811948094   -0.4214083148
     26  S         4.8792726368   -2.0533514884    0.6444108530
     27  C         3.3800776493    3.7142636508   -0.1328049626
     28  C         6.8993204650   -0.7957910719   -0.2696126336
     29  C         6.5522884708   -1.9869993729    0.2852987369
     30  H        -8.7393261328    0.1983472086    0.3170452726
     31  H        -7.6433991375    1.2121042203   -1.6872894793
     32  H        -7.2964917133   -0.6858868798    2.1383283165
     33  H        -5.1518420207    1.2718166649   -1.7701599663
     34  H        -1.0727326887    2.4766114325    0.4576412291
     35  H         1.6086572692    4.9803098988   -0.1423353493
     36  H         5.8576826498    1.0756941611   -0.8311066464
     37  H         4.0710194960    4.5484881466   -0.1810716430
     38  H         7.9059621098   -0.5473330919   -0.5698029442
     39  H         7.1904360687   -2.8245727331    0.5093752050
   Point Group: c1    Number of degrees of freedom:   111


   Energy is  -2291.191562973

              Constraints and their Current Values
                                        Value     Constraint
   Dihedral:        4   6   7   8       75.000       75.000
   Dihedral:       10  13  16  17      168.550      168.550
   Dihedral:       17  19  22  25      157.507      157.507
 Hessian Updated using BFGS Update

   Using Lagrange Multiplier Algorithm


110 Hessian modes will be used to form the next step
  Hessian Eigenvalues:
    -0.977687    0.038703    0.045000    0.045000    0.045000    0.045000
     0.045000    0.045000    0.045000    0.045000    0.045000    0.045000
     0.045001    0.045001    0.045001    0.045001    0.045001    0.045001
     0.045001    0.045001    0.045001    0.045002    0.045002    0.045002
     0.045002    0.045003    0.045004    0.045005    0.045006    0.045011
     0.045014    0.045022    0.045037    0.046024    0.157346    0.159979
     0.159987    0.159994    0.159997    0.159997    0.159999    0.159999
     0.160000    0.160959    0.206214    0.220466    0.221302    0.223862
     0.224368    0.234274    0.238010    0.243361    0.245662    0.249762
     0.249894    0.249960    0.249968    0.249972    0.249977    0.249990
     0.249990    0.249991    0.249993    0.249998    0.265951    0.312889
     0.327838    0.334406    0.339187    0.341755    0.354735    0.354761
     0.355707    0.358577    0.360043    0.360906    0.361043    0.362510
     0.363565    0.364075    0.368263    0.372953    0.375736    0.386733
     0.400257    0.407673    0.416207    0.419324    0.431481    0.441787
     0.459723    0.465865    0.470857    0.471976    0.482693    0.484224
     0.485065    0.487678    0.504768    0.517861    0.518159    0.522332
     0.558431    0.580326    0.585052    0.589209    0.634747    0.653472
     0.661844    1.022872

 Minimum Search - Taking P-RFO Step
 Searching for Lamda that Maximizes Along the Constraint modes Only
 Value Taken    Lamda =   0.00000013
 Searching for Lamda that Minimizes Along All other modes
 Value Taken    Lamda =  -0.00027129
 Step Taken.  Stepsize is  0.064608

                             Maximum     Tolerance    Cnvgd?
         Gradient            0.002421       0.000300      NO
         Displacement        0.023128       0.001200      NO
         Energy change     -0.001103       0.000001      NO


 New Cartesian Coordinates Obtained by Inverse Iteration

 Displacement from previous Coordinates is:  0.259990
 ----------------------------------------------------------------
             Standard Nuclear Orientation (Angstroms)
    I     Atom           X                Y                Z
 ----------------------------------------------------------------
    1      C      -7.6596416102     0.2243232487     0.2470773871
    2      C      -7.0679055138     0.7959168957    -0.8669499934
    3      C      -6.8392579442    -0.2700456863     1.2475573876
    4      C      -5.6871665310     0.8485537829    -0.9328478747
    5      N      -5.5116619005    -0.2332958852     1.1953325575
    6      C      -4.9568465022     0.3279259744     0.1265823123
    7      C      -3.4669884588     0.3445706318     0.0886129508
    8      N      -2.8402683966     1.4646510256     0.2915126763
    9      C      -2.7283606550    -0.8501513538    -0.1432553387
   10      C      -1.4785504622     1.5094501030     0.2793018872
   11      N      -3.2255576190    -2.0628423421    -0.3849172624
   12      C      -1.3029377721    -0.8033915662    -0.1498790512
   13      C      -0.6365038899     0.4422393652     0.0653243676
   14      S      -1.9620100812    -3.0332425694    -0.5865589990
   15      N      -0.7470756843    -1.9908379345    -0.3890684708
   16      C       0.8126427655     0.5794896436     0.0375083610
   17      S       1.8736547713    -0.7724825433     0.0582099430
   18      C       1.5768306236     1.7432810858    -0.0233266615
   19      C       3.3076405866     0.1496855244     0.0169350691
   20      N       1.0910656734     3.0160242610    -0.0664067690
   21      C       2.9865482816     1.5007449198    -0.0379848439
   22      C       4.6190336769    -0.4599394686     0.0255691812
   23      C       1.9790115954     3.9604014709    -0.1135510994
   24      N       3.8891439021     2.5171891865    -0.0889928802
   25      C       5.7978275976     0.0767452799    -0.4145614481
   26      S       4.8740567307    -2.0590560315     0.6465671746
   27      C       3.3862349534     3.7128121164    -0.1235692062
   28      C       6.8961720960    -0.8022713197    -0.2651974802
   29      C       6.5471660578    -1.9943927429     0.2861608905
   30      H      -8.7346186877     0.1619517540     0.3372263513
   31      H      -7.6704547821     1.1938150650    -1.6722472466
   32      H      -7.2661480589    -0.7186247024     2.1368237301
   33      H      -5.1818588556     1.2917891932    -1.7791431139
   34      H      -1.0562469681     2.4890643956     0.4367436704
   35      H       1.6154132986     4.9815591113    -0.1426108311
   36      H       5.8553604083     1.0714419277    -0.8241889374
   37      H       4.0785929911     4.5463867859    -0.1648066270
   38      H       7.9030587770    -0.5550296618    -0.5656443402
   39      H       7.1834515301    -2.8342116617     0.5074554347
 ----------------------------------------------------------------
 Molecular Point Group                 C1    NOp =  1
 Largest Abelian Subgroup              C1    NOp =  1
 Nuclear Repulsion Energy =  2929.9833877596 hartrees
 There are      110 alpha and      110 beta electrons
 Applying Cartesian multipole field
    Component          Value
    ---------          -----
     (2,0,0)        1.00000E-12
     (0,2,0)        2.00000E-11
     (0,0,2)       -3.00000E-11
 Nucleus-field energy     =     0.0000000605 hartrees
 Requested basis set is cc-pVTZ
 There are 356 shells and 1022 basis functions
 A cutoff of  1.0D-11 yielded  30928 shell pairs
 There are    244310 function pairs (    319000 Cartesian)
 Smallest overlap matrix eigenvalue = 2.55E-05
 Guess MOs from SCF MO coefficient file
 Reading MOs from coefficient file
 Reading MOs from coefficient file
 Long-range K will be added via erf
 Coulomb attenuation parameter = 0.2 bohr**(-1)
 A restricted hybrid HF-DFT SCF calculation will be
 performed using Pulay DIIS extrapolation
 Exchange:     0.2220 Hartree-Fock + 1.0000 wB97X-D + LR-HF
 Correlation:  1.0000 wB97X-D
 Using SG-1 standard quadrature grid
 Dispersion:   Grimme D
 SCF converges when DIIS error is below 1.0E-08
 Geometry optimization detected.  Setting ReadMinima to 0
 Setting SaveMinima to 0
 using 4 threads for integral computing 
 using 4 threads for integral computing 
 K construction time:  CPU 1135.52 s  wall 287.10 s
 -------------------------------------------------------
 OpenMP BLAS3 based DFT computing Module                
 Release: version 1.0, May 2013, Q-Chem Inc. Pittsburgh 
 -------------------------------------------------------
 ---------------------------------------
  Cycle       Energy         DIIS Error
 ---------------------------------------
    1   -2291.1867834145      1.71E-04
 K construction time:  CPU 1137.84 s  wall 286.43 s
    2   -2291.1916072945      1.97E-05
 K construction time:  CPU 800.69 s  wall 201.46 s
    3   -2291.1916490816      2.12E-05
 K construction time:  CPU 749.08 s  wall 188.40 s
    4   -2291.1916986283      6.19E-06
 K construction time:  CPU 709.13 s  wall 178.33 s
    5   -2291.1917036268      3.20E-06
 K construction time:  CPU 656.77 s  wall 165.11 s
    6   -2291.1917050694      9.41E-07
 K construction time:  CPU 595.10 s  wall 149.81 s
    7   -2291.1917052352      3.36E-07
 K construction time:  CPU 541.45 s  wall 135.97 s
    8   -2291.1917052602      1.63E-07
 K construction time:  CPU 502.58 s  wall 126.39 s
    9   -2291.1917052668      6.14E-08
 K construction time:  CPU 435.82 s  wall 109.34 s
   10   -2291.1917052686      3.53E-08
 K construction time:  CPU 401.14 s  wall 100.65 s
   11   -2291.1917052688      1.10E-08
 K construction time:  CPU 368.67 s  wall 92.64 s
   12   -2291.1917052693      6.70E-09 Convergence criterion met
 ---------------------------------------
 SCF time:  CPU 10747.33 s  wall 2717.10 s
 SCF   energy in the final basis set = -2291.1917052693
 Total energy in the final basis set = -2291.1917052693
 
 --------------------------------------------------------------
 
                    Orbital Energies (a.u.)
 --------------------------------------------------------------
 
 Alpha MOs
 -- Occupied --
-89.157 -89.107 -89.087 -14.487 -14.483 -14.463 -14.463 -14.446
-14.437 -10.357 -10.351 -10.350 -10.346 -10.344 -10.344 -10.342
-10.341 -10.338 -10.337 -10.335 -10.331 -10.326 -10.326 -10.320
-10.312 -10.302 -10.301 -10.295 -10.293  -8.161  -8.116  -8.097
 -6.111  -6.105  -6.105  -6.065  -6.061  -6.059  -6.046  -6.042
 -6.039  -1.146  -1.102  -1.069  -1.049  -1.030  -1.015  -1.005
 -0.987  -0.925  -0.913  -0.899  -0.879  -0.870  -0.855  -0.839
 -0.812  -0.777  -0.772  -0.746  -0.740  -0.733  -0.723  -0.712
 -0.673  -0.656  -0.649  -0.631  -0.629  -0.621  -0.607  -0.604
 -0.587  -0.585  -0.568  -0.564  -0.559  -0.548  -0.543  -0.527
 -0.513  -0.504  -0.501  -0.498  -0.494  -0.493  -0.486  -0.484
 -0.476  -0.467  -0.462  -0.461  -0.451  -0.443  -0.429  -0.428
 -0.422  -0.411  -0.396  -0.377  -0.370  -0.360  -0.358  -0.346
 -0.344  -0.341  -0.338  -0.334  -0.330  -0.266
 -- Virtual --
 -0.052  -0.024   0.028   0.034   0.042   0.051   0.061   0.072
  0.082   0.087   0.108   0.121   0.123   0.127   0.130   0.135
  0.149   0.150   0.154   0.164   0.169   0.171   0.182   0.188
  0.194   0.205   0.211   0.215   0.217   0.226   0.237   0.245
  0.257   0.265   0.267   0.275   0.279   0.289   0.293   0.296
  0.300   0.301   0.306   0.312   0.316   0.322   0.323   0.330
  0.333   0.337   0.340   0.344   0.351   0.354   0.356   0.360
  0.366   0.368   0.369   0.379   0.381   0.382   0.384   0.390
  0.393   0.395   0.399   0.401   0.403   0.406   0.408   0.411
  0.417   0.419   0.425   0.426   0.431   0.431   0.434   0.439
  0.443   0.447   0.450   0.455   0.458   0.458   0.459   0.464
  0.465   0.465   0.472   0.475   0.480   0.482   0.485   0.492
  0.493   0.496   0.501   0.504   0.510   0.516   0.518   0.522
  0.523   0.531   0.531   0.535   0.536   0.544   0.548   0.553
  0.559   0.563   0.566   0.567   0.586   0.591   0.597   0.601
  0.605   0.607   0.610   0.617   0.622   0.629   0.634   0.638
  0.641   0.645   0.650   0.653   0.656   0.664   0.669   0.672
  0.681   0.685   0.689   0.696   0.701   0.705   0.708   0.713
  0.717   0.722   0.731   0.736   0.738   0.747   0.752   0.757
  0.761   0.762   0.768   0.770   0.774   0.779   0.782   0.787
  0.794   0.797   0.800   0.801   0.811   0.814   0.817   0.821
  0.824   0.827   0.836   0.837   0.842   0.848   0.849   0.858
  0.862   0.865   0.868   0.874   0.875   0.888   0.896   0.900
  0.907   0.909   0.918   0.920   0.923   0.930   0.934   0.941
  0.942   0.951   0.953   0.959   0.961   0.962   0.970   0.973
  0.976   0.980   0.983   0.997   1.002   1.005   1.009   1.013
  1.017   1.025   1.030   1.038   1.050   1.052   1.059   1.060
  1.075   1.078   1.079   1.086   1.091   1.093   1.097   1.098
  1.105   1.111   1.118   1.126   1.131   1.138   1.141   1.147
  1.152   1.158   1.167   1.172   1.175   1.184   1.195   1.199
  1.203   1.208   1.219   1.227   1.231   1.236   1.241   1.250
  1.256   1.259   1.263   1.275   1.286   1.286   1.294   1.300
  1.313   1.318   1.322   1.335   1.341   1.345   1.350   1.355
  1.362   1.365   1.374   1.376   1.378   1.385   1.387   1.395
  1.399   1.405   1.412   1.419   1.423   1.429   1.439   1.443
  1.444   1.445   1.452   1.460   1.470   1.475   1.478   1.479
  1.489   1.494   1.502   1.512   1.519   1.524   1.527   1.540
  1.543   1.558   1.567   1.568   1.573   1.581   1.588   1.595
  1.603   1.607   1.614   1.623   1.627   1.639   1.642   1.646
  1.650   1.653   1.660   1.667   1.676   1.686   1.691   1.705
  1.709   1.714   1.718   1.728   1.732   1.740   1.749   1.757
  1.762   1.766   1.773   1.781   1.784   1.791   1.802   1.815
  1.825   1.831   1.844   1.853   1.870   1.880   1.884   1.889
  1.892   1.900   1.912   1.920   1.921   1.926   1.929   1.950
  1.954   1.958   1.967   1.973   1.980   1.990   1.996   2.006
  2.011   2.017   2.031   2.038   2.042   2.051   2.060   2.063
  2.068   2.087   2.094   2.099   2.107   2.114   2.127   2.132
  2.134   2.149   2.166   2.173   2.179   2.184   2.189   2.197
  2.204   2.207   2.216   2.219   2.234   2.238   2.246   2.251
  2.260   2.272   2.287   2.290   2.292   2.298   2.302   2.313
  2.316   2.319   2.330   2.337   2.343   2.346   2.357   2.372
  2.380   2.392   2.397   2.402   2.407   2.415   2.425   2.432
  2.439   2.441   2.450   2.457   2.463   2.470   2.471   2.481
  2.484   2.494   2.502   2.510   2.514   2.515   2.524   2.533
  2.537   2.541   2.550   2.560   2.578   2.588   2.593   2.601
  2.611   2.620   2.626   2.633   2.638   2.647   2.649   2.662
  2.667   2.671   2.674   2.681   2.688   2.690   2.700   2.712
  2.721   2.733   2.742   2.754   2.759   2.763   2.775   2.779
  2.782   2.789   2.793   2.797   2.805   2.810   2.819   2.825
  2.834   2.844   2.845   2.848   2.855   2.863   2.866   2.879
  2.883   2.890   2.895   2.904   2.915   2.918   2.924   2.935
  2.941   2.945   2.946   2.952   2.960   2.965   2.971   2.978
  2.989   2.992   2.998   3.006   3.008   3.012   3.017   3.022
  3.024   3.029   3.034   3.037   3.042   3.049   3.057   3.060
  3.064   3.071   3.075   3.079   3.079   3.083   3.091   3.096
  3.100   3.104   3.110   3.113   3.119   3.122   3.131   3.136
  3.137   3.143   3.148   3.154   3.157   3.158   3.160   3.168
  3.173   3.176   3.182   3.187   3.189   3.194   3.196   3.205
  3.208   3.211   3.217   3.219   3.224   3.226   3.235   3.238
  3.245   3.247   3.248   3.261   3.267   3.269   3.271   3.276
  3.282   3.285   3.289   3.293   3.298   3.300   3.302   3.308
  3.313   3.316   3.322   3.324   3.330   3.335   3.342   3.347
  3.350   3.359   3.367   3.371   3.379   3.381   3.388   3.394
  3.402   3.406   3.410   3.414   3.420   3.424   3.426   3.432
  3.435   3.448   3.453   3.458   3.458   3.462   3.466   3.472
  3.479   3.482   3.491   3.495   3.502   3.503   3.508   3.518
  3.520   3.535   3.545   3.553   3.561   3.563   3.571   3.579
  3.583   3.593   3.609   3.620   3.627   3.633   3.639   3.647
  3.657   3.667   3.672   3.678   3.695   3.698   3.705   3.713
  3.717   3.726   3.729   3.735   3.741   3.743   3.754   3.754
  3.761   3.771   3.784   3.792   3.797   3.802   3.807   3.817
  3.823   3.829   3.836   3.844   3.851   3.870   3.871   3.884
  3.891   3.895   3.899   3.909   3.915   3.924   3.926   3.931
  3.934   3.936   3.942   3.943   3.948   3.953   3.958   3.965
  3.969   3.979   3.984   4.008   4.018   4.025   4.028   4.034
  4.046   4.056   4.065   4.079   4.085   4.096   4.098   4.112
  4.118   4.129   4.141   4.145   4.149   4.159   4.167   4.170
  4.180   4.188   4.197   4.205   4.211   4.214   4.215   4.220
  4.228   4.232   4.241   4.245   4.248   4.257   4.266   4.277
  4.288   4.293   4.301   4.309   4.315   4.325   4.336   4.342
  4.348   4.354   4.358   4.364   4.373   4.377   4.388   4.392
  4.401   4.406   4.425   4.429   4.431   4.441   4.447   4.449
  4.460   4.479   4.492   4.497   4.506   4.515   4.523   4.532
  4.537   4.549   4.555   4.566   4.584   4.588   4.602   4.620
  4.631   4.640   4.644   4.657   4.664   4.678   4.683   4.698
  4.709   4.724   4.741   4.743   4.752   4.757   4.773   4.785
  4.786   4.802   4.807   4.816   4.830   4.844   4.853   4.867
  4.875   4.886   4.887   4.903   4.905   4.915   4.920   4.930
  4.936   4.941   4.958   4.960   4.970   4.971   4.977   4.993
  4.999   5.001   5.008   5.017   5.030   5.037   5.039   5.057
  5.072   5.080   5.088   5.100   5.106   5.112   5.127   5.130
  5.132   5.137   5.144   5.147   5.155   5.165   5.178   5.191
  5.205   5.222   5.234   5.246   5.260   5.299   5.304   5.314
  5.321   5.333   5.347   5.376   5.382   5.392   5.413   5.422
  5.432   5.450   5.480   5.489   5.496   5.508   5.535   5.541
  5.548   5.574   5.577   5.591   5.596   5.613   5.626   5.645
  5.688   5.693   5.719   5.724   5.735   5.746   5.754   5.768
  5.795   5.831   5.836   5.839   5.877   5.895   5.905   5.922
  5.944   5.969   6.021   6.038   6.097   6.133   6.165   6.173
  6.176   6.232   6.249   6.271   6.319   6.349   6.381   6.415
  6.432   6.446   6.639   6.882   6.988   7.005   8.036   8.898
  9.546  10.152  10.651  11.185  11.242  11.725  11.997  12.189
 12.452  12.548  12.746  12.841  12.855  12.937  13.074  13.161
 13.220  13.393  13.557  14.171  14.394  14.633  15.040  15.096
 --------------------------------------------------------------
 
          Ground-State Mulliken Net Atomic Charges

     Atom                 Charge (a.u.)
  ----------------------------------------
      1 C                    -0.091558
      2 C                    -0.127662
      3 C                    -0.078155
      4 C                    -0.125625
      5 N                    -0.173477
      6 C                     0.140123
      7 C                     0.087943
      8 N                    -0.165214
      9 C                     0.000121
     10 C                    -0.084505
     11 N                    -0.246994
     12 C                     0.043442
     13 C                     0.053977
     14 S                     0.407590
     15 N                    -0.304445
     16 C                    -0.074184
     17 S                     0.175998
     18 C                     0.061714
     19 C                    -0.055382
     20 N                    -0.169810
     21 C                     0.063280
     22 C                    -0.011835
     23 C                    -0.042285
     24 N                    -0.161247
     25 C                    -0.137697
     26 S                     0.103517
     27 C                    -0.046016
     28 C                    -0.158903
     29 C                    -0.182574
     30 H                     0.131121
     31 H                     0.121447
     32 H                     0.118497
     33 H                     0.132454
     34 H                     0.139967
     35 H                     0.125265
     36 H                     0.133790
     37 H                     0.129037
     38 H                     0.131652
     39 H                     0.136635
  ----------------------------------------
  Sum of atomic charges =     0.000000

 -----------------------------------------------------------------
                    Cartesian Multipole Moments
 -----------------------------------------------------------------
    Charge (ESU x 10^10)
                 0.0000
    Dipole Moment (Debye)
         X       0.2881      Y       0.6098      Z      -1.9018
       Tot       2.0178
    Quadrupole Moments (Debye-Ang)
        XX    -150.3004     XY       1.9182     YY    -168.4304
        XZ       5.9689     YZ      -3.8249     ZZ    -184.2932
    Octopole Moments (Debye-Ang^2)
       XXX    -115.4557    XXY     -13.1247    XYY      69.0697
       YYY      20.5290    XXZ     -43.4520    XYZ       3.8146
       YYZ      -4.4455    XZZ     -22.9993    YZZ      -5.2621
       ZZZ      -6.6045
    Hexadecapole Moments (Debye-Ang^3)
      XXXX  -15839.0429   XXXY    -459.8859   XXYY   -3688.6589
      XYYY     210.9521   YYYY   -3261.0589   XXXZ     -12.0835
      XXYZ    -194.7605   XYYZ      37.2468   YYYZ       4.7659
      XXZZ   -3295.4185   XYZZ      -3.2865   YYZZ    -714.6318
      XZZZ       5.8480   YZZZ      12.1696   ZZZZ    -484.0632
 -----------------------------------------------------------------
 Calculating analytic gradient of the SCF energy
 K construction time:  CPU 2281.67 s  wall 572.69 s
 Gradient of SCF Energy
            1           2           3           4           5           6
    1   0.0004140  -0.0003509  -0.0008635   0.0005176   0.0009556  -0.0009601
    2  -0.0000292   0.0000372   0.0000064  -0.0022405   0.0005147   0.0022470
    3   0.0002881  -0.0000563  -0.0000233  -0.0012735  -0.0003701   0.0028442
            7           8           9          10          11          12
    1   0.0007174   0.0005931  -0.0006151  -0.0009815   0.0000912   0.0000553
    2  -0.0013030  -0.0001410   0.0009128   0.0000415   0.0000988   0.0003233
    3  -0.0038013   0.0027159  -0.0002939  -0.0000643   0.0000704   0.0002665
           13          14          15          16          17          18
    1   0.0006585  -0.0000703   0.0001566  -0.0000820   0.0000896  -0.0000713
    2  -0.0004874   0.0005787  -0.0004629  -0.0001955  -0.0000037   0.0002073
    3  -0.0000777  -0.0000003  -0.0002134   0.0001024   0.0001882  -0.0001693
           19          20          21          22          23          24
    1  -0.0000583  -0.0002988   0.0000183  -0.0000484   0.0000447  -0.0000346
    2  -0.0001235  -0.0002481   0.0002402  -0.0000989  -0.0000651  -0.0002754
    3  -0.0002433   0.0000834   0.0001278  -0.0001313   0.0000263  -0.0000096
           25          26          27          28          29          30
    1   0.0000109   0.0000297  -0.0001485  -0.0000330  -0.0001087  -0.0000196
    2  -0.0000689  -0.0000032   0.0000800  -0.0000032   0.0000399  -0.0001809
    3   0.0000709   0.0000729   0.0000097   0.0000642   0.0000275  -0.0000694
           31          32          33          34          35          36
    1   0.0000837   0.0000120   0.0000181   0.0002566  -0.0000239   0.0000088
    2   0.0001717  -0.0000130   0.0000887   0.0001911  -0.0000047   0.0000963
    3  -0.0000165  -0.0000388  -0.0000775  -0.0000627   0.0000401   0.0000727
           37          38          39
    1   0.0000289   0.0000064   0.0000017
    2   0.0000194   0.0000248   0.0000282
    3  -0.0000574  -0.0000120  -0.0000094
 Max gradient component =       3.801E-03
 RMS gradient           =       6.697E-04
 Gradient time:  CPU 2729.42 s  wall 685.71 s
 Geometry Optimization Parameters
   NAtoms,    NIC,     NZ,  NCons,   NDum,   NFix, NCnnct, MaxDiis
       39     293       0       3       0       0       0       0

 Cartesian Hessian Update
 Hessian Updated using BFGS Update


** CONSTRAINED OPTIMIZATION IN DELOCALIZED INTERNAL COORDINATES **
   Searching for a Minimum

   Optimization Cycle:   3

                       Coordinates (Angstroms)
     ATOM                X               Y               Z
      1  C        -7.6596416102    0.2243232487    0.2470773871
      2  C        -7.0679055138    0.7959168957   -0.8669499934
      3  C        -6.8392579442   -0.2700456863    1.2475573876
      4  C        -5.6871665310    0.8485537829   -0.9328478747
      5  N        -5.5116619005   -0.2332958852    1.1953325575
      6  C        -4.9568465022    0.3279259744    0.1265823123
      7  C        -3.4669884588    0.3445706318    0.0886129508
      8  N        -2.8402683966    1.4646510256    0.2915126763
      9  C        -2.7283606550   -0.8501513538   -0.1432553387
     10  C        -1.4785504622    1.5094501030    0.2793018872
     11  N        -3.2255576190   -2.0628423421   -0.3849172624
     12  C        -1.3029377721   -0.8033915662   -0.1498790512
     13  C        -0.6365038899    0.4422393652    0.0653243676
     14  S        -1.9620100812   -3.0332425694   -0.5865589990
     15  N        -0.7470756843   -1.9908379345   -0.3890684708
     16  C         0.8126427655    0.5794896436    0.0375083610
     17  S         1.8736547713   -0.7724825433    0.0582099430
     18  C         1.5768306236    1.7432810858   -0.0233266615
     19  C         3.3076405866    0.1496855244    0.0169350691
     20  N         1.0910656734    3.0160242610   -0.0664067690
[...]


   Energy is  -2291.191764016

              Constraints and their Current Values
                                        Value     Constraint
   Dihedral:        4   6   7   8       75.000       75.000
   Dihedral:       10  13  16  17      168.550      168.550
   Dihedral:       17  19  22  25      157.507      157.507
 Hessian Updated using BFGS Update

106 Hessian modes will be used to form the next step
  Hessian Eigenvalues:
     0.004373    0.020156    0.033754    0.044839    0.045000    0.045000
     0.045000    0.045000    0.045000    0.045000    0.045001    0.045001
     0.045001    0.045001    0.045001    0.045001    0.045002    0.045002
     0.045003    0.045003    0.045005    0.045007    0.045010    0.045015
     0.045021    0.045024    0.045100    0.045295    0.045354    0.045808
     0.048228    0.158528    0.159584    0.159886    0.159952    0.159999
     0.160007    0.160146    0.160245    0.160646    0.160744    0.212924
     0.220979    0.221765    0.223797    0.224040    0.232919    0.238638
     0.240210    0.244093    0.247178    0.248241    0.249609    0.249861
     0.249968    0.249986    0.250220    0.250468    0.253800    0.285445
     0.312925    0.325480    0.330697    0.334135    0.340547    0.344567
     0.354720    0.354739    0.355738    0.358588    0.359980    0.360760
     0.361035    0.361738    0.363585    0.364332    0.371238    0.377860
     0.387709    0.390031    0.400502    0.407250    0.414399    0.421893
     0.432125    0.432877    0.456892    0.460253    0.467691    0.473064
     0.477131    0.481382    0.484327    0.491405    0.503940    0.508920
     0.518058    0.518407    0.566038    0.579066    0.588171    0.610731
     0.628972    0.650988    0.662031    0.666782

 Minimum Search - Taking Simple RFO Step
 Searching for Lamda that Minimizes Along All modes
 Value Taken    Lamda =   0.00000000
 Step Taken.  Stepsize is  0.002750

                             Maximum     Tolerance    Cnvgd?
         Gradient           0.000060      0.000300     YES
         Displacement       0.001147      0.001200     YES
         Energy change     -0.000001      0.000001      NO

 Final energy is   -2291.19176401605     


 ******************************
 **  OPTIMIZATION CONVERGED  **
 ******************************

                       Coordinates (Angstroms)
     ATOM                X               Y               Z
      1  C        -7.6526636788    0.1905656593    0.3310852205
      2  C        -7.1109942041    0.7424961362   -0.8168237027
      3  C        -6.7862265867   -0.2684310115    1.3104735944
      4  C        -5.7347874809    0.8173519601   -0.9344884983
      5  N        -5.4634315394   -0.2157561386    1.2062971108
      6  C        -4.9553560477    0.3310548929    0.1054238639
      7  C        -3.4683409368    0.3625959681    0.0204517519
      8  N        -2.8459680036    1.4914918068    0.1789084639
      9  C        -2.7251577323   -0.8345873033   -0.1951854768
     10  C        -1.4835458884    1.5438396923    0.1519758666
     11  N        -3.2176349790   -2.0562058375   -0.3967694955
     12  C        -1.3006039056   -0.7781378047   -0.2245189501
     13  C        -0.6383603594    0.4761086506   -0.0416264651
     14  S        -1.9503287825   -3.0240603561   -0.5922865702
     15  N        -0.7404788790   -1.9674755415   -0.4397107455
     16  C         0.8121577557    0.6100056081   -0.0510780730
     17  S         1.8635456573   -0.7496935347   -0.0050075565
     18  C         1.5867453815    1.7686049846   -0.0660261262
     19  C         3.3044236485    0.1622714967    0.0156241962
     20  N         1.1123698910    3.0460459147   -0.1058523803
     21  C         2.9946630903    1.5160313329   -0.0315043942
     22  C         4.6092751017   -0.4608351548    0.0463771232
     23  C         2.0079446024    3.9844961016   -0.1030318497
     24  N         3.9056712269    2.5266245886   -0.0311912201
     25  C         5.8065702303    0.0715198877   -0.3470971460
     26  S         4.8236664257   -2.0860941546    0.6126010889
     27  C         3.4127938259    3.7263903238   -0.0625146316
     28  C         6.8869811009   -0.8307182127   -0.2042545037
     29  C         6.5057800971   -2.0359270177    0.2949217201
     30  H        -8.7224665982    0.1163120189    0.4642568010
     31  H        -7.7522041679    1.1049602227   -1.6089105797
     32  H        -7.1744797627   -0.7022460476    2.2244591324
     33  H        -5.2687703782    1.2475578258   -1.8093003787
     34  H        -1.0658228607    2.5293017992    0.2812949099
     35  H         1.6523480410    5.0085561549   -0.1286867903
     36  H         5.8864241173    1.0761369208   -0.7279352111
     37  H         4.1118685871    4.5553260626   -0.0559121213
     38  H         7.9049983339   -0.5910892820   -0.4714410096
     39  H         7.1222416011   -2.8941913343    0.5017958900

Z-matrix Print:
$molecule
0 1
S 
C  1 1.705355
C  2 1.389546 1 109.404360
N  3 1.360601 2 125.054687 1 179.960113 0
C  4 1.297439 3 115.624861 2 179.156838 0
H  5 1.084382 4 117.505554 3 -179.564364 0
C  5 1.428937 4 122.765062 3 0.363772 0
H  7 1.084346 5 119.581738 4 179.962840 0
N  7 1.297209 5 123.239264 4 -0.316515 0
C  9 1.363258 7 115.950790 5 -0.061435 0
C  10 1.393758 9 125.864787 7 -179.498419 0
C  2 1.446321 1 122.150059 3 178.698110 0
C  12 1.368115 2 128.009093 1 -157.506521 0
H  13 1.077344 12 121.963676 2 -0.900245 0
C  13 1.414823 12 113.023777 2 178.773390 0
H  15 1.079430 13 123.616557 12 -179.446848 0
C  15 1.359051 13 112.855403 12 0.039214 0
H  17 1.076773 15 128.084837 13 179.907311 0
C  11 1.456716 10 129.040409 9 1.601808 0
C  19 1.375453 11 122.780636 10 9.884806 0
H  20 1.078124 19 119.232768 11 -1.406644 0
N  20 1.363693 19 125.936364 11 179.692711 0
C  22 1.298793 20 120.644022 19 -0.349341 0
C  23 1.425506 22 119.907443 20 0.527952 0
N  24 1.332487 23 126.880764 22 178.727930 0
C  24 1.425974 23 119.386170 22 -0.455477 0
N  26 1.332131 24 112.832234 23 179.733423 0
C  23 1.489775 22 119.324105 20 -177.749756 0
N  28 1.330062 23 115.925295 22 106.697179 0
C  29 1.327936 28 117.500382 23 179.551034 0
H  30 1.083654 29 116.036339 28 178.938225 0
C  30 1.385855 29 123.655747 28 -1.179514 0
H  32 1.080614 30 120.603600 29 -179.520235 0
C  32 1.384098 30 118.262143 29 0.413120 0
H  34 1.081634 32 120.595335 30 -179.484150 0
C  34 1.383255 32 118.782462 30 0.274951 0
H  36 1.080530 34 121.298908 32 179.503946 0
S  25 1.606560 24 106.211171 23 -179.584399 0
S  17 1.712584 15 111.691573 13 0.510695 0
$end

 
 --------------------------------------------------------------
 
                    Orbital Energies (a.u.)
 --------------------------------------------------------------
 
 Alpha MOs
 -- Occupied --
-89.156 -89.107 -89.087 -14.487 -14.483 -14.463 -14.462 -14.446
-14.437 -10.357 -10.351 -10.350 -10.346 -10.344 -10.344 -10.342
-10.341 -10.338 -10.337 -10.335 -10.332 -10.326 -10.326 -10.320
-10.312 -10.302 -10.301 -10.296 -10.293  -8.161  -8.116  -8.097
 -6.111  -6.105  -6.104  -6.064  -6.061  -6.059  -6.046  -6.042
 -6.039  -1.146  -1.101  -1.069  -1.049  -1.030  -1.015  -1.005
 -0.986  -0.925  -0.913  -0.899  -0.879  -0.869  -0.854  -0.838
 -0.812  -0.777  -0.772  -0.746  -0.740  -0.733  -0.723  -0.711
 -0.673  -0.656  -0.649  -0.631  -0.629  -0.621  -0.607  -0.604
 -0.587  -0.585  -0.568  -0.564  -0.559  -0.548  -0.543  -0.527
 -0.513  -0.504  -0.501  -0.498  -0.494  -0.492  -0.486  -0.484
 -0.476  -0.466  -0.463  -0.461  -0.451  -0.443  -0.429  -0.427
 -0.421  -0.411  -0.395  -0.377  -0.370  -0.360  -0.358  -0.346
 -0.344  -0.341  -0.338  -0.334  -0.330  -0.266
 -- Virtual --
 -0.052  -0.024   0.028   0.034   0.042   0.051   0.061   0.072
  0.082   0.087   0.109   0.120   0.124   0.127   0.130   0.135
  0.149   0.150   0.155   0.164   0.169   0.171   0.183   0.188
  0.194   0.206   0.211   0.214   0.217   0.226   0.237   0.245
  0.257   0.265   0.268   0.275   0.279   0.289   0.293   0.296
  0.300   0.302   0.306   0.312   0.317   0.322   0.323   0.331
  0.333   0.337   0.341   0.344   0.351   0.354   0.357   0.361
  0.366   0.369   0.370   0.379   0.381   0.382   0.386   0.390
  0.392   0.395   0.399   0.400   0.403   0.405   0.408   0.411
  0.417   0.419   0.425   0.426   0.431   0.432   0.433   0.439
  0.442   0.447   0.450   0.455   0.458   0.459   0.459   0.464
  0.465   0.466   0.472   0.475   0.480   0.483   0.484   0.492
  0.493   0.497   0.501   0.504   0.510   0.516   0.519   0.522
  0.524   0.531   0.531   0.535   0.536   0.543   0.550   0.553
  0.559   0.563   0.565   0.568   0.586   0.591   0.597   0.601
  0.606   0.607   0.611   0.617   0.621   0.629   0.634   0.638
  0.642   0.645   0.651   0.654   0.658   0.664   0.670   0.672
  0.681   0.686   0.689   0.697   0.702   0.707   0.710   0.713
  0.718   0.724   0.731   0.735   0.737   0.749   0.752   0.756
  0.760   0.762   0.768   0.771   0.775   0.780   0.782   0.788
  0.795   0.796   0.801   0.802   0.811   0.814   0.817   0.822
  0.824   0.827   0.836   0.838   0.842   0.847   0.849   0.857
  0.862   0.865   0.868   0.874   0.876   0.888   0.898   0.901
  0.905   0.908   0.916   0.920   0.923   0.929   0.933   0.941
  0.943   0.951   0.953   0.958   0.961   0.964   0.971   0.973
  0.977   0.980   0.985   0.997   1.001   1.005   1.008   1.014
  1.018   1.025   1.032   1.038   1.049   1.054   1.060   1.060
  1.074   1.078   1.081   1.086   1.091   1.093   1.097   1.099
  1.107   1.111   1.116   1.126   1.130   1.139   1.141   1.146
  1.153   1.157   1.167   1.172   1.175   1.184   1.195   1.200
  1.203   1.209   1.220   1.228   1.232   1.237   1.243   1.251
  1.256   1.260   1.265   1.277   1.286   1.290   1.294   1.300
  1.313   1.318   1.322   1.335   1.341   1.344   1.350   1.357
  1.361   1.363   1.374   1.377   1.379   1.384   1.388   1.396
  1.399   1.405   1.411   1.419   1.423   1.428   1.440   1.444
  1.445   1.445   1.453   1.460   1.470   1.475   1.478   1.478
  1.490   1.495   1.502   1.512   1.519   1.523   1.526   1.538
  1.542   1.558   1.568   1.569   1.573   1.582   1.588   1.596
  1.602   1.607   1.617   1.623   1.627   1.639   1.641   1.647
  1.652   1.654   1.661   1.666   1.675   1.687   1.691   1.705
  1.709   1.714   1.718   1.730   1.733   1.739   1.750   1.757
  1.761   1.767   1.772   1.783   1.787   1.792   1.807   1.814
  1.825   1.831   1.844   1.853   1.869   1.880   1.885   1.888
  1.892   1.900   1.913   1.920   1.921   1.926   1.931   1.949
  1.954   1.961   1.968   1.974   1.980   1.990   1.996   2.007
  2.008   2.015   2.032   2.039   2.042   2.052   2.060   2.063
  2.069   2.087   2.094   2.100   2.106   2.114   2.128   2.132
  2.135   2.150   2.166   2.172   2.181   2.184   2.188   2.196
  2.204   2.206   2.216   2.221   2.233   2.240   2.247   2.251
  2.260   2.272   2.286   2.292   2.293   2.298   2.303   2.312
  2.317   2.320   2.331   2.337   2.342   2.346   2.356   2.372
  2.379   2.392   2.398   2.402   2.406   2.416   2.426   2.433
  2.438   2.441   2.451   2.456   2.462   2.472   2.472   2.480
  2.485   2.494   2.503   2.511   2.514   2.517   2.524   2.532
  2.537   2.541   2.553   2.560   2.576   2.589   2.591   2.600
  2.611   2.620   2.626   2.632   2.638   2.646   2.650   2.661
  2.668   2.672   2.676   2.682   2.688   2.689   2.700   2.713
  2.720   2.732   2.742   2.752   2.759   2.764   2.775   2.779
  2.783   2.789   2.792   2.796   2.805   2.813   2.819   2.829
  2.834   2.844   2.846   2.849   2.856   2.863   2.866   2.880
  2.883   2.891   2.895   2.903   2.914   2.920   2.925   2.935
  2.941   2.944   2.946   2.953   2.959   2.963   2.972   2.977
  2.989   2.992   2.999   3.004   3.008   3.010   3.016   3.021
  3.022   3.029   3.033   3.038   3.042   3.049   3.058   3.059
  3.064   3.071   3.075   3.077   3.079   3.084   3.090   3.097
  3.100   3.103   3.109   3.113   3.121   3.122   3.131   3.136
  3.137   3.143   3.147   3.153   3.157   3.158   3.159   3.167
  3.173   3.175   3.181   3.187   3.191   3.193   3.196   3.205
  3.209   3.211   3.217   3.219   3.225   3.225   3.235   3.238
  3.245   3.246   3.248   3.261   3.268   3.269   3.271   3.277
  3.282   3.284   3.288   3.292   3.297   3.300   3.303   3.309
  3.314   3.317   3.323   3.324   3.331   3.335   3.341   3.348
  3.350   3.359   3.367   3.370   3.377   3.380   3.389   3.393
  3.401   3.405   3.410   3.413   3.420   3.424   3.427   3.431
  3.434   3.446   3.453   3.457   3.460   3.462   3.465   3.473
  3.479   3.483   3.491   3.495   3.502   3.504   3.507   3.517
  3.519   3.535   3.544   3.552   3.561   3.564   3.570   3.580
  3.583   3.592   3.610   3.622   3.627   3.635   3.639   3.647
  3.658   3.666   3.672   3.677   3.694   3.699   3.705   3.714
  3.717   3.726   3.729   3.734   3.741   3.743   3.753   3.754
  3.760   3.773   3.784   3.791   3.798   3.803   3.806   3.817
  3.823   3.829   3.837   3.844   3.850   3.870   3.871   3.882
  3.892   3.896   3.900   3.910   3.914   3.923   3.926   3.932
  3.934   3.936   3.940   3.943   3.949   3.953   3.959   3.965
  3.970   3.977   3.984   4.010   4.017   4.024   4.028   4.034
  4.046   4.056   4.065   4.080   4.085   4.093   4.097   4.112
  4.121   4.131   4.138   4.146   4.150   4.159   4.166   4.172
  4.179   4.189   4.195   4.205   4.209   4.213   4.215   4.220
  4.227   4.229   4.241   4.244   4.248   4.257   4.268   4.276
  4.288   4.291   4.303   4.309   4.315   4.325   4.336   4.342
  4.347   4.354   4.358   4.365   4.371   4.378   4.387   4.393
  4.400   4.407   4.424   4.430   4.432   4.442   4.446   4.449
  4.460   4.480   4.491   4.495   4.507   4.516   4.523   4.534
  4.539   4.548   4.555   4.566   4.586   4.588   4.601   4.621
  4.630   4.640   4.645   4.656   4.664   4.678   4.683   4.696
  4.709   4.725   4.742   4.745   4.752   4.756   4.773   4.785
  4.786   4.802   4.806   4.817   4.830   4.845   4.854   4.868
  4.876   4.887   4.888   4.902   4.907   4.914   4.920   4.930
  4.937   4.941   4.957   4.960   4.970   4.972   4.978   4.992
  4.998   5.001   5.008   5.017   5.030   5.038   5.040   5.057
  5.072   5.080   5.088   5.100   5.107   5.115   5.127   5.130
  5.132   5.138   5.145   5.148   5.155   5.165   5.178   5.191
  5.205   5.224   5.233   5.248   5.260   5.300   5.304   5.315
  5.321   5.333   5.347   5.375   5.381   5.391   5.414   5.423
  5.433   5.450   5.480   5.490   5.495   5.507   5.534   5.542
  5.548   5.574   5.577   5.591   5.598   5.614   5.626   5.644
  5.688   5.693   5.718   5.724   5.734   5.747   5.753   5.768
  5.796   5.831   5.836   5.841   5.877   5.895   5.907   5.923
  5.946   5.970   6.024   6.037   6.097   6.133   6.165   6.173
  6.179   6.234   6.251   6.272   6.321   6.351   6.382   6.414
  6.431   6.445   6.641   6.882   6.988   7.005   8.040   8.898
  9.545  10.155  10.651  11.185  11.239  11.717  12.001  12.193
 12.453  12.547  12.741  12.837  12.855  12.934  13.072  13.167
 13.229  13.389  13.562  14.184  14.408  14.634  15.043  15.107
 --------------------------------------------------------------
 
          Ground-State Mulliken Net Atomic Charges

     Atom                 Charge (a.u.)
  ----------------------------------------
      1 C                    -0.093711
      2 C                    -0.126076
      3 C                    -0.078026
      4 C                    -0.124234
      5 N                    -0.173976
      6 C                     0.142486
      7 C                     0.086446
      8 N                    -0.165155
      9 C                    -0.002224
     10 C                    -0.084717
     11 N                    -0.246601
     12 C                     0.046322
     13 C                     0.055040
     14 S                     0.406855
     15 N                    -0.304738
     16 C                    -0.074116
     17 S                     0.173875
     18 C                     0.061812
     19 C                    -0.056355
     20 N                    -0.169547
     21 C                     0.063032
     22 C                    -0.009883
     23 C                    -0.042042
     24 N                    -0.161329
     25 C                    -0.138043
     26 S                     0.102683
     27 C                    -0.045467
     28 C                    -0.160413
     29 C                    -0.182298
     30 H                     0.132405
     31 H                     0.120819
     32 H                     0.117956
     33 H                     0.130640
     34 H                     0.139484
     35 H                     0.125246
     36 H                     0.135384
     37 H                     0.129044
     38 H                     0.132249
     39 H                     0.137171
  ----------------------------------------
  Sum of atomic charges =     0.000000

 -----------------------------------------------------------------
                    Cartesian Multipole Moments
 -----------------------------------------------------------------
    Charge (ESU x 10^10)
                 0.0000
    Dipole Moment (Debye)
         X       0.2267      Y       0.5191      Z      -1.7594
       Tot       1.8483
    Quadrupole Moments (Debye-Ang)
        XX    -149.5668     XY       2.3340     YY    -168.3682
        XZ       5.5383     YZ      -3.3695     ZZ    -184.2990
    Octopole Moments (Debye-Ang^2)
       XXX    -120.3191    XXY     -15.3127    XYY      72.4754
       YYY      17.2116    XXZ     -36.1100    XYZ       4.0383
       YYZ       0.1211    XZZ     -25.5463    YZZ      -6.5652
       ZZZ       1.9851
    Hexadecapole Moments (Debye-Ang^3)
      XXXX  -15763.0083   XXXY    -448.9651   XXYY   -3682.3318
      XYYY     203.5518   YYYY   -3281.4577   XXXZ     -33.4766
      XXYZ    -185.3029   XYYZ      34.7795   YYYZ       6.6663
      XXZZ   -3281.7277   XYZZ      -3.6815   YYZZ    -721.4923
      XZZZ      -7.0404   YZZZ       7.2679   ZZZZ    -480.2124
 -----------------------------------------------------------------
Archival summary:
1\1\chiqspirix\OPT\ProcedureUnspecified\BasisUnspecified\362010\Andres\WedJun721:20:182017WedJun721:20:182017\0\\#,OPT,ProcedureUnspecified,BasisUnspecified,\\0,1\S\C,1,1.70535\C,2,1.38955,1,109.404\N,3,1.3606,2,125.055,1,179.96,0\C,4,1.29744,3,115.625,2,179.157,0\H,5,1.08438,4,117.506,3,-179.564,0\C,5,1.42894,4,122.765,3,0.363772,0\H,7,1.08435,5,119.582,4,179.963,0\N,7,1.29721,5,123.239,4,-0.316515,0\C,9,1.36326,7,115.951,5,-0.0614348,0\C,10,1.39376,9,125.865,7,-179.498,0\C,2,1.44632,1,122.15,3,178.698,0\C,12,1.36812,2,128.009,1,-157.507,0\H,13,1.07734,12,121.964,2,-0.900245,0\C,13,1.41482,12,113.024,2,178.773,0\H,15,1.07943,13,123.617,12,-179.447,0\C,15,1.35905,13,112.855,12,0.0392139,0\H,17,1.07677,15,128.085,13,179.907,0\C,11,1.45672,10,129.04,9,1.60181,0\C,19,1.37545,11,122.781,10,9.88481,0\H,20,1.07812,19,119.233,11,-1.40664,0\N,20,1.36369,19,125.936,11,179.693,0\C,22,1.29879,20,120.644,19,-0.349341,0\C,23,1.42551,22,119.907,20,0.527952,0\N,24,1.33249,23,126.881,22,178.728,0\C,24,1.42597,23,119.386,22,-0.455477,0\N,26,1.33213,24,112.832,23,179.733,0\C,23,1.48977,22,119.324,20,-177.75,0\N,28,1.33006,23,115.925,22,106.697,0\C,29,1.32794,28,117.5,23,179.551,0\H,30,1.08365,29,116.036,28,178.938,0\C,30,1.38585,29,123.656,28,-1.17951,0\H,32,1.08061,30,120.604,29,-179.52,0\C,32,1.3841,30,118.262,29,0.41312,0\H,34,1.08163,32,120.595,30,-179.484,0\C,34,1.38325,32,118.782,30,0.274951,0\H,36,1.08053,34,121.299,32,179.504,0\S,25,1.60656,24,106.211,23,-179.584,0\S,17,1.71258,15,111.692,13,0.510695,0\\\@

 Total job time:  35115.91s(wall), 139091.94s(cpu) 
 Wed Jun  7 21:20:18 2017

        *************************************************************
        *                                                           *
        *  Thank you very much for using Q-Chem.  Have a nice day.  *
        *                                                           *
        *************************************************************


0 sent ACK to 0 
now end server 0 ... 
cleanup process ... done
