
Running Job 1 of 1 C169_345.qcin
qchem C169_345.qcin_39519.0 /home/Andres/temp/qchem39519/ 1
/usr/local/qchem44/bin/mpi/mpirun_qchem -machinefile /usr/local/qchem44/bin/mpi/machines -np 1 /usr/local/qchem44/exe/qcprog.exe C169_345.qcin_39519.0 /home/Andres/temp/qchem39519/

Process 0 of 1 is on localhost.localdomain - thread support 0
initial socket setup ...start
initial socket setup ...done 
now start server 0 ... 
localhost.localdomain 127.0.0
                  Welcome to Q-Chem
     A Quantum Leap Into The Future Of Chemistry


 Q-Chem 4.4, Q-Chem, Inc., Pleasanton, CA (2016)

 Y. Shao,  Z. Gan,  E. Epifanovsky,  A. T. B. Gilbert,  M. Wormit,  
 J. Kussmann,  A. W. Lange,  A. Behn,  J. Deng,  X. Feng,  D. Ghosh,  
 M. Goldey,  P. R. Horn,  L. D. Jacobson,  I. Kaliman,  R. Z. Khaliullin,  
 T. Kus,  A. Landau,  J. Liu,  E. I. Proynov,  Y. M. Rhee,  R. M. Richard,  
 M. A. Rohrdanz,  R. P. Steele,  E. J. Sundstrom,  H. L. Woodcock III,  
 P. M. Zimmerman,  D. Zuev,  B. Albrecht,  E. Alguire,  B. Austin,  
 S. A. Baeppler,  G. J. O. Beran,  Y. A. Bernard,  E. Berquist,  
 K. Brandhorst,  K. B. Bravaya,  S. T. Brown,  D. Casanova,  C.-M. Chang,  
 Y. Chen,  S. H. Chien,  K. D. Closser,  M. P. Coons,  D. L. Crittenden,  
 S. Dasgupta,  M. Diedenhofen,  R. A. DiStasio Jr.,  H. Do,  A. D. Dutoi,  
 R. G. Edgar,  P.-T. Fang,  S. Fatehi,  Q. Feng,  L. Fusti-Molnar,  
 A. Ghysels,  A. Golubeva-Zadorozhnaya,  J. Gomes,  A. Gunina,  
 M. W. D. Hanson-Heine,  P. H. P. Harbach,  A. W. Hauser,  E. G. Hohenstein,  
 Z. C. Holden,  K. Hui,  T.-C. Jagau,  H. Ji,  B. Kaduk,  K. Khistyaev,  
 Jaehoon Kim,  Jihan Kim,  R. A. King,  P. Klunzinger,  D. Kosenkov,  
 T. Kowalczyk,  C. M. Krauter,  A. Kunitsa,  K. U. Lao,  A. Laurent,  
 K. V. Lawler,  D. Lefrancois,  S. Lehtola,  S. V. Levchenko,  C. Y. Lin,  
 Y.-S. Lin,  F. Liu,  E. Livshits,  R. C. Lochan,  A. Luenser,  P. Manohar,  
 S. F. Manzer,  S.-P. Mao,  Y. Mao,  N. Mardirossian,  A. V. Marenich,  
 L. A. Martinez-Martinez,  S. A. Maurer,  N. J. Mayhall,  J.-M. Mewes,  
 A. F. Morrison,  K. Nanda,  C. M. Oana,  R. Olivares-Amaya,  D. P. O'Neill,  
 J. A. Parkhill,  T. M. Perrine,  R. Peverati,  P. A. Pieniazek,  F. Plasser,  
 A. Prociuk,  D. R. Rehn,  E. Rosta,  N. J. Russ,  N. Sergueev,  
 S. M. Sharada,  S. Sharma,  D. W. Small,  A. Sodt,  T. Stauch,  T. Stein,  
 D. Stuck,  Y.-C. Su,  A. J. W. Thom,  T. Tsuchimochi,  L. Vogt,  O. Vydrov,  
 T. Wang,  M. A. Watson,  J. Wenzel,  A. White,  C. F. Williams,  
 V. Vanovschi,  S. Yeganeh,  S. R. Yost,  Z.-Q. You,  I. Y. Zhang,  X. Zhang,  
 Y. Zhao,  B. R. Brooks,  G. K. L. Chan,  D. M. Chipman,  C. J. Cramer,  
 W. A. Goddard III,  M. S. Gordon,  W. J. Hehre,  A. Klamt,  
 H. F. Schaefer III,  M. W. Schmidt,  C. D. Sherrill,  D. G. Truhlar,  
 A. Warshel,  X. Xu,  A. Aspuru-Guzik,  R. Baer,  A. T. Bell,  N. A. Besley,  
 J.-D. Chai,  A. Dreuw,  B. D. Dunietz,  T. R. Furlani,  S. R. Gwaltney,  
 C.-P. Hsu,  Y. Jung,  J. Kong,  D. S. Lambrecht,  W. Liang,  C. Ochsenfeld,  
 V. A. Rassolov,  L. V. Slipchenko,  J. E. Subotnik,  T. Van Voorhis,  
 J. M. Herbert,  A. I. Krylov,  P. M. W. Gill,  M. Head-Gordon

 Contributors to earlier versions of Q-Chem not listed above: 
 R. D. Adamson,  J. Baker,  E. F. C. Byrd,  A. K. Chakraborty,  C.-L. Cheng,  
 H. Dachsel,  R. J. Doerksen,  G. Hawkins,  A. Heyden,  S. Hirata,  
 G. Kedziora,  F. J. Keil,  C. Kelley,  P. P. Korambath,  W. Kurlancheek,  
 A. M. Lee,  M. S. Lee,  D. Liotard,  I. Lotan,  P. E. Maslen,  N. Nair,  
 D. Neuhauser,  R. Olson,  B. Peters,  J. Ritchie,  N. E. Schultz,  
 N. Shenvi,  A. C. Simmonett,  K. S. Thanthiriwatte,  Q. Wu,  W. Zhang

 Please cite Q-Chem as follows:
 Y. Shao et al., Mol. Phys. 113, 184-215 (2015)
 DOI: 10.1080/00268976.2014.952696

 Q-Chem 4.4.0 for Intel X86 Linux

 Parts of Q-Chem use Armadillo 5.200.1 (Boston Tea Smuggler).
 http://arma.sourceforge.net/

 Q-Chem begins on Wed Jun  7 02:16:03 2017  

Host: 
0

     Scratch files written to /home/Andres/temp/qchem39519//
 Apr2716 1281_ 20995  20993 0   
 Parallel job on  1  processors
Processing $rem in /usr/local/qchem44/config/preferences.
 MEM_TOTAL  16000 

Checking the input file for inconsistencies... 	...done.

--------------------------------------------------------------
User input:
--------------------------------------------------------------
$comment
OPTIMIZATION
$end

$rem
JOBTYPE OPT
EXCHANGE omegaB97X-D
BASIS cc-pVTZ
$end

$molecule
0 1
C          0.00000        0.00000        0.00000
C         -0.65442       -1.22189        0.00029
C          1.38558        0.00000        0.00000
C          0.09563       -2.38039        0.00926
N          2.11898       -1.10529        0.01182
C          1.48579       -2.27657        0.02342
C          2.30845       -3.51149        0.04024
N          1.70296       -4.62749        0.34146
C          3.71615       -3.53665       -0.23074
C          2.36128       -5.81065        0.39415
N          4.52329       -2.50991       -0.50063
C          4.40482       -4.79251       -0.18447
C          3.70222       -5.99132        0.14804
S          5.99421       -3.11892       -0.69246
N          5.70715       -4.68504       -0.44060
C          4.35364       -7.28849        0.25526
S          5.94706       -7.57822       -0.32159
C          3.86454       -8.46583        0.82045
C          5.98470       -9.22161        0.13203
N          2.63865       -8.62855        1.39222
C          4.78790       -9.55721        0.75443
C          7.13277      -10.06665       -0.11477
C          2.38110       -9.81352        1.85532
N          4.48355      -10.78554        1.25200
C          7.48020      -11.22045        0.53207
S          8.28742       -9.69305       -1.35373
C          3.30565      -10.89949        1.78551
C          8.67689      -11.79246        0.03911
C          9.22818      -11.07278       -0.97488
H         -0.54818        0.93041       -0.00000
H         -1.73449       -1.27032       -0.00344
H          1.93674        0.93371       -0.01430
H         -0.36223       -3.35775        0.00507
H          1.75735       -6.65756        0.67670
H          1.40755       -9.96781        2.30724
H          6.88092      -11.63648        1.32382
H          3.03224      -11.86518        2.19387
H          9.10990      -12.69998        0.43072
H         10.13055      -11.28450       -1.52342
$end

$opt
CONSTRAINT
tors 4 6 7 8 -15.00000
tors 10 13 16 17 168.54979
tors 17 19 22 25 157.50653
ENDCONSTRAINT
$end
--------------------------------------------------------------
 ----------------------------------------------------------------
             Standard Nuclear Orientation (Angstroms)
    I     Atom           X                Y                Z
 ----------------------------------------------------------------
    1      C       7.6793730389     0.3501848915    -0.1534401228
    2      C       6.9838561882     1.4573613007    -0.6135460910
    3      C       6.9511236564    -0.7419339972     0.2901374986
    4      C       5.6040279040     1.4301570205    -0.6029845235
    5      N       5.6252929716    -0.7806783018     0.3089292666
    6      C       4.9615939305     0.2895759885    -0.1235291840
    7      C       3.4785369524     0.2451034913    -0.0981522046
    8      N       2.8453024042     1.3769050774    -0.2425364324
    9      C       2.7191324815    -0.9553175440     0.0967238167
   10      C       1.4924056835     1.4505599724    -0.2259694867
   11      N       3.1702304270    -2.1909556850     0.3163135419
   12      C       1.2884819401    -0.8728476704     0.1021431883
   13      C       0.6356239216     0.3874647669    -0.0613928757
   14      S       1.8803640954    -3.1285954864     0.4847594521
   15      N       0.6971858350    -2.0487461356     0.3042508888
   16      C      -0.8110128047     0.5424609184    -0.0200101616
   17      S      -1.8909859710    -0.7926333578    -0.1028831095
   18      C      -1.5594297856     1.7125807633     0.1044068509
   19      C      -3.3119540542     0.1453961573    -0.0087082644
   20      N      -1.0574953975     2.9749871597     0.2073485022
   21      C      -2.9727299621     1.4877794824     0.1148772686
   22      C      -4.6325455746    -0.4444642305    -0.0429182857
   23      C      -1.9333977187     3.9274702692     0.3099085491
   24      N      -3.8611598125     2.5112390126     0.2254322642
   25      C      -5.8011750294     0.0859570738     0.4296517809
   26      S      -4.9130232365    -2.0064624123    -0.7424248444
   27      C      -3.3426947928     3.6976720598     0.3183654681
   28      C      -6.9133486831    -0.7679435641     0.2394008351
   29      C      -6.5838485226    -1.9362870611    -0.3741452543
   30      H       8.7589998894     0.3320539851    -0.1379090475
   31      H       7.5103580221     2.3306921967    -0.9727111612
   32      H       7.4558527766    -1.6336029048     0.6450618203
   33      H       5.0132555636     2.2623770620    -0.9541023810
   34      H       1.0873976169     2.4438249045    -0.3318738599
   35      H      -1.5560904630     4.9413287114     0.3845207940
   36      H      -5.8455966988     1.0606879027     0.8846375699
   37      H      -4.0233390720     4.5357353558     0.4102424018
   38      H      -7.9156798491    -0.5211995904     0.5538817530
   39      H      -7.2344436023    -2.7536759444    -0.6360508910
 ----------------------------------------------------------------
 Molecular Point Group                 C1    NOp =  1
 Largest Abelian Subgroup              C1    NOp =  1
 Nuclear Repulsion Energy =  2930.3491957832 hartrees
 There are      110 alpha and      110 beta electrons
 Requested basis set is cc-pVTZ
 There are 356 shells and 1022 basis functions

 Total QAlloc Memory Limit  16000 MB
 Mega-Array Size        61 MB
 MEM_STATIC part        62 MB
 A cutoff of  1.0D-11 yielded  30935 shell pairs
 There are    243971 function pairs (    318435 Cartesian)
 
 -------------------------------------------------------
 OpenMP Integral Computing Module                       
 Release: version 1.0, May 2013, Q-Chem Inc. Pittsburgh 
 -------------------------------------------------------
 Integral Job Info:
 Integral job number is                      11
 Integral operator is                         1
 short-range coefficients              22203600
 long-range coefficients              100000000
 Omega coefficients                         200
 if combine SR and LR in K                    1
 Integral screening is                        0
 Integral computing path is                   2
 max size of driver memory is            800000
 size of driver memory is                776718
 size of scratch memory is             26248924
 max col of scratch BK array              10000
 max len of scratch array in speh3          662
 max len of scratch index in speh4           32
 max int batch size is                      520
 min int batch size is                       52
 fixed nKL is                                52
 max L of basis functions is                  3
 order of int derivative is                   0
 number of shells is                        356
 number of basis is                        1177
 number of cartesian basis is              1177
 number of contracted shell pairs         30935
 number of primitive shell pairs          93727
 maxK2 (contraction) of shell pair          121
 max number of K2 of shell pair               1
 max number of CS2 of shell pair           4274
 max number of PS2 of shell pair          13034
 mem total for path MDJ                  838096
 -------------------------------------------------------
 Smallest overlap matrix eigenvalue = 2.56E-05

 Scale SEOQF with 1.000000e-02/1.000000e-01/1.000000e+00

 Standard Electronic Orientation quadrupole field applied
 Nucleus-field energy     =     0.0000000380 hartrees
 Guess from superposition of atomic densities
 Warning:  Energy on first SCF cycle will be non-variational
 Long-range K will be added via erf
 Coulomb attenuation parameter = 0.2 bohr**(-1)
 A restricted hybrid HF-DFT SCF calculation will be
 performed using Pulay DIIS extrapolation
 Exchange:     0.2220 Hartree-Fock + 1.0000 wB97X-D + LR-HF
 Correlation:  1.0000 wB97X-D
 Using SG-1 standard quadrature grid
 Dispersion:   Grimme D
 SCF converges when DIIS error is below 1.0E-08
 using 4 threads for integral computing 
 using 4 threads for integral computing 
 K construction time:  CPU 69.02 s  wall 17.49 s
 -------------------------------------------------------
 OpenMP BLAS3 based DFT computing Module                
 Release: version 1.0, May 2013, Q-Chem Inc. Pittsburgh 
 -------------------------------------------------------
 ---------------------------------------
  Cycle       Energy         DIIS Error
 ---------------------------------------
    1   -2301.4816739357      1.83E-02
 K construction time:  CPU 1151.60 s  wall 289.73 s
    2   -2290.9445322934      1.33E-03
 K construction time:  CPU 1100.83 s  wall 278.11 s
    3   -2290.9779782430      1.34E-03
 K construction time:  CPU 1045.46 s  wall 263.10 s
    4   -2291.1875596829      2.18E-04
 K construction time:  CPU 1227.73 s  wall 308.22 s
    5   -2291.1921151551      1.43E-04
 K construction time:  CPU 1156.22 s  wall 290.44 s
    6   -2291.1944346519      4.96E-05
 K construction time:  CPU 1087.58 s  wall 274.51 s
    7   -2291.1947529214      1.79E-05
 K construction time:  CPU 1034.09 s  wall 259.54 s
    8   -2291.1948086793      5.63E-06
 K construction time:  CPU 980.68 s  wall 246.19 s
    9   -2291.1948213516      3.83E-06
 K construction time:  CPU 935.46 s  wall 234.57 s
   10   -2291.1948256752      1.35E-06
 K construction time:  CPU 832.75 s  wall 208.94 s
   11   -2291.1948262749      7.47E-07
 K construction time:  CPU 794.64 s  wall 199.31 s
   12   -2291.1948264455      2.20E-07
 K construction time:  CPU 697.00 s  wall 175.88 s
   13   -2291.1948264608      1.20E-07
 K construction time:  CPU 614.90 s  wall 154.31 s
   14   -2291.1948264625      3.51E-08
 K construction time:  CPU 525.22 s  wall 131.64 s
   15   -2291.1948264633      1.70E-08
 K construction time:  CPU 1441.53 s  wall 362.06 s
   16   -2291.1948264638      5.65E-09 Convergence criterion met
 ---------------------------------------
 SCF time:  CPU 19297.66 s  wall 4870.66 s
 SCF   energy in the final basis set = -2291.1948264638
 Total energy in the final basis set = -2291.1948264638
 
 --------------------------------------------------------------
 
                    Orbital Energies (a.u.)
 --------------------------------------------------------------
 
 Alpha MOs
 -- Occupied --
-89.152 -89.107 -89.087 -14.481 -14.479 -14.463 -14.463 -14.445
-14.433 -10.355 -10.352 -10.350 -10.346 -10.344 -10.344 -10.342
-10.341 -10.338 -10.336 -10.335 -10.330 -10.326 -10.323 -10.320
-10.309 -10.301 -10.297 -10.295 -10.293  -8.157  -8.116  -8.097
 -6.106  -6.101  -6.100  -6.064  -6.061  -6.059  -6.046  -6.042
 -6.039  -1.142  -1.102  -1.068  -1.048  -1.030  -1.013  -1.003
 -0.986  -0.925  -0.911  -0.895  -0.879  -0.869  -0.853  -0.838
 -0.811  -0.776  -0.772  -0.748  -0.737  -0.731  -0.715  -0.710
 -0.672  -0.655  -0.648  -0.629  -0.628  -0.620  -0.607  -0.603
 -0.587  -0.574  -0.566  -0.561  -0.557  -0.548  -0.543  -0.526
 -0.512  -0.508  -0.501  -0.498  -0.493  -0.492  -0.485  -0.484
 -0.473  -0.466  -0.462  -0.460  -0.451  -0.443  -0.429  -0.426
 -0.418  -0.411  -0.392  -0.377  -0.373  -0.359  -0.357  -0.351
 -0.343  -0.339  -0.334  -0.332  -0.320  -0.263
 -- Virtual --
 -0.055  -0.024   0.024   0.032   0.042   0.051   0.072   0.073
  0.085   0.089   0.118   0.124   0.124   0.127   0.132   0.137
  0.150   0.154   0.156   0.164   0.170   0.176   0.183   0.190
  0.200   0.204   0.213   0.215   0.222   0.233   0.244   0.252
  0.256   0.266   0.268   0.277   0.282   0.287   0.294   0.295
  0.300   0.305   0.308   0.315   0.318   0.322   0.324   0.331
  0.334   0.338   0.344   0.348   0.349   0.353   0.354   0.358
  0.364   0.369   0.372   0.379   0.382   0.383   0.385   0.391
  0.392   0.395   0.397   0.400   0.404   0.407   0.409   0.412
  0.414   0.419   0.421   0.427   0.432   0.434   0.439   0.442
  0.446   0.447   0.450   0.456   0.458   0.461   0.464   0.466
  0.468   0.471   0.477   0.479   0.483   0.484   0.490   0.492
  0.494   0.503   0.505   0.509   0.511   0.516   0.519   0.520
  0.527   0.532   0.533   0.535   0.541   0.542   0.548   0.558
  0.560   0.565   0.566   0.571   0.586   0.587   0.593   0.599
  0.606   0.607   0.608   0.615   0.618   0.633   0.636   0.639
  0.643   0.651   0.659   0.660   0.663   0.666   0.668   0.674
  0.678   0.688   0.696   0.700   0.703   0.708   0.711   0.718
  0.728   0.729   0.732   0.738   0.744   0.746   0.755   0.759
  0.765   0.768   0.771   0.775   0.777   0.780   0.784   0.791
  0.795   0.800   0.804   0.806   0.809   0.818   0.820   0.827
  0.832   0.836   0.838   0.841   0.848   0.850   0.854   0.857
  0.862   0.868   0.873   0.876   0.880   0.888   0.900   0.905
  0.907   0.911   0.921   0.923   0.924   0.931   0.934   0.939
  0.948   0.951   0.953   0.956   0.962   0.967   0.968   0.970
  0.978   0.984   0.988   0.993   0.999   1.005   1.013   1.018
  1.023   1.026   1.031   1.041   1.046   1.052   1.055   1.060
  1.063   1.072   1.080   1.084   1.088   1.091   1.095   1.100
  1.108   1.111   1.115   1.122   1.128   1.130   1.138   1.140
  1.152   1.158   1.167   1.169   1.176   1.186   1.189   1.193
  1.203   1.209   1.212   1.218   1.231   1.234   1.245   1.249
  1.256   1.263   1.271   1.276   1.279   1.292   1.296   1.304
  1.315   1.321   1.323   1.325   1.342   1.345   1.350   1.353
  1.364   1.368   1.370   1.375   1.382   1.383   1.388   1.392
  1.400   1.404   1.413   1.422   1.424   1.425   1.433   1.440
  1.446   1.449   1.455   1.458   1.469   1.479   1.482   1.489
  1.489   1.495   1.504   1.512   1.516   1.519   1.526   1.533
  1.543   1.561   1.567   1.571   1.580   1.584   1.587   1.594
  1.605   1.612   1.619   1.629   1.633   1.641   1.644   1.648
  1.653   1.659   1.667   1.671   1.680   1.687   1.693   1.698
  1.708   1.715   1.717   1.726   1.732   1.734   1.741   1.753
  1.759   1.770   1.777   1.783   1.797   1.798   1.802   1.815
  1.820   1.835   1.843   1.857   1.861   1.879   1.887   1.892
  1.894   1.902   1.910   1.918   1.921   1.935   1.943   1.953
  1.959   1.969   1.972   1.988   1.989   1.997   2.006   2.010
  2.018   2.019   2.034   2.038   2.041   2.057   2.061   2.068
  2.090   2.092   2.096   2.108   2.112   2.115   2.122   2.127
  2.143   2.156   2.165   2.176   2.177   2.183   2.187   2.200
  2.203   2.209   2.211   2.218   2.236   2.243   2.246   2.255
  2.264   2.279   2.288   2.293   2.295   2.301   2.312   2.319
  2.320   2.330   2.337   2.342   2.358   2.369   2.373   2.382
  2.392   2.395   2.397   2.401   2.407   2.417   2.424   2.433
  2.439   2.443   2.453   2.456   2.463   2.467   2.472   2.476
  2.494   2.503   2.506   2.516   2.521   2.528   2.533   2.537
  2.542   2.546   2.554   2.557   2.562   2.568   2.579   2.602
  2.609   2.616   2.625   2.634   2.636   2.640   2.652   2.661
  2.664   2.670   2.674   2.682   2.689   2.702   2.711   2.722
  2.727   2.736   2.746   2.762   2.769   2.774   2.776   2.783
  2.787   2.790   2.794   2.805   2.808   2.818   2.822   2.832
  2.834   2.841   2.848   2.853   2.866   2.870   2.876   2.879
  2.882   2.889   2.896   2.907   2.916   2.923   2.927   2.933
  2.942   2.942   2.949   2.955   2.959   2.967   2.974   2.977
  2.988   2.993   3.000   3.006   3.008   3.015   3.019   3.023
  3.027   3.030   3.035   3.039   3.044   3.052   3.061   3.063
  3.068   3.068   3.074   3.076   3.077   3.080   3.082   3.089
  3.091   3.096   3.102   3.107   3.114   3.119   3.126   3.133
  3.136   3.140   3.144   3.157   3.160   3.163   3.166   3.169
  3.171   3.179   3.187   3.193   3.196   3.200   3.203   3.205
  3.211   3.218   3.220   3.223   3.225   3.230   3.233   3.237
  3.241   3.247   3.249   3.253   3.258   3.263   3.268   3.273
  3.281   3.286   3.288   3.291   3.296   3.300   3.303   3.307
  3.310   3.311   3.318   3.321   3.323   3.333   3.337   3.345
  3.351   3.356   3.364   3.374   3.379   3.387   3.390   3.394
  3.399   3.402   3.409   3.411   3.418   3.423   3.425   3.432
  3.435   3.444   3.454   3.458   3.460   3.462   3.471   3.474
  3.483   3.486   3.492   3.497   3.502   3.507   3.517   3.519
  3.524   3.535   3.536   3.552   3.560   3.564   3.568   3.583
  3.584   3.599   3.618   3.620   3.626   3.631   3.632   3.648
  3.656   3.664   3.678   3.686   3.686   3.695   3.708   3.712
  3.714   3.721   3.734   3.736   3.739   3.751   3.753   3.758
  3.770   3.780   3.782   3.788   3.790   3.799   3.801   3.811
  3.817   3.827   3.840   3.842   3.848   3.858   3.875   3.878
  3.890   3.904   3.906   3.910   3.912   3.923   3.929   3.931
  3.935   3.938   3.944   3.952   3.955   3.960   3.968   3.984
  3.990   3.994   4.001   4.005   4.020   4.026   4.034   4.045
  4.048   4.062   4.067   4.074   4.080   4.087   4.100   4.103
  4.111   4.118   4.126   4.142   4.149   4.161   4.168   4.177
  4.187   4.193   4.199   4.204   4.210   4.215   4.222   4.228
  4.231   4.233   4.239   4.251   4.256   4.264   4.272   4.282
  4.292   4.299   4.303   4.310   4.322   4.323   4.337   4.341
  4.350   4.351   4.359   4.366   4.370   4.377   4.395   4.399
  4.407   4.412   4.426   4.433   4.438   4.441   4.444   4.451
  4.462   4.482   4.494   4.506   4.513   4.526   4.533   4.538
  4.543   4.558   4.564   4.573   4.587   4.594   4.604   4.610
  4.630   4.637   4.644   4.649   4.661   4.679   4.682   4.691
  4.717   4.728   4.741   4.745   4.755   4.767   4.784   4.790
  4.796   4.803   4.812   4.817   4.828   4.843   4.846   4.868
  4.878   4.884   4.886   4.896   4.906   4.913   4.921   4.934
  4.939   4.952   4.959   4.965   4.973   4.976   4.989   4.991
  4.999   5.003   5.012   5.016   5.034   5.045   5.050   5.059
  5.075   5.085   5.099   5.102   5.107   5.115   5.120   5.129
  5.137   5.143   5.149   5.161   5.173   5.180   5.184   5.193
  5.216   5.222   5.245   5.249   5.268   5.303   5.313   5.316
  5.322   5.342   5.350   5.378   5.389   5.399   5.431   5.432
  5.451   5.472   5.484   5.486   5.500   5.503   5.530   5.543
  5.573   5.578   5.580   5.592   5.598   5.610   5.628   5.651
  5.683   5.702   5.721   5.726   5.746   5.755   5.759   5.795
  5.805   5.832   5.842   5.866   5.881   5.903   5.914   5.931
  5.960   5.981   6.015   6.042   6.088   6.130   6.159   6.187
  6.209   6.244   6.255   6.310   6.327   6.357   6.383   6.431
  6.449   6.505   6.640   6.867   6.988   7.097   8.078   8.907
  9.862  10.219  10.672  11.143  11.266  11.688  12.033  12.129
 12.412  12.678  12.771  12.836  12.856  12.974  13.090  13.179
 13.357  13.493  13.543  14.173  14.396  14.677  15.080  15.105
 --------------------------------------------------------------
 
          Ground-State Mulliken Net Atomic Charges

     Atom                 Charge (a.u.)
  ----------------------------------------
      1 C                    -0.085358
      2 C                    -0.133190
      3 C                    -0.084491
      4 C                    -0.116448
      5 N                    -0.138759
      6 C                     0.074416
      7 C                     0.101556
      8 N                    -0.177723
      9 C                    -0.014403
     10 C                    -0.083712
     11 N                    -0.214607
     12 C                     0.049456
     13 C                     0.057136
     14 S                     0.404427
     15 N                    -0.306199
     16 C                    -0.070037
     17 S                     0.177990
     18 C                     0.060829
     19 C                    -0.056064
     20 N                    -0.170508
     21 C                     0.063925
     22 C                    -0.011615
     23 C                    -0.043290
     24 N                    -0.162142
     25 C                    -0.138407
     26 S                     0.103920
     27 C                    -0.046199
     28 C                    -0.158611
     29 C                    -0.182651
     30 H                     0.129349
     31 H                     0.120432
     32 H                     0.118261
     33 H                     0.141035
     34 H                     0.134654
     35 H                     0.125490
     36 H                     0.134762
     37 H                     0.128796
     38 H                     0.131570
     39 H                     0.136409
  ----------------------------------------
  Sum of atomic charges =     0.000000

 -----------------------------------------------------------------
                    Cartesian Multipole Moments
 -----------------------------------------------------------------
    Charge (ESU x 10^10)
                 0.0000
    Dipole Moment (Debye)
         X      -0.3567      Y       1.4492      Z      -0.2133
       Tot       1.5076
    Quadrupole Moments (Debye-Ang)
        XX    -152.0591     XY       2.9389     YY    -165.4447
        XZ      -4.8819     YZ       0.7898     ZZ    -185.9575
    Octopole Moments (Debye-Ang^2)
       XXX     101.6801    XXY      11.5455    XYY     -40.4550
       YYY      36.3875    XXZ      -6.4153    XYZ     -28.3551
       YYZ       1.0655    XZZ       4.5686    YZZ      -5.3762
       ZZZ       3.5357
    Hexadecapole Moments (Debye-Ang^3)
      XXXX  -15972.4718   XXXY     557.6102   XXYY   -3562.5415
      XYYY    -175.0627   YYYY   -3412.6171   XXXZ    -183.4040
      XXYZ       4.8793   XYYZ      -6.3593   YYYZ      20.8364
      XXZZ   -3426.1826   XYZZ     -15.4465   YYZZ    -716.4364
      XZZZ      17.1272   YZZZ      -5.1211   ZZZZ    -351.4611
 -----------------------------------------------------------------
 Calculating analytic gradient of the SCF energy
 K construction time:  CPU 2936.52 s  wall 735.77 s
 Gradient of SCF Energy
            1           2           3           4           5           6
    1   0.0012415  -0.0009110  -0.0005246   0.0006236  -0.0009991  -0.0011894
    2  -0.0004267   0.0006154   0.0000953  -0.0004274  -0.0015772   0.0013000
    3  -0.0002072  -0.0008904   0.0004441   0.0008516  -0.0004227   0.0015042
            7           8           9          10          11          12
    1  -0.0001825   0.0007896  -0.0000263  -0.0003399   0.0014291  -0.0001574
    2  -0.0008343   0.0007686  -0.0005498   0.0001909   0.0020062  -0.0001235
    3  -0.0023018   0.0017452  -0.0032173   0.0008954   0.0026991  -0.0001973
           13          14          15          16          17          18
    1   0.0001244  -0.0004291   0.0006107  -0.0005134   0.0001611   0.0004247
    2   0.0004108  -0.0003957  -0.0002846   0.0001117  -0.0001271   0.0001891
    3  -0.0002921   0.0003835  -0.0001801  -0.0001601  -0.0000510   0.0000976
           19          20          21          22          23          24
    1   0.0003618   0.0005037  -0.0003860  -0.0007305  -0.0008480  -0.0000661
    2  -0.0000474  -0.0006537   0.0001401  -0.0000177   0.0004864  -0.0006877
    3   0.0002699  -0.0000110  -0.0001107  -0.0002092  -0.0000220  -0.0000254
           25          26          27          28          29          30
    1   0.0005306  -0.0001945   0.0001144  -0.0006326   0.0007463  -0.0003639
    2   0.0005786   0.0001551   0.0009296   0.0006374  -0.0007771   0.0002279
    3   0.0001041   0.0000635   0.0000904   0.0003551  -0.0003397   0.0003721
           31          32          33          34          35          36
    1   0.0002870   0.0004870  -0.0003337  -0.0000280   0.0001770  -0.0000500
    2  -0.0003002  -0.0002186  -0.0001157  -0.0001853  -0.0000677  -0.0003922
    3   0.0005525  -0.0006831  -0.0006683  -0.0002101   0.0001389  -0.0000194
           37          38          39
    1   0.0002868   0.0001920  -0.0001853
    2  -0.0003605  -0.0000749  -0.0001979
    3  -0.0000295  -0.0000991  -0.0002196
 Max gradient component =       3.217E-03
 RMS gradient           =       7.244E-04
 Gradient time:  CPU 3509.17 s  wall 880.03 s
 Geometry Optimization Parameters
   NAtoms,    NIC,     NZ,  NCons,   NDum,   NFix, NCnnct, MaxDiis
       39     293       0       3       0       0       0       0


** CONSTRAINED OPTIMIZATION IN DELOCALIZED INTERNAL COORDINATES **
   Searching for a Minimum

   Optimization Cycle:   1

                       Coordinates (Angstroms)
     ATOM                X               Y               Z
      1  C         7.6793730389    0.3501848915   -0.1534401228
      2  C         6.9838561882    1.4573613007   -0.6135460910
      3  C         6.9511236564   -0.7419339972    0.2901374986
      4  C         5.6040279040    1.4301570205   -0.6029845235
      5  N         5.6252929716   -0.7806783018    0.3089292666
      6  C         4.9615939305    0.2895759885   -0.1235291840
      7  C         3.4785369524    0.2451034913   -0.0981522046
      8  N         2.8453024042    1.3769050774   -0.2425364324
      9  C         2.7191324815   -0.9553175440    0.0967238167
     10  C         1.4924056835    1.4505599724   -0.2259694867
     11  N         3.1702304270   -2.1909556850    0.3163135419
     12  C         1.2884819401   -0.8728476704    0.1021431883
     13  C         0.6356239216    0.3874647669   -0.0613928757
     14  S         1.8803640954   -3.1285954864    0.4847594521
     15  N         0.6971858350   -2.0487461356    0.3042508888
     16  C        -0.8110128047    0.5424609184   -0.0200101616
     17  S        -1.8909859710   -0.7926333578   -0.1028831095
     18  C        -1.5594297856    1.7125807633    0.1044068509
     19  C        -3.3119540542    0.1453961573   -0.0087082644
     20  N        -1.0574953975    2.9749871597    0.2073485022
     21  C        -2.9727299621    1.4877794824    0.1148772686
     22  C        -4.6325455746   -0.4444642305   -0.0429182857
     23  C        -1.9333977187    3.9274702692    0.3099085491
     24  N        -3.8611598125    2.5112390126    0.2254322642
     25  C        -5.8011750294    0.0859570738    0.4296517809
     26  S        -4.9130232365   -2.0064624123   -0.7424248444
     27  C        -3.3426947928    3.6976720598    0.3183654681
     28  C        -6.9133486831   -0.7679435641    0.2394008351
     29  C        -6.5838485226   -1.9362870611   -0.3741452543
     30  H         8.7589998894    0.3320539851   -0.1379090475
     31  H         7.5103580221    2.3306921967   -0.9727111612
     32  H         7.4558527766   -1.6336029048    0.6450618203
     33  H         5.0132555636    2.2623770620   -0.9541023810
     34  H         1.0873976169    2.4438249045   -0.3318738599
     35  H        -1.5560904630    4.9413287114    0.3845207940
     36  H        -5.8455966988    1.0606879027    0.8846375699
     37  H        -4.0233390720    4.5357353558    0.4102424018
     38  H        -7.9156798491   -0.5211995904    0.5538817530
     39  H        -7.2344436023   -2.7536759444   -0.6360508910
   Point Group: c1    Number of degrees of freedom:   111


   Energy is  -2291.194826464

              Constraints and their Current Values
                                        Value     Constraint
   Dihedral:        4   6   7   8      -15.000      -15.000
   Dihedral:       10  13  16  17      168.543      168.550
   Dihedral:       17  19  22  25      157.470      157.507

 Attempting to Generate Delocalized Internal Coordinates

   Using Lagrange Multiplier Algorithm


114 Hessian modes will be used to form the next step
  Hessian Eigenvalues:
    -0.977753   -0.977753   -0.977753    0.045000    0.045000    0.045000
     0.045000    0.045000    0.045000    0.045000    0.045000    0.045000
     0.045000    0.045000    0.045001    0.045001    0.045001    0.045001
     0.045001    0.045001    0.045001    0.045001    0.045001    0.045002
     0.045002    0.045002    0.045003    0.045003    0.045003    0.045005
     0.045005    0.045007    0.045011    0.045014    0.045024    0.045038
     0.159978    0.159986    0.159994    0.159997    0.159997    0.159999
     0.159999    0.159999    0.160000    0.160000    0.219998    0.221296
     0.223763    0.224236    0.233054    0.237970    0.243342    0.244276
     0.249699    0.249894    0.249926    0.249965    0.249971    0.249976
     0.249976    0.249983    0.249990    0.249992    0.249993    0.249993
     0.249999    0.312885    0.327844    0.334374    0.341223    0.341480
     0.354726    0.354748    0.355695    0.358543    0.360075    0.360792
     0.361037    0.362518    0.363556    0.364072    0.368474    0.372718
     0.375328    0.386747    0.390963    0.406303    0.407692    0.419173
     0.432399    0.441230    0.459434    0.465816    0.470553    0.473619
     0.482709    0.483770    0.485034    0.485241    0.504699    0.518073
     0.518116    0.525489    0.558706    0.572255    0.583005    0.590216
     0.638619    0.653352    0.661935    1.022753    1.022753    1.022753

 Minimum Search - Taking P-RFO Step
 Searching for Lamda that Maximizes Along the Constraint modes Only
 Value Taken    Lamda =   0.00000034
 Searching for Lamda that Minimizes Along All other modes
 Value Taken    Lamda =  -0.00056520
 Step Taken.  Stepsize is  0.094931

                             Maximum     Tolerance    Cnvgd?
         Gradient            0.003797       0.000300      NO
         Displacement        0.057637       0.001200      NO
         Energy change     *********       0.000001      NO


 New Cartesian Coordinates Obtained by Inverse Iteration

 Displacement from previous Coordinates is:  0.386288
 ----------------------------------------------------------------
             Standard Nuclear Orientation (Angstroms)
    I     Atom           X                Y                Z
 ----------------------------------------------------------------
    1      C       7.6836447090     0.3921686564    -0.1447499681
    2      C       6.9679987859     1.4788854043    -0.6206849896
    3      C       6.9761980921    -0.7063491786     0.3152049853
    4      C       5.5887234593     1.4254981486    -0.6109477890
    5      N       5.6516720639    -0.7706454610     0.3304001567
    6      C       4.9668391762     0.2776222092    -0.1205362954
    7      C       3.4817860484     0.2169069839    -0.0895827757
    8      N       2.8473460052     1.3471515121    -0.2400327070
    9      C       2.7171250230    -0.9854323162     0.0950901910
   10      C       1.4956396961     1.4260847537    -0.2234797466
   11      N       3.1566032946    -2.2324939190     0.2751848558
   12      C       1.2853999363    -0.8959724726     0.0992848311
   13      C       0.6360790890     0.3664944339    -0.0567546874
   14      S       1.8605878326    -3.1625509562     0.4326338300
   15      N       0.6850394782    -2.0699932549     0.2840129425
   16      C      -0.8098001226     0.5273177643    -0.0152980128
   17      S      -1.8965072639    -0.8027693709    -0.0951541515
   18      C      -1.5534961045     1.7010381917     0.1068460066
   19      C      -3.3131555216     0.1421585693    -0.0058025527
   20      N      -1.0464571562     2.9618539418     0.2074642448
   21      C      -2.9675154803     1.4827944225     0.1164771903
   22      C      -4.6367590783    -0.4398382596    -0.0397184813
   23      C      -1.9179712258     3.9179131165     0.3079150252
   24      N      -3.8517800541     2.5103122620     0.2248048637
   25      C      -5.8022950177     0.1006153527     0.4296822195
   26      S      -4.9288021853    -2.0018899284    -0.7347333954
   27      C      -3.3284311712     3.6941381073     0.3162504582
   28      C      -6.9206211525    -0.7447783756     0.2410099660
   29      C      -6.5999295236    -1.9166797545    -0.3682698185
   30      H       8.7639502393     0.3940988152    -0.1288887250
   31      H       7.4754243385     2.3584433901    -0.9931369491
   32      H       7.4942844977    -1.5805715075     0.6927354345
   33      H       4.9841147084     2.2449401535    -0.9671271976
   34      H       1.0946573830     2.4214646029    -0.3269199612
   35      H      -1.5375965888     4.9308111172     0.3796778198
   36      H      -5.8395221031     1.0781537894     0.8804409953
   37      H      -4.0059489766     4.5358119719     0.4062860992
   38      H      -7.9215989602    -0.4889198307     0.5535680203
   39      H      -7.2564819020    -2.7295814464    -0.6274466023
 ----------------------------------------------------------------
 Molecular Point Group                 C1    NOp =  1
 Largest Abelian Subgroup              C1    NOp =  1
 Nuclear Repulsion Energy =  2929.0823669935 hartrees
 There are      110 alpha and      110 beta electrons
 Applying Cartesian multipole field
    Component          Value
    ---------          -----
     (2,0,0)        1.00000E-12
     (0,2,0)        2.00000E-11
     (0,0,2)       -3.00000E-10
 Nucleus-field energy     =     0.0000000391 hartrees
 Requested basis set is cc-pVTZ
 There are 356 shells and 1022 basis functions
 A cutoff of  1.0D-11 yielded  30923 shell pairs
 There are    243879 function pairs (    318300 Cartesian)
 Smallest overlap matrix eigenvalue = 2.55E-05
 Guess MOs from SCF MO coefficient file
 Reading MOs from coefficient file
 Reading MOs from coefficient file
 Long-range K will be added via erf
 Coulomb attenuation parameter = 0.2 bohr**(-1)
 A restricted hybrid HF-DFT SCF calculation will be
 performed using Pulay DIIS extrapolation
 Exchange:     0.2220 Hartree-Fock + 1.0000 wB97X-D + LR-HF
 Correlation:  1.0000 wB97X-D
 Using SG-1 standard quadrature grid
 Dispersion:   Grimme D
 SCF converges when DIIS error is below 1.0E-08
 Geometry optimization detected.  Setting ReadMinima to 0
 Setting SaveMinima to 0
 using 4 threads for integral computing 
 using 4 threads for integral computing 
 K construction time:  CPU 1452.02 s  wall 364.65 s
 -------------------------------------------------------
 OpenMP BLAS3 based DFT computing Module                
 Release: version 1.0, May 2013, Q-Chem Inc. Pittsburgh 
 -------------------------------------------------------
 ---------------------------------------
  Cycle       Energy         DIIS Error
 ---------------------------------------
    1   -2291.1919723805      2.25E-04
 K construction time:  CPU 1147.49 s  wall 288.76 s
    2   -2291.1949854330      2.32E-05
 K construction time:  CPU 811.68 s  wall 204.21 s
    3   -2291.1951069900      1.74E-05
 K construction time:  CPU 762.89 s  wall 191.85 s
    4   -2291.1951431007      7.44E-06
 K construction time:  CPU 917.82 s  wall 231.83 s
    5   -2291.1951518540      3.19E-06
 K construction time:  CPU 837.79 s  wall 210.23 s
    6   -2291.1951531837      1.44E-06
 K construction time:  CPU 602.23 s  wall 151.28 s
    7   -2291.1951535019      5.01E-07
 K construction time:  CPU 548.11 s  wall 137.61 s
    8   -2291.1951535572      2.01E-07
 K construction time:  CPU 642.36 s  wall 161.97 s
    9   -2291.1951535686      7.11E-08
 K construction time:  CPU 554.46 s  wall 138.99 s
   10   -2291.1951535698      3.29E-08
 K construction time:  CPU 510.62 s  wall 128.55 s
   11   -2291.1951535704      1.60E-08
 K construction time:  CPU 432.88 s  wall 108.47 s
   12   -2291.1951535705      6.46E-09 Convergence criterion met
 ---------------------------------------
 SCF time:  CPU 12311.93 s  wall 3109.17 s
 SCF   energy in the final basis set = -2291.1951535705
 Total energy in the final basis set = -2291.1951535705
 
 --------------------------------------------------------------
 
                    Orbital Energies (a.u.)
 --------------------------------------------------------------
 
 Alpha MOs
 -- Occupied --
-89.152 -89.107 -89.087 -14.482 -14.479 -14.463 -14.463 -14.445
-14.433 -10.355 -10.353 -10.351 -10.346 -10.344 -10.344 -10.343
-10.342 -10.338 -10.336 -10.335 -10.330 -10.326 -10.323 -10.320
-10.309 -10.301 -10.297 -10.295 -10.293  -8.157  -8.116  -8.097
 -6.107  -6.101  -6.101  -6.064  -6.061  -6.059  -6.046  -6.042
 -6.039  -1.142  -1.102  -1.068  -1.048  -1.030  -1.013  -1.003
 -0.986  -0.925  -0.911  -0.895  -0.879  -0.869  -0.853  -0.838
 -0.812  -0.777  -0.772  -0.748  -0.737  -0.731  -0.715  -0.711
 -0.672  -0.655  -0.649  -0.629  -0.628  -0.620  -0.607  -0.603
 -0.587  -0.574  -0.567  -0.561  -0.557  -0.548  -0.543  -0.526
 -0.512  -0.508  -0.501  -0.498  -0.493  -0.492  -0.485  -0.484
 -0.473  -0.466  -0.462  -0.461  -0.451  -0.443  -0.429  -0.427
 -0.418  -0.411  -0.392  -0.377  -0.372  -0.359  -0.357  -0.351
 -0.343  -0.339  -0.334  -0.333  -0.320  -0.263
 -- Virtual --
 -0.055  -0.024   0.024   0.032   0.042   0.051   0.072   0.073
  0.085   0.089   0.118   0.123   0.124   0.127   0.132   0.136
  0.150   0.153   0.155   0.164   0.169   0.176   0.183   0.190
  0.200   0.205   0.212   0.216   0.222   0.233   0.244   0.251
  0.257   0.266   0.268   0.277   0.281   0.286   0.294   0.294
  0.300   0.305   0.308   0.315   0.318   0.322   0.324   0.331
  0.334   0.338   0.344   0.348   0.349   0.353   0.354   0.358
  0.364   0.369   0.371   0.379   0.382   0.384   0.385   0.390
  0.392   0.394   0.397   0.400   0.404   0.406   0.409   0.412
  0.414   0.419   0.421   0.426   0.432   0.433   0.439   0.442
  0.446   0.447   0.450   0.456   0.458   0.461   0.463   0.466
  0.467   0.472   0.477   0.479   0.482   0.484   0.490   0.492
  0.494   0.503   0.505   0.509   0.511   0.516   0.519   0.521
  0.526   0.532   0.533   0.535   0.541   0.541   0.547   0.558
  0.560   0.565   0.566   0.571   0.585   0.587   0.593   0.599
  0.606   0.607   0.608   0.615   0.618   0.633   0.636   0.639
  0.642   0.651   0.658   0.659   0.663   0.666   0.668   0.673
  0.678   0.688   0.697   0.699   0.703   0.707   0.711   0.717
  0.727   0.730   0.732   0.737   0.742   0.744   0.755   0.759
  0.765   0.767   0.772   0.775   0.778   0.780   0.784   0.791
  0.796   0.800   0.805   0.806   0.809   0.818   0.820   0.827
  0.832   0.835   0.838   0.842   0.849   0.849   0.854   0.857
  0.863   0.868   0.872   0.876   0.880   0.887   0.900   0.906
  0.907   0.911   0.921   0.923   0.924   0.931   0.933   0.939
  0.948   0.950   0.954   0.956   0.963   0.967   0.968   0.970
  0.978   0.984   0.988   0.993   0.999   1.005   1.011   1.018
  1.022   1.025   1.032   1.042   1.046   1.052   1.055   1.060
  1.063   1.072   1.081   1.083   1.088   1.091   1.094   1.100
  1.107   1.111   1.114   1.119   1.128   1.130   1.137   1.140
  1.152   1.158   1.166   1.168   1.175   1.185   1.189   1.193
  1.203   1.210   1.213   1.218   1.231   1.233   1.243   1.249
  1.255   1.263   1.269   1.275   1.278   1.293   1.293   1.304
  1.315   1.320   1.324   1.324   1.343   1.345   1.350   1.353
  1.364   1.368   1.369   1.375   1.381   1.384   1.389   1.391
  1.400   1.404   1.413   1.421   1.424   1.425   1.434   1.440
  1.446   1.449   1.455   1.458   1.469   1.479   1.482   1.487
  1.489   1.495   1.504   1.511   1.516   1.519   1.525   1.532
  1.543   1.562   1.567   1.571   1.580   1.583   1.587   1.595
  1.605   1.612   1.619   1.629   1.633   1.640   1.644   1.646
  1.653   1.659   1.666   1.671   1.679   1.686   1.693   1.699
  1.708   1.715   1.717   1.726   1.732   1.734   1.742   1.753
  1.759   1.769   1.777   1.783   1.796   1.797   1.802   1.812
  1.820   1.835   1.842   1.856   1.861   1.879   1.887   1.892
  1.894   1.904   1.909   1.918   1.921   1.934   1.943   1.952
  1.960   1.969   1.972   1.988   1.989   1.996   2.005   2.010
  2.017   2.019   2.034   2.039   2.041   2.056   2.061   2.068
  2.087   2.092   2.095   2.108   2.111   2.116   2.121   2.127
  2.141   2.154   2.162   2.176   2.178   2.183   2.187   2.199
  2.203   2.208   2.211   2.217   2.236   2.244   2.246   2.255
  2.264   2.280   2.288   2.294   2.295   2.300   2.313   2.319
  2.320   2.330   2.337   2.343   2.358   2.370   2.371   2.380
  2.391   2.394   2.396   2.401   2.406   2.417   2.424   2.432
  2.438   2.441   2.453   2.456   2.463   2.467   2.471   2.477
  2.494   2.503   2.504   2.515   2.521   2.528   2.533   2.535
  2.542   2.546   2.554   2.556   2.562   2.568   2.579   2.602
  2.609   2.617   2.623   2.634   2.637   2.639   2.652   2.659
  2.665   2.670   2.674   2.681   2.690   2.700   2.711   2.722
  2.727   2.734   2.746   2.761   2.769   2.774   2.776   2.783
  2.785   2.790   2.793   2.805   2.808   2.818   2.821   2.832
  2.834   2.842   2.848   2.852   2.867   2.871   2.874   2.880
  2.882   2.889   2.895   2.907   2.916   2.924   2.927   2.933
  2.942   2.942   2.948   2.955   2.959   2.965   2.974   2.976
  2.988   2.993   3.001   3.006   3.008   3.015   3.018   3.022
  3.026   3.028   3.035   3.039   3.045   3.052   3.061   3.062
  3.067   3.068   3.073   3.075   3.077   3.079   3.083   3.089
  3.089   3.095   3.101   3.106   3.114   3.118   3.125   3.132
  3.136   3.140   3.144   3.156   3.160   3.163   3.167   3.169
  3.171   3.179   3.188   3.191   3.196   3.201   3.204   3.205
  3.211   3.218   3.220   3.223   3.225   3.230   3.232   3.237
  3.241   3.248   3.249   3.253   3.258   3.263   3.268   3.274
  3.281   3.286   3.288   3.290   3.297   3.299   3.303   3.308
  3.310   3.312   3.319   3.321   3.323   3.333   3.337   3.344
  3.351   3.356   3.362   3.374   3.379   3.387   3.389   3.393
  3.399   3.403   3.409   3.411   3.418   3.421   3.425   3.432
  3.435   3.444   3.453   3.459   3.460   3.462   3.471   3.475
  3.481   3.486   3.493   3.497   3.502   3.507   3.516   3.519
  3.524   3.535   3.536   3.552   3.561   3.564   3.568   3.583
  3.583   3.598   3.618   3.620   3.625   3.630   3.632   3.647
  3.655   3.664   3.677   3.685   3.686   3.694   3.707   3.712
  3.714   3.721   3.733   3.736   3.739   3.749   3.753   3.757
  3.769   3.780   3.781   3.787   3.790   3.799   3.801   3.810
  3.817   3.827   3.839   3.842   3.847   3.858   3.875   3.879
  3.890   3.904   3.905   3.911   3.913   3.923   3.929   3.932
  3.935   3.938   3.944   3.952   3.955   3.960   3.968   3.984
  3.989   3.992   3.999   4.004   4.020   4.026   4.033   4.043
  4.048   4.062   4.066   4.074   4.081   4.087   4.101   4.103
  4.111   4.118   4.127   4.143   4.149   4.161   4.168   4.176
  4.186   4.193   4.200   4.203   4.207   4.215   4.221   4.227
  4.232   4.233   4.240   4.251   4.256   4.263   4.271   4.282
  4.292   4.298   4.302   4.309   4.322   4.324   4.336   4.340
  4.349   4.352   4.359   4.367   4.370   4.378   4.393   4.398
  4.406   4.410   4.426   4.431   4.439   4.442   4.444   4.451
  4.461   4.482   4.494   4.505   4.513   4.526   4.534   4.537
  4.542   4.558   4.563   4.573   4.587   4.593   4.604   4.609
  4.630   4.637   4.643   4.648   4.660   4.678   4.682   4.691
  4.716   4.726   4.741   4.744   4.755   4.766   4.783   4.791
  4.796   4.803   4.812   4.816   4.827   4.842   4.847   4.867
  4.878   4.882   4.886   4.895   4.905   4.913   4.921   4.934
  4.939   4.951   4.959   4.965   4.972   4.974   4.987   4.990
  4.999   5.004   5.012   5.016   5.035   5.045   5.049   5.057
  5.075   5.085   5.099   5.102   5.107   5.117   5.120   5.128
  5.137   5.143   5.148   5.160   5.174   5.179   5.184   5.193
  5.215   5.222   5.244   5.250   5.267   5.303   5.313   5.316
  5.322   5.344   5.350   5.378   5.386   5.399   5.430   5.432
  5.451   5.470   5.481   5.486   5.502   5.503   5.529   5.543
  5.573   5.577   5.581   5.592   5.598   5.610   5.627   5.650
  5.681   5.700   5.721   5.726   5.745   5.754   5.757   5.794
  5.803   5.832   5.841   5.867   5.882   5.904   5.913   5.930
  5.955   5.981   6.012   6.044   6.088   6.132   6.158   6.186
  6.205   6.244   6.254   6.304   6.328   6.357   6.383   6.431
  6.451   6.504   6.639   6.867   6.988   7.095   8.080   8.907
  9.844  10.213  10.670  11.133  11.265  11.684  12.022  12.119
 12.409  12.675  12.773  12.818  12.857  12.976  13.094  13.177
 13.358  13.478  13.554  14.178  14.399  14.677  15.083  15.109
 --------------------------------------------------------------
 
          Ground-State Mulliken Net Atomic Charges

     Atom                 Charge (a.u.)
  ----------------------------------------
      1 C                    -0.086016
      2 C                    -0.131662
      3 C                    -0.082996
      4 C                    -0.116513
      5 N                    -0.141305
      6 C                     0.074607
      7 C                     0.098157
      8 N                    -0.176357
      9 C                    -0.015785
     10 C                    -0.084744
     11 N                    -0.216255
     12 C                     0.050889
     13 C                     0.060075
     14 S                     0.406116
     15 N                    -0.305992
     16 C                    -0.071044
     17 S                     0.177738
     18 C                     0.060624
     19 C                    -0.055362
     20 N                    -0.170274
     21 C                     0.063833
     22 C                    -0.011753
     23 C                    -0.043049
     24 N                    -0.161895
     25 C                    -0.137407
     26 S                     0.103518
     27 C                    -0.046295
     28 C                    -0.158335
     29 C                    -0.182138
     30 H                     0.129067
     31 H                     0.119374
     32 H                     0.119573
     33 H                     0.141763
     34 H                     0.134369
     35 H                     0.125244
     36 H                     0.134011
     37 H                     0.128711
     38 H                     0.131319
     39 H                     0.136188
  ----------------------------------------
  Sum of atomic charges =     0.000000

 -----------------------------------------------------------------
                    Cartesian Multipole Moments
 -----------------------------------------------------------------
    Charge (ESU x 10^10)
                 0.0000
    Dipole Moment (Debye)
         X      -0.4272      Y       1.5134      Z      -0.2305
       Tot       1.5894
    Quadrupole Moments (Debye-Ang)
        XX    -152.4955     XY       3.3327     YY    -165.4118
        XZ      -4.8567     YZ       0.7713     ZZ    -185.9644
    Octopole Moments (Debye-Ang^2)
       XXX      98.3389    XXY      15.4953    XYY     -40.2923
       YYY      39.8021    XXZ      -5.5892    XYZ     -28.4250
       YYZ       0.9994    XZZ       5.1873    YZZ      -4.1722
       ZZZ       4.4762
    Hexadecapole Moments (Debye-Ang^3)
      XXXX  -15995.3077   XXXY     568.3925   XXYY   -3575.8781
      XYYY    -175.1263   YYYY   -3419.9906   XXXZ    -170.4089
      XXYZ       0.6822   XYYZ      -7.4755   YYYZ      15.4261
      XXZZ   -3427.3808   XYZZ     -16.6226   YYZZ    -717.3179
      XZZZ      19.3149   YZZZ     -10.3655   ZZZZ    -347.2729
 -----------------------------------------------------------------
 Calculating analytic gradient of the SCF energy
 K construction time:  CPU 2925.89 s  wall 732.99 s
 Gradient of SCF Energy
            1           2           3           4           5           6
    1   0.0003082  -0.0003473  -0.0004862   0.0000717   0.0012341  -0.0004654
    2  -0.0003165   0.0001513   0.0002274  -0.0000570  -0.0002575   0.0006954
    3   0.0000038  -0.0004294  -0.0001032   0.0009144  -0.0005506   0.0003948
            7           8           9          10          11          12
    1   0.0001827   0.0006862  -0.0001423  -0.0003057  -0.0003174  -0.0001203
    2   0.0002020   0.0004247  -0.0003641  -0.0002443  -0.0000024  -0.0006505
    3  -0.0004487   0.0006746  -0.0012094   0.0004187   0.0012868  -0.0010187
           13          14          15          16          17          18
    1   0.0002739  -0.0007020  -0.0002435  -0.0001341   0.0002548   0.0001410
    2   0.0001525  -0.0000859  -0.0000330   0.0001048  -0.0000022   0.0001128
    3  -0.0003284   0.0003478   0.0003669  -0.0003463   0.0001931   0.0001424
           19          20          21          22          23          24
    1   0.0001628   0.0001758  -0.0002897  -0.0002739  -0.0003882  -0.0000839
    2  -0.0000357  -0.0003261   0.0000600   0.0001143   0.0001653  -0.0003511
    3   0.0000591   0.0000066  -0.0000274  -0.0002318   0.0000243   0.0000362
           25          26          27          28          29          30
    1   0.0000749  -0.0000240   0.0002721  -0.0000244   0.0001607  -0.0000124
    2  -0.0001190   0.0000580   0.0001937   0.0001402  -0.0000653   0.0003058
    3  -0.0001434  -0.0000578   0.0000229   0.0000318   0.0000763   0.0002610
           31          32          33          34          35          36
    1   0.0001994   0.0000948   0.0000103  -0.0000093   0.0000702   0.0000552
    2   0.0000352  -0.0000693  -0.0000380   0.0000012  -0.0000461   0.0000105
    3   0.0002827  -0.0002889  -0.0004029   0.0000634   0.0000774   0.0000632
           37          38          39
    1  -0.0000226  -0.0000135  -0.0000224
    2  -0.0000559  -0.0000723   0.0000372
    3  -0.0000067  -0.0000596  -0.0000949
 Max gradient component =       1.287E-03
 RMS gradient           =       3.436E-04
 Gradient time:  CPU 3494.95 s  wall 876.84 s
 Geometry Optimization Parameters
   NAtoms,    NIC,     NZ,  NCons,   NDum,   NFix, NCnnct, MaxDiis
       39     293       0       3       0       0       0       0

 Cartesian Hessian Update
 Hessian Updated using BFGS Update


** CONSTRAINED OPTIMIZATION IN DELOCALIZED INTERNAL COORDINATES **
   Searching for a Minimum

   Optimization Cycle:   2

                       Coordinates (Angstroms)
     ATOM                X               Y               Z
      1  C         7.6836447090    0.3921686564   -0.1447499681
      2  C         6.9679987859    1.4788854043   -0.6206849896
      3  C         6.9761980921   -0.7063491786    0.3152049853
      4  C         5.5887234593    1.4254981486   -0.6109477890
      5  N         5.6516720639   -0.7706454610    0.3304001567
      6  C         4.9668391762    0.2776222092   -0.1205362954
      7  C         3.4817860484    0.2169069839   -0.0895827757
      8  N         2.8473460052    1.3471515121   -0.2400327070
      9  C         2.7171250230   -0.9854323162    0.0950901910
     10  C         1.4956396961    1.4260847537   -0.2234797466
     11  N         3.1566032946   -2.2324939190    0.2751848558
     12  C         1.2853999363   -0.8959724726    0.0992848311
     13  C         0.6360790890    0.3664944339   -0.0567546874
     14  S         1.8605878326   -3.1625509562    0.4326338300
     15  N         0.6850394782   -2.0699932549    0.2840129425
     16  C        -0.8098001226    0.5273177643   -0.0152980128
     17  S        -1.8965072639   -0.8027693709   -0.0951541515
     18  C        -1.5534961045    1.7010381917    0.1068460066
     19  C        -3.3131555216    0.1421585693   -0.0058025527
     20  N        -1.0464571562    2.9618539418    0.2074642448
     21  C        -2.9675154803    1.4827944225    0.1164771903
     22  C        -4.6367590783   -0.4398382596   -0.0397184813
     23  C        -1.9179712258    3.9179131165    0.3079150252
     24  N        -3.8517800541    2.5103122620    0.2248048637
     25  C        -5.8022950177    0.1006153527    0.4296822195
     26  S        -4.9288021853   -2.0018899284   -0.7347333954
     27  C        -3.3284311712    3.6941381073    0.3162504582
     28  C        -6.9206211525   -0.7447783756    0.2410099660
     29  C        -6.5999295236   -1.9166797545   -0.3682698185
     30  H         8.7639502393    0.3940988152   -0.1288887250
     31  H         7.4754243385    2.3584433901   -0.9931369491
     32  H         7.4942844977   -1.5805715075    0.6927354345
     33  H         4.9841147084    2.2449401535   -0.9671271976
     34  H         1.0946573830    2.4214646029   -0.3269199612
     35  H        -1.5375965888    4.9308111172    0.3796778198
     36  H        -5.8395221031    1.0781537894    0.8804409953
     37  H        -4.0059489766    4.5358119719    0.4062860992
     38  H        -7.9215989602   -0.4889198307    0.5535680203
     39  H        -7.2564819020   -2.7295814464   -0.6274466023
   Point Group: c1    Number of degrees of freedom:   111


   Energy is  -2291.195153570

              Constraints and their Current Values
                                        Value     Constraint
   Dihedral:        4   6   7   8      -15.000      -15.000
   Dihedral:       10  13  16  17      168.550      168.550
   Dihedral:       17  19  22  25      157.507      157.507
 Hessian Updated using BFGS Update

101 Hessian modes will be used to form the next step
  Hessian Eigenvalues:
     0.021400    0.045000    0.045000    0.045000    0.045000    0.045000
     0.045000    0.045000    0.045000    0.045001    0.045001    0.045001
     0.045001    0.045002    0.045002    0.045002    0.045002    0.045003
     0.045004    0.045005    0.045007    0.045010    0.045013    0.045017
     0.045030    0.045944    0.159055    0.159979    0.159988    0.159994
     0.159997    0.159998    0.159999    0.159999    0.160000    0.160169
     0.219983    0.221309    0.223763    0.224006    0.233079    0.237934
     0.243314    0.244374    0.248062    0.249734    0.249911    0.249946
     0.249970    0.249975    0.249979    0.249984    0.249990    0.249992
     0.249993    0.249998    0.312843    0.324603    0.327788    0.334451
     0.341472    0.349875    0.354726    0.354776    0.355764    0.358594
     0.360084    0.360720    0.361039    0.362518    0.363553    0.364100
     0.372704    0.375260    0.378558    0.386710    0.405338    0.407689
     0.418915    0.431181    0.441047    0.458566    0.465027    0.467525
     0.473553    0.478242    0.482171    0.484871    0.485070    0.504682
     0.508168    0.517721    0.523638    0.526557    0.561445    0.571457
     0.585035    0.591665    0.638697    0.653359    0.661463

 Minimum Search - Taking Simple RFO Step
 Searching for Lamda that Minimizes Along All modes
 Value Taken    Lamda =  -0.00031681
 Step Taken.  Stepsize is  0.109450

                             Maximum     Tolerance    Cnvgd?
         Gradient           0.003295      0.000300      NO
         Displacement       0.070717      0.001200      NO
         Energy change     -0.000327      0.000001      NO


 New Cartesian Coordinates Obtained by Inverse Iteration

 Displacement from previous Coordinates is:  0.274342
 ----------------------------------------------------------------
             Standard Nuclear Orientation (Angstroms)
    I     Atom           X                Y                Z
 ----------------------------------------------------------------
    1      C       7.6829795977     0.3887864030    -0.1273879698
    2      C       6.9747696010     1.4707855515    -0.6242320654
    3      C       6.9696032631    -0.6982313953     0.3500396534
    4      C       5.5949639610     1.4237003138    -0.6218072072
    5      N       5.6448588527    -0.7579470415     0.3542383436
    6      C       4.9674433718     0.2823950916    -0.1228061628
    7      C       3.4820874471     0.2242485289    -0.0893481337
    8      N       2.8430862839     1.3508804823    -0.2467169657
    9      C       2.7216689420    -0.9810051366     0.0835999340
   10      C       1.4918372478     1.4273728888    -0.2252087400
   11      N       3.1663126014    -2.2322424066     0.2158560647
   12      C       1.2897518514    -0.8952350350     0.0920818833
   13      C       0.6352987916     0.3659191309    -0.0530601037
   14      S       1.8746545966    -3.1690267077     0.3573721912
   15      N       0.6947244834    -2.0755882027     0.2514355989
   16      C      -0.8108011630     0.5250886202    -0.0090436669
   17      S      -1.8988065112    -0.8047988412    -0.0820173609
   18      C      -1.5546419959     1.6993813355     0.1100714103
   19      C      -3.3150601213     0.1409547943     0.0027036530
   20      N      -1.0475913103     2.9609980332     0.2054461576
   21      C      -2.9684684727     1.4817450585     0.1212813933
   22      C      -4.6383991788    -0.4411049651    -0.0296019881
   23      C      -1.9183666558     3.9173273668     0.3036074189
   24      N      -3.8524226479     2.5102397463     0.2267411295
   25      C      -5.8046277044     0.1010616191     0.4369192041
   26      S      -4.9311049427    -2.0051336226    -0.7204815392
   27      C      -3.3291123742     3.6938615956     0.3143078825
   28      C      -6.9233337474    -0.7435616231     0.2481134793
   29      C      -6.6033033157    -1.9166824363    -0.3579298535
   30      H       8.7635115449     0.3841471444    -0.1077639322
   31      H       7.4852453158     2.3429246023    -1.0102207394
   32      H       7.4796116890    -1.5649932081     0.7544215742
   33      H       4.9955303948     2.2427415820    -0.9862930376
   34      H       1.0887609064     2.4220916408    -0.3280561081
   35      H      -1.5389291884     4.9309163218     0.3705326030
   36      H      -5.8423167140     1.0805807155     0.8837243513
   37      H      -4.0063867041     4.5364559915     0.4025076403
   38      H      -7.9246031379    -0.4851743262     0.5582562941
   39      H      -7.2599805893    -2.7296679724    -0.6155769566
 ----------------------------------------------------------------
 Molecular Point Group                 C1    NOp =  1
 Largest Abelian Subgroup              C1    NOp =  1
 Nuclear Repulsion Energy =  2928.8987019361 hartrees
 There are      110 alpha and      110 beta electrons
 Applying Cartesian multipole field
    Component          Value
    ---------          -----
     (2,0,0)        1.00000E-12
     (0,2,0)        2.00000E-11
     (0,0,2)       -3.00000E-10
 Nucleus-field energy     =     0.0000000404 hartrees
 Requested basis set is cc-pVTZ
 There are 356 shells and 1022 basis functions
 A cutoff of  1.0D-11 yielded  30925 shell pairs
 There are    243899 function pairs (    318327 Cartesian)
 Smallest overlap matrix eigenvalue = 2.54E-05
 Guess MOs from SCF MO coefficient file
 Reading MOs from coefficient file
 Reading MOs from coefficient file
 Long-range K will be added via erf
 Coulomb attenuation parameter = 0.2 bohr**(-1)
 A restricted hybrid HF-DFT SCF calculation will be
 performed using Pulay DIIS extrapolation
 Exchange:     0.2220 Hartree-Fock + 1.0000 wB97X-D + LR-HF
 Correlation:  1.0000 wB97X-D
 Using SG-1 standard quadrature grid
 Dispersion:   Grimme D
 SCF converges when DIIS error is below 1.0E-08
 Geometry optimization detected.  Setting ReadMinima to 0
 Setting SaveMinima to 0
 using 4 threads for integral computing 
 using 4 threads for integral computing 
 K construction time:  CPU 1452.57 s  wall 364.71 s
 -------------------------------------------------------
 OpenMP BLAS3 based DFT computing Module                
 Release: version 1.0, May 2013, Q-Chem Inc. Pittsburgh 
 -------------------------------------------------------
 ---------------------------------------
  Cycle       Energy         DIIS Error
 ---------------------------------------
    1   -2291.1935226387      2.17E-04
 K construction time:  CPU 1451.13 s  wall 364.40 s
    2   -2291.1951854322      2.09E-05
 K construction time:  CPU 796.31 s  wall 200.28 s
    3   -2291.1953334673      1.25E-05
 K construction time:  CPU 750.72 s  wall 188.83 s
    4   -2291.1953510411      9.45E-06
 K construction time:  CPU 712.05 s  wall 179.05 s
    5   -2291.1953636297      3.44E-06
 K construction time:  CPU 658.96 s  wall 166.29 s
    6   -2291.1953653492      1.26E-06
 K construction time:  CPU 598.18 s  wall 150.29 s
    7   -2291.1953656307      3.95E-07
 K construction time:  CPU 571.49 s  wall 143.37 s
    8   -2291.1953656776      2.43E-07
 K construction time:  CPU 649.79 s  wall 163.31 s
    9   -2291.1953656904      7.73E-08
 K construction time:  CPU 566.18 s  wall 142.65 s
   10   -2291.1953656912      3.75E-08
 K construction time:  CPU 516.09 s  wall 130.06 s
   11   -2291.1953656908      1.75E-08
 K construction time:  CPU 433.04 s  wall 108.49 s
   12   -2291.1953656943      5.75E-09 Convergence criterion met
 ---------------------------------------
 SCF time:  CPU 12245.73 s  wall 3091.00 s
 SCF   energy in the final basis set = -2291.1953656943
 Total energy in the final basis set = -2291.1953656943
 
 --------------------------------------------------------------
 
                    Orbital Energies (a.u.)
 --------------------------------------------------------------
 
 Alpha MOs
 -- Occupied --
-89.152 -89.107 -89.087 -14.482 -14.479 -14.463 -14.463 -14.444
-14.433 -10.355 -10.353 -10.351 -10.346 -10.344 -10.344 -10.343
-10.342 -10.338 -10.336 -10.335 -10.330 -10.326 -10.323 -10.320
-10.309 -10.301 -10.297 -10.295 -10.293  -8.157  -8.116  -8.097
 -6.107  -6.101  -6.101  -6.064  -6.061  -6.059  -6.046  -6.042
 -6.039  -1.142  -1.102  -1.068  -1.048  -1.030  -1.013  -1.003
 -0.986  -0.925  -0.911  -0.895  -0.879  -0.869  -0.853  -0.838
 -0.812  -0.777  -0.772  -0.748  -0.737  -0.731  -0.716  -0.711
 -0.672  -0.655  -0.649  -0.629  -0.628  -0.620  -0.607  -0.603
 -0.587  -0.575  -0.566  -0.561  -0.557  -0.548  -0.543  -0.526
 -0.512  -0.508  -0.501  -0.498  -0.493  -0.492  -0.485  -0.484
 -0.473  -0.466  -0.462  -0.461  -0.451  -0.443  -0.429  -0.427
 -0.418  -0.411  -0.392  -0.377  -0.372  -0.359  -0.356  -0.351
 -0.343  -0.339  -0.334  -0.333  -0.320  -0.263
 -- Virtual --
 -0.055  -0.024   0.024   0.032   0.042   0.051   0.072   0.073
  0.085   0.089   0.118   0.123   0.124   0.127   0.132   0.137
  0.150   0.153   0.155   0.164   0.170   0.176   0.183   0.190
  0.200   0.205   0.212   0.216   0.222   0.233   0.244   0.250
  0.258   0.266   0.268   0.277   0.281   0.286   0.294   0.295
  0.300   0.305   0.307   0.315   0.318   0.322   0.324   0.331
  0.334   0.338   0.344   0.348   0.349   0.353   0.354   0.358
  0.365   0.369   0.372   0.379   0.381   0.384   0.385   0.391
  0.392   0.394   0.397   0.400   0.404   0.406   0.409   0.412
  0.414   0.419   0.421   0.427   0.432   0.433   0.439   0.442
  0.446   0.447   0.450   0.456   0.458   0.460   0.463   0.465
  0.468   0.472   0.477   0.479   0.483   0.484   0.489   0.492
  0.494   0.502   0.505   0.509   0.511   0.516   0.519   0.521
  0.526   0.532   0.533   0.535   0.541   0.541   0.547   0.559
  0.560   0.565   0.566   0.571   0.585   0.588   0.593   0.599
  0.606   0.607   0.608   0.615   0.617   0.633   0.637   0.639
  0.642   0.651   0.658   0.659   0.663   0.667   0.668   0.673
  0.679   0.688   0.697   0.699   0.703   0.707   0.712   0.717
  0.727   0.730   0.732   0.737   0.742   0.743   0.754   0.759
  0.764   0.767   0.772   0.774   0.778   0.780   0.784   0.791
  0.797   0.800   0.806   0.807   0.809   0.817   0.820   0.826
  0.831   0.835   0.838   0.842   0.848   0.850   0.854   0.856
  0.863   0.868   0.871   0.876   0.880   0.888   0.900   0.906
  0.906   0.912   0.921   0.923   0.924   0.931   0.933   0.939
  0.948   0.951   0.955   0.956   0.963   0.968   0.968   0.971
  0.979   0.983   0.988   0.994   0.999   1.005   1.012   1.018
  1.022   1.027   1.032   1.042   1.046   1.053   1.055   1.060
  1.063   1.071   1.080   1.083   1.087   1.090   1.094   1.101
  1.107   1.110   1.113   1.118   1.128   1.129   1.137   1.142
  1.152   1.159   1.165   1.168   1.175   1.185   1.188   1.193
  1.203   1.210   1.215   1.219   1.232   1.234   1.241   1.248
  1.254   1.264   1.269   1.275   1.278   1.293   1.294   1.303
  1.315   1.320   1.324   1.325   1.343   1.345   1.349   1.353
  1.364   1.368   1.369   1.374   1.380   1.383   1.390   1.391
  1.401   1.404   1.413   1.420   1.424   1.426   1.433   1.439
  1.446   1.449   1.455   1.458   1.469   1.479   1.482   1.486
  1.489   1.495   1.504   1.511   1.515   1.519   1.525   1.532
  1.543   1.562   1.567   1.571   1.580   1.583   1.588   1.596
  1.606   1.612   1.619   1.629   1.633   1.640   1.643   1.646
  1.653   1.659   1.666   1.671   1.679   1.685   1.694   1.698
  1.707   1.715   1.718   1.726   1.732   1.735   1.742   1.753
  1.759   1.768   1.778   1.783   1.795   1.797   1.804   1.811
  1.820   1.835   1.843   1.855   1.860   1.878   1.887   1.893
  1.895   1.905   1.909   1.918   1.920   1.934   1.943   1.952
  1.959   1.969   1.972   1.988   1.989   1.996   2.005   2.010
  2.017   2.018   2.034   2.039   2.041   2.056   2.061   2.067
  2.085   2.091   2.094   2.109   2.111   2.116   2.120   2.128
  2.142   2.153   2.161   2.174   2.178   2.184   2.189   2.199
  2.203   2.208   2.211   2.217   2.236   2.245   2.246   2.255
  2.265   2.281   2.289   2.295   2.295   2.300   2.313   2.319
  2.320   2.330   2.337   2.344   2.358   2.367   2.371   2.379
  2.391   2.394   2.396   2.403   2.406   2.416   2.424   2.431
  2.439   2.440   2.454   2.457   2.464   2.467   2.471   2.478
  2.494   2.502   2.503   2.515   2.521   2.528   2.533   2.535
  2.542   2.547   2.554   2.555   2.562   2.567   2.579   2.602
  2.609   2.616   2.621   2.633   2.637   2.641   2.652   2.658
  2.665   2.670   2.674   2.681   2.690   2.700   2.712   2.721
  2.727   2.733   2.745   2.762   2.769   2.774   2.775   2.782
  2.784   2.791   2.792   2.805   2.808   2.818   2.821   2.832
  2.834   2.842   2.848   2.852   2.867   2.871   2.874   2.879
  2.881   2.889   2.895   2.907   2.917   2.924   2.927   2.933
  2.941   2.942   2.948   2.955   2.959   2.964   2.975   2.976
  2.988   2.993   3.001   3.006   3.009   3.016   3.018   3.022
  3.026   3.027   3.035   3.039   3.045   3.052   3.061   3.062
  3.067   3.068   3.072   3.076   3.077   3.079   3.084   3.089
  3.090   3.095   3.101   3.105   3.114   3.118   3.125   3.132
  3.138   3.140   3.144   3.156   3.160   3.163   3.167   3.169
  3.171   3.179   3.189   3.191   3.196   3.200   3.204   3.205
  3.211   3.218   3.220   3.224   3.225   3.231   3.232   3.237
  3.241   3.249   3.250   3.253   3.258   3.264   3.268   3.274
  3.280   3.286   3.289   3.290   3.297   3.300   3.302   3.308
  3.310   3.312   3.320   3.321   3.323   3.334   3.338   3.344
  3.350   3.355   3.360   3.375   3.378   3.386   3.389   3.393
  3.399   3.404   3.409   3.413   3.417   3.421   3.426   3.431
  3.435   3.443   3.453   3.459   3.460   3.462   3.471   3.477
  3.481   3.486   3.493   3.498   3.501   3.507   3.515   3.517
  3.524   3.534   3.535   3.553   3.564   3.564   3.569   3.582
  3.584   3.598   3.617   3.620   3.624   3.630   3.632   3.648
  3.655   3.665   3.677   3.685   3.687   3.693   3.708   3.712
  3.713   3.721   3.733   3.737   3.739   3.748   3.753   3.757
  3.768   3.780   3.782   3.787   3.791   3.799   3.802   3.811
  3.818   3.828   3.839   3.842   3.848   3.858   3.876   3.879
  3.890   3.903   3.905   3.912   3.913   3.924   3.929   3.932
  3.934   3.937   3.943   3.952   3.955   3.960   3.968   3.984
  3.986   3.990   3.999   4.005   4.020   4.027   4.034   4.040
  4.047   4.062   4.066   4.073   4.081   4.087   4.102   4.105
  4.110   4.117   4.128   4.144   4.149   4.161   4.168   4.175
  4.185   4.193   4.201   4.202   4.207   4.215   4.221   4.226
  4.232   4.234   4.241   4.251   4.256   4.262   4.271   4.282
  4.291   4.298   4.302   4.309   4.322   4.323   4.337   4.340
  4.349   4.352   4.359   4.367   4.370   4.379   4.393   4.398
  4.407   4.410   4.427   4.431   4.439   4.442   4.445   4.452
  4.461   4.481   4.495   4.505   4.513   4.527   4.534   4.539
  4.542   4.559   4.563   4.573   4.587   4.593   4.604   4.609
  4.630   4.637   4.644   4.647   4.659   4.678   4.682   4.691
  4.715   4.726   4.741   4.744   4.755   4.766   4.783   4.790
  4.797   4.804   4.812   4.816   4.827   4.843   4.847   4.866
  4.878   4.882   4.885   4.894   4.905   4.913   4.921   4.933
  4.938   4.950   4.959   4.966   4.972   4.974   4.987   4.990
  4.999   5.005   5.012   5.017   5.034   5.045   5.049   5.057
  5.075   5.085   5.098   5.103   5.107   5.117   5.120   5.129
  5.137   5.143   5.147   5.159   5.174   5.181   5.182   5.193
  5.213   5.222   5.245   5.250   5.267   5.303   5.312   5.316
  5.322   5.345   5.351   5.378   5.384   5.402   5.430   5.432
  5.453   5.470   5.479   5.488   5.501   5.505   5.529   5.543
  5.574   5.576   5.583   5.592   5.598   5.611   5.628   5.649
  5.682   5.699   5.721   5.725   5.745   5.754   5.757   5.793
  5.802   5.833   5.840   5.868   5.883   5.904   5.914   5.930
  5.955   5.981   6.013   6.044   6.087   6.132   6.158   6.187
  6.205   6.244   6.254   6.305   6.328   6.356   6.383   6.432
  6.453   6.503   6.639   6.869   6.989   7.095   8.080   8.900
  9.839  10.213  10.667  11.136  11.267  11.685  12.021  12.127
 12.412  12.668  12.774  12.821  12.861  12.975  13.093  13.179
 13.358  13.471  13.559  14.176  14.397  14.675  15.086  15.112
 --------------------------------------------------------------
 
          Ground-State Mulliken Net Atomic Charges

     Atom                 Charge (a.u.)
  ----------------------------------------
      1 C                    -0.086182
      2 C                    -0.131022
      3 C                    -0.082484
      4 C                    -0.118141
      5 N                    -0.141659
      6 C                     0.074127
      7 C                     0.099445
      8 N                    -0.176381
      9 C                    -0.014979
     10 C                    -0.084323
     11 N                    -0.216625
     12 C                     0.051189
     13 C                     0.060202
     14 S                     0.406436
     15 N                    -0.306690
     16 C                    -0.071659
     17 S                     0.177449
     18 C                     0.060651
     19 C                    -0.054811
     20 N                    -0.170042
     21 C                     0.063611
     22 C                    -0.012013
     23 C                    -0.042927
     24 N                    -0.161752
     25 C                    -0.137466
     26 S                     0.103353
     27 C                    -0.046200
     28 C                    -0.158041
     29 C                    -0.182028
     30 H                     0.128958
     31 H                     0.119444
     32 H                     0.119395
     33 H                     0.141646
     34 H                     0.134620
     35 H                     0.125019
     36 H                     0.133864
     37 H                     0.128607
     38 H                     0.131227
     39 H                     0.136182
  ----------------------------------------
  Sum of atomic charges =     0.000000

 -----------------------------------------------------------------
                    Cartesian Multipole Moments
 -----------------------------------------------------------------
    Charge (ESU x 10^10)
                 0.0000
    Dipole Moment (Debye)
         X      -0.4022      Y       1.5058      Z      -0.2434
       Tot       1.5775
    Quadrupole Moments (Debye-Ang)
        XX    -152.2395     XY       3.1721     YY    -165.4140
        XZ      -4.7811     YZ       0.7609     ZZ    -185.9588
    Octopole Moments (Debye-Ang^2)
       XXX      98.8138    XXY      15.0795    XYY     -40.5243
       YYY      39.7382    XXZ      -4.2303    XYZ     -28.6898
       YYZ       1.0347    XZZ       5.5741    YZZ      -3.9168
       ZZZ       5.9808
    Hexadecapole Moments (Debye-Ang^3)
      XXXX  -16000.6782   XXXY     565.6477   XXYY   -3579.3441
      XYYY    -177.3949   YYYY   -3421.3013   XXXZ    -153.3508
      XXYZ      -7.3782   XYYZ      -4.6493   YYYZ       7.6638
      XXZZ   -3425.6438   XYZZ     -16.6074   YYZZ    -717.2237
      XZZZ      28.8628   YZZZ     -19.1834   ZZZZ    -341.9154
 -----------------------------------------------------------------
 Calculating analytic gradient of the SCF energy
 K construction time:  CPU 2905.85 s  wall 728.30 s
 Gradient of SCF Energy
            1           2           3           4           5           6
    1  -0.0003246   0.0001405  -0.0001163  -0.0000102   0.0007961   0.0005018
    2   0.0001036  -0.0002503  -0.0000251   0.0008709   0.0004020  -0.0007461
    3  -0.0001290   0.0003670  -0.0000455   0.0005842  -0.0008729  -0.0010628
            7           8           9          10          11          12
    1   0.0001955  -0.0006173   0.0000339  -0.0000956  -0.0004375  -0.0000033
    2   0.0003288  -0.0003336  -0.0002792  -0.0001923  -0.0005469  -0.0001368
    3   0.0019318  -0.0005485   0.0003865   0.0001925   0.0001036  -0.0013615
           13          14          15          16          17          18
    1  -0.0000470   0.0002784   0.0000389   0.0001098  -0.0003109  -0.0000915
    2   0.0000190   0.0002072   0.0003736   0.0000602   0.0002048   0.0000077
    3  -0.0003970   0.0001196   0.0006267  -0.0005609   0.0004416   0.0001651
           19          20          21          22          23          24
    1  -0.0000568  -0.0000490  -0.0000257   0.0002359   0.0000932   0.0000700
    2  -0.0001550   0.0000181   0.0000207   0.0001610  -0.0000987   0.0001227
    3  -0.0002945   0.0000001   0.0000872  -0.0003140   0.0000777   0.0000603
           25          26          27          28          29          30
    1  -0.0002163   0.0000595   0.0001972   0.0003022  -0.0002891   0.0001613
    2  -0.0003629  -0.0000171  -0.0002736  -0.0002947   0.0002856  -0.0000306
    3   0.0000274  -0.0000157  -0.0000148  -0.0001965   0.0001606   0.0001803
           31          32          33          34          35          36
    1  -0.0001085  -0.0002175   0.0001279  -0.0000413  -0.0000880   0.0000072
    2   0.0001737  -0.0000266  -0.0001804   0.0001481   0.0000062   0.0001399
    3  -0.0000715   0.0000504   0.0000769   0.0002474   0.0000159   0.0000237
           37          38          39
    1  -0.0001634  -0.0001091   0.0000696
    2   0.0001574  -0.0000142   0.0001527
    3   0.0000243  -0.0000326  -0.0000332
 Max gradient component =       1.932E-03
 RMS gradient           =       3.619E-04
 Gradient time:  CPU 3470.58 s  wall 870.30 s
 Geometry Optimization Parameters
   NAtoms,    NIC,     NZ,  NCons,   NDum,   NFix, NCnnct, MaxDiis
       39     293       0       3       0       0       0       0

 Cartesian Hessian Update
 Hessian Updated using BFGS Update


** CONSTRAINED OPTIMIZATION IN DELOCALIZED INTERNAL COORDINATES **
   Searching for a Minimum

   Optimization Cycle:   3

                       Coordinates (Angstroms)
     ATOM                X               Y               Z
      1  C         7.6829795977    0.3887864030   -0.1273879698
      2  C         6.9747696010    1.4707855515   -0.6242320654
      3  C         6.9696032631   -0.6982313953    0.3500396534
      4  C         5.5949639610    1.4237003138   -0.6218072072
      5  N         5.6448588527   -0.7579470415    0.3542383436
      6  C         4.9674433718    0.2823950916   -0.1228061628
      7  C         3.4820874471    0.2242485289   -0.0893481337
      8  N         2.8430862839    1.3508804823   -0.2467169657
      9  C         2.7216689420   -0.9810051366    0.0835999340
     10  C         1.4918372478    1.4273728888   -0.2252087400
     11  N         3.1663126014   -2.2322424066    0.2158560647
     12  C         1.2897518514   -0.8952350350    0.0920818833
     13  C         0.6352987916    0.3659191309   -0.0530601037
     14  S         1.8746545966   -3.1690267077    0.3573721912
     15  N         0.6947244834   -2.0755882027    0.2514355989
     16  C        -0.8108011630    0.5250886202   -0.0090436669
     17  S        -1.8988065112   -0.8047988412   -0.0820173609
     18  C        -1.5546419959    1.6993813355    0.1100714103
     19  C        -3.3150601213    0.1409547943    0.0027036530
     20  N        -1.0475913103    2.9609980332    0.2054461576
     21  C        -2.9684684727    1.4817450585    0.1212813933
     22  C        -4.6383991788   -0.4411049651   -0.0296019881
     23  C        -1.9183666558    3.9173273668    0.3036074189
     24  N        -3.8524226479    2.5102397463    0.2267411295
     25  C        -5.8046277044    0.1010616191    0.4369192041
     26  S        -4.9311049427   -2.0051336226   -0.7204815392
[...]
   Point Group: c1    Number of degrees of freedom:   111


   Energy is  -2291.195468725

              Constraints and their Current Values
                                        Value     Constraint
   Dihedral:        4   6   7   8      -15.000      -15.000
   Dihedral:       10  13  16  17      168.550      168.550
   Dihedral:       17  19  22  25      157.507      157.507
 Hessian Updated using BFGS Update

 99 Hessian modes will be used to form the next step
  Hessian Eigenvalues:
     0.009514    0.015364    0.034110    0.044335    0.045000    0.045000
     0.045000    0.045000    0.045001    0.045001    0.045001    0.045002
     0.045003    0.045003    0.045005    0.045006    0.045009    0.045013
     0.045023    0.045067    0.045165    0.045281    0.045493    0.045840
     0.156587    0.159186    0.159930    0.159993    0.159997    0.160036
     0.160092    0.160145    0.160306    0.160478    0.219712    0.221307
     0.222701    0.223915    0.231942    0.238207    0.243262    0.244134
     0.244806    0.249370    0.249813    0.249837    0.249941    0.249981
     0.249988    0.249989    0.251266    0.266530    0.309516    0.312997
     0.324218    0.330187    0.334969    0.341699    0.346861    0.354694
     0.354751    0.355781    0.358569    0.360141    0.360976    0.361068
     0.361973    0.363685    0.364262    0.372545    0.374794    0.386797
     0.399124    0.400403    0.407922    0.419135    0.430100    0.439167
     0.457093    0.459906    0.471789    0.473408    0.475165    0.483006
     0.485526    0.486609    0.494216    0.504378    0.517384    0.519164
     0.524443    0.559788    0.570725    0.588856    0.602189    0.638348
     0.651026    0.660315    0.757578

 Minimum Search - Taking Simple RFO Step
 Searching for Lamda that Minimizes Along All modes
 Value Taken    Lamda =   0.00000000
 Step Taken.  Stepsize is  0.002100

                             Maximum     Tolerance    Cnvgd?
         Gradient           0.000059      0.000300     YES
         Displacement       0.000829      0.001200     YES
         Energy change      0.000000      0.000001     YES

 Final energy is   -2291.19546872542     


 ******************************
 **  OPTIMIZATION CONVERGED  **
 ******************************

                       Coordinates (Angstroms)
     ATOM                X               Y               Z
      1  C         7.6771998990    0.3768735686   -0.0577421998
      2  C         6.9903924984    1.4587823172   -0.5845517389
      3  C         6.9434608011   -0.6984928295    0.4153543327
      4  C         5.6104447060    1.4215032899   -0.6170122649
      5  N         5.6184569985   -0.7494716537    0.3859500375
      6  C         4.9624650493    0.2874922652   -0.1294687499
      7  C         3.4780927925    0.2367886571   -0.1263379439
      8  N         2.8419274875    1.3625000002   -0.2990542310
      9  C         2.7185449058   -0.9704918464    0.0284720663
     10  C         1.4896467394    1.4361843552   -0.2786049447
     11  N         3.1669217433   -2.2235259924    0.1250397829
     12  C         1.2878081050   -0.8875516698    0.0407199222
     13  C         0.6344115239    0.3753068465   -0.0927534986
     14  S         1.8767745887   -3.1672931674    0.2390689121
     15  N         0.6950319439   -2.0735201214    0.1649989833
     16  C        -0.8111181782    0.5325627039   -0.0338524448
     17  S        -1.8960585092   -0.8007820830   -0.0896252141
     18  C        -1.5559906669    1.7052632568    0.0915215271
     19  C        -3.3133075977    0.1419336317    0.0142642821
     20  N        -1.0505514221    2.9681510120    0.1776827480
     21  C        -2.9690092707    1.4839043417    0.1236093370
     22  C        -4.6353212919   -0.4441663619   -0.0037655395
     23  C        -1.9224379268    3.9225359809    0.2858093450
     24  N        -3.8541914793    2.5104097095    0.2383796369
     25  C        -5.7979784279    0.0923019884    0.4774557559
     26  S        -4.9299619955   -2.0055220346   -0.6997519147
     27  C        -3.3325577586    3.6956048608    0.3163251146
     28  C        -6.9159140190   -0.7554284928    0.2961654654
     29  C        -6.5982646953   -1.9249027507   -0.3191917817
     30  H         8.7568040740    0.3642188901   -0.0153984305
     31  H         7.5189020423    2.3230777340   -0.9633615923
     32  H         7.4386106281   -1.5625176542    0.8436647091
     33  H         5.0288888243    2.2424002173   -1.0066056244
     34  H         1.0845118912    2.4285512080   -0.3940553546
     35  H        -1.5438992368    4.9368274340    0.3471604080
     36  H        -5.8345043291    1.0693696586    0.9291747609
     37  H        -4.0103403837    4.5364837992    0.4122794613
     38  H        -7.9146545828   -0.5019600960    0.6177631787
     39  H        -7.2547912022   -2.7391893348   -0.5740209689

Z-matrix Print:
$molecule
0 1
S 
C  1 1.705315
C  2 1.389742 1 109.433205
N  3 1.360306 2 125.036679 1 179.365246 0
C  4 1.297253 3 115.647866 2 179.379001 0
H  5 1.084285 4 117.547715 3 179.785605 0
C  5 1.428589 4 122.734892 3 0.041612 0
H  7 1.084363 5 119.468954 4 -179.533956 0
N  7 1.297200 5 123.253920 4 -0.029219 0
C  9 1.363003 7 115.957931 5 -0.035360 0
C  10 1.394912 9 125.916800 7 -179.812450 0
C  2 1.446222 1 122.337646 3 179.504591 0
C  12 1.367898 2 127.852952 1 -157.506516 0
H  13 1.077054 12 122.150533 2 -0.958938 0
C  13 1.414671 12 113.052795 2 179.986605 0
H  15 1.079423 13 123.523802 12 -179.650859 0
C  15 1.359130 13 112.889280 12 0.031440 0
H  17 1.076581 15 127.985496 13 -179.924069 0
C  11 1.455251 10 128.675571 9 -0.411206 0
C  19 1.375292 11 122.671125 10 12.490056 0
H  20 1.078079 19 119.395580 11 0.474916 0
N  20 1.354441 19 125.516726 11 -177.721913 0
C  22 1.304516 20 122.129336 19 0.613912 0
C  19 1.428130 11 123.109148 10 -167.313631 0
N  24 1.331672 19 126.340749 11 -3.589087 0
C  24 1.433191 19 120.471570 11 177.436994 0
N  26 1.334339 24 112.903478 19 178.198423 0
C  23 1.485241 22 117.234936 20 178.232581 0
N  28 1.330893 23 117.722683 22 -162.611779 0
C  29 1.326310 28 118.102388 23 178.459919 0
H  30 1.084049 29 115.749279 28 -179.950936 0
C  30 1.385138 29 123.467891 28 -0.196186 0
H  32 1.080508 30 120.451049 29 179.613445 0
C  32 1.385554 30 118.262057 29 -0.272546 0
H  34 1.081585 32 120.992516 30 -179.797665 0
C  34 1.380833 32 118.896639 30 0.023253 0
H  36 1.078824 34 121.780428 32 -179.303166 0
S  27 1.602554 26 106.717746 24 0.730632 0
S  17 1.713056 15 111.634569 13 0.474113 0
$end

 
 --------------------------------------------------------------
 
                    Orbital Energies (a.u.)
 --------------------------------------------------------------
 
 Alpha MOs
 -- Occupied --
-89.152 -89.107 -89.087 -14.482 -14.479 -14.463 -14.463 -14.445
-14.434 -10.355 -10.352 -10.351 -10.346 -10.344 -10.344 -10.342
-10.341 -10.338 -10.336 -10.335 -10.330 -10.326 -10.324 -10.320
-10.309 -10.301 -10.298 -10.295 -10.293  -8.157  -8.116  -8.097
 -6.107  -6.101  -6.101  -6.064  -6.060  -6.059  -6.046  -6.042
 -6.039  -1.142  -1.102  -1.068  -1.048  -1.030  -1.013  -1.003
 -0.986  -0.925  -0.911  -0.895  -0.879  -0.869  -0.853  -0.838
 -0.811  -0.777  -0.772  -0.748  -0.738  -0.731  -0.716  -0.711
 -0.672  -0.655  -0.648  -0.629  -0.628  -0.620  -0.607  -0.603
 -0.586  -0.575  -0.567  -0.561  -0.557  -0.548  -0.543  -0.526
 -0.511  -0.508  -0.501  -0.498  -0.493  -0.492  -0.485  -0.484
 -0.473  -0.466  -0.462  -0.461  -0.451  -0.443  -0.428  -0.426
 -0.418  -0.411  -0.392  -0.377  -0.372  -0.359  -0.356  -0.351
 -0.343  -0.339  -0.334  -0.333  -0.320  -0.263
 -- Virtual --
 -0.055  -0.024   0.024   0.032   0.042   0.051   0.072   0.073
  0.085   0.089   0.118   0.123   0.124   0.127   0.132   0.137
  0.150   0.153   0.156   0.164   0.170   0.176   0.183   0.190
  0.201   0.204   0.212   0.215   0.222   0.233   0.244   0.250
  0.259   0.266   0.268   0.278   0.281   0.287   0.294   0.295
  0.300   0.305   0.307   0.315   0.319   0.322   0.324   0.331
  0.334   0.338   0.344   0.348   0.350   0.353   0.354   0.359
  0.365   0.369   0.372   0.378   0.381   0.384   0.385   0.391
  0.392   0.394   0.397   0.400   0.404   0.406   0.409   0.412
  0.414   0.419   0.421   0.427   0.432   0.434   0.439   0.442
  0.446   0.447   0.450   0.457   0.458   0.460   0.463   0.465
  0.468   0.472   0.476   0.479   0.483   0.484   0.489   0.492
  0.494   0.502   0.505   0.509   0.511   0.515   0.519   0.521
  0.527   0.532   0.533   0.535   0.540   0.541   0.548   0.559
  0.559   0.565   0.566   0.570   0.585   0.589   0.592   0.599
  0.606   0.606   0.608   0.615   0.618   0.633   0.637   0.640
  0.643   0.650   0.657   0.659   0.663   0.667   0.669   0.673
  0.680   0.688   0.696   0.699   0.703   0.707   0.713   0.717
  0.727   0.730   0.732   0.736   0.741   0.743   0.754   0.758
  0.764   0.766   0.773   0.775   0.778   0.780   0.784   0.790
  0.798   0.800   0.806   0.807   0.808   0.816   0.820   0.825
  0.831   0.834   0.838   0.844   0.847   0.850   0.853   0.855
  0.864   0.868   0.870   0.875   0.880   0.889   0.900   0.906
  0.907   0.913   0.922   0.923   0.925   0.931   0.933   0.938
  0.947   0.951   0.955   0.956   0.962   0.968   0.968   0.971
  0.980   0.984   0.989   0.996   1.000   1.006   1.013   1.018
  1.023   1.027   1.033   1.042   1.047   1.054   1.056   1.060
  1.063   1.071   1.080   1.083   1.087   1.090   1.094   1.101
  1.105   1.110   1.112   1.117   1.128   1.129   1.135   1.144
  1.152   1.159   1.165   1.169   1.174   1.185   1.188   1.193
  1.203   1.209   1.215   1.219   1.232   1.234   1.241   1.247
  1.254   1.263   1.268   1.274   1.277   1.294   1.294   1.304
  1.315   1.319   1.324   1.325   1.343   1.345   1.349   1.352
  1.364   1.368   1.369   1.375   1.380   1.383   1.391   1.391
  1.403   1.404   1.414   1.420   1.424   1.425   1.434   1.439
  1.446   1.449   1.455   1.457   1.468   1.478   1.482   1.486
  1.488   1.495   1.504   1.510   1.515   1.520   1.525   1.533
  1.543   1.561   1.568   1.571   1.580   1.583   1.589   1.598
  1.606   1.611   1.620   1.629   1.632   1.639   1.642   1.646
  1.653   1.659   1.667   1.671   1.679   1.686   1.695   1.697
  1.706   1.714   1.718   1.727   1.732   1.735   1.741   1.753
  1.758   1.768   1.779   1.782   1.794   1.796   1.805   1.812
  1.820   1.833   1.844   1.856   1.860   1.878   1.886   1.893
  1.894   1.905   1.911   1.918   1.920   1.934   1.944   1.953
  1.961   1.969   1.973   1.989   1.989   1.995   2.006   2.010
  2.017   2.018   2.034   2.039   2.041   2.053   2.061   2.066
  2.082   2.090   2.094   2.109   2.111   2.117   2.119   2.127
  2.143   2.152   2.161   2.173   2.177   2.184   2.190   2.199
  2.203   2.208   2.212   2.217   2.237   2.245   2.247   2.254
  2.265   2.281   2.288   2.294   2.295   2.300   2.314   2.318
  2.319   2.330   2.337   2.344   2.356   2.365   2.371   2.379
  2.391   2.395   2.396   2.403   2.406   2.415   2.425   2.431
  2.438   2.440   2.454   2.456   2.463   2.466   2.471   2.479
  2.494   2.501   2.503   2.515   2.521   2.528   2.534   2.534
  2.542   2.548   2.552   2.556   2.562   2.567   2.578   2.602
  2.609   2.615   2.621   2.634   2.637   2.642   2.652   2.658
  2.665   2.671   2.673   2.681   2.692   2.700   2.713   2.721
  2.728   2.732   2.743   2.763   2.769   2.772   2.774   2.781
  2.783   2.791   2.793   2.806   2.807   2.817   2.821   2.831
  2.834   2.841   2.847   2.851   2.868   2.872   2.874   2.878
  2.880   2.890   2.895   2.907   2.918   2.923   2.926   2.933
  2.941   2.942   2.948   2.955   2.960   2.964   2.974   2.976
  2.987   2.993   3.001   3.006   3.010   3.016   3.017   3.023
  3.025   3.027   3.036   3.039   3.046   3.053   3.061   3.062
  3.067   3.068   3.071   3.076   3.076   3.079   3.085   3.089
  3.091   3.096   3.101   3.106   3.116   3.119   3.125   3.133
  3.138   3.141   3.145   3.156   3.159   3.162   3.167   3.170
  3.170   3.179   3.189   3.192   3.196   3.200   3.204   3.207
  3.210   3.218   3.221   3.224   3.227   3.231   3.231   3.237
  3.241   3.250   3.251   3.253   3.259   3.265   3.268   3.274
  3.280   3.286   3.289   3.290   3.297   3.300   3.302   3.309
  3.311   3.314   3.319   3.321   3.323   3.333   3.339   3.344
  3.350   3.355   3.359   3.376   3.379   3.385   3.389   3.393
  3.400   3.405   3.410   3.413   3.417   3.420   3.426   3.431
  3.435   3.443   3.452   3.459   3.460   3.463   3.471   3.477
  3.482   3.487   3.493   3.498   3.501   3.508   3.513   3.518
  3.524   3.532   3.535   3.553   3.564   3.566   3.569   3.582
  3.584   3.597   3.617   3.620   3.624   3.630   3.634   3.648
  3.654   3.665   3.678   3.684   3.687   3.693   3.707   3.712
  3.713   3.720   3.732   3.737   3.739   3.747   3.753   3.757
  3.767   3.780   3.782   3.787   3.792   3.800   3.802   3.812
  3.819   3.828   3.838   3.843   3.849   3.858   3.876   3.879
  3.890   3.902   3.904   3.912   3.913   3.923   3.929   3.933
  3.934   3.937   3.943   3.952   3.955   3.960   3.968   3.983
  3.985   3.989   3.999   4.006   4.021   4.027   4.035   4.039
  4.047   4.063   4.067   4.074   4.082   4.087   4.102   4.105
  4.110   4.116   4.128   4.143   4.149   4.161   4.168   4.175
  4.186   4.193   4.200   4.203   4.208   4.215   4.221   4.227
  4.232   4.234   4.241   4.251   4.257   4.260   4.271   4.282
  4.290   4.299   4.303   4.310   4.321   4.322   4.338   4.339
  4.349   4.351   4.359   4.366   4.371   4.379   4.393   4.398
  4.407   4.411   4.426   4.432   4.438   4.441   4.444   4.452
  4.462   4.482   4.495   4.504   4.514   4.527   4.533   4.539
  4.544   4.559   4.564   4.572   4.586   4.592   4.604   4.609
  4.630   4.634   4.644   4.648   4.660   4.678   4.681   4.692
  4.715   4.725   4.740   4.743   4.756   4.767   4.784   4.789
  4.797   4.803   4.812   4.816   4.827   4.844   4.846   4.865
  4.877   4.881   4.886   4.895   4.905   4.914   4.921   4.932
  4.939   4.949   4.959   4.965   4.972   4.976   4.986   4.990
  4.999   5.006   5.011   5.017   5.034   5.045   5.048   5.057
  5.076   5.085   5.097   5.104   5.106   5.117   5.121   5.130
  5.137   5.143   5.148   5.158   5.173   5.180   5.182   5.193
  5.212   5.222   5.244   5.250   5.267   5.303   5.311   5.316
  5.322   5.343   5.352   5.378   5.383   5.403   5.428   5.431
  5.452   5.469   5.478   5.489   5.500   5.505   5.529   5.542
  5.571   5.576   5.583   5.592   5.599   5.611   5.627   5.649
  5.683   5.699   5.720   5.724   5.746   5.754   5.757   5.792
  5.800   5.833   5.839   5.867   5.882   5.904   5.913   5.930
  5.956   5.980   6.014   6.042   6.087   6.131   6.157   6.187
  6.205   6.244   6.254   6.308   6.326   6.355   6.381   6.432
  6.449   6.500   6.639   6.868   6.988   7.092   8.079   8.897
  9.841  10.212  10.667  11.136  11.267  11.682  12.025  12.130
 12.413  12.667  12.774  12.824  12.857  12.972  13.090  13.178
 13.354  13.465  13.554  14.174  14.394  14.672  15.083  15.109
 --------------------------------------------------------------
 
          Ground-State Mulliken Net Atomic Charges

     Atom                 Charge (a.u.)
  ----------------------------------------
      1 C                    -0.086796
      2 C                    -0.131039
      3 C                    -0.081624
      4 C                    -0.119341
      5 N                    -0.142424
      6 C                     0.075290
      7 C                     0.100680
      8 N                    -0.176154
      9 C                    -0.014215
     10 C                    -0.083797
     11 N                    -0.217121
     12 C                     0.052712
     13 C                     0.058897
     14 S                     0.406214
     15 N                    -0.307151
     16 C                    -0.072228
     17 S                     0.177442
     18 C                     0.060538
     19 C                    -0.054817
     20 N                    -0.170472
     21 C                     0.064027
     22 C                    -0.012228
     23 C                    -0.042775
     24 N                    -0.161719
     25 C                    -0.138092
     26 S                     0.103701
     27 C                    -0.046334
     28 C                    -0.157897
     29 C                    -0.182357
     30 H                     0.129421
     31 H                     0.120332
     32 H                     0.118701
     33 H                     0.140943
     34 H                     0.134807
     35 H                     0.125026
     36 H                     0.133993
     37 H                     0.128583
     38 H                     0.131179
     39 H                     0.136094
  ----------------------------------------
  Sum of atomic charges =     0.000000

 -----------------------------------------------------------------
                    Cartesian Multipole Moments
 -----------------------------------------------------------------
    Charge (ESU x 10^10)
                 0.0000
    Dipole Moment (Debye)
         X      -0.3243      Y       1.4720      Z      -0.2071
       Tot       1.5214
    Quadrupole Moments (Debye-Ang)
        XX    -151.9039     XY       3.0957     YY    -165.4433
        XZ      -4.5387     YZ       0.8391     ZZ    -185.9235
    Octopole Moments (Debye-Ang^2)
       XXX     103.8025    XXY      14.2432    XYY     -40.4409
       YYY      38.2423    XXZ       2.4844    XYZ     -28.3004
       YYZ       2.6785    XZZ       5.5403    YZZ      -4.1167
       ZZZ      11.7243
    Hexadecapole Moments (Debye-Ang^3)
      XXXX  -15971.6174   XXXY     568.4784   XXYY   -3574.0969
      XYYY    -182.3985   YYYY   -3423.3399   XXXZ    -116.5194
      XXYZ     -15.4360   XYYZ       1.6234   YYYZ      -2.7106
      XXZZ   -3416.7335   XYZZ     -19.7904   YYZZ    -717.5493
      XZZZ      46.8390   YZZZ     -31.5255   ZZZZ    -336.0387
 -----------------------------------------------------------------
Archival summary:
1\1\chiqspirix\OPT\ProcedureUnspecified\BasisUnspecified\362010\Andres\WedJun711:35:002017WedJun711:35:002017\0\\#,OPT,ProcedureUnspecified,BasisUnspecified,\\0,1\S\C,1,1.70532\C,2,1.38974,1,109.433\N,3,1.36031,2,125.037,1,179.365,0\C,4,1.29725,3,115.648,2,179.379,0\H,5,1.08428,4,117.548,3,179.786,0\C,5,1.42859,4,122.735,3,0.0416119,0\H,7,1.08436,5,119.469,4,-179.534,0\N,7,1.2972,5,123.254,4,-0.0292194,0\C,9,1.363,7,115.958,5,-0.0353599,0\C,10,1.39491,9,125.917,7,-179.812,0\C,2,1.44622,1,122.338,3,179.505,0\C,12,1.3679,2,127.853,1,-157.507,0\H,13,1.07705,12,122.151,2,-0.958938,0\C,13,1.41467,12,113.053,2,179.987,0\H,15,1.07942,13,123.524,12,-179.651,0\C,15,1.35913,13,112.889,12,0.03144,0\H,17,1.07658,15,127.985,13,-179.924,0\C,11,1.45525,10,128.676,9,-0.411206,0\C,19,1.37529,11,122.671,10,12.4901,0\H,20,1.07808,19,119.396,11,0.474916,0\N,20,1.35444,19,125.517,11,-177.722,0\C,22,1.30452,20,122.129,19,0.613912,0\C,19,1.42813,11,123.109,10,-167.314,0\N,24,1.33167,19,126.341,11,-3.58909,0\C,24,1.43319,19,120.472,11,177.437,0\N,26,1.33434,24,112.903,19,178.198,0\C,23,1.48524,22,117.235,20,178.233,0\N,28,1.33089,23,117.723,22,-162.612,0\C,29,1.32631,28,118.102,23,178.46,0\H,30,1.08405,29,115.749,28,-179.951,0\C,30,1.38514,29,123.468,28,-0.196186,0\H,32,1.08051,30,120.451,29,179.613,0\C,32,1.38555,30,118.262,29,-0.272546,0\H,34,1.08158,32,120.993,30,-179.798,0\C,34,1.38083,32,118.897,30,0.023253,0\H,36,1.07882,34,121.78,32,-179.303,0\S,27,1.60255,26,106.718,24,0.730632,0\S,17,1.71306,15,111.635,13,0.474113,0\\\@

 Total job time:  33536.65s(wall), 132901.44s(cpu) 
 Wed Jun  7 11:35:00 2017

        *************************************************************
        *                                                           *
        *  Thank you very much for using Q-Chem.  Have a nice day.  *
        *                                                           *
        *************************************************************


0 sent ACK to 0 
now end server 0 ... 
cleanup process ... done
