
Running Job 1 of 1 C169_120.qcin
qchem C169_120.qcin_12176.0 /home/Andres/temp/qchem12176/ 1
/usr/local/qchem44/bin/mpi/mpirun_qchem -machinefile /usr/local/qchem44/bin/mpi/machines -np 1 /usr/local/qchem44/exe/qcprog.exe C169_120.qcin_12176.0 /home/Andres/temp/qchem12176/

Process 0 of 1 is on localhost.localdomain - thread support 0
initial socket setup ...start
initial socket setup ...done 
now start server 0 ... 
localhost.localdomain 127.0.0
                  Welcome to Q-Chem
     A Quantum Leap Into The Future Of Chemistry


 Q-Chem 4.4, Q-Chem, Inc., Pleasanton, CA (2016)

 Y. Shao,  Z. Gan,  E. Epifanovsky,  A. T. B. Gilbert,  M. Wormit,  
 J. Kussmann,  A. W. Lange,  A. Behn,  J. Deng,  X. Feng,  D. Ghosh,  
 M. Goldey,  P. R. Horn,  L. D. Jacobson,  I. Kaliman,  R. Z. Khaliullin,  
 T. Kus,  A. Landau,  J. Liu,  E. I. Proynov,  Y. M. Rhee,  R. M. Richard,  
 M. A. Rohrdanz,  R. P. Steele,  E. J. Sundstrom,  H. L. Woodcock III,  
 P. M. Zimmerman,  D. Zuev,  B. Albrecht,  E. Alguire,  B. Austin,  
 S. A. Baeppler,  G. J. O. Beran,  Y. A. Bernard,  E. Berquist,  
 K. Brandhorst,  K. B. Bravaya,  S. T. Brown,  D. Casanova,  C.-M. Chang,  
 Y. Chen,  S. H. Chien,  K. D. Closser,  M. P. Coons,  D. L. Crittenden,  
 S. Dasgupta,  M. Diedenhofen,  R. A. DiStasio Jr.,  H. Do,  A. D. Dutoi,  
 R. G. Edgar,  P.-T. Fang,  S. Fatehi,  Q. Feng,  L. Fusti-Molnar,  
 A. Ghysels,  A. Golubeva-Zadorozhnaya,  J. Gomes,  A. Gunina,  
 M. W. D. Hanson-Heine,  P. H. P. Harbach,  A. W. Hauser,  E. G. Hohenstein,  
 Z. C. Holden,  K. Hui,  T.-C. Jagau,  H. Ji,  B. Kaduk,  K. Khistyaev,  
 Jaehoon Kim,  Jihan Kim,  R. A. King,  P. Klunzinger,  D. Kosenkov,  
 T. Kowalczyk,  C. M. Krauter,  A. Kunitsa,  K. U. Lao,  A. Laurent,  
 K. V. Lawler,  D. Lefrancois,  S. Lehtola,  S. V. Levchenko,  C. Y. Lin,  
 Y.-S. Lin,  F. Liu,  E. Livshits,  R. C. Lochan,  A. Luenser,  P. Manohar,  
 S. F. Manzer,  S.-P. Mao,  Y. Mao,  N. Mardirossian,  A. V. Marenich,  
 L. A. Martinez-Martinez,  S. A. Maurer,  N. J. Mayhall,  J.-M. Mewes,  
 A. F. Morrison,  K. Nanda,  C. M. Oana,  R. Olivares-Amaya,  D. P. O'Neill,  
 J. A. Parkhill,  T. M. Perrine,  R. Peverati,  P. A. Pieniazek,  F. Plasser,  
 A. Prociuk,  D. R. Rehn,  E. Rosta,  N. J. Russ,  N. Sergueev,  
 S. M. Sharada,  S. Sharma,  D. W. Small,  A. Sodt,  T. Stauch,  T. Stein,  
 D. Stuck,  Y.-C. Su,  A. J. W. Thom,  T. Tsuchimochi,  L. Vogt,  O. Vydrov,  
 T. Wang,  M. A. Watson,  J. Wenzel,  A. White,  C. F. Williams,  
 V. Vanovschi,  S. Yeganeh,  S. R. Yost,  Z.-Q. You,  I. Y. Zhang,  X. Zhang,  
 Y. Zhao,  B. R. Brooks,  G. K. L. Chan,  D. M. Chipman,  C. J. Cramer,  
 W. A. Goddard III,  M. S. Gordon,  W. J. Hehre,  A. Klamt,  
 H. F. Schaefer III,  M. W. Schmidt,  C. D. Sherrill,  D. G. Truhlar,  
 A. Warshel,  X. Xu,  A. Aspuru-Guzik,  R. Baer,  A. T. Bell,  N. A. Besley,  
 J.-D. Chai,  A. Dreuw,  B. D. Dunietz,  T. R. Furlani,  S. R. Gwaltney,  
 C.-P. Hsu,  Y. Jung,  J. Kong,  D. S. Lambrecht,  W. Liang,  C. Ochsenfeld,  
 V. A. Rassolov,  L. V. Slipchenko,  J. E. Subotnik,  T. Van Voorhis,  
 J. M. Herbert,  A. I. Krylov,  P. M. W. Gill,  M. Head-Gordon

 Contributors to earlier versions of Q-Chem not listed above: 
 R. D. Adamson,  J. Baker,  E. F. C. Byrd,  A. K. Chakraborty,  C.-L. Cheng,  
 H. Dachsel,  R. J. Doerksen,  G. Hawkins,  A. Heyden,  S. Hirata,  
 G. Kedziora,  F. J. Keil,  C. Kelley,  P. P. Korambath,  W. Kurlancheek,  
 A. M. Lee,  M. S. Lee,  D. Liotard,  I. Lotan,  P. E. Maslen,  N. Nair,  
 D. Neuhauser,  R. Olson,  B. Peters,  J. Ritchie,  N. E. Schultz,  
 N. Shenvi,  A. C. Simmonett,  K. S. Thanthiriwatte,  Q. Wu,  W. Zhang

 Please cite Q-Chem as follows:
 Y. Shao et al., Mol. Phys. 113, 184-215 (2015)
 DOI: 10.1080/00268976.2014.952696

 Q-Chem 4.4.0 for Intel X86 Linux

 Parts of Q-Chem use Armadillo 5.200.1 (Boston Tea Smuggler).
 http://arma.sourceforge.net/

 Q-Chem begins on Thu Jun  1 20:39:35 2017  

Host: 
0

     Scratch files written to /home/Andres/temp/qchem12176//
 Apr2716 1281_ 20995  20993 0   
 Parallel job on  1  processors
Processing $rem in /usr/local/qchem44/config/preferences.
 MEM_TOTAL  16000 

Checking the input file for inconsistencies... 	...done.

--------------------------------------------------------------
User input:
--------------------------------------------------------------
$comment
OPTIMIZATION
$end

$rem
JOBTYPE OPT
EXCHANGE omegaB97X-D
BASIS cc-pVTZ
$end

$molecule
0 1
C          0.00000        0.00000        0.00000
C         -0.65442       -1.22189        0.00029
C          1.38558        0.00000        0.00000
C          0.09563       -2.38039        0.00926
N          2.11898       -1.10529        0.01182
C          1.48579       -2.27657        0.02342
C          2.30845       -3.51149        0.04024
N          3.13278       -3.69267       -0.95498
C          2.22816       -4.51023        1.06581
C          3.92351       -4.78953       -1.04252
N          1.41996       -4.54144        2.12616
C          3.07491       -5.66266        0.97366
C          3.96476       -5.82025       -0.13299
S          1.74691       -5.89917        2.91418
N          2.89975       -6.52230        1.97544
C          4.81595       -6.98816       -0.30608
S          5.08897       -8.13255        0.94752
C          5.51534       -7.39694       -1.44122
C          6.12749       -9.12786        0.03168
N          5.53815       -6.75196       -2.64109
C          6.25328       -8.60835       -1.25153
C          6.73288      -10.32363        0.57638
C          6.26034       -7.30320       -3.56819
N          6.99859       -9.15780       -2.24735
C          7.21373      -11.40666       -0.10640
S          6.94074      -10.54059        2.28446
C          6.99595       -8.51143       -3.37308
C          7.73525      -12.41013        0.74408
C          7.64791      -12.08413        2.06170
H         -0.54818        0.93041       -0.00000
H         -1.73449       -1.27032       -0.00344
H          1.93674        0.93371       -0.01430
H         -0.36223       -3.35775        0.00507
H          4.54425       -4.83644       -1.92246
H          6.29964       -6.80202       -4.52897
H          7.19665      -11.46028       -1.18153
H          7.57820       -8.92379       -4.18857
H          8.15201      -13.33871        0.38558
H          7.96860      -12.66431        2.91056
$end

$opt
CONSTRAINT
tors 4 6 7 8 120.00000
tors 10 13 16 17 168.54979
tors 17 19 22 25 157.50653
ENDCONSTRAINT
$end
--------------------------------------------------------------
 ----------------------------------------------------------------
             Standard Nuclear Orientation (Angstroms)
    I     Atom           X                Y                Z
 ----------------------------------------------------------------
    1      C      -7.6763709705     0.3957238864     0.2197563324
    2      C      -7.0594220373    -0.0875401501    -0.9235330786
    3      C      -6.8738548767     0.8216067333     1.2659033853
    4      C      -5.6807804963    -0.1325067056    -0.9693939934
    5      N      -5.5482602465     0.7811650939     1.2368412644
    6      C      -4.9603907372     0.3056589755     0.1408192090
    7      C      -3.4774876532     0.2581356979     0.1121874799
    8      N      -2.8415841545     1.3885140322     0.2559948213
    9      C      -2.7210021695    -0.9437355869    -0.0851878592
   10      C      -1.4885801679     1.4593685324     0.2365295682
   11      N      -3.1751452099    -2.1782759645    -0.3046589993
   12      C      -1.2902057666    -0.8642244486    -0.0936567502
   13      C      -0.6343758656     0.3946074205     0.0693503642
   14      S      -1.8875980472    -3.1184728391    -0.4765738526
   15      N      -0.7017937449    -2.0412068909    -0.2978839438
   16      C       0.8124865356     0.5466372406     0.0249154879
   17      S       1.8898594510    -0.7907541498     0.1044970347
   18      C       1.5630619970     1.7152890745    -0.1003029133
   19      C       3.3125738783     0.1443826654     0.0078974103
   20      N       1.0635284577     2.9788080511    -0.2012660370
   21      C       2.9758608576     1.4875531014    -0.1140008664
   22      C       4.6320087530    -0.4482363615     0.0388059070
   23      C       1.9411789832     3.9295424151    -0.3050546093
   24      N       3.8661872557     2.5092497478    -0.2257802856
   25      C       5.8007044411     0.0800930539    -0.4359336526
   26      S       4.9107544928    -2.0113100216     0.7365997542
   27      C       3.3499775650     3.6968199905    -0.3167399095
   28      C       6.9115043457    -0.7762472190    -0.2487004009
   29      C       6.5809229097    -1.9443365547     0.3647406785
   30      H      -8.7522676110     0.4418449754     0.3002755520
   31      H      -7.6454727212    -0.4272466054    -1.7661805155
   32      H      -7.3155582538     1.2195927869     2.1727117594
   33      H      -5.1492583931    -0.4948137398    -1.8360564260
   34      H      -1.0812885067     2.4517136303     0.3422547245
   35      H       1.5658218926     4.9442296433    -0.3781365771
   36      H       5.8461589812     1.0550464826    -0.8903245023
   37      H       4.0321638226     4.5335366406    -0.4095134489
   38      H       7.9136734500    -0.5313694227    -0.5651872336
   39      H       7.2303893396    -2.7632712768     0.6246512120
 ----------------------------------------------------------------
 Molecular Point Group                 C1    NOp =  1
 Largest Abelian Subgroup              C1    NOp =  1
 Nuclear Repulsion Energy =  2927.6224671334 hartrees
 There are      110 alpha and      110 beta electrons
 Requested basis set is cc-pVTZ
 There are 356 shells and 1022 basis functions

 Total QAlloc Memory Limit  16000 MB
 Mega-Array Size        61 MB
 MEM_STATIC part        62 MB
 A cutoff of  1.0D-11 yielded  30891 shell pairs
 There are    243931 function pairs (    318387 Cartesian)
 
 -------------------------------------------------------
 OpenMP Integral Computing Module                       
 Release: version 1.0, May 2013, Q-Chem Inc. Pittsburgh 
 -------------------------------------------------------
 Integral Job Info:
 Integral job number is                      11
 Integral operator is                         1
 short-range coefficients              22203600
 long-range coefficients              100000000
 Omega coefficients                         200
 if combine SR and LR in K                    1
 Integral screening is                        0
 Integral computing path is                   2
 max size of driver memory is            800000
 size of driver memory is                776718
 size of scratch memory is             26248924
 max col of scratch BK array              10000
 max len of scratch array in speh3          662
 max len of scratch index in speh4           32
 max int batch size is                      520
 min int batch size is                       52
 fixed nKL is                                52
 max L of basis functions is                  3
 order of int derivative is                   0
 number of shells is                        356
 number of basis is                        1177
 number of cartesian basis is              1177
 number of contracted shell pairs         30891
 number of primitive shell pairs          93518
 maxK2 (contraction) of shell pair          121
 max number of K2 of shell pair               1
 max number of CS2 of shell pair           4271
 max number of PS2 of shell pair          13055
 mem total for path MDJ                  840168
 -------------------------------------------------------
 Smallest overlap matrix eigenvalue = 2.58E-05

 Scale SEOQF with 1.000000e-02/1.000000e-01/1.000000e-01

 Standard Electronic Orientation quadrupole field applied
 Nucleus-field energy     =     0.0000000601 hartrees
 Guess from superposition of atomic densities
 Warning:  Energy on first SCF cycle will be non-variational
 Long-range K will be added via erf
 Coulomb attenuation parameter = 0.2 bohr**(-1)
 A restricted hybrid HF-DFT SCF calculation will be
 performed using Pulay DIIS extrapolation
 Exchange:     0.2220 Hartree-Fock + 1.0000 wB97X-D + LR-HF
 Correlation:  1.0000 wB97X-D
 Using SG-1 standard quadrature grid
 Dispersion:   Grimme D
 SCF converges when DIIS error is below 1.0E-08
 using 4 threads for integral computing 
 using 4 threads for integral computing 
 K construction time:  CPU 83.42 s  wall 21.20 s
 -------------------------------------------------------
 OpenMP BLAS3 based DFT computing Module                
 Release: version 1.0, May 2013, Q-Chem Inc. Pittsburgh 
 -------------------------------------------------------
 ---------------------------------------
  Cycle       Energy         DIIS Error
 ---------------------------------------
    1   -2301.4951545665      1.83E-02
 K construction time:  CPU 1356.11 s  wall 341.37 s
    2   -2290.9364975214      1.34E-03
 K construction time:  CPU 1299.19 s  wall 327.02 s
    3   -2290.9619473213      1.37E-03
 K construction time:  CPU 1245.93 s  wall 313.50 s
    4   -2291.1840198790      2.08E-04
 K construction time:  CPU 1147.40 s  wall 288.66 s
    5   -2291.1888731480      1.13E-04
 K construction time:  CPU 1070.08 s  wall 269.27 s
    6   -2291.1904603543      3.73E-05
 K construction time:  CPU 1041.70 s  wall 262.07 s
    7   -2291.1906455660      1.61E-05
 K construction time:  CPU 946.25 s  wall 237.94 s
    8   -2291.1906882223      6.05E-06
 K construction time:  CPU 913.47 s  wall 229.76 s
    9   -2291.1906992796      3.47E-06
 K construction time:  CPU 859.50 s  wall 216.10 s
   10   -2291.1907026958      1.10E-06
 K construction time:  CPU 802.72 s  wall 201.62 s
   11   -2291.1907031434      7.71E-07
 K construction time:  CPU 739.07 s  wall 185.76 s
   12   -2291.1907032920      2.18E-07
 K construction time:  CPU 650.18 s  wall 163.34 s
   13   -2291.1907033083      1.27E-07
 K construction time:  CPU 605.45 s  wall 152.03 s
   14   -2291.1907033127      3.54E-08
 K construction time:  CPU 502.08 s  wall 126.05 s
   15   -2291.1907033111      2.00E-08
 K construction time:  CPU 1358.20 s  wall 341.81 s
   16   -2291.1907033092      7.05E-09 Convergence criterion met
 ---------------------------------------
 SCF time:  CPU 19265.67 s  wall 4867.85 s
 SCF   energy in the final basis set = -2291.1907033092
 Total energy in the final basis set = -2291.1907033092
 
 --------------------------------------------------------------
 
                    Orbital Energies (a.u.)
 --------------------------------------------------------------
 
 Alpha MOs
 -- Occupied --
-89.159 -89.108 -89.088 -14.490 -14.485 -14.463 -14.462 -14.444
-14.435 -10.359 -10.356 -10.352 -10.346 -10.345 -10.344 -10.343
-10.342 -10.339 -10.337 -10.335 -10.331 -10.326 -10.324 -10.320
-10.311 -10.302 -10.301 -10.296 -10.294  -8.164  -8.117  -8.097
 -6.113  -6.108  -6.107  -6.065  -6.061  -6.060  -6.046  -6.043
 -6.040  -1.149  -1.102  -1.068  -1.046  -1.030  -1.017  -1.007
 -0.987  -0.925  -0.912  -0.901  -0.879  -0.870  -0.855  -0.839
 -0.812  -0.779  -0.772  -0.747  -0.740  -0.733  -0.722  -0.712
 -0.674  -0.656  -0.649  -0.632  -0.629  -0.621  -0.607  -0.605
 -0.588  -0.582  -0.569  -0.566  -0.560  -0.548  -0.543  -0.528
 -0.514  -0.504  -0.502  -0.501  -0.493  -0.489  -0.486  -0.484
 -0.477  -0.467  -0.464  -0.462  -0.453  -0.443  -0.430  -0.430
 -0.423  -0.411  -0.398  -0.375  -0.373  -0.360  -0.350  -0.348
 -0.344  -0.341  -0.338  -0.334  -0.327  -0.265
 -- Virtual --
 -0.054  -0.026   0.026   0.033   0.042   0.050   0.063   0.071
  0.080   0.086   0.109   0.119   0.123   0.127   0.129   0.135
  0.147   0.151   0.155   0.164   0.170   0.171   0.183   0.188
  0.193   0.204   0.212   0.214   0.221   0.229   0.237   0.244
  0.257   0.265   0.267   0.275   0.280   0.288   0.293   0.294
  0.299   0.300   0.302   0.312   0.318   0.322   0.324   0.329
  0.332   0.338   0.341   0.346   0.350   0.353   0.358   0.359
  0.363   0.368   0.371   0.377   0.381   0.382   0.384   0.384
  0.391   0.395   0.396   0.399   0.403   0.406   0.407   0.412
  0.413   0.418   0.419   0.427   0.431   0.433   0.437   0.441
  0.444   0.447   0.452   0.455   0.457   0.457   0.460   0.463
  0.464   0.471   0.472   0.477   0.483   0.486   0.488   0.492
  0.493   0.497   0.499   0.504   0.507   0.515   0.518   0.519
  0.523   0.525   0.532   0.536   0.538   0.542   0.551   0.553
  0.558   0.563   0.565   0.569   0.574   0.592   0.598   0.601
  0.605   0.607   0.611   0.619   0.625   0.629   0.633   0.637
  0.639   0.640   0.650   0.653   0.661   0.661   0.669   0.673
  0.674   0.686   0.687   0.693   0.698   0.704   0.707   0.708
  0.717   0.721   0.730   0.736   0.737   0.741   0.751   0.752
  0.758   0.761   0.767   0.769   0.773   0.779   0.787   0.791
  0.792   0.793   0.799   0.803   0.807   0.816   0.819   0.823
  0.823   0.828   0.834   0.837   0.845   0.848   0.852   0.858
  0.863   0.866   0.870   0.882   0.886   0.891   0.895   0.901
  0.902   0.910   0.921   0.923   0.926   0.931   0.932   0.937
  0.949   0.951   0.952   0.958   0.961   0.964   0.968   0.972
  0.974   0.982   0.990   0.992   0.996   1.006   1.009   1.015
  1.017   1.025   1.028   1.033   1.042   1.050   1.056   1.065
  1.068   1.073   1.078   1.084   1.088   1.094   1.094   1.100
  1.110   1.111   1.119   1.125   1.128   1.136   1.139   1.143
  1.149   1.153   1.164   1.177   1.181   1.188   1.188   1.195
  1.200   1.209   1.215   1.217   1.228   1.230   1.239   1.248
  1.258   1.267   1.268   1.269   1.275   1.286   1.294   1.307
  1.309   1.316   1.322   1.331   1.338   1.348   1.349   1.352
  1.360   1.368   1.372   1.374   1.376   1.384   1.391   1.395
  1.400   1.404   1.413   1.423   1.423   1.425   1.436   1.438
  1.439   1.447   1.457   1.459   1.469   1.470   1.474   1.481
  1.492   1.493   1.498   1.507   1.512   1.522   1.527   1.534
  1.541   1.558   1.564   1.574   1.578   1.585   1.588   1.596
  1.605   1.607   1.615   1.619   1.631   1.633   1.641   1.645
  1.647   1.651   1.659   1.667   1.677   1.681   1.691   1.696
  1.701   1.713   1.717   1.723   1.728   1.733   1.738   1.750
  1.760   1.768   1.776   1.780   1.788   1.792   1.800   1.813
  1.824   1.832   1.840   1.853   1.870   1.880   1.884   1.887
  1.890   1.900   1.905   1.915   1.922   1.926   1.932   1.949
  1.955   1.960   1.965   1.972   1.980   1.994   1.999   2.005
  2.017   2.021   2.033   2.039   2.041   2.054   2.061   2.062
  2.070   2.089   2.101   2.103   2.108   2.113   2.122   2.124
  2.129   2.147   2.169   2.170   2.176   2.181   2.187   2.188
  2.195   2.208   2.216   2.221   2.231   2.241   2.248   2.252
  2.262   2.273   2.280   2.288   2.294   2.298   2.311   2.318
  2.321   2.329   2.334   2.338   2.341   2.350   2.360   2.374
  2.377   2.392   2.397   2.402   2.409   2.416   2.423   2.429
  2.440   2.446   2.453   2.455   2.463   2.468   2.470   2.478
  2.493   2.496   2.507   2.513   2.518   2.525   2.530   2.532
  2.535   2.542   2.548   2.561   2.574   2.586   2.593   2.601
  2.608   2.616   2.624   2.627   2.632   2.648   2.654   2.662
  2.663   2.671   2.675   2.677   2.689   2.690   2.699   2.711
  2.725   2.726   2.745   2.752   2.757   2.771   2.778   2.779
  2.781   2.789   2.793   2.802   2.808   2.813   2.818   2.820
  2.826   2.837   2.842   2.851   2.862   2.865   2.872   2.880
  2.886   2.889   2.891   2.904   2.911   2.918   2.921   2.929
  2.936   2.939   2.947   2.952   2.953   2.961   2.973   2.980
  2.983   2.993   2.996   2.999   3.007   3.013   3.018   3.022
  3.026   3.027   3.035   3.038   3.041   3.048   3.053   3.061
  3.065   3.069   3.071   3.075   3.079   3.081   3.091   3.095
  3.100   3.102   3.108   3.115   3.121   3.127   3.129   3.131
  3.134   3.139   3.146   3.150   3.154   3.160   3.165   3.167
  3.172   3.181   3.182   3.184   3.189   3.193   3.196   3.205
  3.209   3.214   3.217   3.219   3.223   3.230   3.238   3.240
  3.246   3.246   3.249   3.260   3.263   3.266   3.269   3.273
  3.276   3.283   3.286   3.291   3.298   3.302   3.308   3.308
  3.312   3.318   3.321   3.324   3.327   3.334   3.336   3.348
  3.355   3.361   3.365   3.367   3.380   3.385   3.387   3.392
  3.396   3.399   3.404   3.408   3.417   3.423   3.429   3.434
  3.438   3.441   3.449   3.451   3.459   3.463   3.466   3.476
  3.480   3.483   3.487   3.496   3.501   3.506   3.515   3.520
  3.523   3.529   3.539   3.546   3.560   3.568   3.575   3.581
  3.586   3.590   3.605   3.616   3.625   3.627   3.638   3.651
  3.653   3.661   3.669   3.675   3.687   3.695   3.703   3.711
  3.717   3.723   3.727   3.730   3.739   3.741   3.753   3.755
  3.764   3.778   3.782   3.793   3.795   3.799   3.806   3.814
  3.816   3.825   3.832   3.844   3.857   3.866   3.874   3.878
  3.890   3.897   3.899   3.905   3.913   3.917   3.925   3.930
  3.932   3.934   3.937   3.940   3.952   3.958   3.959   3.968
  3.977   3.989   3.994   3.997   4.021   4.023   4.027   4.031
  4.047   4.056   4.068   4.071   4.080   4.084   4.102   4.107
  4.118   4.127   4.136   4.139   4.149   4.158   4.165   4.175
  4.185   4.188   4.194   4.202   4.211   4.215   4.220   4.224
  4.226   4.231   4.234   4.243   4.247   4.252   4.261   4.276
  4.278   4.295   4.305   4.313   4.315   4.320   4.329   4.340
  4.349   4.356   4.359   4.367   4.373   4.382   4.386   4.399
  4.400   4.405   4.424   4.428   4.435   4.444   4.448   4.455
  4.462   4.472   4.481   4.497   4.506   4.515   4.524   4.525
  4.541   4.552   4.561   4.563   4.587   4.591   4.604   4.607
  4.626   4.640   4.651   4.660   4.665   4.680   4.686   4.699
  4.703   4.721   4.734   4.742   4.751   4.756   4.777   4.784
  4.792   4.801   4.806   4.815   4.831   4.840   4.850   4.863
  4.876   4.882   4.887   4.890   4.905   4.914   4.920   4.930
  4.941   4.942   4.957   4.964   4.967   4.976   4.980   4.993
  4.996   4.998   5.010   5.015   5.033   5.039   5.044   5.050
  5.075   5.081   5.088   5.100   5.104   5.106   5.114   5.123
  5.132   5.137   5.143   5.151   5.163   5.165   5.176   5.192
  5.206   5.221   5.243   5.246   5.263   5.296   5.302   5.314
  5.320   5.330   5.345   5.366   5.377   5.390   5.408   5.422
  5.448   5.455   5.463   5.483   5.492   5.525   5.534   5.541
  5.562   5.567   5.577   5.588   5.592   5.606   5.625   5.644
  5.689   5.698   5.710   5.726   5.736   5.744   5.747   5.757
  5.795   5.830   5.832   5.851   5.879   5.892   5.911   5.925
  5.953   5.964   6.012   6.036   6.089   6.133   6.149   6.172
  6.195   6.223   6.249   6.273   6.319   6.348   6.400   6.427
  6.432   6.445   6.638   6.890   6.988   7.011   8.034   8.889
  9.604  10.165  10.656  11.139  11.240  11.711  11.986  12.143
 12.465  12.544  12.719  12.822  12.845  12.958  13.056  13.134
 13.189  13.395  13.543  14.150  14.376  14.611  15.042  15.093
 --------------------------------------------------------------
 
          Ground-State Mulliken Net Atomic Charges

     Atom                 Charge (a.u.)
  ----------------------------------------
      1 C                    -0.089764
      2 C                    -0.134444
      3 C                    -0.077243
      4 C                    -0.113055
      5 N                    -0.151931
      6 C                     0.114217
      7 C                     0.060817
      8 N                    -0.140062
      9 C                    -0.005972
     10 C                    -0.083254
     11 N                    -0.257672
     12 C                     0.050234
     13 C                     0.060159
     14 S                     0.408458
     15 N                    -0.302827
     16 C                    -0.073896
     17 S                     0.175655
     18 C                     0.062083
     19 C                    -0.055967
     20 N                    -0.169694
     21 C                     0.064408
     22 C                    -0.011627
     23 C                    -0.042437
     24 N                    -0.162463
     25 C                    -0.138415
     26 S                     0.103668
     27 C                    -0.045571
     28 C                    -0.158520
     29 C                    -0.182686
     30 H                     0.131209
     31 H                     0.121171
     32 H                     0.118511
     33 H                     0.130192
     34 H                     0.138248
     35 H                     0.126518
     36 H                     0.134909
     37 H                     0.128871
     38 H                     0.131686
     39 H                     0.136483
  ----------------------------------------
  Sum of atomic charges =     0.000000

 -----------------------------------------------------------------
                    Cartesian Multipole Moments
 -----------------------------------------------------------------
    Charge (ESU x 10^10)
                 0.0000
    Dipole Moment (Debye)
         X       0.4791      Y      -0.5631      Z      -1.9670
       Tot       2.1014
    Quadrupole Moments (Debye-Ang)
        XX    -151.2647     XY       7.4238     YY    -169.5301
        XZ       6.0015     YZ      -1.9191     ZZ    -184.0107
    Octopole Moments (Debye-Ang^2)
       XXX    -111.4791    XXY     -34.6043    XYY      72.0401
       YYY      30.7357    XXZ     -43.6306    XYZ     -23.3639
       YYZ      -4.6376    XZZ     -23.3627    YZZ      -7.6157
       ZZZ      -6.5553
    Hexadecapole Moments (Debye-Ang^3)
      XXXX  -15876.6500   XXXY    -364.7836   XXYY   -3745.4990
      XYYY     219.9717   YYYY   -3259.5827   XXXZ      28.0582
      XXYZ     -21.8009   XYYZ      13.3707   YYYZ     -35.7857
      XXZZ   -3289.0425   XYZZ      23.5230   YYZZ    -718.6346
      XZZZ      25.7147   YZZZ      12.2029   ZZZZ    -503.8817
 -----------------------------------------------------------------
 Calculating analytic gradient of the SCF energy
 K construction time:  CPU 2917.00 s  wall 731.19 s
 Gradient of SCF Energy
            1           2           3           4           5           6
    1  -0.0015192   0.0028312   0.0000202  -0.0042269  -0.0059538   0.0087733
    2  -0.0003487   0.0003305  -0.0001662  -0.0002936  -0.0000748   0.0062051
    3   0.0009909  -0.0000474   0.0012438  -0.0046464  -0.0002166   0.0034450
            7           8           9          10          11          12
    1  -0.0086346   0.0050839  -0.0012332  -0.0012968   0.0037583  -0.0005317
    2  -0.0068895   0.0023086  -0.0038721   0.0013745  -0.0017910  -0.0015206
    3  -0.0023073  -0.0020068   0.0031547  -0.0005451  -0.0021277   0.0000862
           13          14          15          16          17          18
    1   0.0005129  -0.0009834   0.0020352  -0.0001347  -0.0003069  -0.0003263
    2   0.0002154   0.0019474   0.0009858   0.0001484  -0.0003220   0.0004000
    3   0.0000738   0.0000861   0.0001541   0.0002169  -0.0000492  -0.0001209
           19          20          21          22          23          24
    1  -0.0004113  -0.0005906   0.0004759   0.0006723   0.0011058   0.0000008
    2  -0.0001066  -0.0007770   0.0003313   0.0000169   0.0005367  -0.0007793
    3  -0.0001965   0.0001337   0.0000737   0.0002119  -0.0000220   0.0000496
           25          26          27          28          29          30
    1  -0.0005127   0.0001938  -0.0002469   0.0006396  -0.0007654   0.0003740
    2   0.0005692   0.0001416   0.0010613   0.0006581  -0.0007660   0.0000600
    3  -0.0001099  -0.0000884  -0.0001150  -0.0003613   0.0003890   0.0004371
           31          32          33          34          35          36
    1   0.0002671  -0.0003778   0.0014898   0.0001615  -0.0001265   0.0000615
    2  -0.0002959   0.0005015   0.0015219  -0.0002565  -0.0000336  -0.0004048
    3   0.0003168   0.0000863   0.0014247   0.0002154  -0.0001505   0.0000174
           37          38          39
    1  -0.0002838  -0.0001854   0.0001908
    2  -0.0003420  -0.0000674  -0.0002067
    3   0.0000195   0.0000821   0.0002022
 Max gradient component =       8.773E-03
 RMS gradient           =       1.983E-03
 Gradient time:  CPU 3450.08 s  wall 865.68 s
 Geometry Optimization Parameters
   NAtoms,    NIC,     NZ,  NCons,   NDum,   NFix, NCnnct, MaxDiis
       39     293       0       3       0       0       0       0


** CONSTRAINED OPTIMIZATION IN DELOCALIZED INTERNAL COORDINATES **
   Searching for a Minimum

   Optimization Cycle:   1

                       Coordinates (Angstroms)
     ATOM                X               Y               Z
      1  C        -7.6763709705    0.3957238864    0.2197563324
      2  C        -7.0594220373   -0.0875401501   -0.9235330786
      3  C        -6.8738548767    0.8216067333    1.2659033853
      4  C        -5.6807804963   -0.1325067056   -0.9693939934
      5  N        -5.5482602465    0.7811650939    1.2368412644
      6  C        -4.9603907372    0.3056589755    0.1408192090
      7  C        -3.4774876532    0.2581356979    0.1121874799
      8  N        -2.8415841545    1.3885140322    0.2559948213
      9  C        -2.7210021695   -0.9437355869   -0.0851878592
     10  C        -1.4885801679    1.4593685324    0.2365295682
     11  N        -3.1751452099   -2.1782759645   -0.3046589993
     12  C        -1.2902057666   -0.8642244486   -0.0936567502
     13  C        -0.6343758656    0.3946074205    0.0693503642
     14  S        -1.8875980472   -3.1184728391   -0.4765738526
     15  N        -0.7017937449   -2.0412068909   -0.2978839438
     16  C         0.8124865356    0.5466372406    0.0249154879
     17  S         1.8898594510   -0.7907541498    0.1044970347
     18  C         1.5630619970    1.7152890745   -0.1003029133
     19  C         3.3125738783    0.1443826654    0.0078974103
     20  N         1.0635284577    2.9788080511   -0.2012660370
     21  C         2.9758608576    1.4875531014   -0.1140008664
     22  C         4.6320087530   -0.4482363615    0.0388059070
     23  C         1.9411789832    3.9295424151   -0.3050546093
     24  N         3.8661872557    2.5092497478   -0.2257802856
     25  C         5.8007044411    0.0800930539   -0.4359336526
     26  S         4.9107544928   -2.0113100216    0.7365997542
     27  C         3.3499775650    3.6968199905   -0.3167399095
     28  C         6.9115043457   -0.7762472190   -0.2487004009
     29  C         6.5809229097   -1.9443365547    0.3647406785
     30  H        -8.7522676110    0.4418449754    0.3002755520
     31  H        -7.6454727212   -0.4272466054   -1.7661805155
     32  H        -7.3155582538    1.2195927869    2.1727117594
     33  H        -5.1492583931   -0.4948137398   -1.8360564260
     34  H        -1.0812885067    2.4517136303    0.3422547245
     35  H         1.5658218926    4.9442296433   -0.3781365771
     36  H         5.8461589812    1.0550464826   -0.8903245023
     37  H         4.0321638226    4.5335366406   -0.4095134489
     38  H         7.9136734500   -0.5313694227   -0.5651872336
     39  H         7.2303893396   -2.7632712768    0.6246512120
   Point Group: c1    Number of degrees of freedom:   111


   Energy is  -2291.190703309

              Constraints and their Current Values
                                        Value     Constraint
   Dihedral:        4   6   7   8      120.000      120.000
   Dihedral:       10  13  16  17      168.543      168.550
   Dihedral:       17  19  22  25      157.470      157.507

 Attempting to Generate Delocalized Internal Coordinates

   Using Lagrange Multiplier Algorithm


112 Hessian modes will be used to form the next step
  Hessian Eigenvalues:
    -0.977753   -0.977753    0.045000    0.045000    0.045000    0.045000
     0.045000    0.045000    0.045000    0.045000    0.045000    0.045000
     0.045000    0.045001    0.045001    0.045001    0.045001    0.045001
     0.045001    0.045001    0.045001    0.045001    0.045002    0.045002
     0.045002    0.045003    0.045003    0.045003    0.045005    0.045005
     0.045007    0.045011    0.045014    0.045024    0.045038    0.159978
     0.159986    0.159994    0.159997    0.159997    0.159999    0.159999
     0.159999    0.160000    0.160000    0.219998    0.221296    0.223763
     0.224236    0.233054    0.237970    0.243342    0.244276    0.249699
     0.249894    0.249926    0.249965    0.249971    0.249976    0.249976
     0.249983    0.249990    0.249992    0.249993    0.249993    0.249999
     0.312886    0.327845    0.334370    0.341223    0.341477    0.354733
     0.354748    0.355688    0.358543    0.360075    0.360792    0.361024
     0.362524    0.363544    0.364081    0.368480    0.372719    0.375326
     0.386750    0.390953    0.406304    0.407688    0.419183    0.432399
     0.441229    0.459434    0.465815    0.470556    0.473619    0.482713
     0.483769    0.485034    0.485240    0.504689    0.518054    0.518121
     0.525496    0.558706    0.572255    0.583003    0.590216    0.638618
     0.653355    0.661938    1.022753    1.022753

 Minimum Search - Taking P-RFO Step
 Searching for Lamda that Maximizes Along the Constraint modes Only
 Value Taken    Lamda =   0.00000005
 Searching for Lamda that Minimizes Along All other modes
 Value Taken    Lamda =  -0.00158501
 Step Taken.  Stepsize is  0.108483

                             Maximum     Tolerance    Cnvgd?
         Gradient            0.007077       0.000300      NO
         Displacement        0.034933       0.001200      NO
         Energy change     *********       0.000001      NO


 New Cartesian Coordinates Obtained by Inverse Iteration

 Displacement from previous Coordinates is:  0.292965
 ----------------------------------------------------------------
             Standard Nuclear Orientation (Angstroms)
    I     Atom           X                Y                Z
 ----------------------------------------------------------------
    1      C      -7.6651140699     0.3957251027     0.2155163161
    2      C      -7.0589644094    -0.1156957111    -0.9190251119
    3      C      -6.8560132807     0.8303733602     1.2537196156
    4      C      -5.6792327522    -0.1700915926    -0.9646468613
    5      N      -5.5304483489     0.7832342722     1.2257855116
    6      C      -4.9579525913     0.2882339983     0.1343723083
    7      C      -3.4721035126     0.2799227064     0.1100784308
    8      N      -2.8430132722     1.4106064001     0.2471793976
    9      C      -2.7259359429    -0.9187926403    -0.0853751432
   10      C      -1.4868559397     1.4687930252     0.2244053617
   11      N      -3.2071919084    -2.1472728744    -0.2775318078
   12      C      -1.2984708503    -0.8566633997    -0.1011222816
   13      C      -0.6359031435     0.3991334762     0.0563383266
   14      S      -1.9362911018    -3.1120613321    -0.4500461204
   15      N      -0.7341084289    -2.0477465999    -0.2969657755
   16      C       0.8122634958     0.5464404259     0.0136009012
   17      S       1.8889608940    -0.7919226187     0.0919692081
   18      C       1.5651709888     1.7143963369    -0.1029671611
   19      C       3.3130470316     0.1419039932     0.0045710372
   20      N       1.0675422277     2.9794405179    -0.1970577388
   21      C       2.9774996690     1.4855023283    -0.1115880236
   22      C       4.6322250874    -0.4503659876     0.0347901518
   23      C       1.9460979497     3.9295880558    -0.2894754037
   24      N       3.8695896758     2.5070340110    -0.2129895228
   25      C       5.8010900927     0.0832719668    -0.4340483779
   26      S       4.9132456390    -2.0179120688     0.7219009456
   27      C       3.3550592421     3.6952258526    -0.2971087326
   28      C       6.9130775715    -0.7717670601    -0.2515351711
   29      C       6.5842792300    -1.9441684199     0.3523942510
   30      H      -8.7410387316     0.4519913083     0.2958195415
   31      H      -7.6506698546    -0.4634440314    -1.7550109300
   32      H      -7.2924814527     1.2422144075     2.1561054200
   33      H      -5.1623741788    -0.5542724844    -1.8324651350
   34      H      -1.0742338443     2.4597878239     0.3242582939
   35      H       1.5729963278     4.9456075921    -0.3545954186
   36      H       5.8450310662     1.0626381023    -0.8802423709
   37      H       4.0389724615     4.5324185068    -0.3800255444
   38      H       7.9154829781    -0.5222503228    -0.5646277241
   39      H       7.2348857661    -2.7634844921     0.6063114280
 ----------------------------------------------------------------
 Molecular Point Group                 C1    NOp =  1
 Largest Abelian Subgroup              C1    NOp =  1
 Nuclear Repulsion Energy =  2928.4604030767 hartrees
 There are      110 alpha and      110 beta electrons
 Applying Cartesian multipole field
    Component          Value
    ---------          -----
     (2,0,0)        1.00000E-12
     (0,2,0)        2.00000E-11
     (0,0,2)       -3.00000E-11
 Nucleus-field energy     =     0.0000000603 hartrees
 Requested basis set is cc-pVTZ
 There are 356 shells and 1022 basis functions
 A cutoff of  1.0D-11 yielded  30894 shell pairs
 There are    243956 function pairs (    318451 Cartesian)
 Smallest overlap matrix eigenvalue = 2.56E-05
 Guess MOs from SCF MO coefficient file
 Reading MOs from coefficient file
 Reading MOs from coefficient file
 Long-range K will be added via erf
 Coulomb attenuation parameter = 0.2 bohr**(-1)
 A restricted hybrid HF-DFT SCF calculation will be
 performed using Pulay DIIS extrapolation
 Exchange:     0.2220 Hartree-Fock + 1.0000 wB97X-D + LR-HF
 Correlation:  1.0000 wB97X-D
 Using SG-1 standard quadrature grid
 Dispersion:   Grimme D
 SCF converges when DIIS error is below 1.0E-08
 Geometry optimization detected.  Setting ReadMinima to 0
 Setting SaveMinima to 0
 using 4 threads for integral computing 
 using 4 threads for integral computing 
 K construction time:  CPU 1423.49 s  wall 358.31 s
 -------------------------------------------------------
 OpenMP BLAS3 based DFT computing Module                
 Release: version 1.0, May 2013, Q-Chem Inc. Pittsburgh 
 -------------------------------------------------------
 ---------------------------------------
  Cycle       Energy         DIIS Error
 ---------------------------------------
    1   -2291.1860961399      2.28E-04
 K construction time:  CPU 1504.74 s  wall 378.52 s
    2   -2291.1914613960      2.74E-05
 K construction time:  CPU 986.78 s  wall 248.29 s
    3   -2291.1915245786      3.13E-05
 K construction time:  CPU 923.73 s  wall 232.38 s
    4   -2291.1916312450      8.36E-06
 K construction time:  CPU 876.39 s  wall 220.33 s
    5   -2291.1916414073      4.19E-06
 K construction time:  CPU 824.73 s  wall 207.41 s
    6   -2291.1916440026      1.39E-06
 K construction time:  CPU 781.21 s  wall 196.41 s
    7   -2291.1916443932      4.79E-07
 K construction time:  CPU 693.75 s  wall 174.27 s
    8   -2291.1916444549      2.44E-07
 K construction time:  CPU 645.38 s  wall 162.07 s
    9   -2291.1916444730      1.08E-07
 K construction time:  CPU 577.39 s  wall 144.84 s
   10   -2291.1916444765      5.32E-08
 K construction time:  CPU 525.49 s  wall 131.86 s
   11   -2291.1916444768      1.83E-08
 K construction time:  CPU 466.54 s  wall 117.02 s
   12   -2291.1916444771      9.37E-09 Convergence criterion met
 ---------------------------------------
 SCF time:  CPU 13624.10 s  wall 3440.44 s
 SCF   energy in the final basis set = -2291.1916444771
 Total energy in the final basis set = -2291.1916444771
 
 --------------------------------------------------------------
 
                    Orbital Energies (a.u.)
 --------------------------------------------------------------
 
 Alpha MOs
 -- Occupied --
-89.159 -89.108 -89.087 -14.490 -14.485 -14.463 -14.462 -14.444
-14.435 -10.359 -10.354 -10.350 -10.346 -10.345 -10.344 -10.343
-10.342 -10.339 -10.337 -10.335 -10.332 -10.326 -10.324 -10.320
-10.311 -10.303 -10.301 -10.296 -10.293  -8.164  -8.117  -8.097
 -6.113  -6.108  -6.107  -6.065  -6.061  -6.060  -6.046  -6.042
 -6.040  -1.148  -1.102  -1.069  -1.047  -1.030  -1.016  -1.006
 -0.987  -0.925  -0.913  -0.901  -0.879  -0.870  -0.854  -0.839
 -0.812  -0.778  -0.772  -0.747  -0.740  -0.733  -0.722  -0.712
 -0.674  -0.656  -0.649  -0.632  -0.629  -0.621  -0.607  -0.605
 -0.588  -0.583  -0.568  -0.566  -0.560  -0.548  -0.542  -0.528
 -0.513  -0.504  -0.502  -0.501  -0.493  -0.490  -0.486  -0.484
 -0.477  -0.467  -0.463  -0.462  -0.452  -0.443  -0.430  -0.430
 -0.423  -0.411  -0.398  -0.375  -0.374  -0.360  -0.351  -0.348
 -0.344  -0.342  -0.338  -0.334  -0.327  -0.265
 -- Virtual --
 -0.054  -0.026   0.026   0.033   0.042   0.050   0.064   0.071
  0.079   0.087   0.110   0.119   0.123   0.127   0.129   0.135
  0.147   0.151   0.155   0.164   0.170   0.171   0.183   0.188
  0.193   0.205   0.213   0.214   0.221   0.230   0.237   0.243
  0.257   0.265   0.267   0.275   0.280   0.289   0.293   0.295
  0.300   0.300   0.302   0.312   0.319   0.322   0.325   0.329
  0.332   0.339   0.343   0.346   0.350   0.353   0.359   0.361
  0.364   0.368   0.371   0.376   0.381   0.383   0.384   0.384
  0.391   0.395   0.396   0.399   0.403   0.406   0.407   0.411
  0.413   0.417   0.419   0.427   0.432   0.433   0.437   0.440
  0.444   0.447   0.452   0.455   0.457   0.458   0.460   0.463
  0.464   0.471   0.472   0.477   0.483   0.487   0.489   0.492
  0.493   0.497   0.499   0.505   0.508   0.516   0.518   0.520
  0.524   0.525   0.532   0.536   0.538   0.542   0.551   0.553
  0.559   0.562   0.564   0.569   0.575   0.592   0.599   0.601
  0.605   0.607   0.610   0.619   0.626   0.630   0.634   0.637
  0.639   0.642   0.651   0.654   0.661   0.661   0.668   0.673
  0.675   0.686   0.687   0.692   0.698   0.704   0.706   0.709
  0.716   0.722   0.731   0.736   0.738   0.741   0.752   0.754
  0.758   0.762   0.767   0.771   0.773   0.779   0.787   0.791
  0.793   0.793   0.799   0.803   0.807   0.817   0.819   0.823
  0.824   0.830   0.835   0.838   0.845   0.849   0.852   0.859
  0.864   0.865   0.870   0.881   0.887   0.891   0.896   0.902
  0.903   0.911   0.921   0.923   0.927   0.932   0.934   0.938
  0.950   0.952   0.954   0.959   0.961   0.964   0.969   0.974
  0.976   0.982   0.991   0.994   0.997   1.006   1.009   1.015
  1.018   1.025   1.030   1.033   1.045   1.050   1.056   1.065
  1.068   1.073   1.079   1.084   1.089   1.094   1.095   1.101
  1.111   1.111   1.118   1.125   1.129   1.136   1.139   1.143
  1.148   1.154   1.165   1.178   1.182   1.189   1.190   1.195
  1.199   1.209   1.215   1.218   1.226   1.229   1.239   1.247
  1.260   1.268   1.269   1.270   1.277   1.287   1.294   1.307
  1.311   1.316   1.323   1.331   1.338   1.348   1.349   1.352
  1.359   1.368   1.372   1.375   1.377   1.384   1.392   1.397
  1.403   1.405   1.414   1.423   1.424   1.427   1.436   1.438
  1.439   1.447   1.456   1.462   1.468   1.470   1.475   1.480
  1.493   1.494   1.498   1.508   1.513   1.523   1.527   1.535
  1.541   1.559   1.565   1.575   1.578   1.585   1.589   1.596
  1.605   1.608   1.617   1.620   1.631   1.633   1.642   1.647
  1.648   1.650   1.659   1.667   1.677   1.681   1.691   1.696
  1.701   1.714   1.718   1.724   1.728   1.734   1.739   1.751
  1.760   1.769   1.776   1.780   1.788   1.791   1.800   1.814
  1.824   1.833   1.841   1.853   1.870   1.882   1.885   1.889
  1.892   1.902   1.905   1.914   1.923   1.926   1.932   1.948
  1.955   1.959   1.970   1.972   1.979   1.995   1.999   2.005
  2.016   2.020   2.032   2.038   2.042   2.051   2.060   2.064
  2.070   2.089   2.101   2.104   2.109   2.115   2.123   2.125
  2.131   2.149   2.167   2.169   2.177   2.180   2.187   2.193
  2.196   2.208   2.217   2.220   2.230   2.240   2.245   2.252
  2.262   2.273   2.278   2.287   2.294   2.298   2.311   2.317
  2.318   2.329   2.334   2.339   2.346   2.348   2.361   2.374
  2.376   2.393   2.398   2.403   2.411   2.416   2.424   2.431
  2.440   2.447   2.453   2.455   2.464   2.468   2.470   2.478
  2.494   2.498   2.507   2.514   2.519   2.525   2.531   2.533
  2.536   2.542   2.549   2.561   2.573   2.589   2.593   2.600
  2.608   2.615   2.624   2.626   2.633   2.648   2.655   2.662
  2.666   2.671   2.676   2.679   2.690   2.691   2.701   2.712
  2.726   2.730   2.746   2.752   2.757   2.771   2.778   2.779
  2.781   2.789   2.793   2.802   2.808   2.813   2.817   2.820
  2.827   2.837   2.843   2.851   2.862   2.864   2.871   2.879
  2.888   2.889   2.894   2.903   2.912   2.918   2.923   2.931
  2.937   2.940   2.950   2.952   2.953   2.962   2.973   2.981
  2.983   2.993   2.997   3.000   3.007   3.013   3.018   3.022
  3.025   3.027   3.035   3.038   3.042   3.048   3.054   3.061
  3.066   3.071   3.071   3.075   3.079   3.081   3.091   3.096
  3.100   3.105   3.108   3.115   3.122   3.128   3.130   3.130
  3.134   3.141   3.146   3.150   3.155   3.161   3.165   3.168
  3.172   3.180   3.183   3.185   3.189   3.195   3.197   3.206
  3.209   3.214   3.217   3.219   3.224   3.230   3.238   3.242
  3.246   3.247   3.250   3.260   3.264   3.267   3.269   3.274
  3.278   3.283   3.286   3.293   3.299   3.302   3.307   3.308
  3.311   3.317   3.320   3.324   3.327   3.333   3.336   3.349
  3.357   3.363   3.365   3.367   3.381   3.386   3.389   3.394
  3.396   3.402   3.403   3.409   3.417   3.422   3.430   3.434
  3.436   3.443   3.450   3.452   3.461   3.463   3.465   3.475
  3.480   3.483   3.489   3.497   3.504   3.507   3.516   3.520
  3.522   3.529   3.542   3.545   3.561   3.570   3.578   3.583
  3.588   3.591   3.608   3.617   3.626   3.628   3.638   3.650
  3.653   3.663   3.669   3.677   3.687   3.695   3.706   3.711
  3.717   3.723   3.729   3.732   3.739   3.740   3.754   3.755
  3.764   3.779   3.784   3.793   3.796   3.803   3.806   3.815
  3.819   3.829   3.834   3.845   3.858   3.868   3.876   3.883
  3.892   3.896   3.899   3.905   3.914   3.916   3.926   3.929
  3.933   3.935   3.941   3.947   3.953   3.959   3.959   3.969
  3.979   3.990   3.993   3.998   4.020   4.023   4.027   4.035
  4.048   4.057   4.070   4.073   4.082   4.086   4.102   4.111
  4.117   4.129   4.138   4.138   4.149   4.157   4.167   4.174
  4.185   4.189   4.193   4.202   4.212   4.216   4.222   4.225
  4.227   4.231   4.234   4.244   4.246   4.253   4.263   4.276
  4.279   4.298   4.306   4.313   4.317   4.321   4.329   4.340
  4.349   4.355   4.358   4.367   4.373   4.383   4.390   4.400
  4.402   4.405   4.425   4.428   4.434   4.445   4.448   4.458
  4.462   4.472   4.482   4.496   4.509   4.520   4.526   4.527
  4.539   4.552   4.562   4.565   4.588   4.593   4.603   4.613
  4.627   4.641   4.655   4.660   4.669   4.681   4.691   4.701
  4.704   4.724   4.735   4.745   4.754   4.758   4.776   4.783
  4.793   4.802   4.805   4.815   4.832   4.841   4.852   4.865
  4.877   4.885   4.888   4.893   4.909   4.915   4.921   4.932
  4.940   4.942   4.959   4.963   4.970   4.975   4.984   4.994
  4.998   4.999   5.010   5.016   5.031   5.038   5.044   5.050
  5.073   5.083   5.091   5.098   5.105   5.110   5.116   5.123
  5.133   5.139   5.143   5.151   5.163   5.165   5.178   5.192
  5.206   5.222   5.242   5.248   5.263   5.297   5.303   5.314
  5.321   5.331   5.342   5.371   5.377   5.393   5.410   5.424
  5.449   5.455   5.465   5.481   5.497   5.528   5.534   5.542
  5.563   5.573   5.578   5.589   5.593   5.605   5.625   5.643
  5.695   5.699   5.714   5.727   5.737   5.746   5.748   5.759
  5.796   5.832   5.832   5.849   5.881   5.894   5.911   5.930
  5.957   5.968   6.020   6.036   6.091   6.134   6.153   6.172
  6.191   6.231   6.249   6.282   6.320   6.349   6.397   6.430
  6.434   6.445   6.638   6.894   6.989   7.014   8.027   8.881
  9.610  10.170  10.655  11.174  11.249  11.730  11.993  12.193
 12.491  12.559  12.741  12.852  12.856  12.968  13.062  13.140
 13.206  13.416  13.555  14.160  14.388  14.631  15.065  15.099
 --------------------------------------------------------------
 
          Ground-State Mulliken Net Atomic Charges

     Atom                 Charge (a.u.)
  ----------------------------------------
      1 C                    -0.089926
      2 C                    -0.134236
      3 C                    -0.078483
      4 C                    -0.114446
      5 N                    -0.149909
      6 C                     0.107815
      7 C                     0.071187
      8 N                    -0.141473
      9 C                     0.000507
     10 C                    -0.078727
     11 N                    -0.259952
     12 C                     0.044997
     13 C                     0.055374
     14 S                     0.408739
     15 N                    -0.303283
     16 C                    -0.073844
     17 S                     0.175150
     18 C                     0.061639
     19 C                    -0.055738
     20 N                    -0.169085
     21 C                     0.064067
     22 C                    -0.011740
     23 C                    -0.042422
     24 N                    -0.162126
     25 C                    -0.137469
     26 S                     0.103240
     27 C                    -0.045432
     28 C                    -0.158432
     29 C                    -0.182370
     30 H                     0.131096
     31 H                     0.121222
     32 H                     0.118256
     33 H                     0.129932
     34 H                     0.138848
     35 H                     0.126189
     36 H                     0.134180
     37 H                     0.128747
     38 H                     0.131529
     39 H                     0.136380
  ----------------------------------------
  Sum of atomic charges =     0.000000

 -----------------------------------------------------------------
                    Cartesian Multipole Moments
 -----------------------------------------------------------------
    Charge (ESU x 10^10)
                 0.0000
    Dipole Moment (Debye)
         X       0.4252      Y      -0.5843      Z      -1.9478
       Tot       2.0775
    Quadrupole Moments (Debye-Ang)
        XX    -150.9438     XY       7.8394     YY    -169.4468
        XZ       6.1236     YZ      -1.7308     ZZ    -184.0309
    Octopole Moments (Debye-Ang^2)
       XXX    -110.2237    XXY     -35.8375    XYY      71.6292
       YYY      29.8453    XXZ     -44.6713    XYZ     -23.6968
       YYZ      -4.0640    XZZ     -23.2343    YZZ      -7.8698
       ZZZ      -6.0031
    Hexadecapole Moments (Debye-Ang^3)
      XXXX  -15886.4684   XXXY    -367.3404   XXYY   -3738.4483
      XYYY     214.1926   YYYY   -3256.4242   XXXZ      39.1251
      XXYZ     -15.5654   XYYZ      15.1236   YYYZ     -34.9244
      XXZZ   -3290.8860   XYZZ      21.0406   YYZZ    -717.3337
      XZZZ      26.2963   YZZZ      10.9676   ZZZZ    -494.6648
 -----------------------------------------------------------------
 Calculating analytic gradient of the SCF energy
 K construction time:  CPU 2969.02 s  wall 744.21 s
 Gradient of SCF Energy
            1           2           3           4           5           6
    1  -0.0000809   0.0005858   0.0012050  -0.0021777  -0.0002482   0.0013312
    2  -0.0003928   0.0002174  -0.0002107   0.0008293  -0.0008302   0.0007637
    3  -0.0003587  -0.0000635  -0.0004188  -0.0017232  -0.0003418   0.0031591
            7           8           9          10          11          12
    1  -0.0017587   0.0024526  -0.0013940  -0.0014055   0.0019609  -0.0002350
    2  -0.0027970   0.0007136  -0.0006852   0.0006835  -0.0004473   0.0013728
    3   0.0009849  -0.0022266   0.0019869  -0.0002026  -0.0011361   0.0007187
           13          14          15          16          17          18
    1   0.0009091  -0.0015247  -0.0005766  -0.0001112   0.0004922  -0.0001217
    2  -0.0003094  -0.0003296   0.0007371  -0.0002474   0.0001567   0.0002935
    3  -0.0000920  -0.0001713  -0.0001276   0.0002165  -0.0000084  -0.0001795
           19          20          21          22          23          24
    1  -0.0002156  -0.0003578   0.0003437   0.0002180   0.0004907   0.0000002
    2  -0.0000925  -0.0004808   0.0002521   0.0001519   0.0001415  -0.0004838
    3  -0.0001024   0.0001158   0.0001219   0.0002306  -0.0000812  -0.0000525
           25          26          27          28          29          30
    1  -0.0001324   0.0000529  -0.0003393   0.0000572  -0.0001897   0.0000477
    2  -0.0001532   0.0000561   0.0002648   0.0001488  -0.0000999  -0.0002268
    3   0.0000623   0.0000437  -0.0000459  -0.0000525   0.0000021  -0.0000289
           31          32          33          34          35          36
    1  -0.0001059   0.0002802   0.0004840   0.0000446  -0.0000243  -0.0000007
    2  -0.0002250   0.0003955   0.0007773   0.0001023  -0.0000288   0.0000320
    3  -0.0000064  -0.0001485  -0.0001897   0.0000208  -0.0000224  -0.0000158
           37          38          39
    1   0.0000043   0.0000071   0.0000323
    2  -0.0000514  -0.0000429   0.0000448
    3   0.0000239   0.0000529   0.0000560
 Max gradient component =       3.159E-03
 RMS gradient           =       7.824E-04
 Gradient time:  CPU 3495.15 s  wall 876.92 s
 Geometry Optimization Parameters
   NAtoms,    NIC,     NZ,  NCons,   NDum,   NFix, NCnnct, MaxDiis
       39     293       0       3       0       0       0       0

 Cartesian Hessian Update
 Hessian Updated using BFGS Update


** CONSTRAINED OPTIMIZATION IN DELOCALIZED INTERNAL COORDINATES **
   Searching for a Minimum

   Optimization Cycle:   2

                       Coordinates (Angstroms)
     ATOM                X               Y               Z
      1  C        -7.6651140699    0.3957251027    0.2155163161
      2  C        -7.0589644094   -0.1156957111   -0.9190251119
      3  C        -6.8560132807    0.8303733602    1.2537196156
      4  C        -5.6792327522   -0.1700915926   -0.9646468613
      5  N        -5.5304483489    0.7832342722    1.2257855116
      6  C        -4.9579525913    0.2882339983    0.1343723083
      7  C        -3.4721035126    0.2799227064    0.1100784308
      8  N        -2.8430132722    1.4106064001    0.2471793976
      9  C        -2.7259359429   -0.9187926403   -0.0853751432
     10  C        -1.4868559397    1.4687930252    0.2244053617
     11  N        -3.2071919084   -2.1472728744   -0.2775318078
     12  C        -1.2984708503   -0.8566633997   -0.1011222816
     13  C        -0.6359031435    0.3991334762    0.0563383266
     14  S        -1.9362911018   -3.1120613321   -0.4500461204
     15  N        -0.7341084289   -2.0477465999   -0.2969657755
     16  C         0.8122634958    0.5464404259    0.0136009012
     17  S         1.8889608940   -0.7919226187    0.0919692081
     18  C         1.5651709888    1.7143963369   -0.1029671611
     19  C         3.3130470316    0.1419039932    0.0045710372
     20  N         1.0675422277    2.9794405179   -0.1970577388
     21  C         2.9774996690    1.4855023283   -0.1115880236
     22  C         4.6322250874   -0.4503659876    0.0347901518
     23  C         1.9460979497    3.9295880558   -0.2894754037
     24  N         3.8695896758    2.5070340110   -0.2129895228
     25  C         5.8010900927    0.0832719668   -0.4340483779
     26  S         4.9132456390   -2.0179120688    0.7219009456
     27  C         3.3550592421    3.6952258526   -0.2971087326
     28  C         6.9130775715   -0.7717670601   -0.2515351711
     29  C         6.5842792300   -1.9441684199    0.3523942510
     30  H        -8.7410387316    0.4519913083    0.2958195415
     31  H        -7.6506698546   -0.4634440314   -1.7550109300
     32  H        -7.2924814527    1.2422144075    2.1561054200
     33  H        -5.1623741788   -0.5542724844   -1.8324651350
     34  H        -1.0742338443    2.4597878239    0.3242582939
     35  H         1.5729963278    4.9456075921   -0.3545954186
     36  H         5.8450310662    1.0626381023   -0.8802423709
     37  H         4.0389724615    4.5324185068   -0.3800255444
     38  H         7.9154829781   -0.5222503228   -0.5646277241
     39  H         7.2348857661   -2.7634844921    0.6063114280
   Point Group: c1    Number of degrees of freedom:   111


   Energy is  -2291.191644477

              Constraints and their Current Values
                                        Value     Constraint
   Dihedral:        4   6   7   8      120.000      120.000
   Dihedral:       10  13  16  17      168.550      168.550
   Dihedral:       17  19  22  25      157.506      157.507
 Hessian Updated using BFGS Update

 98 Hessian modes will be used to form the next step
  Hessian Eigenvalues:
     0.035777    0.045000    0.045000    0.045000    0.045000    0.045000
     0.045001    0.045001    0.045001    0.045001    0.045001    0.045001
     0.045001    0.045002    0.045002    0.045002    0.045002    0.045003
     0.045005    0.045006    0.045011    0.045013    0.045023    0.045031
     0.045503    0.156560    0.159979    0.159986    0.159994    0.159997
     0.159997    0.159999    0.160504    0.206886    0.220144    0.221311
     0.223764    0.225399    0.234526    0.237975    0.243359    0.245119
     0.249733    0.249918    0.249939    0.249966    0.249973    0.249979
     0.249988    0.249990    0.249992    0.249993    0.249999    0.288609
     0.312878    0.328132    0.334369    0.340325    0.341479    0.354733
     0.354811    0.355701    0.358591    0.360067    0.360975    0.361046
     0.362532    0.363559    0.364106    0.368065    0.372738    0.375527
     0.386756    0.402310    0.407522    0.410305    0.419370    0.432011
     0.441248    0.459921    0.465915    0.471047    0.474177    0.482449
     0.483513    0.484240    0.487827    0.504689    0.517869    0.518316
     0.525170    0.558394    0.582688    0.588033    0.595897    0.634204
     0.653353    0.661721

 Minimum Search - Taking Simple RFO Step
 Searching for Lamda that Minimizes Along All modes
 Value Taken    Lamda =  -0.00032647
 Step Taken.  Stepsize is  0.076937

                             Maximum     Tolerance    Cnvgd?
         Gradient           0.002885      0.000300      NO
         Displacement       0.026447      0.001200      NO
         Energy change     -0.000941      0.000001      NO


 New Cartesian Coordinates Obtained by Inverse Iteration

 Displacement from previous Coordinates is:  0.334556
 ----------------------------------------------------------------
             Standard Nuclear Orientation (Angstroms)
    I     Atom           X                Y                Z
 ----------------------------------------------------------------
    1      C      -7.6666237718     0.3813075837     0.2081685252
    2      C      -7.0564487496    -0.1490248968    -0.9158027628
    3      C      -6.8617320154     0.8265740298     1.2443002437
    4      C      -5.6752495835    -0.2067423311    -0.9571503486
    5      N      -5.5349359871     0.7811145595     1.2175191836
    6      C      -4.9588371938     0.2704327941     0.1338185883
    7      C      -3.4702150499     0.2902340306     0.1115677316
    8      N      -2.8540231110     1.4268088338     0.2406978754
    9      C      -2.7156359429    -0.9033192665    -0.0818384739
   10      C      -1.4956785459     1.4889614401     0.2145401180
   11      N      -3.1959802312    -2.1359996280    -0.2479650579
   12      C      -1.2899910119    -0.8377818282    -0.1051694603
   13      C      -0.6386638845     0.4238430261     0.0450900226
   14      S      -1.9192481532    -3.0971677384    -0.4166757538
   15      N      -0.7192573890    -2.0282659213    -0.2878829698
   16      C       0.8092629664     0.5717562366     0.0030365603
   17      S       1.8763428900    -0.7737485085     0.0801237648
   18      C       1.5697444399     1.7356718123    -0.1056535705
   19      C       3.3070088404     0.1503169154    -0.0010228588
   20      N       1.0818376038     3.0053719593    -0.1931459281
   21      C       2.9805489742     1.4969087407    -0.1107955955
   22      C       4.6210561359    -0.4533009159     0.0270692593
   23      C       1.9669025047     3.9498678057    -0.2752124757
   24      N       3.8801003523     2.5133819960    -0.2023198210
   25      C       5.7953615063     0.0724199311    -0.4376726353
   26      S       4.8875886280    -2.0275582427     0.7049244646
   27      C       3.3745446887     3.7055339584    -0.2795891181
   28      C       6.8993976950    -0.7936927196    -0.2589139188
   29      C       6.5598639968    -1.9664370840     0.3378202948
   30      H      -8.7429482188     0.4409316573     0.2830459174
   31      H      -7.6455937179    -0.5068884188    -1.7491395394
   32      H      -7.3023810249     1.2450298863     2.1416301416
   33      H      -5.1619728890    -0.6102933676    -1.8183431363
   34      H      -1.0874860590     2.4820124711     0.3103090575
   35      H       1.6015124387     4.9690977181    -0.3338607204
   36      H       5.8486277073     1.0540181351    -0.8778788666
   37      H       4.0646235681     4.5386728256    -0.3540930754
   38      H       7.9042242324    -0.5510551218    -0.5698519140
   39      H       7.2024731410    -2.7934204227     0.5869823424
 ----------------------------------------------------------------
 Molecular Point Group                 C1    NOp =  1
 Largest Abelian Subgroup              C1    NOp =  1
 Nuclear Repulsion Energy =  2929.7104929988 hartrees
 There are      110 alpha and      110 beta electrons
 Applying Cartesian multipole field
    Component          Value
    ---------          -----
     (2,0,0)        1.00000E-12
     (0,2,0)        2.00000E-11
     (0,0,2)       -3.00000E-11
 Nucleus-field energy     =     0.0000000607 hartrees
 Requested basis set is cc-pVTZ
 There are 356 shells and 1022 basis functions
 A cutoff of  1.0D-11 yielded  30903 shell pairs
 There are    243993 function pairs (    318493 Cartesian)
 Smallest overlap matrix eigenvalue = 2.52E-05
 Guess MOs from SCF MO coefficient file
 Reading MOs from coefficient file
 Reading MOs from coefficient file
 Long-range K will be added via erf
 Coulomb attenuation parameter = 0.2 bohr**(-1)
 A restricted hybrid HF-DFT SCF calculation will be
 performed using Pulay DIIS extrapolation
 Exchange:     0.2220 Hartree-Fock + 1.0000 wB97X-D + LR-HF
 Correlation:  1.0000 wB97X-D
 Using SG-1 standard quadrature grid
 Dispersion:   Grimme D
 SCF converges when DIIS error is below 1.0E-08
 Geometry optimization detected.  Setting ReadMinima to 0
 Setting SaveMinima to 0
 using 4 threads for integral computing 
 using 4 threads for integral computing 
 K construction time:  CPU 1359.21 s  wall 342.16 s
 -------------------------------------------------------
 OpenMP BLAS3 based DFT computing Module                
 Release: version 1.0, May 2013, Q-Chem Inc. Pittsburgh 
 -------------------------------------------------------
 ---------------------------------------
  Cycle       Energy         DIIS Error
 ---------------------------------------
    1   -2291.1872235440      1.85E-04
 K construction time:  CPU 1363.26 s  wall 343.12 s
    2   -2291.1916840126      1.84E-05
 K construction time:  CPU 969.58 s  wall 243.91 s
    3   -2291.1917744856      1.21E-05
 K construction time:  CPU 906.30 s  wall 227.87 s
    4   -2291.1917917813      6.03E-06
 K construction time:  CPU 859.16 s  wall 216.06 s
    5   -2291.1917977920      2.04E-06
 K construction time:  CPU 769.41 s  wall 193.42 s
    6   -2291.1917984685      1.09E-06
 K construction time:  CPU 728.90 s  wall 183.20 s
    7   -2291.1917986447      4.04E-07
 K construction time:  CPU 681.05 s  wall 171.08 s
    8   -2291.1917986807      1.96E-07
 K construction time:  CPU 609.95 s  wall 153.15 s
    9   -2291.1917986896      5.56E-08
 K construction time:  CPU 512.04 s  wall 128.45 s
   10   -2291.1917986919      2.72E-08
 K construction time:  CPU 466.18 s  wall 117.01 s
   11   -2291.1917986919      1.12E-08
 K construction time:  CPU 416.64 s  wall 104.52 s
   12   -2291.1917986930      4.71E-09 Convergence criterion met
 ---------------------------------------
 SCF time:  CPU 12880.99 s  wall 3253.01 s
 SCF   energy in the final basis set = -2291.1917986930
 Total energy in the final basis set = -2291.1917986930
 
 --------------------------------------------------------------
 
                    Orbital Energies (a.u.)
 --------------------------------------------------------------
 
 Alpha MOs
 -- Occupied --
-89.159 -89.107 -89.087 -14.490 -14.486 -14.463 -14.462 -14.444
-14.435 -10.359 -10.353 -10.350 -10.346 -10.344 -10.344 -10.343
-10.342 -10.339 -10.337 -10.335 -10.332 -10.327 -10.324 -10.320
-10.312 -10.303 -10.301 -10.296 -10.293  -8.164  -8.116  -8.097
 -6.113  -6.108  -6.107  -6.065  -6.061  -6.059  -6.046  -6.042
 -6.040  -1.149  -1.101  -1.069  -1.047  -1.030  -1.017  -1.006
 -0.987  -0.926  -0.912  -0.901  -0.879  -0.870  -0.855  -0.839
 -0.812  -0.778  -0.772  -0.747  -0.741  -0.733  -0.722  -0.712
 -0.674  -0.656  -0.649  -0.632  -0.629  -0.621  -0.607  -0.605
 -0.588  -0.583  -0.568  -0.566  -0.560  -0.548  -0.542  -0.528
 -0.512  -0.504  -0.502  -0.501  -0.493  -0.490  -0.486  -0.485
 -0.477  -0.467  -0.463  -0.462  -0.452  -0.443  -0.430  -0.430
 -0.423  -0.411  -0.398  -0.375  -0.374  -0.360  -0.351  -0.348
 -0.344  -0.342  -0.338  -0.334  -0.327  -0.265
 -- Virtual --
 -0.054  -0.026   0.026   0.033   0.041   0.050   0.064   0.071
  0.080   0.087   0.110   0.119   0.123   0.127   0.129   0.135
  0.147   0.151   0.155   0.165   0.170   0.171   0.183   0.188
  0.193   0.205   0.212   0.214   0.221   0.230   0.237   0.243
  0.256   0.265   0.267   0.275   0.280   0.289   0.293   0.295
  0.300   0.300   0.302   0.311   0.318   0.322   0.325   0.328
  0.332   0.339   0.343   0.346   0.350   0.353   0.358   0.361
  0.364   0.368   0.371   0.375   0.381   0.383   0.384   0.385
  0.391   0.394   0.395   0.398   0.403   0.406   0.407   0.411
  0.413   0.417   0.419   0.427   0.432   0.433   0.437   0.440
  0.444   0.447   0.452   0.454   0.457   0.458   0.460   0.463
  0.464   0.471   0.472   0.478   0.484   0.488   0.489   0.492
  0.493   0.498   0.499   0.505   0.508   0.515   0.518   0.520
  0.523   0.525   0.532   0.536   0.539   0.542   0.551   0.553
  0.560   0.562   0.564   0.568   0.575   0.592   0.598   0.602
  0.606   0.607   0.610   0.619   0.626   0.630   0.634   0.637
  0.639   0.643   0.651   0.654   0.661   0.661   0.668   0.674
  0.675   0.686   0.688   0.692   0.699   0.704   0.707   0.709
  0.716   0.722   0.731   0.736   0.738   0.740   0.753   0.754
  0.758   0.762   0.767   0.771   0.774   0.778   0.787   0.790
  0.793   0.793   0.799   0.802   0.808   0.817   0.818   0.822
  0.824   0.830   0.835   0.839   0.845   0.848   0.852   0.858
  0.864   0.865   0.870   0.880   0.886   0.891   0.896   0.902
  0.903   0.911   0.921   0.924   0.927   0.932   0.934   0.939
  0.950   0.952   0.954   0.958   0.961   0.964   0.969   0.974
  0.976   0.983   0.992   0.995   0.997   1.006   1.009   1.015
  1.017   1.025   1.030   1.033   1.045   1.050   1.056   1.065
  1.068   1.074   1.079   1.084   1.089   1.094   1.095   1.101
  1.111   1.111   1.118   1.125   1.129   1.136   1.139   1.143
  1.147   1.153   1.165   1.178   1.182   1.189   1.189   1.195
  1.198   1.210   1.215   1.217   1.227   1.231   1.239   1.247
  1.260   1.268   1.269   1.269   1.278   1.286   1.294   1.307
  1.312   1.315   1.323   1.331   1.338   1.347   1.348   1.353
  1.359   1.367   1.372   1.375   1.377   1.384   1.392   1.397
  1.403   1.405   1.414   1.423   1.425   1.427   1.435   1.438
  1.439   1.447   1.456   1.461   1.467   1.470   1.475   1.480
  1.493   1.494   1.498   1.508   1.513   1.524   1.527   1.536
  1.542   1.558   1.566   1.575   1.579   1.585   1.588   1.596
  1.605   1.608   1.617   1.619   1.631   1.633   1.642   1.647
  1.648   1.651   1.660   1.668   1.677   1.682   1.692   1.696
  1.700   1.714   1.718   1.723   1.727   1.734   1.739   1.752
  1.762   1.769   1.775   1.779   1.788   1.790   1.802   1.814
  1.824   1.833   1.842   1.853   1.870   1.881   1.884   1.889
  1.891   1.902   1.906   1.915   1.923   1.926   1.931   1.949
  1.955   1.961   1.972   1.973   1.979   1.995   1.999   2.005
  2.016   2.019   2.033   2.038   2.042   2.049   2.059   2.065
  2.070   2.089   2.101   2.103   2.110   2.114   2.123   2.126
  2.131   2.149   2.166   2.167   2.176   2.180   2.187   2.194
  2.195   2.208   2.217   2.219   2.230   2.242   2.247   2.252
  2.261   2.273   2.278   2.287   2.293   2.298   2.310   2.316
  2.318   2.329   2.334   2.339   2.346   2.347   2.360   2.374
  2.376   2.394   2.398   2.402   2.411   2.416   2.424   2.432
  2.440   2.447   2.453   2.454   2.466   2.468   2.471   2.479
  2.494   2.498   2.508   2.514   2.519   2.525   2.532   2.533
  2.536   2.542   2.550   2.561   2.573   2.590   2.593   2.599
  2.607   2.613   2.623   2.626   2.632   2.648   2.655   2.661
  2.666   2.671   2.674   2.679   2.690   2.692   2.701   2.713
  2.726   2.730   2.745   2.753   2.756   2.771   2.778   2.780
  2.781   2.790   2.793   2.802   2.808   2.813   2.817   2.821
  2.827   2.838   2.843   2.851   2.862   2.864   2.870   2.879
  2.888   2.889   2.895   2.904   2.911   2.919   2.923   2.931
  2.937   2.941   2.950   2.952   2.953   2.963   2.973   2.979
  2.984   2.992   2.998   3.000   3.007   3.013   3.018   3.023
  3.025   3.026   3.035   3.037   3.042   3.048   3.054   3.060
  3.066   3.070   3.071   3.075   3.078   3.081   3.090   3.097
  3.100   3.105   3.108   3.115   3.122   3.127   3.129   3.130
  3.134   3.141   3.147   3.150   3.156   3.161   3.165   3.168
  3.172   3.179   3.182   3.184   3.188   3.196   3.197   3.206
  3.209   3.214   3.216   3.219   3.225   3.231   3.238   3.241
  3.245   3.246   3.251   3.260   3.265   3.268   3.270   3.274
  3.278   3.283   3.286   3.294   3.299   3.302   3.307   3.309
  3.311   3.316   3.320   3.324   3.327   3.332   3.336   3.348
  3.356   3.363   3.364   3.367   3.382   3.386   3.388   3.394
  3.395   3.402   3.402   3.408   3.418   3.422   3.430   3.434
  3.435   3.444   3.450   3.452   3.461   3.463   3.465   3.474
  3.480   3.482   3.488   3.497   3.504   3.507   3.516   3.520
  3.522   3.529   3.543   3.544   3.561   3.571   3.578   3.583
  3.589   3.591   3.610   3.618   3.626   3.628   3.638   3.649
  3.652   3.663   3.670   3.677   3.687   3.695   3.706   3.711
  3.717   3.722   3.728   3.732   3.738   3.739   3.754   3.755
  3.764   3.780   3.784   3.792   3.797   3.803   3.806   3.815
  3.820   3.829   3.834   3.845   3.858   3.868   3.877   3.882
  3.891   3.894   3.898   3.904   3.913   3.916   3.925   3.929
  3.933   3.935   3.943   3.949   3.953   3.958   3.959   3.969
  3.980   3.989   3.993   3.999   4.020   4.022   4.027   4.034
  4.048   4.057   4.068   4.073   4.083   4.086   4.101   4.113
  4.117   4.128   4.136   4.138   4.149   4.158   4.167   4.174
  4.184   4.189   4.192   4.201   4.212   4.216   4.222   4.225
  4.227   4.231   4.233   4.243   4.246   4.253   4.263   4.276
  4.279   4.298   4.306   4.312   4.316   4.321   4.329   4.339
  4.348   4.354   4.358   4.367   4.373   4.383   4.391   4.400
  4.402   4.404   4.423   4.428   4.434   4.446   4.448   4.458
  4.461   4.471   4.482   4.496   4.510   4.519   4.525   4.527
  4.539   4.551   4.562   4.565   4.588   4.594   4.602   4.613
  4.626   4.641   4.657   4.660   4.669   4.681   4.691   4.702
  4.704   4.724   4.735   4.746   4.753   4.759   4.776   4.782
  4.792   4.801   4.805   4.815   4.831   4.841   4.852   4.865
  4.878   4.885   4.889   4.893   4.909   4.914   4.922   4.932
  4.940   4.942   4.958   4.962   4.970   4.974   4.985   4.992
  4.998   4.999   5.009   5.016   5.031   5.037   5.043   5.048
  5.073   5.084   5.090   5.098   5.105   5.109   5.115   5.123
  5.133   5.139   5.143   5.149   5.163   5.164   5.177   5.192
  5.207   5.222   5.240   5.249   5.262   5.298   5.303   5.314
  5.321   5.330   5.340   5.374   5.377   5.392   5.408   5.423
  5.448   5.453   5.466   5.479   5.496   5.528   5.533   5.542
  5.562   5.574   5.577   5.588   5.593   5.606   5.624   5.643
  5.694   5.700   5.712   5.726   5.735   5.746   5.748   5.760
  5.795   5.831   5.832   5.849   5.880   5.892   5.910   5.929
  5.957   5.968   6.021   6.035   6.089   6.132   6.153   6.174
  6.189   6.232   6.249   6.284   6.320   6.350   6.393   6.428
  6.432   6.446   6.640   6.892   6.989   7.012   8.026   8.882
  9.607  10.170  10.651  11.180  11.247  11.729  11.989  12.200
 12.496  12.568  12.739  12.850  12.856  12.970  13.054  13.125
 13.203  13.427  13.556  14.167  14.392  14.639  15.053  15.100
 --------------------------------------------------------------
 
          Ground-State Mulliken Net Atomic Charges

     Atom                 Charge (a.u.)
  ----------------------------------------
      1 C                    -0.089320
      2 C                    -0.134450
      3 C                    -0.078188
      4 C                    -0.114401
      5 N                    -0.150282
      6 C                     0.104277
      7 C                     0.075734
      8 N                    -0.141646
      9 C                     0.000700
     10 C                    -0.076889
     11 N                    -0.259941
     12 C                     0.046333
     13 C                     0.053485
     14 S                     0.407245
     15 N                    -0.303217
     16 C                    -0.073991
     17 S                     0.174194
     18 C                     0.062059
     19 C                    -0.055038
     20 N                    -0.169359
     21 C                     0.063668
     22 C                    -0.011572
     23 C                    -0.042193
     24 N                    -0.161971
     25 C                    -0.137985
     26 S                     0.102919
     27 C                    -0.045621
     28 C                    -0.158546
     29 C                    -0.182587
     30 H                     0.130973
     31 H                     0.121207
     32 H                     0.118287
     33 H                     0.130251
     34 H                     0.138285
     35 H                     0.126135
     36 H                     0.134573
     37 H                     0.128634
     38 H                     0.131634
     39 H                     0.136602
  ----------------------------------------
  Sum of atomic charges =     0.000000

 -----------------------------------------------------------------
                    Cartesian Multipole Moments
 -----------------------------------------------------------------
    Charge (ESU x 10^10)
                 0.0000
    Dipole Moment (Debye)
         X       0.3847      Y      -0.6376      Z      -1.9284
       Tot       2.0672
    Quadrupole Moments (Debye-Ang)
        XX    -150.9171     XY       8.0299     YY    -169.4269
        XZ       6.0980     YZ      -1.5760     ZZ    -184.0973
    Octopole Moments (Debye-Ang^2)
       XXX    -112.6545    XXY     -37.4129    XYY      72.8151
       YYY      27.8322    XXZ     -45.1622    XYZ     -23.7262
       YYZ      -3.5353    XZZ     -23.1011    YZZ      -8.7195
       ZZZ      -5.7854
    Hexadecapole Moments (Debye-Ang^3)
      XXXX  -15851.3952   XXXY    -366.4247   XXYY   -3728.1357
      XYYY     206.9928   YYYY   -3270.0444   XXXZ      44.5489
      XXYZ      -9.1810   XYYZ      19.4857   YYYZ     -33.5581
      XXZZ   -3284.9109   XYZZ      19.5628   YYZZ    -719.4544
      XZZZ      35.1962   YZZZ      11.4168   ZZZZ    -486.0004
 -----------------------------------------------------------------
 Calculating analytic gradient of the SCF energy
 K construction time:  CPU 2919.70 s  wall 731.84 s
 Gradient of SCF Energy
            1           2           3           4           5           6
    1   0.0002063  -0.0000223  -0.0005103   0.0000558   0.0011599  -0.0007862
    2   0.0002745  -0.0000483   0.0000337   0.0018408  -0.0006254  -0.0031379
    3   0.0002133  -0.0002626  -0.0002131  -0.0004524  -0.0002740   0.0005007
            7           8           9          10          11          12
    1   0.0008518   0.0002355  -0.0007174  -0.0010013  -0.0001831   0.0002468
    2   0.0003678   0.0003082   0.0002503   0.0003257   0.0004144   0.0001921
    3   0.0024128  -0.0023955   0.0008039   0.0004003  -0.0002545   0.0002570
           13          14          15          16          17          18
    1   0.0003871  -0.0001423   0.0008438  -0.0001375  -0.0003520  -0.0002039
    2  -0.0009320   0.0009275  -0.0000705  -0.0007350   0.0002284   0.0002542
    3  -0.0002302  -0.0000127  -0.0001584   0.0000626   0.0001549  -0.0002381
           19          20          21          22          23          24
    1   0.0000828   0.0006287  -0.0000320  -0.0001289   0.0000398  -0.0001204
    2  -0.0002597   0.0002391   0.0001124  -0.0000044  -0.0000282  -0.0000103
    3  -0.0001329  -0.0000756   0.0001769   0.0002477  -0.0000770  -0.0000284
           25          26          27          28          29          30
    1  -0.0000674   0.0000547  -0.0000670  -0.0000464   0.0000505  -0.0000555
    2  -0.0001115   0.0000567  -0.0000162  -0.0001252  -0.0000347  -0.0001622
    3  -0.0002294  -0.0000152   0.0000069   0.0000784   0.0000711   0.0000534
           31          32          33          34          35          36
    1  -0.0001035  -0.0001011   0.0000018  -0.0003591   0.0000973   0.0001235
    2  -0.0000566   0.0002039   0.0003381  -0.0001642   0.0000152  -0.0000073
    3   0.0000456  -0.0001844  -0.0003553  -0.0000550   0.0000423   0.0000757
           37          38          39
    1   0.0000439   0.0000237   0.0000039
    2   0.0000400   0.0000301   0.0000764
    3  -0.0000059   0.0000342   0.0000129
 Max gradient component =       3.138E-03
 RMS gradient           =       5.637E-04
 Gradient time:  CPU 3450.29 s  wall 865.69 s
 Geometry Optimization Parameters
   NAtoms,    NIC,     NZ,  NCons,   NDum,   NFix, NCnnct, MaxDiis
       39     293       0       3       0       0       0       0

 Cartesian Hessian Update
 Hessian Updated using BFGS Update


** CONSTRAINED OPTIMIZATION IN DELOCALIZED INTERNAL COORDINATES **
   Searching for a Minimum

   Optimization Cycle:   3

                       Coordinates (Angstroms)
     ATOM                X               Y               Z
      1  C        -7.6666237718    0.3813075837    0.2081685252
      2  C        -7.0564487496   -0.1490248968   -0.9158027628
      3  C        -6.8617320154    0.8265740298    1.2443002437
      4  C        -5.6752495835   -0.2067423311   -0.9571503486
      5  N        -5.5349359871    0.7811145595    1.2175191836
      6  C        -4.9588371938    0.2704327941    0.1338185883
      7  C        -3.4702150499    0.2902340306    0.1115677316
      8  N        -2.8540231110    1.4268088338    0.2406978754
      9  C        -2.7156359429   -0.9033192665   -0.0818384739
     10  C        -1.4956785459    1.4889614401    0.2145401180
     11  N        -3.1959802312   -2.1359996280   -0.2479650579
     12  C        -1.2899910119   -0.8377818282   -0.1051694603
     13  C        -0.6386638845    0.4238430261    0.0450900226
     14  S        -1.9192481532   -3.0971677384   -0.4166757538
     15  N        -0.7192573890   -2.0282659213   -0.2878829698
     16  C         0.8092629664    0.5717562366    0.0030365603
     17  S         1.8763428900   -0.7737485085    0.0801237648
     18  C         1.5697444399    1.7356718123   -0.1056535705
     19  C         3.3070088404    0.1503169154   -0.0010228588
     20  N         1.0818376038    3.0053719593   -0.1931459281
     21  C         2.9805489742    1.4969087407   -0.1107955955
     22  C         4.6210561359   -0.4533009159    0.0270692593
     23  C         1.9669025047    3.9498678057   -0.2752124757
     24  N         3.8801003523    2.5133819960   -0.2023198210
     25  C         5.7953615063    0.0724199311   -0.4376726353
     26  S         4.8875886280   -2.0275582427    0.7049244646
[...]


   Energy is  -2291.191858841

              Constraints and their Current Values
                                        Value     Constraint
   Dihedral:        4   6   7   8      120.000      120.000
   Dihedral:       10  13  16  17      168.550      168.550
   Dihedral:       17  19  22  25      157.506      157.507
 Hessian Updated using BFGS Update

105 Hessian modes will be used to form the next step
  Hessian Eigenvalues:
     0.012576    0.024728    0.042025    0.045000    0.045000    0.045000
     0.045000    0.045000    0.045000    0.045001    0.045001    0.045001
     0.045001    0.045001    0.045002    0.045002    0.045002    0.045002
     0.045002    0.045004    0.045004    0.045009    0.045009    0.045014
     0.045021    0.045026    0.045081    0.045090    0.045381    0.045792
     0.154468    0.159322    0.159832    0.159997    0.159998    0.159999
     0.160017    0.160170    0.160423    0.161613    0.208626    0.219325
     0.221326    0.224068    0.226537    0.235012    0.238065    0.243116
     0.243381    0.246994    0.249287    0.249915    0.249962    0.249979
     0.249989    0.249995    0.250607    0.256014    0.283259    0.312849
     0.326625    0.333880    0.336338    0.340791    0.345501    0.354732
     0.354872    0.355698    0.358632    0.360042    0.360966    0.361044
     0.362275    0.363567    0.364275    0.371600    0.379723    0.387255
     0.398057    0.401850    0.407738    0.418788    0.431113    0.432055
     0.451091    0.460503    0.464289    0.474103    0.475658    0.480239
     0.482719    0.488219    0.500686    0.505438    0.515252    0.518249
     0.519338    0.560508    0.578469    0.594482    0.631674    0.645804
     0.661442    0.664050    0.695869

 Minimum Search - Taking Simple RFO Step
 Searching for Lamda that Minimizes Along All modes
 Value Taken    Lamda =   0.00000000
 Step Taken.  Stepsize is  0.002458

                             Maximum     Tolerance    Cnvgd?
         Gradient           0.000050      0.000300     YES
         Displacement       0.001081      0.001200     YES
         Energy change      0.000000      0.000001     YES

 Final energy is   -2291.19185884098     


 ******************************
 **  OPTIMIZATION CONVERGED  **
 ******************************

                       Coordinates (Angstroms)
     ATOM                X               Y               Z
      1  C        -7.6664228967    0.4009284683    0.1850178989
      2  C        -7.0477078373   -0.1465473958   -0.9256248822
      3  C        -6.8692999203    0.8523585159    1.2252670666
      4  C        -5.6666095272   -0.2160145516   -0.9504894662
      5  N        -5.5432339682    0.8023399257    1.2112122038
      6  C        -4.9580550912    0.2726049184    0.1406242654
      7  C        -3.4698479284    0.2844989642    0.1257511624
      8  N        -2.8505001351    1.4204436464    0.2435713203
      9  C        -2.7170916423   -0.9134124821   -0.0625798596
     10  C        -1.4914589194    1.4807020424    0.2100956793
     11  N        -3.1986394283   -2.1493185720   -0.2007747968
     12  C        -1.2917512457   -0.8487737047   -0.0973402662
     13  C        -0.6380020424    0.4146890679    0.0376581181
     14  S        -1.9237186784   -3.1149550301   -0.3626024632
     15  N        -0.7238708837   -2.0426785579   -0.2631270985
     16  C         0.8100807483    0.5635748867   -0.0086139017
     17  S         1.8813692631   -0.7796533692    0.0645750170
     18  C         1.5674982384    1.7297295429   -0.1067468505
     19  C         3.3093075716    0.1500384719   -0.0083278076
     20  N         1.0746810457    2.9982439266   -0.1858122008
     21  C         2.9789970372    1.4959159749   -0.1102239552
     22  C         4.6248088033   -0.4504803207    0.0159817298
     23  C         1.9567581410    3.9463358203   -0.2577840461
     24  N         3.8754966141    2.5162213626   -0.1911029017
     25  C         5.7984504022    0.0811246182   -0.4434914247
     26  S         4.8929100485   -2.0302850166    0.6800709944
     27  C         3.3656161398    3.7070243257   -0.2601180246
     28  C         6.9034762368   -0.7855252227   -0.2727890855
     29  C         6.5649291758   -1.9641128049    0.3131355170
     30  H        -8.7428831006    0.4702370938    0.2472371445
     31  H        -7.6286135970   -0.5102070130   -1.7622086860
     32  H        -7.3162047315    1.2782495090    2.1160998615
     33  H        -5.1471208724   -0.6418851993   -1.7968248810
     34  H        -1.0806190177    2.4732299493    0.3015902907
     35  H         1.5877313092    4.9645730296   -0.3107060065
     36  H         5.8491821596    1.0657593438   -0.8772325001
     37  H         4.0526904196    4.5433226341   -0.3253929509
     38  H         7.9079044882   -0.5396012874   -0.5822716272
     39  H         7.2078834008   -2.7931235758    0.5549635029

Z-matrix Print:
$molecule
0 1
S 
C  1 1.705476
C  2 1.389559 1 109.395935
N  3 1.360616 2 125.032866 1 179.903114 0
C  4 1.297210 3 115.629655 2 179.000997 0
H  5 1.084309 4 117.525763 3 -179.985777 0
C  5 1.429040 4 122.761814 3 0.242687 0
H  7 1.084338 5 119.517745 4 -179.580534 0
N  7 1.296965 5 123.242053 4 -0.055212 0
C  9 1.363176 7 115.950232 5 -0.176858 0
C  10 1.393997 9 125.881858 7 -179.342964 0
C  2 1.446291 1 122.309440 3 179.094140 0
C  12 1.367901 2 127.834961 1 -157.506486 0
H  13 1.077131 12 122.068000 2 -1.107250 0
C  13 1.414674 12 113.052710 2 179.485766 0
H  15 1.079414 13 123.551383 12 -179.512172 0
C  15 1.359040 13 112.874405 12 0.039692 0
H  17 1.076629 15 128.012907 13 -179.937938 0
C  11 1.456452 10 128.900763 9 0.268862 0
C  19 1.376411 11 122.772513 10 11.107658 0
H  20 1.078087 19 119.167270 11 -0.901474 0
N  20 1.360788 19 126.018729 11 -178.970536 0
C  22 1.299170 20 120.837242 19 -0.965151 0
C  23 1.427271 22 119.629561 20 1.007025 0
N  24 1.333585 23 126.945630 22 179.933886 0
C  24 1.427229 23 119.466440 22 -1.000536 0
N  26 1.332435 24 112.835268 23 -179.245734 0
C  23 1.488329 22 118.866330 20 178.766253 0
N  28 1.330117 23 116.408617 22 57.085905 0
C  29 1.327083 28 117.590113 23 -177.377691 0
H  30 1.083831 29 115.819487 28 -179.279802 0
C  30 1.386114 29 123.670313 28 0.837211 0
H  32 1.080482 30 120.585904 29 179.699170 0
C  32 1.384220 30 118.288921 29 -0.734907 0
H  34 1.081468 32 120.902663 30 179.884467 0
C  34 1.383068 32 118.726615 30 0.158942 0
H  36 1.080517 34 120.928683 32 -179.626927 0
S  25 1.607503 24 106.305220 23 179.272135 0
S  17 1.713087 15 111.652749 13 0.532848 0
$end

 
 --------------------------------------------------------------
 
                    Orbital Energies (a.u.)
 --------------------------------------------------------------
 
 Alpha MOs
 -- Occupied --
-89.159 -89.107 -89.087 -14.490 -14.486 -14.463 -14.462 -14.444
-14.435 -10.359 -10.353 -10.350 -10.346 -10.344 -10.344 -10.343
-10.342 -10.339 -10.337 -10.335 -10.332 -10.327 -10.324 -10.320
-10.311 -10.303 -10.301 -10.296 -10.293  -8.164  -8.116  -8.097
 -6.113  -6.108  -6.107  -6.065  -6.061  -6.059  -6.046  -6.042
 -6.040  -1.148  -1.102  -1.069  -1.047  -1.030  -1.016  -1.006
 -0.987  -0.926  -0.912  -0.901  -0.879  -0.870  -0.855  -0.839
 -0.812  -0.778  -0.772  -0.747  -0.741  -0.733  -0.722  -0.712
 -0.674  -0.656  -0.649  -0.632  -0.629  -0.621  -0.607  -0.605
 -0.588  -0.582  -0.568  -0.566  -0.560  -0.548  -0.543  -0.528
 -0.512  -0.504  -0.502  -0.501  -0.493  -0.490  -0.486  -0.485
 -0.477  -0.467  -0.463  -0.462  -0.452  -0.443  -0.430  -0.429
 -0.423  -0.411  -0.398  -0.376  -0.373  -0.360  -0.351  -0.348
 -0.344  -0.342  -0.338  -0.334  -0.327  -0.265
 -- Virtual --
 -0.054  -0.026   0.026   0.033   0.041   0.050   0.064   0.071
  0.079   0.087   0.110   0.119   0.123   0.127   0.129   0.135
  0.147   0.151   0.155   0.165   0.170   0.171   0.183   0.188
  0.193   0.205   0.212   0.214   0.221   0.230   0.237   0.243
  0.256   0.265   0.267   0.275   0.280   0.289   0.293   0.295
  0.300   0.300   0.302   0.311   0.318   0.322   0.325   0.329
  0.332   0.339   0.343   0.346   0.350   0.353   0.358   0.361
  0.364   0.368   0.371   0.375   0.380   0.383   0.384   0.385
  0.391   0.394   0.395   0.398   0.403   0.406   0.407   0.411
  0.413   0.417   0.419   0.427   0.432   0.433   0.437   0.440
  0.444   0.447   0.452   0.455   0.457   0.458   0.460   0.463
  0.464   0.471   0.472   0.478   0.484   0.488   0.489   0.492
  0.492   0.498   0.499   0.505   0.508   0.515   0.518   0.520
  0.523   0.525   0.532   0.536   0.539   0.542   0.551   0.553
  0.560   0.562   0.564   0.568   0.575   0.592   0.598   0.601
  0.606   0.608   0.610   0.620   0.626   0.630   0.634   0.637
  0.639   0.644   0.651   0.654   0.661   0.661   0.668   0.674
  0.675   0.686   0.687   0.692   0.699   0.703   0.707   0.709
  0.716   0.723   0.731   0.736   0.738   0.740   0.752   0.755
  0.759   0.762   0.766   0.771   0.774   0.778   0.787   0.790
  0.793   0.794   0.799   0.802   0.808   0.816   0.818   0.821
  0.824   0.829   0.835   0.839   0.845   0.848   0.851   0.857
  0.863   0.865   0.870   0.880   0.886   0.891   0.895   0.902
  0.903   0.911   0.921   0.924   0.926   0.932   0.934   0.941
  0.950   0.953   0.954   0.958   0.961   0.964   0.969   0.974
  0.976   0.984   0.991   0.996   0.997   1.006   1.009   1.014
  1.016   1.026   1.030   1.034   1.045   1.051   1.056   1.064
  1.068   1.075   1.079   1.083   1.089   1.093   1.095   1.101
  1.111   1.111   1.118   1.126   1.130   1.136   1.140   1.142
  1.147   1.153   1.165   1.178   1.183   1.189   1.189   1.195
  1.198   1.210   1.216   1.217   1.226   1.231   1.239   1.247
  1.259   1.268   1.269   1.270   1.278   1.287   1.294   1.307
  1.312   1.316   1.323   1.331   1.338   1.347   1.349   1.352
  1.359   1.367   1.371   1.375   1.377   1.383   1.392   1.396
  1.403   1.404   1.414   1.422   1.424   1.427   1.435   1.438
  1.439   1.447   1.456   1.461   1.468   1.470   1.474   1.480
  1.493   1.494   1.498   1.509   1.513   1.524   1.527   1.536
  1.541   1.559   1.565   1.575   1.579   1.585   1.589   1.596
  1.605   1.608   1.617   1.620   1.631   1.634   1.642   1.646
  1.648   1.650   1.660   1.667   1.677   1.682   1.692   1.696
  1.700   1.715   1.718   1.723   1.728   1.734   1.738   1.752
  1.762   1.769   1.775   1.780   1.788   1.790   1.802   1.814
  1.823   1.833   1.842   1.853   1.870   1.881   1.884   1.888
  1.891   1.902   1.906   1.915   1.923   1.927   1.932   1.949
  1.955   1.960   1.971   1.973   1.980   1.995   1.999   2.006
  2.015   2.019   2.032   2.038   2.042   2.049   2.059   2.066
  2.069   2.090   2.101   2.103   2.109   2.114   2.123   2.126
  2.132   2.149   2.165   2.167   2.176   2.180   2.187   2.195
  2.195   2.208   2.218   2.218   2.230   2.241   2.246   2.252
  2.261   2.272   2.278   2.287   2.293   2.298   2.310   2.317
  2.318   2.329   2.335   2.339   2.347   2.348   2.359   2.374
  2.376   2.395   2.398   2.403   2.411   2.416   2.424   2.432
  2.439   2.448   2.453   2.454   2.466   2.468   2.471   2.480
  2.493   2.497   2.508   2.514   2.519   2.525   2.532   2.533
  2.536   2.542   2.551   2.561   2.573   2.589   2.593   2.599
  2.607   2.613   2.622   2.627   2.632   2.648   2.654   2.661
  2.667   2.672   2.674   2.679   2.690   2.692   2.701   2.713
  2.726   2.730   2.744   2.753   2.756   2.770   2.777   2.780
  2.781   2.790   2.793   2.801   2.807   2.813   2.817   2.820
  2.826   2.838   2.843   2.851   2.862   2.864   2.871   2.878
  2.887   2.888   2.895   2.904   2.912   2.919   2.924   2.931
  2.937   2.941   2.950   2.953   2.954   2.963   2.973   2.979
  2.984   2.992   2.997   3.000   3.007   3.014   3.018   3.023
  3.024   3.026   3.035   3.037   3.042   3.048   3.054   3.060
  3.067   3.070   3.071   3.076   3.078   3.081   3.090   3.096
  3.100   3.105   3.108   3.115   3.122   3.127   3.129   3.130
  3.134   3.141   3.147   3.151   3.156   3.161   3.165   3.168
  3.171   3.179   3.182   3.184   3.188   3.196   3.198   3.206
  3.209   3.214   3.216   3.220   3.225   3.232   3.238   3.240
  3.245   3.246   3.251   3.259   3.265   3.268   3.270   3.274
  3.278   3.283   3.286   3.294   3.299   3.302   3.307   3.308
  3.311   3.316   3.320   3.324   3.327   3.332   3.337   3.348
  3.357   3.362   3.364   3.366   3.382   3.385   3.388   3.393
  3.395   3.401   3.402   3.407   3.418   3.422   3.430   3.434
  3.435   3.444   3.450   3.454   3.460   3.463   3.466   3.474
  3.480   3.482   3.487   3.497   3.504   3.506   3.516   3.520
  3.523   3.529   3.542   3.545   3.561   3.571   3.578   3.583
  3.588   3.590   3.611   3.619   3.626   3.627   3.638   3.650
  3.652   3.663   3.670   3.677   3.686   3.695   3.706   3.711
  3.717   3.722   3.728   3.732   3.737   3.739   3.753   3.754
  3.764   3.780   3.784   3.793   3.797   3.804   3.807   3.815
  3.820   3.829   3.834   3.845   3.858   3.867   3.877   3.881
  3.890   3.894   3.898   3.905   3.913   3.916   3.925   3.929
  3.933   3.935   3.942   3.949   3.953   3.958   3.959   3.969
  3.979   3.989   3.993   3.999   4.020   4.023   4.027   4.034
  4.048   4.057   4.067   4.073   4.082   4.086   4.101   4.114
  4.117   4.128   4.135   4.137   4.148   4.158   4.166   4.176
  4.185   4.189   4.192   4.201   4.212   4.216   4.222   4.225
  4.227   4.231   4.233   4.243   4.245   4.253   4.263   4.276
  4.279   4.298   4.306   4.311   4.315   4.321   4.329   4.340
  4.349   4.353   4.359   4.367   4.372   4.382   4.391   4.400
  4.402   4.405   4.424   4.428   4.434   4.445   4.448   4.458
  4.461   4.472   4.481   4.496   4.510   4.519   4.524   4.527
  4.540   4.552   4.561   4.565   4.588   4.594   4.601   4.612
  4.626   4.641   4.657   4.659   4.668   4.681   4.690   4.701
  4.705   4.724   4.735   4.748   4.754   4.759   4.776   4.782
  4.793   4.802   4.804   4.814   4.831   4.841   4.852   4.865
  4.878   4.886   4.889   4.892   4.907   4.915   4.922   4.934
  4.939   4.943   4.958   4.962   4.970   4.974   4.984   4.992
  4.998   4.999   5.009   5.016   5.030   5.037   5.044   5.048
  5.073   5.084   5.091   5.098   5.105   5.110   5.115   5.124
  5.132   5.139   5.143   5.150   5.163   5.164   5.177   5.192
  5.207   5.222   5.240   5.249   5.262   5.298   5.303   5.314
  5.321   5.330   5.340   5.374   5.377   5.393   5.408   5.423
  5.447   5.453   5.466   5.480   5.495   5.528   5.533   5.542
  5.561   5.575   5.577   5.589   5.593   5.607   5.624   5.642
  5.693   5.700   5.712   5.726   5.736   5.746   5.748   5.759
  5.796   5.829   5.832   5.849   5.880   5.892   5.909   5.930
  5.957   5.968   6.021   6.034   6.090   6.133   6.153   6.174
  6.189   6.231   6.250   6.284   6.320   6.350   6.393   6.429
  6.433   6.446   6.640   6.891   6.988   7.012   8.028   8.883
  9.609  10.172  10.651  11.173  11.246  11.725  11.987  12.194
 12.496  12.566  12.732  12.843  12.855  12.964  13.050  13.121
 13.218  13.430  13.558  14.174  14.398  14.639  15.052  15.104
 --------------------------------------------------------------
 
          Ground-State Mulliken Net Atomic Charges

     Atom                 Charge (a.u.)
  ----------------------------------------
      1 C                    -0.089322
      2 C                    -0.134751
      3 C                    -0.077861
      4 C                    -0.114144
      5 N                    -0.149639
      6 C                     0.102438
      7 C                     0.077323
      8 N                    -0.141798
      9 C                    -0.002026
     10 C                    -0.076719
     11 N                    -0.259427
     12 C                     0.047177
     13 C                     0.053985
     14 S                     0.407467
     15 N                    -0.303379
     16 C                    -0.074762
     17 S                     0.173503
     18 C                     0.062031
     19 C                    -0.055149
     20 N                    -0.169006
     21 C                     0.063355
     22 C                    -0.011252
     23 C                    -0.041995
     24 N                    -0.161795
     25 C                    -0.137476
     26 S                     0.102828
     27 C                    -0.045481
     28 C                    -0.158669
     29 C                    -0.182420
     30 H                     0.130913
     31 H                     0.121090
     32 H                     0.118553
     33 H                     0.130577
     34 H                     0.138652
     35 H                     0.125882
     36 H                     0.134200
     37 H                     0.128955
     38 H                     0.131611
     39 H                     0.136532
  ----------------------------------------
  Sum of atomic charges =     0.000000

 -----------------------------------------------------------------
                    Cartesian Multipole Moments
 -----------------------------------------------------------------
    Charge (ESU x 10^10)
                 0.0000
    Dipole Moment (Debye)
         X       0.4034      Y      -0.6385      Z      -1.9215
       Tot       2.0645
    Quadrupole Moments (Debye-Ang)
        XX    -151.0526     XY       8.0206     YY    -169.2839
        XZ       6.1883     YZ      -1.4960     ZZ    -184.2137
    Octopole Moments (Debye-Ang^2)
       XXX    -111.3551    XXY     -36.4291    XYY      72.4616
       YYY      28.8195    XXZ     -47.0002    XYZ     -23.3534
       YYZ      -3.3485    XZZ     -22.8286    YZZ      -8.3572
       ZZZ      -6.6323
    Hexadecapole Moments (Debye-Ang^3)
      XXXX  -15863.5551   XXXY    -372.3629   XXYY   -3728.6610
      XYYY     210.9988   YYYY   -3279.8449   XXXZ      61.1548
      XXYZ      -4.4917   XYYZ      23.7428   YYYZ     -30.7289
      XXZZ   -3288.5351   XYZZ      22.2133   YYZZ    -720.7641
      XZZZ      47.8439   YZZZ      12.2532   ZZZZ    -475.5334
 -----------------------------------------------------------------
Archival summary:
1\1\chiqspirix\OPT\ProcedureUnspecified\BasisUnspecified\362010\Andres\FriJun205:20:172017FriJun205:20:172017\0\\#,OPT,ProcedureUnspecified,BasisUnspecified,\\0,1\S\C,1,1.70548\C,2,1.38956,1,109.396\N,3,1.36062,2,125.033,1,179.903,0\C,4,1.29721,3,115.63,2,179.001,0\H,5,1.08431,4,117.526,3,-179.986,0\C,5,1.42904,4,122.762,3,0.242687,0\H,7,1.08434,5,119.518,4,-179.581,0\N,7,1.29696,5,123.242,4,-0.0552119,0\C,9,1.36318,7,115.95,5,-0.176858,0\C,10,1.394,9,125.882,7,-179.343,0\C,2,1.44629,1,122.309,3,179.094,0\C,12,1.3679,2,127.835,1,-157.506,0\H,13,1.07713,12,122.068,2,-1.10725,0\C,13,1.41467,12,113.053,2,179.486,0\H,15,1.07941,13,123.551,12,-179.512,0\C,15,1.35904,13,112.874,12,0.0396923,0\H,17,1.07663,15,128.013,13,-179.938,0\C,11,1.45645,10,128.901,9,0.268862,0\C,19,1.37641,11,122.773,10,11.1077,0\H,20,1.07809,19,119.167,11,-0.901474,0\N,20,1.36079,19,126.019,11,-178.971,0\C,22,1.29917,20,120.837,19,-0.965151,0\C,23,1.42727,22,119.63,20,1.00702,0\N,24,1.33359,23,126.946,22,179.934,0\C,24,1.42723,23,119.466,22,-1.00054,0\N,26,1.33243,24,112.835,23,-179.246,0\C,23,1.48833,22,118.866,20,178.766,0\N,28,1.33012,23,116.409,22,57.0859,0\C,29,1.32708,28,117.59,23,-177.378,0\H,30,1.08383,29,115.819,28,-179.28,0\C,30,1.38611,29,123.67,28,0.837211,0\H,32,1.08048,30,120.586,29,179.699,0\C,32,1.38422,30,118.289,29,-0.734907,0\H,34,1.08147,32,120.903,30,179.884,0\C,34,1.38307,32,118.727,30,0.158942,0\H,36,1.08052,34,120.929,32,-179.627,0\S,25,1.6075,24,106.305,23,179.272,0\S,17,1.71309,15,111.653,13,0.532848,0\\\@

 Total job time:  31242.56s(wall), 123803.99s(cpu) 
 Fri Jun  2 05:20:17 2017

        *************************************************************
        *                                                           *
        *  Thank you very much for using Q-Chem.  Have a nice day.  *
        *                                                           *
        *************************************************************


0 sent ACK to 0 
now end server 0 ... 
cleanup process ... done
