
Running Job 1 of 1 C169_180.qcin
qchem C169_180.qcin_19442.0 /home/Andres/temp/qchem19442/ 1
/usr/local/qchem44/bin/mpi/mpirun_qchem -machinefile /usr/local/qchem44/bin/mpi/machines -np 1 /usr/local/qchem44/exe/qcprog.exe C169_180.qcin_19442.0 /home/Andres/temp/qchem19442/

Process 0 of 1 is on localhost.localdomain - thread support 0
initial socket setup ...start
initial socket setup ...done 
now start server 0 ... 
localhost.localdomain 127.0.0
                  Welcome to Q-Chem
     A Quantum Leap Into The Future Of Chemistry


 Q-Chem 4.4, Q-Chem, Inc., Pleasanton, CA (2016)

 Y. Shao,  Z. Gan,  E. Epifanovsky,  A. T. B. Gilbert,  M. Wormit,  
 J. Kussmann,  A. W. Lange,  A. Behn,  J. Deng,  X. Feng,  D. Ghosh,  
 M. Goldey,  P. R. Horn,  L. D. Jacobson,  I. Kaliman,  R. Z. Khaliullin,  
 T. Kus,  A. Landau,  J. Liu,  E. I. Proynov,  Y. M. Rhee,  R. M. Richard,  
 M. A. Rohrdanz,  R. P. Steele,  E. J. Sundstrom,  H. L. Woodcock III,  
 P. M. Zimmerman,  D. Zuev,  B. Albrecht,  E. Alguire,  B. Austin,  
 S. A. Baeppler,  G. J. O. Beran,  Y. A. Bernard,  E. Berquist,  
 K. Brandhorst,  K. B. Bravaya,  S. T. Brown,  D. Casanova,  C.-M. Chang,  
 Y. Chen,  S. H. Chien,  K. D. Closser,  M. P. Coons,  D. L. Crittenden,  
 S. Dasgupta,  M. Diedenhofen,  R. A. DiStasio Jr.,  H. Do,  A. D. Dutoi,  
 R. G. Edgar,  P.-T. Fang,  S. Fatehi,  Q. Feng,  L. Fusti-Molnar,  
 A. Ghysels,  A. Golubeva-Zadorozhnaya,  J. Gomes,  A. Gunina,  
 M. W. D. Hanson-Heine,  P. H. P. Harbach,  A. W. Hauser,  E. G. Hohenstein,  
 Z. C. Holden,  K. Hui,  T.-C. Jagau,  H. Ji,  B. Kaduk,  K. Khistyaev,  
 Jaehoon Kim,  Jihan Kim,  R. A. King,  P. Klunzinger,  D. Kosenkov,  
 T. Kowalczyk,  C. M. Krauter,  A. Kunitsa,  K. U. Lao,  A. Laurent,  
 K. V. Lawler,  D. Lefrancois,  S. Lehtola,  S. V. Levchenko,  C. Y. Lin,  
 Y.-S. Lin,  F. Liu,  E. Livshits,  R. C. Lochan,  A. Luenser,  P. Manohar,  
 S. F. Manzer,  S.-P. Mao,  Y. Mao,  N. Mardirossian,  A. V. Marenich,  
 L. A. Martinez-Martinez,  S. A. Maurer,  N. J. Mayhall,  J.-M. Mewes,  
 A. F. Morrison,  K. Nanda,  C. M. Oana,  R. Olivares-Amaya,  D. P. O'Neill,  
 J. A. Parkhill,  T. M. Perrine,  R. Peverati,  P. A. Pieniazek,  F. Plasser,  
 A. Prociuk,  D. R. Rehn,  E. Rosta,  N. J. Russ,  N. Sergueev,  
 S. M. Sharada,  S. Sharma,  D. W. Small,  A. Sodt,  T. Stauch,  T. Stein,  
 D. Stuck,  Y.-C. Su,  A. J. W. Thom,  T. Tsuchimochi,  L. Vogt,  O. Vydrov,  
 T. Wang,  M. A. Watson,  J. Wenzel,  A. White,  C. F. Williams,  
 V. Vanovschi,  S. Yeganeh,  S. R. Yost,  Z.-Q. You,  I. Y. Zhang,  X. Zhang,  
 Y. Zhao,  B. R. Brooks,  G. K. L. Chan,  D. M. Chipman,  C. J. Cramer,  
 W. A. Goddard III,  M. S. Gordon,  W. J. Hehre,  A. Klamt,  
 H. F. Schaefer III,  M. W. Schmidt,  C. D. Sherrill,  D. G. Truhlar,  
 A. Warshel,  X. Xu,  A. Aspuru-Guzik,  R. Baer,  A. T. Bell,  N. A. Besley,  
 J.-D. Chai,  A. Dreuw,  B. D. Dunietz,  T. R. Furlani,  S. R. Gwaltney,  
 C.-P. Hsu,  Y. Jung,  J. Kong,  D. S. Lambrecht,  W. Liang,  C. Ochsenfeld,  
 V. A. Rassolov,  L. V. Slipchenko,  J. E. Subotnik,  T. Van Voorhis,  
 J. M. Herbert,  A. I. Krylov,  P. M. W. Gill,  M. Head-Gordon

 Contributors to earlier versions of Q-Chem not listed above: 
 R. D. Adamson,  J. Baker,  E. F. C. Byrd,  A. K. Chakraborty,  C.-L. Cheng,  
 H. Dachsel,  R. J. Doerksen,  G. Hawkins,  A. Heyden,  S. Hirata,  
 G. Kedziora,  F. J. Keil,  C. Kelley,  P. P. Korambath,  W. Kurlancheek,  
 A. M. Lee,  M. S. Lee,  D. Liotard,  I. Lotan,  P. E. Maslen,  N. Nair,  
 D. Neuhauser,  R. Olson,  B. Peters,  J. Ritchie,  N. E. Schultz,  
 N. Shenvi,  A. C. Simmonett,  K. S. Thanthiriwatte,  Q. Wu,  W. Zhang

 Please cite Q-Chem as follows:
 Y. Shao et al., Mol. Phys. 113, 184-215 (2015)
 DOI: 10.1080/00268976.2014.952696

 Q-Chem 4.4.0 for Intel X86 Linux

 Parts of Q-Chem use Armadillo 5.200.1 (Boston Tea Smuggler).
 http://arma.sourceforge.net/

 Q-Chem begins on Sat Jun  3 06:41:58 2017  

Host: 
0

     Scratch files written to /home/Andres/temp/qchem19442//
 Apr2716 1281_ 20995  20993 0   
 Parallel job on  1  processors
Processing $rem in /usr/local/qchem44/config/preferences.
 MEM_TOTAL  16000 

Checking the input file for inconsistencies... 	...done.

--------------------------------------------------------------
User input:
--------------------------------------------------------------
$comment
OPTIMIZATION
$end

$rem
JOBTYPE OPT
EXCHANGE omegaB97X-D
BASIS cc-pVTZ
$end

$molecule
0 1
C          0.00000        0.00000        0.00000
C         -0.65442       -1.22189        0.00029
C          1.38558        0.00000        0.00000
C          0.09563       -2.38039        0.00926
N          2.11898       -1.10529        0.01182
C          1.48579       -2.27657        0.02342
C          2.30845       -3.51149        0.04024
N          3.60498       -3.36437        0.05312
C          1.76025       -4.83617        0.02019
C          4.44845       -4.42481        0.06029
N          0.47861       -5.19817       -0.04941
C          2.65701       -5.95378        0.03918
C          4.07066       -5.74714        0.05497
S          0.45339       -6.80143       -0.06413
N          2.03041       -7.12826        0.00468
C          5.03212       -6.83959        0.02934
S          4.58627       -8.47612        0.30982
C          6.40212       -6.78966       -0.22637
C          6.16164       -9.10376        0.13041
N          7.12290       -5.66715       -0.50326
C          7.03971       -8.06978       -0.17326
C          6.45408      -10.51349        0.27256
C          8.39278       -5.84367       -0.70618
N          8.37358       -8.21657       -0.39294
C          7.51879      -11.20520       -0.23567
S          5.41648      -11.57112        1.17403
C          9.02419       -7.12322       -0.65051
C          7.49073      -12.58193        0.09009
C          6.40978      -12.92555        0.84073
H         -0.54818        0.93041       -0.00000
H         -1.73449       -1.27032       -0.00344
H          1.93674        0.93371       -0.01430
H         -0.36223       -3.35775        0.00507
H          5.49690       -4.17499        0.04728
H          8.98736       -4.96241       -0.91993
H          8.29198      -10.72557       -0.81116
H         10.08911       -7.20541       -0.83288
H          8.24371      -13.28599       -0.22895
H          6.14982      -13.89891        1.22154
$end

$opt
CONSTRAINT
tors 4 6 7 8 180.00000
tors 10 13 16 17 168.54979
tors 17 19 22 25 157.50653
ENDCONSTRAINT
$end
--------------------------------------------------------------
 ----------------------------------------------------------------
             Standard Nuclear Orientation (Angstroms)
    I     Atom           X                Y                Z
 ----------------------------------------------------------------
    1      C       7.6756060865    -0.4290709522     0.1950030461
    2      C       7.0655835340     0.8004232632     0.0013609731
    3      C       6.8671326341    -1.5453158897     0.3371292310
    4      C       5.6873079538     0.8632714513    -0.0330518686
    5      N       5.5416948960    -1.4992250390     0.3093498790
    6      C       4.9600884610    -0.3142939268     0.1343264850
    7      C       3.4772185060    -0.2648926216     0.1071971252
    8      N       2.8398114039    -1.3920975573     0.2681985192
    9      C       2.7222796327     0.9351790731    -0.1063387499
   10      C       1.4866702203    -1.4611256475     0.2517637010
   11      N       3.1779689096     2.1657263913    -0.3442249206
   12      C       1.2913453546     0.8577762360    -0.1115466599
   13      C       0.6338431387    -0.3975710813     0.0705238904
   14      S       1.8916084939     3.1053485438    -0.5277527001
   15      N       0.7044325409     2.0326074837    -0.3318327668
   16      C      -0.8133195639    -0.5479742468     0.0304211343
   17      S      -1.8885299146     0.7920895791     0.0923350910
   18      C      -1.5658682654    -1.7171387221    -0.0768425165
   19      C      -3.3128053620    -0.1421396565     0.0113058391
   20      N      -1.0684189589    -2.9827578908    -0.1603463365
   21      C      -2.9783370195    -1.4874457882    -0.0917445084
   22      C      -4.6312874473     0.4529060952     0.0356367516
   23      C      -1.9476696143    -3.9335272714    -0.2491546757
   24      N      -3.8703789218    -2.5092632336    -0.1874844486
   25      C      -5.8015001606    -0.0803951345    -0.4297231575
   26      S      -4.9066056330     2.0262978267     0.7112708934
   27      C      -3.3561328058    -3.6988150508    -0.2620988297
   28      C      -6.9107119588     0.7802909559    -0.2531981600
   29      C      -6.5774233664     1.9565602314     0.3428700594
   30      H       8.7507202128    -0.5221714313     0.2353266959
   31      H       7.6565737715     1.6978416922    -0.1181433579
   32      H       7.3038230397    -2.5280150292     0.4764134393
   33      H       5.1612009493     1.7932338951    -0.1855876950
   34      H       1.0780200313    -2.4512203508     0.3723630233
   35      H      -1.5739737866    -4.9497465673    -0.3081749900
   36      H      -5.8491257005    -1.0617059498    -0.8699700709
   37      H      -4.0397257824    -4.5357231099    -0.3418118291
   38      H      -7.9137218075     0.5324307498    -0.5646503187
   39      H      -7.2252469019     2.7801619250     0.5919284149
 ----------------------------------------------------------------
 Molecular Point Group                 C1    NOp =  1
 Largest Abelian Subgroup              C1    NOp =  1
 Nuclear Repulsion Energy =  2931.4476592903 hartrees
 There are      110 alpha and      110 beta electrons
 Requested basis set is cc-pVTZ
 There are 356 shells and 1022 basis functions

 Total QAlloc Memory Limit  16000 MB
 Mega-Array Size        61 MB
 MEM_STATIC part        62 MB
 A cutoff of  1.0D-11 yielded  30924 shell pairs
 There are    244266 function pairs (    318867 Cartesian)
 
 -------------------------------------------------------
 OpenMP Integral Computing Module                       
 Release: version 1.0, May 2013, Q-Chem Inc. Pittsburgh 
 -------------------------------------------------------
 Integral Job Info:
 Integral job number is                      11
 Integral operator is                         1
 short-range coefficients              22203600
 long-range coefficients              100000000
 Omega coefficients                         200
 if combine SR and LR in K                    1
 Integral screening is                        0
 Integral computing path is                   2
 max size of driver memory is            800000
 size of driver memory is                776718
 size of scratch memory is             26248924
 max col of scratch BK array              10000
 max len of scratch array in speh3          662
 max len of scratch index in speh4           32
 max int batch size is                      520
 min int batch size is                       52
 fixed nKL is                                52
 max L of basis functions is                  3
 order of int derivative is                   0
 number of shells is                        356
 number of basis is                        1177
 number of cartesian basis is              1177
 number of contracted shell pairs         30924
 number of primitive shell pairs          93788
 maxK2 (contraction) of shell pair          121
 max number of K2 of shell pair               1
 max number of CS2 of shell pair           4262
 max number of PS2 of shell pair          12971
 mem total for path MDJ                  842240
 -------------------------------------------------------
 Smallest overlap matrix eigenvalue = 2.55E-05

 Scale SEOQF with 1.000000e-02/1.000000e-01/1.000000e+00

 Standard Electronic Orientation quadrupole field applied
 Nucleus-field energy     =     0.0000000455 hartrees
 Guess from superposition of atomic densities
 Warning:  Energy on first SCF cycle will be non-variational
 Long-range K will be added via erf
 Coulomb attenuation parameter = 0.2 bohr**(-1)
 A restricted hybrid HF-DFT SCF calculation will be
 performed using Pulay DIIS extrapolation
 Exchange:     0.2220 Hartree-Fock + 1.0000 wB97X-D + LR-HF
 Correlation:  1.0000 wB97X-D
 Using SG-1 standard quadrature grid
 Dispersion:   Grimme D
 SCF converges when DIIS error is below 1.0E-08
 using 4 threads for integral computing 
 using 4 threads for integral computing 
 K construction time:  CPU 78.62 s  wall 19.97 s
 -------------------------------------------------------
 OpenMP BLAS3 based DFT computing Module                
 Release: version 1.0, May 2013, Q-Chem Inc. Pittsburgh 
 -------------------------------------------------------
 ---------------------------------------
  Cycle       Energy         DIIS Error
 ---------------------------------------
    1   -2301.5330289620      1.84E-02
 K construction time:  CPU 1315.12 s  wall 330.99 s
    2   -2290.9294079234      1.35E-03
 K construction time:  CPU 1254.40 s  wall 315.65 s
    3   -2290.9514731240      1.39E-03
 K construction time:  CPU 1222.16 s  wall 307.50 s
    4   -2291.1820375045      2.19E-04
 K construction time:  CPU 1134.41 s  wall 285.54 s
    5   -2291.1873587995      1.20E-04
 K construction time:  CPU 1063.62 s  wall 267.64 s
    6   -2291.1891873298      3.46E-05
 K construction time:  CPU 1005.16 s  wall 252.84 s
    7   -2291.1893715917      1.45E-05
 K construction time:  CPU 919.53 s  wall 231.30 s
    8   -2291.1894128212      5.64E-06
 K construction time:  CPU 885.35 s  wall 222.68 s
    9   -2291.1894246764      3.72E-06
 K construction time:  CPU 836.70 s  wall 210.37 s
   10   -2291.1894283211      1.02E-06
 K construction time:  CPU 760.32 s  wall 191.15 s
   11   -2291.1894288134      6.97E-07
 K construction time:  CPU 690.85 s  wall 173.53 s
   12   -2291.1894289269      2.36E-07
 K construction time:  CPU 624.48 s  wall 156.88 s
   13   -2291.1894289429      1.50E-07
 K construction time:  CPU 565.04 s  wall 141.93 s
   14   -2291.1894289467      4.03E-08
 K construction time:  CPU 498.55 s  wall 125.11 s
   15   -2291.1894289473      1.97E-08
 K construction time:  CPU 1313.15 s  wall 331.71 s
   16   -2291.1894289432      6.61E-09 Convergence criterion met
 ---------------------------------------
 SCF time:  CPU 18641.02 s  wall 4710.96 s
 SCF   energy in the final basis set = -2291.1894289432
 Total energy in the final basis set = -2291.1894289432
 
 --------------------------------------------------------------
 
                    Orbital Energies (a.u.)
 --------------------------------------------------------------
 
 Alpha MOs
 -- Occupied --
-89.161 -89.108 -89.088 -14.493 -14.489 -14.463 -14.462 -14.440
-14.430 -10.361 -10.358 -10.351 -10.346 -10.345 -10.344 -10.343
-10.342 -10.339 -10.336 -10.333 -10.331 -10.326 -10.321 -10.321
-10.307 -10.299 -10.296 -10.294 -10.291  -8.166  -8.117  -8.098
 -6.116  -6.110  -6.109  -6.065  -6.062  -6.060  -6.047  -6.043
 -6.040  -1.152  -1.102  -1.067  -1.043  -1.030  -1.020  -1.008
 -0.987  -0.926  -0.907  -0.901  -0.879  -0.870  -0.854  -0.839
 -0.812  -0.779  -0.773  -0.750  -0.742  -0.731  -0.717  -0.711
 -0.674  -0.656  -0.649  -0.631  -0.628  -0.621  -0.608  -0.604
 -0.591  -0.575  -0.568  -0.566  -0.558  -0.549  -0.541  -0.528
 -0.510  -0.509  -0.502  -0.501  -0.493  -0.487  -0.485  -0.484
 -0.478  -0.470  -0.467  -0.463  -0.454  -0.444  -0.433  -0.430
 -0.417  -0.411  -0.397  -0.382  -0.367  -0.363  -0.351  -0.350
 -0.344  -0.340  -0.335  -0.330  -0.321  -0.264
 -- Virtual --
 -0.059  -0.028   0.020   0.031   0.043   0.055   0.069   0.070
  0.077   0.088   0.118   0.122   0.126   0.127   0.130   0.135
  0.149   0.153   0.156   0.164   0.170   0.179   0.183   0.193
  0.201   0.203   0.210   0.217   0.228   0.232   0.238   0.255
  0.256   0.266   0.268   0.274   0.283   0.287   0.292   0.294
  0.300   0.304   0.310   0.312   0.315   0.318   0.325   0.329
  0.334   0.336   0.340   0.347   0.349   0.354   0.356   0.363
  0.366   0.368   0.373   0.379   0.380   0.382   0.385   0.388
  0.392   0.395   0.398   0.399   0.404   0.406   0.407   0.413
  0.416   0.418   0.421   0.428   0.432   0.435   0.438   0.444
  0.448   0.448   0.452   0.457   0.460   0.462   0.465   0.467
  0.470   0.472   0.476   0.479   0.480   0.485   0.492   0.492
  0.498   0.501   0.504   0.507   0.509   0.514   0.517   0.520
  0.525   0.526   0.534   0.535   0.539   0.547   0.550   0.554
  0.559   0.564   0.576   0.577   0.581   0.588   0.597   0.602
  0.606   0.609   0.615   0.620   0.631   0.636   0.639   0.647
  0.651   0.654   0.657   0.660   0.661   0.669   0.675   0.676
  0.680   0.685   0.692   0.699   0.702   0.705   0.711   0.715
  0.723   0.729   0.734   0.738   0.740   0.749   0.755   0.759
  0.766   0.769   0.774   0.776   0.779   0.782   0.790   0.792
  0.795   0.799   0.804   0.808   0.815   0.817   0.821   0.825
  0.832   0.837   0.840   0.843   0.847   0.854   0.856   0.861
  0.863   0.874   0.876   0.883   0.885   0.894   0.896   0.900
  0.910   0.913   0.918   0.921   0.923   0.931   0.931   0.938
  0.943   0.948   0.954   0.961   0.965   0.966   0.970   0.975
  0.978   0.981   0.992   0.997   1.005   1.010   1.012   1.017
  1.018   1.027   1.033   1.039   1.044   1.051   1.058   1.064
  1.070   1.073   1.084   1.084   1.088   1.091   1.098   1.106
  1.107   1.114   1.115   1.123   1.129   1.132   1.142   1.147
  1.149   1.162   1.166   1.174   1.183   1.186   1.188   1.200
  1.204   1.210   1.213   1.219   1.228   1.233   1.236   1.246
  1.251   1.253   1.266   1.276   1.284   1.288   1.292   1.298
  1.315   1.317   1.325   1.337   1.341   1.341   1.351   1.356
  1.360   1.366   1.372   1.373   1.377   1.385   1.390   1.394
  1.402   1.407   1.412   1.423   1.427   1.429   1.437   1.445
  1.446   1.453   1.455   1.463   1.469   1.479   1.486   1.493
  1.498   1.502   1.508   1.512   1.517   1.522   1.527   1.538
  1.543   1.568   1.568   1.579   1.582   1.584   1.593   1.604
  1.611   1.613   1.617   1.629   1.631   1.641   1.645   1.647
  1.649   1.657   1.668   1.675   1.678   1.689   1.694   1.698
  1.714   1.715   1.718   1.725   1.729   1.743   1.751   1.757
  1.767   1.772   1.782   1.794   1.800   1.805   1.808   1.817
  1.826   1.840   1.851   1.859   1.866   1.873   1.883   1.884
  1.889   1.898   1.914   1.917   1.922   1.927   1.932   1.950
  1.959   1.970   1.973   1.987   1.995   1.997   2.006   2.014
  2.018   2.020   2.034   2.041   2.050   2.055   2.063   2.068
  2.084   2.094   2.104   2.111   2.112   2.120   2.124   2.129
  2.145   2.155   2.171   2.181   2.185   2.186   2.199   2.203
  2.208   2.210   2.213   2.231   2.238   2.244   2.254   2.262
  2.267   2.281   2.288   2.293   2.295   2.306   2.310   2.318
  2.320   2.327   2.334   2.337   2.350   2.368   2.373   2.380
  2.390   2.394   2.406   2.415   2.418   2.420   2.430   2.437
  2.446   2.450   2.457   2.460   2.470   2.471   2.476   2.482
  2.496   2.498   2.507   2.519   2.521   2.527   2.529   2.533
  2.537   2.543   2.557   2.559   2.563   2.573   2.592   2.598
  2.605   2.611   2.613   2.635   2.636   2.646   2.660   2.662
  2.662   2.666   2.681   2.687   2.692   2.711   2.713   2.722
  2.728   2.734   2.742   2.760   2.766   2.774   2.777   2.781
  2.787   2.795   2.798   2.802   2.809   2.817   2.822   2.830
  2.834   2.843   2.851   2.855   2.861   2.870   2.875   2.882
  2.885   2.891   2.896   2.911   2.917   2.922   2.933   2.937
  2.941   2.944   2.946   2.956   2.961   2.966   2.975   2.977
  2.982   2.993   2.997   2.999   3.005   3.007   3.017   3.024
  3.024   3.028   3.032   3.035   3.046   3.052   3.056   3.060
  3.066   3.071   3.073   3.077   3.080   3.086   3.088   3.094
  3.100   3.104   3.112   3.119   3.123   3.124   3.129   3.132
  3.138   3.140   3.147   3.152   3.159   3.163   3.166   3.168
  3.169   3.175   3.180   3.189   3.190   3.196   3.197   3.207
  3.210   3.214   3.216   3.223   3.228   3.231   3.233   3.238
  3.243   3.246   3.251   3.255   3.263   3.266   3.269   3.271
  3.277   3.280   3.284   3.285   3.293   3.297   3.299   3.307
  3.311   3.314   3.318   3.321   3.324   3.332   3.334   3.338
  3.356   3.360   3.364   3.367   3.374   3.385   3.390   3.394
  3.398   3.404   3.411   3.414   3.418   3.424   3.426   3.433
  3.436   3.443   3.450   3.460   3.462   3.465   3.469   3.477
  3.488   3.490   3.494   3.500   3.502   3.514   3.518   3.525
  3.528   3.530   3.547   3.552   3.559   3.564   3.571   3.581
  3.585   3.609   3.616   3.623   3.630   3.636   3.643   3.649
  3.662   3.663   3.671   3.683   3.686   3.695   3.707   3.715
  3.717   3.726   3.728   3.734   3.740   3.752   3.754   3.767
  3.780   3.789   3.792   3.793   3.798   3.805   3.810   3.815
  3.816   3.831   3.835   3.846   3.854   3.860   3.881   3.885
  3.892   3.904   3.908   3.915   3.918   3.922   3.929   3.931
  3.933   3.937   3.950   3.952   3.956   3.961   3.963   3.971
  3.992   3.995   4.004   4.016   4.020   4.025   4.030   4.036
  4.045   4.059   4.071   4.075   4.080   4.086   4.103   4.107
  4.108   4.120   4.133   4.140   4.146   4.154   4.170   4.183
  4.189   4.203   4.212   4.218   4.220   4.222   4.223   4.231
  4.232   4.241   4.246   4.255   4.259   4.268   4.274   4.280
  4.289   4.302   4.307   4.311   4.321   4.327   4.333   4.340
  4.351   4.354   4.368   4.369   4.377   4.391   4.398   4.407
  4.409   4.423   4.427   4.431   4.440   4.447   4.451   4.459
  4.465   4.476   4.486   4.498   4.512   4.520   4.524   4.535
  4.541   4.551   4.564   4.583   4.586   4.597   4.602   4.613
  4.636   4.643   4.657   4.666   4.671   4.682   4.694   4.699
  4.715   4.732   4.737   4.751   4.758   4.762   4.773   4.783
  4.796   4.809   4.816   4.830   4.838   4.844   4.863   4.871
  4.879   4.887   4.896   4.913   4.919   4.923   4.930   4.935
  4.949   4.955   4.960   4.965   4.968   4.984   4.988   4.999
  5.000   5.004   5.013   5.015   5.027   5.043   5.056   5.063
  5.067   5.072   5.096   5.106   5.116   5.121   5.127   5.138
  5.140   5.154   5.163   5.181   5.188   5.190   5.196   5.212
  5.218   5.241   5.248   5.262   5.291   5.304   5.314   5.320
  5.334   5.340   5.354   5.377   5.385   5.397   5.411   5.421
  5.456   5.466   5.479   5.491   5.513   5.528   5.537   5.543
  5.544   5.579   5.588   5.598   5.606   5.618   5.629   5.655
  5.690   5.715   5.735   5.753   5.753   5.760   5.774   5.798
  5.823   5.831   5.851   5.877   5.882   5.900   5.907   5.922
  5.953   6.000   6.024   6.082   6.102   6.142   6.158   6.198
  6.218   6.246   6.273   6.302   6.332   6.358   6.399   6.431
  6.470   6.549   6.641   6.856   6.988   7.121   8.094   8.937
  9.865  10.234  10.679  11.179  11.272  11.703  12.024  12.141
 12.525  12.537  12.810  12.864  13.018  13.089  13.165  13.176
 13.216  13.542  13.896  14.211  14.420  14.610  15.086  15.165
 --------------------------------------------------------------
 
          Ground-State Mulliken Net Atomic Charges

     Atom                 Charge (a.u.)
  ----------------------------------------
      1 C                    -0.092825
      2 C                    -0.143813
      3 C                    -0.078414
      4 C                    -0.149141
      5 N                    -0.130219
      6 C                     0.086232
      7 C                     0.076524
      8 N                    -0.127472
      9 C                     0.023918
     10 C                    -0.082133
     11 N                    -0.275208
     12 C                     0.048822
     13 C                     0.053147
     14 S                     0.396789
     15 N                    -0.297444
     16 C                    -0.070143
     17 S                     0.172848
     18 C                     0.062509
     19 C                    -0.055512
     20 N                    -0.169088
     21 C                     0.064346
     22 C                    -0.011514
     23 C                    -0.041726
     24 N                    -0.162361
     25 C                    -0.137853
     26 S                     0.102863
     27 C                    -0.045284
     28 C                    -0.158486
     29 C                    -0.182491
     30 H                     0.130832
     31 H                     0.120120
     32 H                     0.119643
     33 H                     0.154091
     34 H                     0.139656
     35 H                     0.126685
     36 H                     0.134714
     37 H                     0.129118
     38 H                     0.131794
     39 H                     0.136472
  ----------------------------------------
  Sum of atomic charges =     0.000000

 -----------------------------------------------------------------
                    Cartesian Multipole Moments
 -----------------------------------------------------------------
    Charge (ESU x 10^10)
                 0.0000
    Dipole Moment (Debye)
         X      -0.7227      Y       1.5013      Z      -0.6493
       Tot       1.7882
    Quadrupole Moments (Debye-Ang)
        XX    -153.2831     XY      12.5785     YY    -166.7432
        XZ       0.6464     YZ       2.1048     ZZ    -186.7059
    Octopole Moments (Debye-Ang^2)
       XXX      92.0985    XXY      58.5542    XYY     -49.5424
       YYY     -28.3618    XXZ     -12.5290    XYZ     -17.2236
       YYZ      -5.5294    XZZ      -0.1169    YZZ       5.0299
       ZZZ      -2.7203
    Hexadecapole Moments (Debye-Ang^3)
      XXXX  -16029.6113   XXXY    -249.0949   XXYY   -3577.0832
      XYYY     227.8906   YYYY   -3437.5237   XXXZ     122.7747
      XXYZ      66.3461   XYYZ     -23.8031   YYYZ      24.6397
      XXZZ   -3460.3647   XYZZ      14.8030   YYZZ    -721.6755
      XZZZ     -12.1899   YZZZ      -5.2135   ZZZZ    -317.1800
 -----------------------------------------------------------------
 Calculating analytic gradient of the SCF energy
 K construction time:  CPU 2764.73 s  wall 693.01 s
 Gradient of SCF Energy
            1           2           3           4           5           6
    1  -0.0001532  -0.0031480   0.0043422  -0.0028381  -0.0007567  -0.0021270
    2  -0.0034950   0.0026717   0.0001612   0.0007132   0.0011702  -0.0072655
    3   0.0008658  -0.0011589  -0.0006283  -0.0003088  -0.0005681   0.0014955
            7           8           9          10          11          12
    1  -0.0004559   0.0031195   0.0020043  -0.0024182   0.0074598  -0.0000993
    2   0.0109364  -0.0027039   0.0037601  -0.0012031  -0.0012983   0.0015607
    3  -0.0002837  -0.0008156   0.0011461  -0.0002819  -0.0012207  -0.0000445
           13          14          15          16          17          18
    1   0.0013679   0.0037810  -0.0032373  -0.0006123   0.0003878   0.0004723
    2  -0.0008390  -0.0039269  -0.0013264  -0.0004289   0.0002437  -0.0001415
    3   0.0003379   0.0006120   0.0003712   0.0001457  -0.0000033  -0.0001311
           19          20          21          22          23          24
    1   0.0006475   0.0006486  -0.0006540  -0.0007849  -0.0011364   0.0000804
    2   0.0000963   0.0006775  -0.0003443   0.0000461  -0.0004776   0.0007716
    3  -0.0001959   0.0001179   0.0000928   0.0001807  -0.0001016   0.0000056
           25          26          27          28          29          30
    1   0.0006406  -0.0001855   0.0002492  -0.0006094   0.0007163  -0.0006364
    2  -0.0005130  -0.0001189  -0.0010821  -0.0007023   0.0007479  -0.0001678
    3  -0.0001903  -0.0000799  -0.0000431  -0.0004075   0.0004161   0.0004904
           31          32          33          34          35          36
    1  -0.0003158   0.0000401  -0.0059889  -0.0000625   0.0000949  -0.0001097
    2  -0.0002966  -0.0001994   0.0016680   0.0003365  -0.0000141   0.0003504
    3   0.0003637   0.0002307  -0.0007639   0.0000252  -0.0000659   0.0001328
           37          38          39
    1   0.0003024   0.0001818  -0.0002073
    2   0.0003447   0.0000755   0.0002128
    3  -0.0000000   0.0001012   0.0001618
 Max gradient component =       1.094E-02
 RMS gradient           =       1.946E-03
 Gradient time:  CPU 3273.37 s  wall 821.32 s
 Geometry Optimization Parameters
   NAtoms,    NIC,     NZ,  NCons,   NDum,   NFix, NCnnct, MaxDiis
       39     293       0       3       0       0       0       0


** CONSTRAINED OPTIMIZATION IN DELOCALIZED INTERNAL COORDINATES **
   Searching for a Minimum

   Optimization Cycle:   1

                       Coordinates (Angstroms)
     ATOM                X               Y               Z
      1  C         7.6756060865   -0.4290709522    0.1950030461
      2  C         7.0655835340    0.8004232632    0.0013609731
      3  C         6.8671326341   -1.5453158897    0.3371292310
      4  C         5.6873079538    0.8632714513   -0.0330518686
      5  N         5.5416948960   -1.4992250390    0.3093498790
      6  C         4.9600884610   -0.3142939268    0.1343264850
      7  C         3.4772185060   -0.2648926216    0.1071971252
      8  N         2.8398114039   -1.3920975573    0.2681985192
      9  C         2.7222796327    0.9351790731   -0.1063387499
     10  C         1.4866702203   -1.4611256475    0.2517637010
     11  N         3.1779689096    2.1657263913   -0.3442249206
     12  C         1.2913453546    0.8577762360   -0.1115466599
     13  C         0.6338431387   -0.3975710813    0.0705238904
     14  S         1.8916084939    3.1053485438   -0.5277527001
     15  N         0.7044325409    2.0326074837   -0.3318327668
     16  C        -0.8133195639   -0.5479742468    0.0304211343
     17  S        -1.8885299146    0.7920895791    0.0923350910
     18  C        -1.5658682654   -1.7171387221   -0.0768425165
     19  C        -3.3128053620   -0.1421396565    0.0113058391
     20  N        -1.0684189589   -2.9827578908   -0.1603463365
     21  C        -2.9783370195   -1.4874457882   -0.0917445084
     22  C        -4.6312874473    0.4529060952    0.0356367516
     23  C        -1.9476696143   -3.9335272714   -0.2491546757
     24  N        -3.8703789218   -2.5092632336   -0.1874844486
     25  C        -5.8015001606   -0.0803951345   -0.4297231575
     26  S        -4.9066056330    2.0262978267    0.7112708934
     27  C        -3.3561328058   -3.6988150508   -0.2620988297
     28  C        -6.9107119588    0.7802909559   -0.2531981600
     29  C        -6.5774233664    1.9565602314    0.3428700594
     30  H         8.7507202128   -0.5221714313    0.2353266959
     31  H         7.6565737715    1.6978416922   -0.1181433579
     32  H         7.3038230397   -2.5280150292    0.4764134393
     33  H         5.1612009493    1.7932338951   -0.1855876950
     34  H         1.0780200313   -2.4512203508    0.3723630233
     35  H        -1.5739737866   -4.9497465673   -0.3081749900
     36  H        -5.8491257005   -1.0617059498   -0.8699700709
     37  H        -4.0397257824   -4.5357231099   -0.3418118291
     38  H        -7.9137218075    0.5324307498   -0.5646503187
     39  H        -7.2252469019    2.7801619250    0.5919284149
   Point Group: c1    Number of degrees of freedom:   111


   Energy is  -2291.189428943

              Constraints and their Current Values
                                        Value     Constraint
   Dihedral:        4   6   7   8     -180.000      180.000
   Dihedral:       10  13  16  17      168.542      168.550
   Dihedral:       17  19  22  25      157.470      157.507

 Attempting to Generate Delocalized Internal Coordinates

   Using Lagrange Multiplier Algorithm


112 Hessian modes will be used to form the next step
  Hessian Eigenvalues:
    -0.977753   -0.977753    0.045000    0.045000    0.045000    0.045000
     0.045000    0.045000    0.045000    0.045000    0.045000    0.045000
     0.045000    0.045001    0.045001    0.045001    0.045001    0.045001
     0.045001    0.045001    0.045001    0.045001    0.045002    0.045002
     0.045002    0.045003    0.045003    0.045003    0.045005    0.045005
     0.045007    0.045012    0.045014    0.045024    0.045038    0.159978
     0.159986    0.159994    0.159997    0.159997    0.159999    0.159999
     0.159999    0.160000    0.160000    0.219998    0.221296    0.223763
     0.224236    0.233054    0.237970    0.243342    0.244276    0.249699
     0.249894    0.249926    0.249965    0.249971    0.249976    0.249976
     0.249983    0.249990    0.249992    0.249993    0.249993    0.249999
     0.312878    0.327845    0.334374    0.341223    0.341483    0.354728
     0.354748    0.355694    0.358543    0.360075    0.360792    0.361028
     0.362516    0.363538    0.364089    0.368474    0.372719    0.375321
     0.386748    0.390957    0.406301    0.407683    0.419163    0.432399
     0.441234    0.459434    0.465819    0.470565    0.473619    0.482717
     0.483776    0.485034    0.485249    0.504689    0.518062    0.518138
     0.525492    0.558714    0.572255    0.583010    0.590216    0.638626
     0.653368    0.661952    1.022753    1.022753

 Minimum Search - Taking P-RFO Step
 Searching for Lamda that Maximizes Along the Constraint modes Only
 Value Taken    Lamda =   0.00000039
 Searching for Lamda that Minimizes Along All other modes
 Value Taken    Lamda =  -0.00706663
 Step Taken.  Stepsize is  0.169353

                             Maximum     Tolerance    Cnvgd?
         Gradient            0.027608       0.000300      NO
         Displacement        0.106042       0.001200      NO
         Energy change     *********       0.000001      NO


 New Cartesian Coordinates Obtained by Inverse Iteration

 Displacement from previous Coordinates is:  1.681401
 ----------------------------------------------------------------
             Standard Nuclear Orientation (Angstroms)
    I     Atom           X                Y                Z
 ----------------------------------------------------------------
    1      C       7.6852756103    -0.6189525637     0.1834573315
    2      C       7.2102076632     0.6653851877     0.0021905516
    3      C       6.7554677621    -1.6367941847     0.3239323695
    4      C       5.8443168009     0.8800669769    -0.0317249347
    5      N       5.4455874049    -1.4462354273     0.2960999044
    6      C       4.9790934429    -0.2100891119     0.1244476072
    7      C       3.4809473362    -0.1167584512     0.0977169398
    8      N       2.8510517158    -1.2473716637     0.2619590628
    9      C       2.6781409363     1.0694350106    -0.1063688931
   10      C       1.5021313258    -1.3521343123     0.2529651165
   11      N       3.0626509596     2.3290822152    -0.3320657340
   12      C       1.2470770004     0.9512492537    -0.1054039970
   13      C       0.6189925818    -0.3156058479     0.0734099979
   14      S       1.7480629441     3.2346182788    -0.5049682376
   15      N       0.6174345972     2.1071341010    -0.3148321302
   16      C      -0.8246675853    -0.4982746305     0.0359914389
   17      S      -1.9300190158     0.8174674339     0.0988682407
   18      C      -1.5527922710    -1.6833282081    -0.0685847309
   19      C      -3.3339544258    -0.1464519798     0.0160766659
   20      N      -1.0287366030    -2.9383974429    -0.1500594850
   21      C      -2.9697644434    -1.4839811210    -0.0838460839
   22      C      -4.6643157393     0.4205872696     0.0345600204
   23      C      -1.8870404385    -3.9074504070    -0.2363246691
   24      N      -3.8401332173    -2.5247652192    -0.1780678545
   25      C      -5.8215404161    -0.1394641899    -0.4325949742
   26      S      -4.9765035608     1.9902489520     0.7030620016
   27      C      -3.3006382210    -3.7026444677    -0.2499345284
   28      C      -6.9494103657     0.6977091721    -0.2645198805
   29      C      -6.6441960848     1.8825443399     0.3274142666
   30      H       8.7449841429    -0.8287844663     0.2155271288
   31      H       7.8953828798     1.4941424423    -0.1161626470
   32      H       7.0801453793    -2.6628406358     0.4540591971
   33      H       5.4568217378     1.8694575324    -0.1799787835
   34      H       1.1228461310    -2.3541985857     0.3742960537
   35      H      -1.4923892197    -4.9157837222    -0.2925824520
   36      H      -5.8456469374    -1.1237845559    -0.8692468299
   37      H      -3.9667659037    -4.5545612770    -0.3275253326
   38      H      -7.9456915033     0.4270152769    -0.5795602864
   39      H      -7.3102656013     2.6930222731     0.5693642016
 ----------------------------------------------------------------
 Molecular Point Group                 C1    NOp =  1
 Largest Abelian Subgroup              C1    NOp =  1
 Nuclear Repulsion Energy =  2924.0718393733 hartrees
 There are      110 alpha and      110 beta electrons
 Applying Cartesian multipole field
    Component          Value
    ---------          -----
     (2,0,0)        1.00000E-12
     (0,2,0)        2.00000E-11
     (0,0,2)       -3.00000E-10
 Nucleus-field energy     =     0.0000000474 hartrees
 Requested basis set is cc-pVTZ
 There are 356 shells and 1022 basis functions
 A cutoff of  1.0D-11 yielded  30806 shell pairs
 There are    243352 function pairs (    317719 Cartesian)
 Smallest overlap matrix eigenvalue = 2.55E-05
 Guess MOs from SCF MO coefficient file
 Reading MOs from coefficient file
 Reading MOs from coefficient file
 Long-range K will be added via erf
 Coulomb attenuation parameter = 0.2 bohr**(-1)
 A restricted hybrid HF-DFT SCF calculation will be
 performed using Pulay DIIS extrapolation
 Exchange:     0.2220 Hartree-Fock + 1.0000 wB97X-D + LR-HF
 Correlation:  1.0000 wB97X-D
 Using SG-1 standard quadrature grid
 Dispersion:   Grimme D
 SCF converges when DIIS error is below 1.0E-08
 Geometry optimization detected.  Setting ReadMinima to 0
 Setting SaveMinima to 0
 using 4 threads for integral computing 
 using 4 threads for integral computing 
 K construction time:  CPU 1287.13 s  wall 324.01 s
 -------------------------------------------------------
 OpenMP BLAS3 based DFT computing Module                
 Release: version 1.0, May 2013, Q-Chem Inc. Pittsburgh 
 -------------------------------------------------------
 ---------------------------------------
  Cycle       Energy         DIIS Error
 ---------------------------------------
    1   -2291.1428627979      7.99E-04
 K construction time:  CPU 1282.75 s  wall 322.89 s
    2   -2291.1865711313      1.16E-04
 K construction time:  CPU 1033.75 s  wall 260.19 s
    3   -2291.1872280405      1.15E-04
 K construction time:  CPU 975.93 s  wall 245.54 s
    4   -2291.1888032990      2.63E-05
 K construction time:  CPU 911.70 s  wall 229.33 s
    5   -2291.1888589020      1.70E-05
 K construction time:  CPU 858.86 s  wall 216.04 s
    6   -2291.1888927530      4.50E-06
 K construction time:  CPU 764.60 s  wall 192.29 s
    7   -2291.1888951830      1.29E-06
 K construction time:  CPU 727.92 s  wall 182.90 s
    8   -2291.1888954424      5.33E-07
 K construction time:  CPU 661.36 s  wall 166.23 s
    9   -2291.1888954956      2.04E-07
 K construction time:  CPU 593.91 s  wall 149.23 s
   10   -2291.1888955077      6.30E-08
 K construction time:  CPU 506.41 s  wall 127.04 s
   11   -2291.1888955091      3.69E-08
 K construction time:  CPU 449.72 s  wall 112.80 s
   12   -2291.1888955093      1.44E-08
 K construction time:  CPU 409.56 s  wall 102.75 s
   13   -2291.1888955099      8.72E-09 Convergence criterion met
 ---------------------------------------
 SCF time:  CPU 13895.53 s  wall 3509.58 s
 SCF   energy in the final basis set = -2291.1888955099
 Total energy in the final basis set = -2291.1888955099
 
 --------------------------------------------------------------
 
                    Orbital Energies (a.u.)
 --------------------------------------------------------------
 
 Alpha MOs
 -- Occupied --
-89.160 -89.107 -89.087 -14.489 -14.484 -14.463 -14.462 -14.439
-14.429 -10.359 -10.358 -10.355 -10.345 -10.344 -10.343 -10.342
-10.341 -10.339 -10.338 -10.335 -10.330 -10.324 -10.322 -10.320
-10.309 -10.300 -10.299 -10.296 -10.293  -8.164  -8.116  -8.097
 -6.114  -6.109  -6.108  -6.064  -6.061  -6.059  -6.046  -6.042
 -6.040  -1.147  -1.101  -1.067  -1.042  -1.029  -1.015  -1.005
 -0.986  -0.926  -0.909  -0.897  -0.878  -0.869  -0.854  -0.839
 -0.812  -0.778  -0.772  -0.748  -0.737  -0.732  -0.717  -0.711
 -0.673  -0.656  -0.648  -0.630  -0.628  -0.620  -0.607  -0.605
 -0.588  -0.571  -0.570  -0.564  -0.558  -0.548  -0.541  -0.527
 -0.510  -0.510  -0.502  -0.501  -0.493  -0.488  -0.485  -0.483
 -0.477  -0.467  -0.465  -0.462  -0.453  -0.443  -0.430  -0.429
 -0.418  -0.410  -0.394  -0.381  -0.368  -0.361  -0.352  -0.352
 -0.343  -0.339  -0.334  -0.325  -0.321  -0.263
 -- Virtual --
 -0.057  -0.026   0.021   0.031   0.042   0.055   0.070   0.071
  0.077   0.089   0.118   0.123   0.125   0.127   0.131   0.135
  0.149   0.154   0.155   0.165   0.171   0.178   0.183   0.193
  0.199   0.203   0.211   0.216   0.226   0.232   0.238   0.256
  0.257   0.267   0.268   0.275   0.278   0.289   0.291   0.293
  0.300   0.302   0.304   0.313   0.317   0.319   0.322   0.330
  0.334   0.336   0.338   0.345   0.348   0.354   0.356   0.360
  0.366   0.368   0.372   0.377   0.380   0.383   0.385   0.386
  0.392   0.394   0.398   0.399   0.404   0.406   0.408   0.414
  0.415   0.418   0.421   0.428   0.433   0.436   0.438   0.445
  0.448   0.449   0.454   0.458   0.460   0.462   0.463   0.467
  0.469   0.473   0.478   0.480   0.482   0.486   0.492   0.493
  0.498   0.503   0.503   0.507   0.508   0.516   0.518   0.521
  0.523   0.527   0.534   0.537   0.540   0.542   0.548   0.551
  0.558   0.565   0.569   0.574   0.579   0.585   0.596   0.601
  0.607   0.609   0.611   0.619   0.627   0.633   0.639   0.645
  0.650   0.654   0.657   0.658   0.661   0.665   0.670   0.673
  0.676   0.685   0.693   0.699   0.704   0.704   0.712   0.715
  0.722   0.730   0.734   0.736   0.740   0.745   0.756   0.757
  0.767   0.770   0.774   0.775   0.777   0.783   0.786   0.790
  0.797   0.800   0.802   0.806   0.813   0.816   0.822   0.824
  0.832   0.834   0.841   0.843   0.846   0.854   0.859   0.862
  0.866   0.874   0.876   0.881   0.885   0.888   0.891   0.901
  0.905   0.909   0.919   0.920   0.925   0.927   0.931   0.934
  0.944   0.947   0.955   0.962   0.964   0.968   0.970   0.972
  0.977   0.983   0.992   0.998   1.004   1.006   1.011   1.017
  1.019   1.028   1.032   1.041   1.041   1.051   1.056   1.059
  1.071   1.075   1.084   1.085   1.086   1.091   1.098   1.107
  1.109   1.113   1.116   1.122   1.123   1.130   1.131   1.146
  1.147   1.163   1.164   1.173   1.183   1.187   1.191   1.195
  1.209   1.212   1.214   1.218   1.228   1.231   1.235   1.250
  1.254   1.258   1.271   1.276   1.282   1.284   1.288   1.303
  1.317   1.321   1.327   1.332   1.340   1.343   1.351   1.358
  1.362   1.365   1.372   1.376   1.379   1.385   1.391   1.394
  1.397   1.404   1.414   1.424   1.425   1.432   1.435   1.442
  1.445   1.450   1.455   1.458   1.464   1.473   1.479   1.487
  1.492   1.493   1.500   1.502   1.512   1.517   1.524   1.530
  1.544   1.564   1.569   1.578   1.581   1.583   1.589   1.593
  1.605   1.609   1.614   1.628   1.630   1.636   1.643   1.645
  1.648   1.655   1.665   1.671   1.673   1.682   1.691   1.698
  1.708   1.714   1.717   1.726   1.729   1.742   1.746   1.756
  1.767   1.768   1.783   1.790   1.797   1.803   1.804   1.820
  1.820   1.839   1.848   1.856   1.860   1.869   1.881   1.885
  1.895   1.900   1.915   1.922   1.927   1.930   1.943   1.952
  1.962   1.970   1.974   1.977   1.987   1.996   2.006   2.010
  2.017   2.020   2.035   2.041   2.053   2.054   2.062   2.069
  2.080   2.092   2.101   2.112   2.115   2.124   2.127   2.129
  2.144   2.154   2.160   2.166   2.180   2.185   2.191   2.197
  2.200   2.210   2.214   2.221   2.239   2.245   2.254   2.258
  2.267   2.279   2.283   2.293   2.295   2.305   2.312   2.318
  2.320   2.331   2.333   2.339   2.351   2.367   2.372   2.377
  2.387   2.394   2.396   2.410   2.416   2.419   2.429   2.431
  2.445   2.451   2.456   2.460   2.464   2.473   2.476   2.482
  2.495   2.498   2.508   2.516   2.521   2.525   2.529   2.531
  2.536   2.542   2.554   2.557   2.562   2.565   2.587   2.593
  2.604   2.611   2.613   2.635   2.636   2.644   2.652   2.661
  2.665   2.668   2.681   2.685   2.692   2.710   2.712   2.715
  2.728   2.731   2.743   2.760   2.764   2.775   2.777   2.781
  2.784   2.788   2.795   2.801   2.809   2.813   2.822   2.828
  2.834   2.840   2.846   2.851   2.855   2.867   2.871   2.881
  2.886   2.887   2.894   2.911   2.915   2.921   2.931   2.937
  2.940   2.943   2.945   2.956   2.957   2.964   2.970   2.974
  2.981   2.989   2.992   2.995   3.002   3.007   3.017   3.020
  3.024   3.027   3.033   3.037   3.041   3.050   3.055   3.061
  3.065   3.068   3.074   3.076   3.078   3.081   3.087   3.094
  3.097   3.104   3.104   3.112   3.116   3.122   3.125   3.134
  3.136   3.139   3.145   3.150   3.158   3.159   3.162   3.166
  3.168   3.173   3.176   3.182   3.186   3.193   3.197   3.197
  3.210   3.213   3.216   3.220   3.226   3.229   3.231   3.233
  3.239   3.244   3.248   3.251   3.257   3.262   3.264   3.271
  3.274   3.280   3.284   3.288   3.292   3.298   3.300   3.308
  3.310   3.312   3.316   3.321   3.324   3.332   3.334   3.338
  3.353   3.355   3.362   3.366   3.376   3.384   3.384   3.395
  3.399   3.401   3.411   3.413   3.418   3.420   3.425   3.434
  3.439   3.444   3.452   3.456   3.462   3.465   3.470   3.473
  3.480   3.489   3.492   3.498   3.502   3.517   3.518   3.522
  3.528   3.529   3.540   3.553   3.559   3.565   3.573   3.578
  3.585   3.603   3.612   3.622   3.624   3.632   3.642   3.647
  3.650   3.659   3.668   3.680   3.685   3.691   3.703   3.715
  3.717   3.721   3.724   3.736   3.741   3.751   3.755   3.771
  3.774   3.782   3.790   3.793   3.797   3.808   3.810   3.815
  3.819   3.825   3.838   3.845   3.851   3.865   3.874   3.882
  3.888   3.901   3.905   3.908   3.914   3.918   3.922   3.927
  3.931   3.936   3.944   3.950   3.955   3.956   3.959   3.970
  3.972   3.984   3.992   4.003   4.018   4.022   4.026   4.036
  4.046   4.058   4.069   4.077   4.079   4.086   4.100   4.106
  4.110   4.127   4.133   4.138   4.144   4.156   4.169   4.182
  4.185   4.194   4.203   4.211   4.212   4.218   4.219   4.224
  4.233   4.234   4.241   4.247   4.249   4.264   4.269   4.277
  4.283   4.293   4.303   4.305   4.315   4.327   4.331   4.342
  4.347   4.354   4.361   4.365   4.372   4.390   4.397   4.404
  4.413   4.420   4.422   4.427   4.428   4.444   4.451   4.455
  4.460   4.472   4.489   4.499   4.507   4.513   4.521   4.523
  4.533   4.551   4.563   4.581   4.587   4.591   4.600   4.616
  4.626   4.642   4.648   4.653   4.662   4.671   4.683   4.693
  4.724   4.733   4.737   4.746   4.752   4.759   4.769   4.780
  4.795   4.807   4.810   4.812   4.838   4.842   4.852   4.861
  4.875   4.887   4.888   4.898   4.914   4.918   4.924   4.933
  4.943   4.948   4.953   4.959   4.967   4.968   4.983   4.988
  4.998   5.002   5.012   5.016   5.020   5.044   5.054   5.067
  5.070   5.080   5.093   5.104   5.109   5.120   5.125   5.134
  5.137   5.141   5.157   5.163   5.181   5.188   5.193   5.210
  5.216   5.230   5.247   5.258   5.263   5.303   5.314   5.322
  5.332   5.342   5.344   5.370   5.377   5.380   5.403   5.427
  5.443   5.458   5.478   5.489   5.505   5.529   5.529   5.540
  5.559   5.579   5.584   5.595   5.601   5.617   5.621   5.635
  5.681   5.703   5.719   5.744   5.754   5.760   5.770   5.795
  5.824   5.832   5.850   5.871   5.874   5.879   5.905   5.909
  5.948   5.985   6.018   6.068   6.085   6.136   6.164   6.176
  6.198   6.247   6.254   6.289   6.331   6.351   6.392   6.421
  6.432   6.543   6.640   6.842   6.989   7.113   8.075   8.913
  9.788  10.200  10.669  11.090  11.245  11.582  11.987  12.022
 12.477  12.513  12.799  12.862  13.006  13.039  13.126  13.151
 13.166  13.553  13.757  14.209  14.418  14.607  15.091  15.142
 --------------------------------------------------------------
 
          Ground-State Mulliken Net Atomic Charges

     Atom                 Charge (a.u.)
  ----------------------------------------
      1 C                    -0.092402
      2 C                    -0.136976
      3 C                    -0.091472
      4 C                    -0.138272
      5 N                    -0.119323
      6 C                     0.093451
      7 C                     0.064719
      8 N                    -0.118412
      9 C                     0.020723
     10 C                    -0.097997
     11 N                    -0.285801
     12 C                     0.057050
     13 C                     0.061476
     14 S                     0.406619
     15 N                    -0.301982
     16 C                    -0.072256
     17 S                     0.174334
     18 C                     0.062798
     19 C                    -0.054854
     20 N                    -0.168195
     21 C                     0.064058
     22 C                    -0.011369
     23 C                    -0.041640
     24 N                    -0.162246
     25 C                    -0.136247
     26 S                     0.102314
     27 C                    -0.046440
     28 C                    -0.157902
     29 C                    -0.181708
     30 H                     0.133688
     31 H                     0.118875
     32 H                     0.120302
     33 H                     0.141589
     34 H                     0.138148
     35 H                     0.125860
     36 H                     0.133445
     37 H                     0.129351
     38 H                     0.130993
     39 H                     0.135701
  ----------------------------------------
  Sum of atomic charges =     0.000000

 -----------------------------------------------------------------
                    Cartesian Multipole Moments
 -----------------------------------------------------------------
    Charge (ESU x 10^10)
                 0.0000
    Dipole Moment (Debye)
         X      -0.3506      Y       1.1255      Z      -0.6243
       Tot       1.3340
    Quadrupole Moments (Debye-Ang)
        XX    -150.3858     XY       9.9943     YY    -165.9017
        XZ       0.7239     YZ       1.9465     ZZ    -186.8092
    Octopole Moments (Debye-Ang^2)
       XXX     127.3965    XXY      42.5306    XYY     -39.7030
       YYY     -43.6252    XXZ     -13.8648    XYZ     -17.2784
       YYZ      -5.5783    XZZ       3.2828    YZZ       0.8726
       ZZZ      -3.5757
    Hexadecapole Moments (Debye-Ang^3)
      XXXX  -15900.7096   XXXY    -304.3478   XXYY   -3594.2748
      XYYY     197.1688   YYYY   -3467.7828   XXXZ     108.6275
      XXYZ      66.1986   XYYZ     -18.2862   YYYZ      22.6932
      XXZZ   -3479.7336   XYZZ      16.0706   YYZZ    -728.5541
      XZZZ      -9.8141   YZZZ      -1.6059   ZZZZ    -312.2496
 -----------------------------------------------------------------
 Calculating analytic gradient of the SCF energy
 K construction time:  CPU 2705.56 s  wall 678.23 s
 Gradient of SCF Energy
            1           2           3           4           5           6
    1  -0.0011692  -0.0002729   0.0032048   0.0066406  -0.0041016  -0.0022972
    2  -0.0007198  -0.0004249   0.0002165   0.0042484   0.0008542  -0.0050974
    3  -0.0003281  -0.0005908   0.0004565  -0.0000458  -0.0002331   0.0013364
            7           8           9          10          11          12
    1   0.0040192   0.0021741  -0.0000657  -0.0016206  -0.0105528   0.0011607
    2   0.0018881  -0.0026267  -0.0035189   0.0003301   0.0015985  -0.0011081
    3   0.0002930  -0.0005787   0.0017521   0.0001126  -0.0013990   0.0005479
           13          14          15          16          17          18
    1   0.0018291  -0.0030562   0.0010994  -0.0002679   0.0006457   0.0001362
    2   0.0001701   0.0058954   0.0012768  -0.0002300  -0.0001523  -0.0001227
    3   0.0000547  -0.0012331  -0.0003436  -0.0000494   0.0002568  -0.0001428
           19          20          21          22          23          24
    1   0.0001007  -0.0001061  -0.0005434  -0.0004073  -0.0004810  -0.0001169
    2   0.0002981   0.0001331  -0.0000106  -0.0000628  -0.0001964   0.0002901
    3  -0.0003056  -0.0000039   0.0000977  -0.0000664  -0.0000577   0.0000265
           25          26          27          28          29          30
    1  -0.0001249   0.0000745   0.0003444   0.0001027   0.0001121   0.0001530
    2   0.0001295   0.0000153  -0.0001822  -0.0003154  -0.0000029   0.0004298
    3   0.0003431   0.0001811   0.0000327  -0.0000896  -0.0001713   0.0002476
           31          32          33          34          35          36
    1   0.0003200  -0.0007171   0.0032803   0.0001826   0.0002931   0.0001466
    2   0.0001567   0.0000996  -0.0039862   0.0002771   0.0001043   0.0000396
    3   0.0002962  -0.0001054  -0.0001648  -0.0001349  -0.0000112  -0.0000401
           37          38          39
    1  -0.0000616  -0.0000182  -0.0000394
    2   0.0001316   0.0001356   0.0000389
    3  -0.0000001   0.0000438   0.0000164
 Max gradient component =       1.055E-02
 RMS gradient           =       1.795E-03
 Gradient time:  CPU 3209.65 s  wall 805.44 s
 Geometry Optimization Parameters
   NAtoms,    NIC,     NZ,  NCons,   NDum,   NFix, NCnnct, MaxDiis
       39     293       0       3       0       0       0       0

 Cartesian Hessian Update
 Hessian Updated using BFGS Update


** CONSTRAINED OPTIMIZATION IN DELOCALIZED INTERNAL COORDINATES **
   Searching for a Minimum

   Optimization Cycle:   2

                       Coordinates (Angstroms)
     ATOM                X               Y               Z
      1  C         7.6852756103   -0.6189525637    0.1834573315
      2  C         7.2102076632    0.6653851877    0.0021905516
      3  C         6.7554677621   -1.6367941847    0.3239323695
      4  C         5.8443168009    0.8800669769   -0.0317249347
      5  N         5.4455874049   -1.4462354273    0.2960999044
      6  C         4.9790934429   -0.2100891119    0.1244476072
      7  C         3.4809473362   -0.1167584512    0.0977169398
      8  N         2.8510517158   -1.2473716637    0.2619590628
      9  C         2.6781409363    1.0694350106   -0.1063688931
     10  C         1.5021313258   -1.3521343123    0.2529651165
     11  N         3.0626509596    2.3290822152   -0.3320657340
     12  C         1.2470770004    0.9512492537   -0.1054039970
     13  C         0.6189925818   -0.3156058479    0.0734099979
     14  S         1.7480629441    3.2346182788   -0.5049682376
     15  N         0.6174345972    2.1071341010   -0.3148321302
     16  C        -0.8246675853   -0.4982746305    0.0359914389
     17  S        -1.9300190158    0.8174674339    0.0988682407
     18  C        -1.5527922710   -1.6833282081   -0.0685847309
     19  C        -3.3339544258   -0.1464519798    0.0160766659
     20  N        -1.0287366030   -2.9383974429   -0.1500594850
     21  C        -2.9697644434   -1.4839811210   -0.0838460839
     22  C        -4.6643157393    0.4205872696    0.0345600204
     23  C        -1.8870404385   -3.9074504070   -0.2363246691
     24  N        -3.8401332173   -2.5247652192   -0.1780678545
     25  C        -5.8215404161   -0.1394641899   -0.4325949742
     26  S        -4.9765035608    1.9902489520    0.7030620016
     27  C        -3.3006382210   -3.7026444677   -0.2499345284
     28  C        -6.9494103657    0.6977091721   -0.2645198805
     29  C        -6.6441960848    1.8825443399    0.3274142666
     30  H         8.7449841429   -0.8287844663    0.2155271288
     31  H         7.8953828798    1.4941424423   -0.1161626470
     32  H         7.0801453793   -2.6628406358    0.4540591971
     33  H         5.4568217378    1.8694575324   -0.1799787835
     34  H         1.1228461310   -2.3541985857    0.3742960537
     35  H        -1.4923892197   -4.9157837222   -0.2925824520
     36  H        -5.8456469374   -1.1237845559   -0.8692468299
     37  H        -3.9667659037   -4.5545612770   -0.3275253326
     38  H        -7.9456915033    0.4270152769   -0.5795602864
     39  H        -7.3102656013    2.6930222731    0.5693642016
   Point Group: c1    Number of degrees of freedom:   111


   Energy is  -2291.188895510

              Constraints and their Current Values
                                        Value     Constraint
   Dihedral:        4   6   7   8     -180.000      180.000
   Dihedral:       10  13  16  17      168.550      168.550
   Dihedral:       17  19  22  25      157.506      157.507
 Hessian Updated using BFGS Update

   Using Lagrange Multiplier Algorithm


112 Hessian modes will be used to form the next step
  Hessian Eigenvalues:
    -0.977753   -0.977737    0.044110    0.045000    0.045000    0.045000
     0.045000    0.045000    0.045000    0.045000    0.045000    0.045000
     0.045000    0.045000    0.045001    0.045001    0.045001    0.045001
     0.045001    0.045001    0.045001    0.045001    0.045002    0.045002
     0.045002    0.045002    0.045003    0.045004    0.045005    0.045007
     0.045011    0.045014    0.045022    0.045037    0.045061    0.158790
     0.159978    0.159986    0.159994    0.159997    0.159998    0.159999
     0.159999    0.160000    0.160149    0.219708    0.221295    0.223481
     0.223763    0.231773    0.235904    0.237990    0.243342    0.244861
     0.249713    0.249899    0.249927    0.249970    0.249972    0.249976
     0.249982    0.249990    0.249992    0.249993    0.249999    0.312876
     0.327789    0.334089    0.334441    0.341469    0.354675    0.354728
     0.355655    0.355778    0.358552    0.360060    0.361025    0.362490
     0.363530    0.364082    0.365091    0.372678    0.375311    0.378259
     0.386736    0.405617    0.407678    0.419155    0.426888    0.441230
     0.459350    0.465810    0.468085    0.472234    0.482396    0.482709
     0.483721    0.485144    0.504684    0.517993    0.518113    0.524786
     0.556108    0.559552    0.572378    0.588467    0.621286    0.645170
     0.653392    0.661850    1.022753    1.022813

 Minimum Search - Taking P-RFO Step
 Searching for Lamda that Maximizes Along the Constraint modes Only
 Value Taken    Lamda =   0.00000024
 Searching for Lamda that Minimizes Along All other modes
 Value Taken    Lamda =  -0.00350851
 Step Taken.  Stepsize is  0.082861

                             Maximum     Tolerance    Cnvgd?
         Gradient            0.029313       0.000300      NO
         Displacement        0.049459       0.001200      NO
         Energy change      0.000533       0.000001      NO


 New Cartesian Coordinates Obtained by Inverse Iteration

 Displacement from previous Coordinates is:  0.764520
 ----------------------------------------------------------------
             Standard Nuclear Orientation (Angstroms)
    I     Atom           X                Y                Z
 ----------------------------------------------------------------
    1      C       7.6935261876    -0.5393473693     0.1518556091
    2      C       7.1576991674     0.7235360769    -0.0110775426
    3      C       6.8128727712    -1.6004947860     0.2985026445
    4      C       5.7827306119     0.8742499498    -0.0239045714
    5      N       5.4961542851    -1.4709467888     0.2919744284
    6      C       4.9751801613    -0.2542164751     0.1356339017
    7      C       3.4781717304    -0.1938203648     0.1185349294
    8      N       2.8346154867    -1.3160282981     0.2780763308
    9      C       2.7022972347     1.0022346685    -0.0804505718
   10      C       1.4841511747    -1.3957890994     0.2648115988
   11      N       3.1348074973     2.2470289098    -0.2899638015
   12      C       1.2699061591     0.9138920718    -0.0884014660
   13      C       0.6179836187    -0.3435864826     0.0822893565
   14      S       1.8409618137     3.1796728101    -0.4642744625
   15      N       0.6727882595     2.0862438041    -0.2934589162
   16      C      -0.8274765698    -0.5090043958     0.0398899379
   17      S      -1.9244798495     0.8143648269     0.0992117845
   18      C      -1.5633628807    -1.6892071245    -0.0636568832
   19      C      -3.3342987390    -0.1409715635     0.0129553375
   20      N      -1.0469612764    -2.9479465903    -0.1392165318
   21      C      -2.9785296712    -1.4809828582    -0.0828626784
   22      C      -4.6610250607     0.4343540274     0.0246357405
   23      C      -1.9111779825    -3.9117868420    -0.2236784724
   24      N      -3.8554113985    -2.5165096535    -0.1760789742
   25      C      -5.8197658814    -0.1199098945    -0.4460636709
   26      S      -4.9668401184     2.0077317454     0.6873461891
   27      C      -3.3234760418    -3.6980257499    -0.2419998294
   28      C      -6.9434503011     0.7242383728    -0.2843018320
   29      C      -6.6338278712     1.9086143259     0.3060327983
   30      H       8.7618712441    -0.7022789853     0.1641700657
   31      H       7.8014628503     1.5839045259    -0.1346818671
   32      H       7.1887291651    -2.6108148967     0.4150615208
   33      H       5.3424729743     1.8470774363    -0.1570454406
   34      H       1.0867869163    -2.3915422539     0.3827384439
   35      H      -1.5239242269    -4.9232594001    -0.2744740741
   36      H      -5.8484348741    -1.1053358872    -0.8800821504
   37      H      -3.9945885475    -4.5463254046    -0.3176669759
   38      H      -7.9399370674     0.4579892871    -0.6026230500
   39      H      -7.2960541517     2.7235115701     0.5432887769
 ----------------------------------------------------------------
 Molecular Point Group                 C1    NOp =  1
 Largest Abelian Subgroup              C1    NOp =  1
 Nuclear Repulsion Energy =  2925.8371485269 hartrees
 There are      110 alpha and      110 beta electrons
 Applying Cartesian multipole field
    Component          Value
    ---------          -----
     (2,0,0)        1.00000E-12
     (0,2,0)        2.00000E-11
     (0,0,2)       -3.00000E-10
 Nucleus-field energy     =     0.0000000486 hartrees
 Requested basis set is cc-pVTZ
 There are 356 shells and 1022 basis functions
 A cutoff of  1.0D-11 yielded  30858 shell pairs
 There are    243724 function pairs (    318151 Cartesian)
 Smallest overlap matrix eigenvalue = 2.55E-05
 Guess MOs from SCF MO coefficient file
 Reading MOs from coefficient file
 Reading MOs from coefficient file
 Long-range K will be added via erf
 Coulomb attenuation parameter = 0.2 bohr**(-1)
 A restricted hybrid HF-DFT SCF calculation will be
 performed using Pulay DIIS extrapolation
 Exchange:     0.2220 Hartree-Fock + 1.0000 wB97X-D + LR-HF
 Correlation:  1.0000 wB97X-D
 Using SG-1 standard quadrature grid
 Dispersion:   Grimme D
 SCF converges when DIIS error is below 1.0E-08
 Geometry optimization detected.  Setting ReadMinima to 0
 Setting SaveMinima to 0
 using 4 threads for integral computing 
 using 4 threads for integral computing 
 K construction time:  CPU 1289.29 s  wall 324.57 s
 -------------------------------------------------------
 OpenMP BLAS3 based DFT computing Module                
 Release: version 1.0, May 2013, Q-Chem Inc. Pittsburgh 
 -------------------------------------------------------
 ---------------------------------------
  Cycle       Energy         DIIS Error
 ---------------------------------------
    1   -2291.1858785695      3.97E-04
 K construction time:  CPU 1289.18 s  wall 324.45 s
    2   -2291.1905556610      5.56E-05
 K construction time:  CPU 996.04 s  wall 250.60 s
    3   -2291.1905680724      6.45E-05
 K construction time:  CPU 944.20 s  wall 237.56 s
    4   -2291.1910499211      1.56E-05
 K construction time:  CPU 863.99 s  wall 217.32 s
    5   -2291.1910738953      7.56E-06
 K construction time:  CPU 822.00 s  wall 206.78 s
    6   -2291.1910811203      1.92E-06
 K construction time:  CPU 744.24 s  wall 187.07 s
    7   -2291.1910816198      6.97E-07
 K construction time:  CPU 681.73 s  wall 171.32 s
    8   -2291.1910817147      3.03E-07
 K construction time:  CPU 619.64 s  wall 155.68 s
    9   -2291.1910817364      1.26E-07
 K construction time:  CPU 582.16 s  wall 146.17 s
   10   -2291.1910817426      7.00E-08
 K construction time:  CPU 502.56 s  wall 126.16 s
   11   -2291.1910817449      2.70E-08
 K construction time:  CPU 489.34 s  wall 122.85 s
   12   -2291.1910817475      1.35E-08
 K construction time:  CPU 432.53 s  wall 108.47 s
   13   -2291.1910817517      5.32E-09 Convergence criterion met
 ---------------------------------------
 SCF time:  CPU 13632.50 s  wall 3443.50 s
 SCF   energy in the final basis set = -2291.1910817517
 Total energy in the final basis set = -2291.1910817517
 
 --------------------------------------------------------------
 
                    Orbital Energies (a.u.)
 --------------------------------------------------------------
 
 Alpha MOs
 -- Occupied --
-89.160 -89.108 -89.088 -14.490 -14.486 -14.463 -14.462 -14.439
-14.430 -10.359 -10.358 -10.353 -10.345 -10.345 -10.344 -10.343
-10.342 -10.339 -10.337 -10.335 -10.331 -10.325 -10.322 -10.321
-10.308 -10.299 -10.297 -10.296 -10.294  -8.164  -8.117  -8.098
 -6.114  -6.109  -6.108  -6.065  -6.061  -6.060  -6.046  -6.043
 -6.040  -1.149  -1.102  -1.067  -1.043  -1.030  -1.017  -1.007
 -0.987  -0.926  -0.909  -0.899  -0.878  -0.870  -0.854  -0.839
 -0.812  -0.778  -0.772  -0.748  -0.739  -0.731  -0.717  -0.712
 -0.674  -0.656  -0.649  -0.630  -0.628  -0.620  -0.608  -0.604
 -0.589  -0.572  -0.570  -0.565  -0.558  -0.548  -0.541  -0.527
 -0.510  -0.510  -0.502  -0.501  -0.493  -0.487  -0.486  -0.484
 -0.477  -0.467  -0.467  -0.462  -0.453  -0.444  -0.431  -0.430
 -0.418  -0.411  -0.397  -0.381  -0.368  -0.362  -0.351  -0.350
 -0.344  -0.339  -0.335  -0.328  -0.321  -0.264
 -- Virtual --
 -0.058  -0.027   0.021   0.031   0.043   0.055   0.070   0.071
  0.078   0.088   0.118   0.122   0.125   0.127   0.131   0.135
  0.149   0.154   0.155   0.165   0.170   0.178   0.183   0.193
  0.200   0.203   0.211   0.217   0.226   0.232   0.238   0.256
  0.257   0.266   0.268   0.275   0.282   0.288   0.292   0.293
  0.300   0.302   0.305   0.312   0.316   0.319   0.323   0.329
  0.334   0.336   0.339   0.347   0.349   0.354   0.356   0.362
  0.366   0.368   0.373   0.378   0.380   0.382   0.385   0.387
  0.392   0.394   0.397   0.399   0.404   0.406   0.407   0.413
  0.414   0.418   0.421   0.428   0.433   0.436   0.438   0.445
  0.448   0.449   0.454   0.458   0.460   0.461   0.463   0.467
  0.469   0.473   0.478   0.479   0.481   0.485   0.492   0.493
  0.499   0.502   0.503   0.507   0.508   0.516   0.517   0.520
  0.524   0.526   0.534   0.536   0.540   0.544   0.549   0.552
  0.558   0.564   0.572   0.576   0.580   0.586   0.597   0.601
  0.607   0.609   0.613   0.619   0.630   0.635   0.639   0.646
  0.650   0.655   0.656   0.658   0.661   0.668   0.671   0.674
  0.676   0.685   0.692   0.698   0.703   0.705   0.711   0.714
  0.723   0.730   0.734   0.738   0.740   0.747   0.756   0.758
  0.766   0.770   0.775   0.775   0.777   0.783   0.788   0.790
  0.796   0.799   0.803   0.806   0.814   0.816   0.822   0.824
  0.831   0.836   0.842   0.843   0.846   0.854   0.859   0.861
  0.862   0.874   0.876   0.882   0.885   0.891   0.893   0.899
  0.907   0.912   0.918   0.920   0.924   0.929   0.931   0.935
  0.943   0.947   0.955   0.962   0.965   0.967   0.970   0.973
  0.978   0.982   0.992   0.997   1.004   1.008   1.011   1.017
  1.018   1.026   1.032   1.040   1.043   1.051   1.057   1.060
  1.071   1.075   1.084   1.085   1.086   1.091   1.098   1.107
  1.109   1.114   1.117   1.121   1.125   1.132   1.135   1.146
  1.147   1.164   1.164   1.173   1.183   1.186   1.189   1.198
  1.209   1.210   1.213   1.218   1.227   1.231   1.234   1.250
  1.252   1.255   1.267   1.277   1.284   1.286   1.289   1.301
  1.316   1.319   1.325   1.335   1.339   1.342   1.351   1.357
  1.362   1.365   1.372   1.375   1.378   1.385   1.391   1.396
  1.402   1.405   1.413   1.423   1.427   1.430   1.435   1.444
  1.448   1.452   1.454   1.460   1.468   1.476   1.481   1.491
  1.494   1.497   1.502   1.510   1.512   1.518   1.526   1.533
  1.542   1.567   1.568   1.581   1.582   1.584   1.591   1.597
  1.605   1.611   1.614   1.628   1.631   1.638   1.644   1.644
  1.649   1.655   1.666   1.671   1.674   1.685   1.691   1.697
  1.711   1.715   1.717   1.726   1.730   1.743   1.748   1.757
  1.767   1.769   1.783   1.792   1.799   1.803   1.805   1.818
  1.822   1.838   1.847   1.854   1.863   1.871   1.883   1.884
  1.892   1.898   1.914   1.918   1.924   1.928   1.932   1.951
  1.959   1.968   1.972   1.984   1.989   1.996   2.005   2.013
  2.016   2.022   2.034   2.040   2.052   2.054   2.063   2.069
  2.082   2.094   2.104   2.112   2.114   2.124   2.128   2.133
  2.144   2.154   2.165   2.180   2.182   2.187   2.193   2.200
  2.201   2.210   2.214   2.222   2.238   2.245   2.254   2.256
  2.265   2.280   2.286   2.293   2.295   2.305   2.311   2.318
  2.320   2.329   2.334   2.338   2.350   2.368   2.374   2.378
  2.389   2.394   2.404   2.410   2.415   2.419   2.429   2.431
  2.445   2.452   2.457   2.460   2.465   2.471   2.477   2.482
  2.495   2.499   2.507   2.516   2.521   2.526   2.529   2.531
  2.536   2.543   2.557   2.559   2.563   2.566   2.590   2.594
  2.603   2.609   2.612   2.635   2.636   2.645   2.653   2.661
  2.663   2.666   2.681   2.685   2.692   2.710   2.712   2.716
  2.727   2.732   2.743   2.760   2.764   2.775   2.777   2.781
  2.785   2.791   2.797   2.800   2.809   2.815   2.822   2.831
  2.834   2.842   2.851   2.852   2.855   2.868   2.872   2.881
  2.885   2.888   2.894   2.911   2.917   2.922   2.932   2.936
  2.941   2.944   2.946   2.956   2.959   2.963   2.973   2.975
  2.981   2.990   2.995   2.998   3.003   3.007   3.016   3.021
  3.024   3.027   3.033   3.036   3.043   3.050   3.055   3.061
  3.066   3.068   3.074   3.076   3.079   3.082   3.087   3.094
  3.100   3.104   3.110   3.116   3.118   3.124   3.125   3.132
  3.137   3.140   3.145   3.149   3.159   3.161   3.164   3.166
  3.169   3.175   3.177   3.184   3.188   3.194   3.197   3.199
  3.210   3.214   3.216   3.222   3.227   3.230   3.233   3.235
  3.239   3.246   3.247   3.252   3.257   3.265   3.265   3.271
  3.276   3.280   3.284   3.286   3.293   3.296   3.299   3.307
  3.310   3.314   3.315   3.320   3.324   3.332   3.334   3.337
  3.354   3.357   3.362   3.367   3.376   3.383   3.387   3.394
  3.398   3.403   3.413   3.413   3.418   3.419   3.426   3.434
  3.438   3.443   3.451   3.457   3.462   3.464   3.471   3.476
  3.482   3.489   3.494   3.498   3.501   3.516   3.519   3.523
  3.528   3.530   3.543   3.552   3.559   3.564   3.573   3.579
  3.585   3.607   3.612   3.622   3.627   3.634   3.641   3.648
  3.651   3.662   3.669   3.682   3.684   3.693   3.705   3.716
  3.716   3.723   3.725   3.736   3.740   3.752   3.754   3.770
  3.780   3.786   3.792   3.792   3.800   3.809   3.809   3.815
  3.817   3.826   3.832   3.845   3.851   3.862   3.878   3.882
  3.890   3.902   3.906   3.912   3.915   3.920   3.926   3.930
  3.932   3.936   3.947   3.950   3.954   3.958   3.962   3.970
  3.977   3.986   4.002   4.003   4.020   4.024   4.028   4.034
  4.045   4.057   4.068   4.077   4.079   4.088   4.100   4.104
  4.110   4.124   4.130   4.138   4.144   4.154   4.170   4.183
  4.187   4.201   4.208   4.214   4.215   4.218   4.220   4.227
  4.232   4.234   4.242   4.249   4.251   4.265   4.271   4.277
  4.286   4.297   4.302   4.307   4.314   4.327   4.330   4.341
  4.348   4.354   4.362   4.366   4.373   4.391   4.399   4.404
  4.411   4.421   4.425   4.428   4.433   4.444   4.451   4.458
  4.461   4.473   4.487   4.498   4.510   4.517   4.523   4.527
  4.535   4.552   4.564   4.584   4.585   4.589   4.599   4.615
  4.626   4.643   4.655   4.664   4.669   4.680   4.684   4.694
  4.721   4.733   4.736   4.752   4.753   4.759   4.771   4.782
  4.796   4.807   4.811   4.817   4.838   4.842   4.858   4.866
  4.878   4.887   4.892   4.903   4.916   4.919   4.924   4.932
  4.945   4.953   4.957   4.960   4.967   4.976   4.984   4.990
  4.999   5.002   5.013   5.017   5.022   5.044   5.057   5.067
  5.071   5.079   5.093   5.105   5.113   5.123   5.126   5.136
  5.139   5.149   5.161   5.171   5.179   5.189   5.194   5.209
  5.217   5.236   5.248   5.261   5.266   5.303   5.314   5.321
  5.333   5.343   5.344   5.377   5.380   5.383   5.406   5.425
  5.449   5.460   5.480   5.483   5.510   5.529   5.534   5.542
  5.551   5.580   5.586   5.596   5.604   5.617   5.626   5.641
  5.683   5.707   5.726   5.744   5.754   5.760   5.772   5.797
  5.826   5.832   5.847   5.875   5.884   5.885   5.907   5.915
  5.949   5.991   6.021   6.082   6.083   6.138   6.165   6.182
  6.202   6.246   6.260   6.297   6.331   6.354   6.391   6.431
  6.442   6.540   6.640   6.848   6.989   7.120   8.078   8.910
  9.802  10.210  10.672  11.145  11.260  11.643  12.001  12.078
 12.492  12.524  12.807  12.865  13.008  13.064  13.131  13.171
 13.191  13.555  13.824  14.211  14.424  14.607  15.095  15.156
 --------------------------------------------------------------
 
          Ground-State Mulliken Net Atomic Charges

     Atom                 Charge (a.u.)
  ----------------------------------------
      1 C                    -0.092475
      2 C                    -0.141288
      3 C                    -0.085179
      4 C                    -0.139017
      5 N                    -0.123414
      6 C                     0.087442
      7 C                     0.072248
      8 N                    -0.124929
      9 C                     0.024980
     10 C                    -0.088866
     11 N                    -0.283619
     12 C                     0.052607
     13 C                     0.055956
     14 S                     0.400990
     15 N                    -0.300106
     16 C                    -0.070724
     17 S                     0.173648
     18 C                     0.062461
     19 C                    -0.055259
     20 N                    -0.168022
     21 C                     0.064233
     22 C                    -0.011691
     23 C                    -0.041478
     24 N                    -0.162151
     25 C                    -0.136141
     26 S                     0.102469
     27 C                    -0.045702
     28 C                    -0.157851
     29 C                    -0.181711
     30 H                     0.133150
     31 H                     0.119979
     32 H                     0.118651
     33 H                     0.145684
     34 H                     0.139463
     35 H                     0.125904
     36 H                     0.133433
     37 H                     0.129302
     38 H                     0.131111
     39 H                     0.135911
  ----------------------------------------
  Sum of atomic charges =     0.000000

 -----------------------------------------------------------------
                    Cartesian Multipole Moments
 -----------------------------------------------------------------
    Charge (ESU x 10^10)
                 0.0000
    Dipole Moment (Debye)
         X      -0.5031      Y       1.2611      Z      -0.6528
       Tot       1.5065
    Quadrupole Moments (Debye-Ang)
        XX    -151.0806     XY      11.2536     YY    -166.3542
        XZ       0.4439     YZ       2.0766     ZZ    -186.8149
    Octopole Moments (Debye-Ang^2)
       XXX     114.8841    XXY      49.8967    XYY     -43.6569
       YYY     -37.8923    XXZ     -17.6868    XYZ     -16.3369
       YYZ      -6.0657    XZZ       1.7378    YZZ       2.3808
       ZZZ      -5.4823
    Hexadecapole Moments (Debye-Ang^3)
      XXXX  -15987.0160   XXXY    -284.6596   XXYY   -3595.1416
      XYYY     211.4400   YYYY   -3449.0592   XXXZ      89.4390
      XXYZ      66.0154   XYYZ     -24.4094   YYYZ      19.3627
      XXZZ   -3484.4332   XYZZ      16.1878   YYZZ    -724.0435
      XZZZ     -18.0277   YZZZ      -6.6647   ZZZZ    -305.4613
 -----------------------------------------------------------------
 Calculating analytic gradient of the SCF energy
 K construction time:  CPU 2733.34 s  wall 685.17 s
 Gradient of SCF Energy
            1           2           3           4           5           6
    1  -0.0004719  -0.0005690   0.0018072   0.0029947  -0.0010403  -0.0000272
    2  -0.0004352   0.0002266   0.0005806   0.0006516   0.0011348  -0.0022321
    3   0.0002175  -0.0004768  -0.0001733   0.0002229  -0.0000860   0.0009544
            7           8           9          10          11          12
    1   0.0008596  -0.0012268  -0.0001864  -0.0008344  -0.0020949   0.0002030
    2   0.0014480  -0.0007669   0.0000248   0.0004796   0.0006506  -0.0000009
    3   0.0000493  -0.0008562   0.0009825   0.0001834  -0.0009918   0.0006088
           13          14          15          16          17          18
    1   0.0002231   0.0003763  -0.0000021  -0.0002645  -0.0006364   0.0000594
    2  -0.0002514  -0.0002958  -0.0001031  -0.0001807  -0.0001882  -0.0000372
    3  -0.0003029  -0.0000464  -0.0002376  -0.0001188   0.0004433  -0.0001149
           19          20          21          22          23          24
    1   0.0001926   0.0004546  -0.0003725  -0.0001277  -0.0003229   0.0000069
    2   0.0000945   0.0004510  -0.0001029  -0.0000959  -0.0001421   0.0002494
    3  -0.0001806   0.0001302   0.0001662  -0.0000235  -0.0001039  -0.0000295
           25          26          27          28          29          30
    1  -0.0000532   0.0000372   0.0003245   0.0000417   0.0000185   0.0001077
    2   0.0001642   0.0000072  -0.0001496  -0.0001413  -0.0000047  -0.0000161
    3   0.0001886   0.0000685   0.0000111  -0.0000294  -0.0000619   0.0000855
           31          32          33          34          35          36
    1   0.0002033  -0.0002897   0.0007487  -0.0001938   0.0000659   0.0000828
    2  -0.0000672   0.0000117  -0.0008825  -0.0001663   0.0000356  -0.0000368
    3   0.0001542   0.0000436  -0.0005715  -0.0001545   0.0000448  -0.0000034
           37          38          39
    1  -0.0000431  -0.0000309  -0.0000200
    2   0.0000224   0.0000765  -0.0000121
    3   0.0000182   0.0000134  -0.0000234
 Max gradient component =       2.995E-03
 RMS gradient           =       5.891E-04
 Gradient time:  CPU 3239.80 s  wall 812.91 s
 Geometry Optimization Parameters
   NAtoms,    NIC,     NZ,  NCons,   NDum,   NFix, NCnnct, MaxDiis
       39     293       0       3       0       0       0       0

 Cartesian Hessian Update
 Hessian Updated using BFGS Update


** CONSTRAINED OPTIMIZATION IN DELOCALIZED INTERNAL COORDINATES **
   Searching for a Minimum

   Optimization Cycle:   3

                       Coordinates (Angstroms)
     ATOM                X               Y               Z
      1  C         7.6935261876   -0.5393473693    0.1518556091
      2  C         7.1576991674    0.7235360769   -0.0110775426
      3  C         6.8128727712   -1.6004947860    0.2985026445
      4  C         5.7827306119    0.8742499498   -0.0239045714
      5  N         5.4961542851   -1.4709467888    0.2919744284
      6  C         4.9751801613   -0.2542164751    0.1356339017
      7  C         3.4781717304   -0.1938203648    0.1185349294
      8  N         2.8346154867   -1.3160282981    0.2780763308
      9  C         2.7022972347    1.0022346685   -0.0804505718
     10  C         1.4841511747   -1.3957890994    0.2648115988
     11  N         3.1348074973    2.2470289098   -0.2899638015
     12  C         1.2699061591    0.9138920718   -0.0884014660
     13  C         0.6179836187   -0.3435864826    0.0822893565
     14  S         1.8409618137    3.1796728101   -0.4642744625
     15  N         0.6727882595    2.0862438041   -0.2934589162
     16  C        -0.8274765698   -0.5090043958    0.0398899379
     17  S        -1.9244798495    0.8143648269    0.0992117845
     18  C        -1.5633628807   -1.6892071245   -0.0636568832
     19  C        -3.3342987390   -0.1409715635    0.0129553375
[...]


   Energy is  -2291.191343154

              Constraints and their Current Values
                                        Value     Constraint
   Dihedral:        4   6   7   8     -180.000      180.000
   Dihedral:       10  13  16  17      168.550      168.550
   Dihedral:       17  19  22  25      157.507      157.507
 Hessian Updated using BFGS Update

108 Hessian modes will be used to form the next step
  Hessian Eigenvalues:
     0.010302    0.020604    0.044475    0.044985    0.045000    0.045000
     0.045000    0.045000    0.045000    0.045000    0.045000    0.045001
     0.045001    0.045001    0.045001    0.045001    0.045001    0.045001
     0.045002    0.045002    0.045002    0.045003    0.045003    0.045004
     0.045006    0.045010    0.045015    0.045020    0.045035    0.045041
     0.045208    0.045400    0.047586    0.157047    0.159820    0.159882
     0.159992    0.159996    0.159999    0.160005    0.160051    0.160271
     0.160531    0.219690    0.221297    0.223879    0.224683    0.232369
     0.237255    0.238180    0.243402    0.245553    0.247967    0.249745
     0.249823    0.249938    0.249969    0.249984    0.249991    0.253111
     0.270859    0.312844    0.327326    0.334247    0.334743    0.343030
     0.347297    0.354727    0.354742    0.355678    0.357273    0.358574
     0.360086    0.361026    0.362171    0.363526    0.364140    0.371605
     0.373921    0.386686    0.388809    0.395845    0.407572    0.418991
     0.423835    0.428492    0.458313    0.459669    0.464650    0.465664
     0.474081    0.479375    0.481959    0.483202    0.485132    0.504015
     0.517500    0.518164    0.524818    0.558721    0.566021    0.577693
     0.618586    0.635461    0.653440    0.661826    0.676820    0.730153

 Minimum Search - Taking Simple RFO Step
 Searching for Lamda that Minimizes Along All modes
 Value Taken    Lamda =   0.00000000
 Step Taken.  Stepsize is  0.003275

                             Maximum     Tolerance    Cnvgd?
         Gradient           0.000064      0.000300     YES
         Displacement       0.001464      0.001200      NO
         Energy change      0.000000      0.000001     YES

 Final energy is   -2291.19134315447     


 ******************************
 **  OPTIMIZATION CONVERGED  **
 ******************************

                       Coordinates (Angstroms)
     ATOM                X               Y               Z
      1  C         7.6842151189   -0.5262634579    0.0534741814
      2  C         7.1372309706    0.7376693736   -0.0445294701
      3  C         6.8145444797   -1.5980673444    0.2045459673
      4  C         5.7605720724    0.8817292949    0.0011406982
      5  N         5.4999207941   -1.4761546766    0.2529517283
      6  C         4.9689392908   -0.2551952245    0.1551573451
      7  C         3.4755709000   -0.2032434550    0.1742720811
      8  N         2.8374747648   -1.3282681963    0.3241943085
      9  C         2.7016505921    0.9955973273   -0.0072648188
     10  C         1.4870318051   -1.4076754360    0.3054508300
     11  N         3.1381892706    2.2471633221   -0.1596161349
     12  C         1.2711008846    0.9052520316   -0.0422384968
     13  C         0.6217831804   -0.3568382339    0.1053782282
     14  S         1.8449323174    3.1836981199   -0.3301384011
     15  N         0.6762587407    2.0831399488   -0.2212165013
     16  C        -0.8224495864   -0.5216651367    0.0449230858
     17  S        -1.9146969775    0.8064344657    0.0824527644
     18  C        -1.5619274313   -1.7006554720   -0.0494901733
     19  C        -3.3274683051   -0.1447548241   -0.0059668818
     20  N        -1.0510035873   -2.9630843911   -0.1041326043
     21  C        -2.9759196199   -1.4869666103   -0.0821716902
     22  C        -4.6513764712    0.4368639818   -0.0118872642
     23  C        -1.9188401895   -3.9241728277   -0.1778545035
     24  N        -3.8572486553   -2.5201714628   -0.1635675730
     25  C        -5.8095421121   -0.1158371542   -0.4864214167
     26  S        -4.9535249247    2.0189811646    0.6311633906
     27  C        -3.3305406354   -3.7047680303   -0.2069235277
     28  C        -6.9294874447    0.7368121516   -0.3426011560
     29  C        -6.6177911525    1.9255615003    0.2376887032
     30  H         8.7528357466   -0.6832280749    0.0177348676
     31  H         7.7700251703    1.6063824871   -0.1663756575
     32  H         7.2021764990   -2.6082971773    0.2756421500
     33  H         5.3141032176    1.8584679245   -0.0703777754
     34  H         1.0885795943   -2.4022769898    0.4281583621
     35  H        -1.5359188116   -4.9379560668   -0.2138039589
     36  H        -5.8409178033   -1.1047156332   -0.9122313421
     37  H        -4.0047349958   -4.5515860765   -0.2710155078
     38  H        -7.9247645566    0.4720417846   -0.6659018471
     39  H        -7.2768353505    2.7465603186    0.4624436427

Z-matrix Print:
$molecule
0 1
S 
C  1 1.705433
C  2 1.389578 1 109.390044
N  3 1.360470 2 124.956295 1 -179.942584 0
C  4 1.297139 3 115.626895 2 179.040384 0
H  5 1.084319 4 117.562382 3 -179.937211 0
C  5 1.428944 4 122.730971 3 0.267280 0
H  7 1.084287 5 119.457538 4 -179.813995 0
N  7 1.297022 5 123.257744 4 -0.104585 0
C  9 1.362995 7 115.962793 5 -0.227537 0
C  10 1.394905 9 125.933267 7 -179.377807 0
C  2 1.446046 1 122.296943 3 179.313308 0
C  12 1.368214 2 127.873945 1 -157.506526 0
H  13 1.077116 12 122.183494 2 -0.999232 0
C  13 1.414911 12 113.037230 2 179.579095 0
H  15 1.079446 13 123.473838 12 -179.607706 0
C  15 1.359050 13 112.890337 12 0.028977 0
H  17 1.076519 15 128.011141 13 179.923684 0
C  11 1.454865 10 128.669229 9 -0.027973 0
C  19 1.375843 11 122.942844 10 11.488684 0
H  20 1.078450 19 119.247767 11 0.247047 0
N  20 1.352905 19 125.797854 11 -177.499648 0
C  22 1.302046 20 122.567899 19 -1.382194 0
C  19 1.426981 11 123.203015 10 -168.251873 0
N  24 1.331649 19 126.367856 11 -1.542399 0
C  24 1.433826 19 120.477151 11 178.367721 0
N  26 1.334239 24 112.504406 19 179.960516 0
C  23 1.494394 22 117.462651 20 177.423791 0
N  28 1.335008 23 115.361058 22 -2.073822 0
C  29 1.321151 28 118.521057 23 -178.121271 0
H  30 1.084379 29 116.057213 28 179.286542 0
C  30 1.388493 29 123.779772 28 0.179294 0
H  32 1.080678 30 120.719319 29 179.854816 0
C  32 1.380696 30 117.789650 29 -0.334730 0
H  34 1.081636 32 120.760580 30 179.811661 0
C  34 1.384929 32 119.122721 30 0.477564 0
H  36 1.076321 34 120.300647 32 -179.804498 0
S  27 1.605830 26 107.199586 24 0.121746 0
S  17 1.712697 15 111.633519 13 0.499761 0
$end

 
 --------------------------------------------------------------
 
                    Orbital Energies (a.u.)
 --------------------------------------------------------------
 
 Alpha MOs
 -- Occupied --
-89.160 -89.107 -89.088 -14.490 -14.486 -14.463 -14.462 -14.440
-14.430 -10.359 -10.357 -10.352 -10.345 -10.345 -10.344 -10.343
-10.342 -10.339 -10.336 -10.335 -10.331 -10.325 -10.322 -10.320
-10.308 -10.299 -10.296 -10.296 -10.294  -8.165  -8.116  -8.098
 -6.114  -6.109  -6.108  -6.065  -6.061  -6.060  -6.046  -6.043
 -6.040  -1.150  -1.102  -1.067  -1.043  -1.030  -1.017  -1.007
 -0.987  -0.926  -0.908  -0.899  -0.878  -0.869  -0.854  -0.839
 -0.812  -0.778  -0.772  -0.748  -0.740  -0.731  -0.717  -0.712
 -0.674  -0.656  -0.649  -0.630  -0.628  -0.621  -0.607  -0.604
 -0.589  -0.573  -0.570  -0.565  -0.558  -0.548  -0.541  -0.527
 -0.510  -0.510  -0.502  -0.501  -0.493  -0.487  -0.485  -0.484
 -0.478  -0.467  -0.467  -0.462  -0.453  -0.443  -0.431  -0.430
 -0.418  -0.411  -0.396  -0.381  -0.368  -0.362  -0.352  -0.350
 -0.344  -0.339  -0.334  -0.328  -0.321  -0.264
 -- Virtual --
 -0.058  -0.026   0.021   0.031   0.043   0.055   0.070   0.071
  0.077   0.088   0.118   0.122   0.125   0.127   0.131   0.135
  0.149   0.154   0.155   0.165   0.170   0.178   0.183   0.193
  0.200   0.204   0.210   0.217   0.227   0.232   0.238   0.255
  0.258   0.267   0.268   0.275   0.283   0.288   0.293   0.293
  0.300   0.303   0.305   0.312   0.316   0.319   0.324   0.330
  0.334   0.336   0.339   0.347   0.349   0.354   0.357   0.363
  0.366   0.368   0.374   0.378   0.380   0.382   0.385   0.387
  0.392   0.393   0.397   0.399   0.404   0.406   0.407   0.414
  0.414   0.418   0.421   0.428   0.433   0.436   0.438   0.445
  0.448   0.448   0.453   0.458   0.460   0.461   0.464   0.468
  0.469   0.473   0.478   0.479   0.481   0.485   0.492   0.492
  0.499   0.501   0.503   0.508   0.508   0.516   0.517   0.520
  0.525   0.526   0.534   0.536   0.540   0.544   0.549   0.552
  0.558   0.564   0.572   0.577   0.580   0.587   0.597   0.601
  0.607   0.609   0.613   0.620   0.631   0.636   0.639   0.646
  0.649   0.655   0.656   0.658   0.661   0.669   0.672   0.674
  0.677   0.685   0.693   0.697   0.703   0.705   0.712   0.715
  0.723   0.731   0.735   0.737   0.741   0.748   0.756   0.758
  0.764   0.770   0.774   0.775   0.777   0.784   0.789   0.790
  0.797   0.799   0.802   0.807   0.814   0.816   0.823   0.825
  0.830   0.838   0.842   0.843   0.846   0.854   0.858   0.861
  0.862   0.871   0.876   0.882   0.886   0.892   0.894   0.899
  0.908   0.913   0.919   0.920   0.925   0.930   0.931   0.935
  0.942   0.948   0.955   0.963   0.965   0.966   0.970   0.974
  0.978   0.984   0.993   0.998   1.005   1.007   1.011   1.017
  1.020   1.028   1.031   1.041   1.043   1.051   1.058   1.062
  1.070   1.075   1.084   1.085   1.087   1.091   1.097   1.106
  1.108   1.112   1.117   1.122   1.126   1.132   1.137   1.146
  1.148   1.164   1.166   1.172   1.183   1.187   1.188   1.198
  1.207   1.211   1.214   1.217   1.227   1.233   1.235   1.250
  1.251   1.255   1.267   1.277   1.284   1.286   1.290   1.302
  1.316   1.320   1.325   1.335   1.339   1.342   1.351   1.358
  1.361   1.365   1.371   1.373   1.378   1.385   1.390   1.397
  1.402   1.405   1.413   1.422   1.427   1.430   1.436   1.445
  1.448   1.453   1.454   1.461   1.468   1.476   1.483   1.490
  1.494   1.498   1.502   1.511   1.512   1.518   1.526   1.534
  1.542   1.568   1.569   1.581   1.582   1.585   1.592   1.600
  1.604   1.610   1.614   1.628   1.632   1.638   1.644   1.645
  1.649   1.656   1.666   1.672   1.674   1.685   1.691   1.697
  1.712   1.715   1.718   1.727   1.730   1.743   1.748   1.757
  1.767   1.769   1.783   1.793   1.800   1.804   1.807   1.819
  1.822   1.837   1.848   1.854   1.864   1.871   1.883   1.885
  1.892   1.897   1.914   1.918   1.924   1.928   1.932   1.951
  1.960   1.969   1.973   1.985   1.990   1.996   2.005   2.013
  2.016   2.022   2.034   2.041   2.051   2.054   2.063   2.069
  2.083   2.094   2.104   2.112   2.113   2.124   2.129   2.131
  2.143   2.154   2.167   2.181   2.184   2.189   2.193   2.200
  2.203   2.211   2.214   2.222   2.239   2.245   2.254   2.256
  2.266   2.280   2.286   2.293   2.295   2.304   2.311   2.318
  2.320   2.328   2.335   2.338   2.350   2.368   2.373   2.381
  2.390   2.394   2.407   2.410   2.415   2.419   2.430   2.432
  2.446   2.453   2.455   2.460   2.466   2.472   2.475   2.481
  2.496   2.501   2.507   2.516   2.521   2.526   2.529   2.531
  2.537   2.543   2.555   2.558   2.563   2.568   2.592   2.593
  2.603   2.608   2.612   2.635   2.637   2.644   2.655   2.662
  2.663   2.666   2.681   2.684   2.692   2.709   2.714   2.717
  2.727   2.732   2.744   2.760   2.764   2.775   2.775   2.781
  2.785   2.792   2.797   2.801   2.810   2.815   2.821   2.831
  2.834   2.842   2.850   2.853   2.856   2.870   2.875   2.880
  2.885   2.887   2.895   2.912   2.917   2.924   2.933   2.936
  2.942   2.945   2.947   2.954   2.961   2.963   2.974   2.976
  2.982   2.988   2.996   2.998   3.004   3.006   3.016   3.022
  3.023   3.027   3.033   3.035   3.043   3.049   3.054   3.060
  3.066   3.067   3.074   3.076   3.080   3.083   3.089   3.094
  3.100   3.104   3.111   3.117   3.119   3.124   3.126   3.133
  3.137   3.140   3.146   3.149   3.160   3.161   3.164   3.166
  3.170   3.176   3.177   3.185   3.189   3.195   3.197   3.199
  3.210   3.213   3.218   3.221   3.229   3.230   3.233   3.236
  3.240   3.246   3.248   3.254   3.257   3.266   3.266   3.271
  3.276   3.280   3.284   3.288   3.294   3.296   3.300   3.307
  3.310   3.315   3.316   3.320   3.324   3.333   3.335   3.337
  3.354   3.357   3.361   3.366   3.376   3.383   3.388   3.394
  3.399   3.402   3.412   3.413   3.418   3.419   3.426   3.433
  3.440   3.442   3.451   3.458   3.462   3.464   3.469   3.477
  3.484   3.489   3.494   3.498   3.502   3.516   3.519   3.522
  3.528   3.530   3.544   3.551   3.560   3.565   3.573   3.579
  3.585   3.607   3.611   3.623   3.628   3.637   3.641   3.649
  3.654   3.663   3.669   3.681   3.685   3.692   3.706   3.715
  3.717   3.724   3.725   3.737   3.740   3.752   3.754   3.771
  3.780   3.787   3.791   3.793   3.801   3.809   3.811   3.816
  3.817   3.827   3.832   3.845   3.851   3.862   3.880   3.883
  3.890   3.902   3.905   3.912   3.915   3.921   3.929   3.931
  3.931   3.936   3.947   3.951   3.954   3.958   3.961   3.970
  3.979   3.987   4.003   4.005   4.022   4.024   4.030   4.035
  4.045   4.057   4.067   4.077   4.080   4.089   4.101   4.104
  4.111   4.124   4.130   4.138   4.144   4.154   4.172   4.182
  4.187   4.202   4.209   4.213   4.216   4.218   4.221   4.227
  4.232   4.235   4.243   4.249   4.252   4.266   4.271   4.277
  4.289   4.299   4.302   4.306   4.314   4.328   4.331   4.339
  4.348   4.353   4.363   4.366   4.373   4.391   4.399   4.404
  4.412   4.421   4.426   4.429   4.434   4.443   4.450   4.458
  4.460   4.474   4.487   4.497   4.512   4.517   4.523   4.527
  4.537   4.552   4.564   4.584   4.585   4.589   4.598   4.614
  4.625   4.644   4.655   4.666   4.669   4.680   4.688   4.696
  4.720   4.733   4.735   4.752   4.756   4.759   4.771   4.784
  4.796   4.808   4.813   4.818   4.839   4.842   4.859   4.867
  4.878   4.888   4.894   4.903   4.917   4.919   4.925   4.931
  4.945   4.955   4.957   4.962   4.966   4.977   4.985   4.991
  4.999   5.002   5.012   5.017   5.024   5.044   5.057   5.065
  5.072   5.079   5.093   5.105   5.114   5.122   5.126   5.135
  5.140   5.152   5.161   5.176   5.180   5.190   5.195   5.209
  5.218   5.238   5.248   5.262   5.268   5.303   5.314   5.321
  5.334   5.342   5.345   5.377   5.380   5.387   5.405   5.425
  5.450   5.459   5.479   5.486   5.513   5.529   5.536   5.542
  5.549   5.580   5.586   5.596   5.607   5.617   5.628   5.644
  5.684   5.710   5.727   5.744   5.754   5.758   5.773   5.797
  5.828   5.832   5.847   5.875   5.884   5.886   5.907   5.916
  5.950   5.993   6.023   6.083   6.085   6.137   6.164   6.185
  6.205   6.245   6.262   6.299   6.332   6.354   6.391   6.431
  6.444   6.543   6.641   6.850   6.988   7.122   8.082   8.912
  9.815  10.217  10.674  11.155  11.265  11.657  12.012  12.094
 12.500  12.538  12.812  12.867  13.009  13.061  13.128  13.167
 13.195  13.556  13.846  14.213  14.428  14.617  15.098  15.160
 --------------------------------------------------------------
 
          Ground-State Mulliken Net Atomic Charges

     Atom                 Charge (a.u.)
  ----------------------------------------
      1 C                    -0.093470
      2 C                    -0.141067
      3 C                    -0.082954
      4 C                    -0.137813
      5 N                    -0.123954
      6 C                     0.087819
      7 C                     0.073610
      8 N                    -0.124749
      9 C                     0.023987
     10 C                    -0.087148
     11 N                    -0.282514
     12 C                     0.053669
     13 C                     0.054620
     14 S                     0.400261
     15 N                    -0.299900
     16 C                    -0.071670
     17 S                     0.172476
     18 C                     0.062226
     19 C                    -0.054596
     20 N                    -0.168276
     21 C                     0.064133
     22 C                    -0.011655
     23 C                    -0.040937
     24 N                    -0.161742
     25 C                    -0.136019
     26 S                     0.102469
     27 C                    -0.045927
     28 C                    -0.157774
     29 C                    -0.181894
     30 H                     0.133023
     31 H                     0.120132
     32 H                     0.116878
     33 H                     0.144019
     34 H                     0.139410
     35 H                     0.125695
     36 H                     0.133221
     37 H                     0.129423
     38 H                     0.131033
     39 H                     0.135955
  ----------------------------------------
  Sum of atomic charges =     0.000000

 -----------------------------------------------------------------
                    Cartesian Multipole Moments
 -----------------------------------------------------------------
    Charge (ESU x 10^10)
                 0.0000
    Dipole Moment (Debye)
         X      -0.5047      Y       1.3050      Z      -0.6641
       Tot       1.5488
    Quadrupole Moments (Debye-Ang)
        XX    -151.4349     XY      11.4476     YY    -166.2303
        XZ      -0.0188     YZ       2.1363     ZZ    -186.8905
    Octopole Moments (Debye-Ang^2)
       XXX     112.2791    XXY      50.7840    XYY     -44.6252
       YYY     -36.5056    XXZ     -26.5989    XYZ     -13.7503
       YYZ      -6.5957    XZZ       1.2132    YZZ       2.3567
       ZZZ      -9.6825
    Hexadecapole Moments (Debye-Ang^3)
      XXXX  -15976.2794   XXXY    -284.9782   XXYY   -3583.9200
      XYYY     212.4004   YYYY   -3465.1826   XXXZ      24.4776
      XXYZ      65.8734   XYYZ     -36.7327   YYYZ       7.1959
      XXZZ   -3473.5412   XYZZ      17.4176   YYZZ    -727.1443
      XZZZ     -44.9813   YZZZ     -17.1082   ZZZZ    -286.9215
 -----------------------------------------------------------------
Archival summary:
1\1\chiqspirix\OPT\ProcedureUnspecified\BasisUnspecified\362010\Andres\SatJun317:18:292017SatJun317:18:292017\0\\#,OPT,ProcedureUnspecified,BasisUnspecified,\\0,1\S\C,1,1.70543\C,2,1.38958,1,109.39\N,3,1.36047,2,124.956,1,-179.943,0\C,4,1.29714,3,115.627,2,179.04,0\H,5,1.08432,4,117.562,3,-179.937,0\C,5,1.42894,4,122.731,3,0.26728,0\H,7,1.08429,5,119.458,4,-179.814,0\N,7,1.29702,5,123.258,4,-0.104585,0\C,9,1.363,7,115.963,5,-0.227537,0\C,10,1.3949,9,125.933,7,-179.378,0\C,2,1.44605,1,122.297,3,179.313,0\C,12,1.36821,2,127.874,1,-157.507,0\H,13,1.07712,12,122.183,2,-0.999232,0\C,13,1.41491,12,113.037,2,179.579,0\H,15,1.07945,13,123.474,12,-179.608,0\C,15,1.35905,13,112.89,12,0.0289774,0\H,17,1.07652,15,128.011,13,179.924,0\C,11,1.45486,10,128.669,9,-0.0279729,0\C,19,1.37584,11,122.943,10,11.4887,0\H,20,1.07845,19,119.248,11,0.247047,0\N,20,1.35291,19,125.798,11,-177.5,0\C,22,1.30205,20,122.568,19,-1.38219,0\C,19,1.42698,11,123.203,10,-168.252,0\N,24,1.33165,19,126.368,11,-1.5424,0\C,24,1.43383,19,120.477,11,178.368,0\N,26,1.33424,24,112.504,19,179.961,0\C,23,1.49439,22,117.463,20,177.424,0\N,28,1.33501,23,115.361,22,-2.07382,0\C,29,1.32115,28,118.521,23,-178.121,0\H,30,1.08438,29,116.057,28,179.287,0\C,30,1.38849,29,123.78,28,0.179294,0\H,32,1.08068,30,120.719,29,179.855,0\C,32,1.3807,30,117.79,29,-0.33473,0\H,34,1.08164,32,120.761,30,179.812,0\C,34,1.38493,32,119.123,30,0.477564,0\H,36,1.07632,34,120.301,32,-179.804,0\S,27,1.60583,26,107.2,24,0.121746,0\S,17,1.7127,15,111.634,13,0.499761,0\\\@

 Total job time:  38191.38s(wall), 151330.88s(cpu) 
 Sat Jun  3 17:18:29 2017

        *************************************************************
        *                                                           *
        *  Thank you very much for using Q-Chem.  Have a nice day.  *
        *                                                           *
        *************************************************************


0 sent ACK to 0 
now end server 0 ... 
cleanup process ... done
