
Running Job 1 of 1 C306_2/C306_210.qcin
qchem C306_2/C306_210.qcin_122978.0 /tmpu/cab_g/afmv_a/scratch_qchem/qchem122978/ 1
/tmpu/appuserlic/qchem4.4/serial-multicore/exe/qcprog.exe_s C306_2/C306_210.qcin_122978.0 /tmpu/cab_g/afmv_a/scratch_qchem/qchem122978/
Check license passed

                  Welcome to Q-Chem
     A Quantum Leap Into The Future Of Chemistry


 Q-Chem 4.4, Q-Chem, Inc., Pleasanton, CA (2016)

 Y. Shao,  Z. Gan,  E. Epifanovsky,  A. T. B. Gilbert,  M. Wormit,  
 J. Kussmann,  A. W. Lange,  A. Behn,  J. Deng,  X. Feng,  D. Ghosh,  
 M. Goldey,  P. R. Horn,  L. D. Jacobson,  I. Kaliman,  F. Rob,  
 R. Z. Khaliullin,  T. Kus,  A. Landau,  J. Liu,  E. I. Proynov,  Y. M. Rhee,  
 R. M. Richard,  M. A. Rohrdanz,  R. P. Steele,  E. J. Sundstrom,  
 H. L. Woodcock III,  P. M. Zimmerman,  D. Zuev,  B. Albrecht,  E. Alguire,  
 B. Austin,  S. A. Baeppler,  G. J. O. Beran,  Y. A. Bernard,  E. Berquist,  
 K. Brandhorst,  K. B. Bravaya,  S. T. Brown,  D. Casanova,  C.-M. Chang,  
 Y. Chen,  S. H. Chien,  K. D. Closser,  M. P. Coons,  D. L. Crittenden,  
 S. Dasgupta,  M. Diedenhofen,  R. A. DiStasio Jr.,  H. Do,  A. D. Dutoi,  
 R. G. Edgar,  P.-T. Fang,  S. Fatehi,  Q. Feng,  L. Fusti-Molnar,  
 A. Ghysels,  A. Golubeva-Zadorozhnaya,  J. Gomes,  A. Gunina,  
 M. W. D. Hanson-Heine,  P. H. P. Harbach,  A. W. Hauser,  J. E. Herr,  
 E. G. Hohenstein,  Z. C. Holden,  K. Hui,  T.-C. Jagau,  H. Ji,  B. Kaduk,  
 K. Khistyaev,  Jaehoon Kim,  Jihan Kim,  R. A. King,  P. Klunzinger,  
 K. Koh,  D. Kosenkov,  T. Kowalczyk,  C. M. Krauter,  A. Kunitsa,  
 K. U. Lao,  A. Laurent,  K. V. Lawler,  J. Lee,  D. Lefrancois,  S. Lehtola,  
 S. V. Levchenko,  C. Y. Lin,  Y.-S. Lin,  F. Liu,  E. Livshits,  
 R. C. Lochan,  A. Luenser,  P. Manohar,  S. F. Manzer,  S.-P. Mao,  Y. Mao,  
 N. Mardirossian,  A. V. Marenich,  L. A. Martinez-Martinez,  S. A. Maurer,  
 N. J. Mayhall,  J.-M. Mewes,  A. F. Morrison,  K. Nanda,  T. S. Nguyen-Beck,  
 C. M. Oana,  R. Olivares-Amaya,  D. P. O'Neill,  J. A. Parkhill,  
 T. M. Perrine,  R. Peverati,  P. A. Pieniazek,  F. Plasser,  A. Prociuk,  
 D. R. Rehn,  E. Rosta,  N. J. Russ,  N. Sergueev,  S. M. Sharada,  
 S. Sharma,  D. W. Small,  A. Sodt,  T. Stauch,  T. Stein,  D. Stuck,  
 Y.-C. Su,  A. J. W. Thom,  T. Tsuchimochi,  L. Vogt,  O. Vydrov,  T. Wang,  
 M. A. Watson,  J. Wenzel,  A. White,  C. F. Williams,  V. Vanovschi,  
 K. Yao,  S. Yeganeh,  S. R. Yost,  Z.-Q. You,  I. Y. Zhang,  X. Zhang,  
 Y. Zhao,  B. R. Brooks,  G. K. L. Chan,  D. M. Chipman,  C. J. Cramer,  
 W. A. Goddard III,  M. S. Gordon,  W. J. Hehre,  A. Klamt,  
 H. F. Schaefer III,  M. W. Schmidt,  C. D. Sherrill,  D. G. Truhlar,  
 A. Warshel,  X. Xu,  A. Aspuru-Guzik,  R. Baer,  A. T. Bell,  N. A. Besley,  
 J.-D. Chai,  A. Dreuw,  B. D. Dunietz,  T. R. Furlani,  S. R. Gwaltney,  
 C.-P. Hsu,  Y. Jung,  J. Kong,  D. S. Lambrecht,  W. Liang,  C. Ochsenfeld,  
 V. A. Rassolov,  L. V. Slipchenko,  J. E. Subotnik,  T. Van Voorhis,  
 J. M. Herbert,  A. I. Krylov,  P. M. W. Gill,  M. Head-Gordon

 Contributors to earlier versions of Q-Chem not listed above: 
 R. D. Adamson,  J. Baker,  E. F. C. Byrd,  A. K. Chakraborty,  C.-L. Cheng,  
 H. Dachsel,  R. J. Doerksen,  G. Hawkins,  A. Heyden,  S. Hirata,  
 G. Kedziora,  F. J. Keil,  C. Kelley,  P. P. Korambath,  W. Kurlancheek,  
 A. M. Lee,  M. S. Lee,  D. Liotard,  I. Lotan,  P. E. Maslen,  N. Nair,  
 D. Neuhauser,  R. Olson,  B. Peters,  J. Ritchie,  N. E. Schultz,  
 N. Shenvi,  A. C. Simmonett,  K. S. Thanthiriwatte,  Q. Wu,  W. Zhang

 Please cite Q-Chem as follows:
 Y. Shao et al., Mol. Phys. 113, 184-215 (2015)
 DOI: 10.1080/00268976.2014.952696

 Q-Chem 4.4.2 for Intel X86 Linux

 Parts of Q-Chem use Armadillo 5.200.1 (Boston Tea Smuggler).
 http://arma.sourceforge.net/

 Q-Chem begins on Tue Jun  6 14:04:19 2017  

Host: 
0

     Scratch files written to /tmpu/cab_g/afmv_a/scratch_qchem/qchem122978//
 Dec716 11556_ 22328  22283 4050   
Processing $rem in /tmpu/appuserlic/qchem4.4/serial-multicore/config/preferences.
 MEM_TOTAL  2000 
FILE_GEOM_ORG=        593

Checking the input file for inconsistencies... 	...done.

--------------------------------------------------------------
User input:
--------------------------------------------------------------
$comment
OPTIMIZATION
$end

$rem
JOBTYPE OPT
EXCHANGE omegaB97X-D
BASIS cc-pVTZ
$end

$molecule
0 1
C          0.00000        0.00000        0.00000
C          1.38599        0.00000        0.00000
C         -0.68515       -1.20581        0.00000
C          2.08055       -1.19709        0.02226
C          0.00742       -2.40411        0.01179
C          1.40063       -2.41271        0.04151
C          2.15950       -3.67324        0.15696
C          3.15000       -3.81753        1.08952
C          1.92849       -4.81544       -0.65861
N          3.90172       -4.92812        1.27968
N          1.02636       -4.93526       -1.63501
C          2.72047       -5.99481       -0.47371
C          3.72589       -5.99344        0.54686
S          1.20518       -6.42345       -2.22449
N          2.39935       -6.98227       -1.31015
C          4.58521       -7.13898        0.84639
N          5.08157       -7.44646        2.00353
S          5.01089       -8.22862       -0.44098
C          5.83994       -8.56906        1.92437
C          5.93699       -9.14740        0.68806
C          6.63944      -10.36169        0.33474
S          7.33407      -10.61255       -1.23187
C          6.87893      -11.46441        1.10759
C          7.90819      -12.17496       -0.84425
S          6.45407      -11.92141        2.73584
C          7.59648      -12.50415        0.44566
C          7.22779      -13.47659        2.50559
C          7.77992      -13.65297        1.29507
H         -0.54342        0.93472        0.00000
H          1.93260        0.93382       -0.01501
H         -1.76734       -1.21268        0.00047
H          3.16263       -1.19509        0.00785
H         -0.53593       -3.33924        0.01382
H          3.36185       -2.99842        1.76492
H          6.33665       -8.94165        2.80810
H          8.42839      -12.76547       -1.57768
H          7.20360      -14.18063        3.32144
H          8.28229      -14.56004        0.99786
$end

$opt
CONSTRAINT
tors 4 6 7 8 47.06187
tors 10 13 16 18 -150.00000
tors 18 20 21 22 32.71647
ENDCONSTRAINT
$end
--------------------------------------------------------------
 ----------------------------------------------------------------
             Standard Nuclear Orientation (Angstroms)
    I     Atom           X                Y                Z
 ----------------------------------------------------------------
    1      C      -8.2690353902     0.7962548847    -0.1406561833
    2      C      -7.5237698617     1.1874646997    -1.2417930743
    3      C      -7.6288362300     0.2449191893     0.9591539207
    4      C      -6.1466205523     1.0484615548    -1.2333388130
    5      C      -6.2528527179     0.0954438487     0.9656034047
    6      C      -5.4933665568     0.5132508857    -0.1255470860
    7      C      -4.0187110330     0.4585807447    -0.1020838803
    8      C      -3.2667354973     1.5460593899    -0.4535109677
    9      C      -3.2738201711    -0.6896944025     0.2848821067
   10      N      -1.9134383370     1.6020353953    -0.4638750893
   11      N      -3.7619989930    -1.8706241154     0.6704191094
   12      C      -1.8418994263    -0.6475704293     0.2721353920
   13      C      -1.1944275448     0.5676463159    -0.1234184009
   14      S      -2.4834063771    -2.7996761008     0.9806384993
   15      N      -1.2771042945    -1.7943841805     0.6511497173
   16      C       0.2575347208     0.7433919204    -0.1598880682
   17      N       0.9040702131     1.8478257130     0.0453143552
   18      S       1.2616495071    -0.6343251956    -0.5055603888
   19      C       2.2424914185     1.6564250795    -0.0713758190
   20      C       2.6476175168     0.3843081138    -0.3712917143
   21      C       4.0036551445    -0.1001985291    -0.5098070356
   22      S       4.4212335340    -1.4077476941    -1.5660512964
   23      C       5.1365927499     0.3450933689     0.1137404677
   24      C       6.0778566866    -1.3558901672    -1.1490398169
   25      S       5.4626932561     1.5748907738     1.3061371655
   26      C       6.3220904502    -0.3648669092    -0.2393037237
   27      C       7.1552175120     1.1215787136     1.3167368232
   28      C       7.4715511563     0.1207617407     0.4803071945
   29      H      -9.3430968902     0.9203410048    -0.1395142885
   30      H      -8.0125429625     1.6052627941    -2.1121798807
   31      H      -8.2049481761    -0.0621505789     1.8222795182
   32      H      -5.5679692256     1.3413377796    -2.0996499197
   33      H      -5.7626043639    -0.3336640204     1.8288672395
   34      H      -3.7665084822     2.4651462795    -0.7318866626
   35      H       2.9147466866     2.4922101177     0.0553485656
   36      H       6.7739074037    -2.0534266408    -1.5805324960
   37      H       7.8174403521     1.6500195010     1.9831300589
   38      H       8.4689625729    -0.2778345350     0.3814291841
 ----------------------------------------------------------------
 Molecular Point Group                 C1    NOp =  1
 Largest Abelian Subgroup              C1    NOp =  1
 Nuclear Repulsion Energy =  2883.9016822244 hartrees
 There are      111 alpha and      111 beta electrons
 Requested basis set is cc-pVTZ
 There are 348 shells and 996 basis functions

 Total QAlloc Memory Limit   2000 MB
 Mega-Array Size        61 MB
 MEM_STATIC part        62 MB
 A cutoff of  1.0D-11 yielded  28643 shell pairs
 There are    226677 function pairs (    296061 Cartesian)
 
 -------------------------------------------------------
 OpenMP Integral Computing Module                       
 Release: version 1.0, May 2013, Q-Chem Inc. Pittsburgh 
 -------------------------------------------------------
 Integral Job Info:
 Integral job number is                      11
 Integral operator is                         1
 short-range coefficients              22203600
 long-range coefficients              100000000
 Omega coefficients                         200
 if combine SR and LR in K                    1
 Integral screening is                        0
 Integral computing path is                   2
 max size of driver memory is            800000
 size of driver memory is                776718
 size of scratch memory is             26248924
 max col of scratch BK array              10000
 max len of scratch array in speh3          662
 max len of scratch index in speh4           32
 max int batch size is                      520
 min int batch size is                       52
 fixed nKL is                                52
 max L of basis functions is                  3
 order of int derivative is                   0
 number of shells is                        348
 number of basis is                        1146
 number of cartesian basis is              1146
 number of contracted shell pairs         28643
 number of primitive shell pairs          90872
 maxK2 (contraction) of shell pair          121
 max number of K2 of shell pair               1
 max number of CS2 of shell pair           3874
 max number of PS2 of shell pair          11522
 mem total for path MDJ                  790440
 -------------------------------------------------------
 Smallest overlap matrix eigenvalue = 3.11E-05

 Scale SEOQF with 1.000000e-02/1.000000e-01/1.000000e-01

 Standard Electronic Orientation quadrupole field applied
 Nucleus-field energy     =     0.0000000281 hartrees
 Guess from superposition of atomic densities
 Warning:  Energy on first SCF cycle will be non-variational
 Long-range K will be added via erf
 Coulomb attenuation parameter = 0.2 bohr**(-1)
 A restricted hybrid HF-DFT SCF calculation will be
 performed using Pulay DIIS extrapolation
 Exchange:     0.2220 Hartree-Fock + 1.0000 wB97X-D + LR-HF
 Correlation:  1.0000 wB97X-D
 Using SG-2 standard quadrature grid
 Dispersion:   Grimme D
 SCF converges when DIIS error is below 1.0E-08
 using 16 threads for integral computing 
 using 16 threads for integral computing 
 K construction time:  CPU 58.65 s  wall 3.96 s
 -------------------------------------------------------
 OpenMP BLAS3 based DFT computing Module                
 Release: version 1.0, May 2013, Q-Chem Inc. Pittsburgh 
 -------------------------------------------------------
 ---------------------------------------
  Cycle       Energy         DIIS Error
 ---------------------------------------
    1   -2589.7947602811      1.84E-02
 K construction time:  CPU 912.43 s  wall 59.78 s
    2   -2579.5998299067      1.38E-03
 K construction time:  CPU 869.87 s  wall 57.10 s
    3   -2579.6010431551      1.49E-03
 K construction time:  CPU 836.11 s  wall 54.99 s
    4   -2579.8463134818      2.73E-04
 K construction time:  CPU 776.68 s  wall 51.02 s
    5   -2579.8529728546      1.56E-04
 K construction time:  CPU 733.78 s  wall 48.14 s
    6   -2579.8556268863      5.01E-05
 K construction time:  CPU 684.72 s  wall 44.84 s
    7   -2579.8559096790      1.98E-05
 K construction time:  CPU 648.20 s  wall 42.44 s
    8   -2579.8559682756      6.16E-06
 K construction time:  CPU 614.27 s  wall 40.25 s
    9   -2579.8559794343      3.48E-06
 K construction time:  CPU 588.57 s  wall 38.69 s
   10   -2579.8559831102      1.11E-06
 K construction time:  CPU 522.64 s  wall 34.29 s
   11   -2579.8559835082      6.87E-07
 K construction time:  CPU 486.32 s  wall 31.85 s
   12   -2579.8559836332      1.95E-07
 K construction time:  CPU 426.86 s  wall 28.01 s
   13   -2579.8559836462      1.05E-07
 K construction time:  CPU 373.67 s  wall 24.41 s
   14   -2579.8559836507      3.32E-08
 K construction time:  CPU 328.13 s  wall 21.35 s
   15   -2579.8559836517      1.38E-08
 K construction time:  CPU 903.99 s  wall 59.43 s
   16   -2579.8559836451      4.14E-09 Convergence criterion met
 ---------------------------------------
 SCF time:  CPU 13203.29 s  wall 889.95 s
 SCF   energy in the final basis set = -2579.8559836451
 Total energy in the final basis set = -2579.8559836451
 
 --------------------------------------------------------------
 
                    Orbital Energies (a.u.)
 --------------------------------------------------------------
 
 Alpha MOs
 -- Occupied --
-89.155 -89.090 -89.088 -89.078 -14.494 -14.488 -14.450 -14.443
-10.364 -10.363 -10.361 -10.361 -10.342 -10.342 -10.334 -10.332
-10.330 -10.326 -10.325 -10.322 -10.313 -10.312 -10.305 -10.298
-10.297 -10.296 -10.296 -10.295  -8.166  -8.105  -8.103  -8.092
 -6.116  -6.110  -6.109  -6.054  -6.052  -6.050  -6.049  -6.048
 -6.046  -6.042  -6.038  -6.034  -1.152  -1.086  -1.061  -1.023
 -1.017  -0.976  -0.958  -0.926  -0.917  -0.905  -0.876  -0.860
 -0.856  -0.833  -0.828  -0.801  -0.777  -0.746  -0.737  -0.713
 -0.707  -0.695  -0.691  -0.660  -0.653  -0.637  -0.629  -0.616
 -0.606  -0.598  -0.576  -0.565  -0.560  -0.548  -0.542  -0.531
 -0.529  -0.526  -0.515  -0.514  -0.511  -0.502  -0.497  -0.486
 -0.480  -0.475  -0.470  -0.458  -0.450  -0.441  -0.437  -0.435
 -0.432  -0.424  -0.423  -0.406  -0.392  -0.373  -0.364  -0.363
 -0.359  -0.355  -0.340  -0.338  -0.324  -0.308  -0.273
 -- Virtual --
 -0.050   0.000   0.025   0.044   0.051   0.053   0.066   0.069
  0.078   0.088   0.103   0.107   0.118   0.121   0.130   0.136
  0.142   0.144   0.149   0.155   0.162   0.164   0.170   0.178
  0.188   0.192   0.194   0.201   0.213   0.224   0.232   0.236
  0.246   0.251   0.263   0.266   0.271   0.282   0.284   0.291
  0.295   0.299   0.305   0.305   0.311   0.313   0.319   0.326
  0.330   0.330   0.333   0.336   0.344   0.345   0.349   0.354
  0.360   0.361   0.369   0.375   0.379   0.381   0.383   0.388
  0.389   0.393   0.394   0.399   0.403   0.404   0.406   0.410
  0.414   0.421   0.424   0.427   0.430   0.431   0.436   0.440
  0.442   0.445   0.447   0.451   0.458   0.461   0.464   0.467
  0.469   0.469   0.474   0.476   0.478   0.480   0.480   0.486
  0.489   0.496   0.499   0.502   0.504   0.508   0.511   0.517
  0.521   0.522   0.524   0.531   0.536   0.538   0.543   0.549
  0.552   0.562   0.564   0.565   0.566   0.570   0.573   0.580
  0.584   0.589   0.594   0.608   0.611   0.614   0.623   0.624
  0.630   0.633   0.637   0.644   0.651   0.653   0.663   0.664
  0.669   0.672   0.678   0.683   0.692   0.694   0.701   0.707
  0.719   0.721   0.723   0.728   0.733   0.736   0.742   0.746
  0.747   0.758   0.764   0.767   0.771   0.772   0.779   0.782
  0.790   0.794   0.800   0.802   0.804   0.809   0.810   0.823
  0.826   0.830   0.838   0.840   0.841   0.844   0.849   0.860
  0.863   0.866   0.872   0.877   0.881   0.884   0.892   0.895
  0.901   0.906   0.916   0.921   0.922   0.924   0.930   0.938
  0.941   0.944   0.949   0.954   0.955   0.961   0.963   0.966
  0.976   0.984   0.985   0.987   0.996   1.006   1.009   1.016
  1.028   1.031   1.037   1.040   1.043   1.048   1.055   1.059
  1.064   1.070   1.075   1.081   1.089   1.090   1.095   1.105
  1.110   1.115   1.119   1.121   1.132   1.141   1.149   1.151
  1.159   1.165   1.166   1.173   1.175   1.192   1.195   1.202
  1.207   1.211   1.222   1.228   1.233   1.237   1.243   1.254
  1.256   1.261   1.270   1.273   1.277   1.282   1.295   1.303
  1.307   1.316   1.322   1.330   1.342   1.351   1.355   1.360
  1.363   1.366   1.370   1.381   1.387   1.394   1.408   1.414
  1.415   1.418   1.422   1.434   1.438   1.442   1.447   1.452
  1.454   1.462   1.469   1.480   1.482   1.484   1.486   1.487
  1.493   1.506   1.513   1.515   1.522   1.538   1.546   1.549
  1.552   1.562   1.571   1.575   1.583   1.595   1.598   1.607
  1.607   1.612   1.619   1.627   1.639   1.643   1.647   1.653
  1.655   1.659   1.667   1.670   1.676   1.680   1.691   1.694
  1.704   1.708   1.711   1.713   1.721   1.726   1.742   1.747
  1.756   1.758   1.766   1.767   1.775   1.790   1.796   1.806
  1.821   1.828   1.834   1.842   1.846   1.855   1.873   1.883
  1.887   1.892   1.902   1.909   1.924   1.926   1.933   1.947
  1.952   1.958   1.964   1.968   1.979   1.980   2.000   2.005
  2.010   2.021   2.025   2.035   2.035   2.040   2.050   2.060
  2.064   2.080   2.086   2.091   2.098   2.104   2.110   2.118
  2.125   2.142   2.150   2.163   2.166   2.171   2.183   2.185
  2.190   2.198   2.205   2.211   2.215   2.234   2.241   2.247
  2.253   2.257   2.263   2.264   2.273   2.280   2.287   2.301
  2.307   2.313   2.330   2.332   2.335   2.347   2.352   2.356
  2.361   2.368   2.380   2.392   2.398   2.410   2.417   2.419
  2.429   2.436   2.443   2.455   2.457   2.467   2.470   2.479
  2.485   2.487   2.492   2.498   2.501   2.502   2.507   2.528
  2.534   2.539   2.542   2.550   2.553   2.563   2.574   2.577
  2.582   2.591   2.594   2.606   2.610   2.612   2.622   2.632
  2.639   2.652   2.663   2.670   2.671   2.680   2.688   2.706
  2.711   2.715   2.731   2.734   2.746   2.754   2.761   2.766
  2.770   2.775   2.780   2.781   2.786   2.798   2.800   2.807
  2.814   2.819   2.825   2.827   2.833   2.840   2.843   2.854
  2.861   2.867   2.880   2.892   2.894   2.902   2.907   2.912
  2.925   2.931   2.940   2.950   2.954   2.959   2.966   2.973
  2.975   2.985   2.994   2.996   3.001   3.003   3.006   3.012
  3.015   3.024   3.027   3.035   3.041   3.052   3.053   3.058
  3.062   3.069   3.074   3.081   3.084   3.089   3.089   3.101
  3.104   3.106   3.110   3.112   3.120   3.123   3.128   3.131
  3.142   3.144   3.150   3.154   3.158   3.159   3.167   3.167
  3.172   3.179   3.183   3.186   3.189   3.196   3.201   3.204
  3.212   3.215   3.217   3.221   3.230   3.232   3.235   3.238
  3.249   3.254   3.261   3.265   3.269   3.276   3.279   3.284
  3.284   3.291   3.295   3.297   3.301   3.305   3.317   3.321
  3.324   3.328   3.337   3.338   3.346   3.347   3.351   3.354
  3.364   3.369   3.374   3.383   3.391   3.397   3.406   3.409
  3.421   3.424   3.427   3.436   3.445   3.449   3.458   3.458
  3.463   3.466   3.470   3.473   3.475   3.480   3.486   3.491
  3.495   3.501   3.506   3.511   3.525   3.531   3.543   3.548
  3.551   3.555   3.559   3.569   3.575   3.581   3.583   3.599
  3.599   3.606   3.620   3.626   3.635   3.638   3.667   3.674
  3.679   3.694   3.699   3.709   3.714   3.721   3.724   3.732
  3.739   3.751   3.763   3.766   3.773   3.780   3.784   3.788
  3.796   3.800   3.824   3.833   3.837   3.842   3.852   3.853
  3.857   3.860   3.862   3.866   3.871   3.880   3.880   3.889
  3.893   3.897   3.911   3.920   3.935   3.937   3.939   3.944
  3.953   3.965   3.966   3.974   3.979   3.982   3.987   3.992
  3.996   4.000   4.007   4.023   4.029   4.035   4.055   4.064
  4.073   4.080   4.089   4.090   4.101   4.128   4.132   4.138
  4.144   4.154   4.156   4.163   4.166   4.172   4.177   4.188
  4.191   4.201   4.215   4.223   4.232   4.239   4.249   4.252
  4.266   4.272   4.276   4.288   4.299   4.316   4.320   4.329
  4.331   4.341   4.347   4.356   4.361   4.369   4.378   4.386
  4.390   4.393   4.401   4.411   4.424   4.425   4.434   4.441
  4.444   4.450   4.456   4.466   4.476   4.495   4.508   4.512
  4.529   4.535   4.551   4.560   4.570   4.579   4.590   4.595
  4.604   4.614   4.622   4.627   4.641   4.659   4.666   4.678
  4.688   4.700   4.718   4.734   4.743   4.761   4.773   4.777
  4.790   4.805   4.821   4.824   4.833   4.843   4.846   4.855
  4.858   4.863   4.882   4.887   4.907   4.911   4.925   4.929
  4.937   4.951   4.953   4.965   4.987   4.990   4.997   5.022
  5.030   5.040   5.050   5.055   5.061   5.069   5.081   5.087
  5.090   5.110   5.114   5.116   5.122   5.136   5.152   5.172
  5.181   5.194   5.219   5.243   5.248   5.259   5.266   5.272
  5.273   5.277   5.324   5.336   5.338   5.363   5.375   5.388
  5.413   5.419   5.455   5.463   5.481   5.497   5.508   5.528
  5.550   5.584   5.597   5.625   5.659   5.666   5.684   5.688
  5.706   5.716   5.769   5.779   5.796   5.818   5.821   5.843
  5.892   5.922   5.985   6.015   6.031   6.038   6.052   6.073
  6.127   6.152   6.157   6.190   6.209   6.232   6.250   6.294
  6.365   6.446   6.514   6.853   6.974   8.060   8.539   9.406
  9.993  10.556  11.071  11.139  11.687  12.001  12.243  12.716
 12.766  12.845  12.897  12.973  13.174  13.389  13.456  13.503
 13.807  13.943  14.114  14.665  15.705
 --------------------------------------------------------------
 
          Ground-State Mulliken Net Atomic Charges

     Atom                 Charge (a.u.)
  ----------------------------------------
      1 C                    -0.124783
      2 C                    -0.108027
      3 C                    -0.109068
      4 C                    -0.155977
      5 C                    -0.121116
      6 C                     0.118808
      7 C                     0.013646
      8 C                    -0.104283
      9 C                     0.036427
     10 N                    -0.120486
     11 N                    -0.275721
     12 C                     0.009191
     13 C                     0.045162
     14 S                     0.414714
     15 N                    -0.273641
     16 C                     0.017909
     17 N                    -0.133554
     18 S                     0.111670
     19 C                    -0.142668
     20 C                    -0.019565
     21 C                     0.008900
     22 S                     0.130024
     23 C                    -0.051319
     24 C                    -0.222229
     25 S                     0.056095
     26 C                     0.043671
     27 C                    -0.144808
     28 C                    -0.173178
     29 H                     0.118952
     30 H                     0.115473
     31 H                     0.116184
     32 H                     0.131461
     33 H                     0.114483
     34 H                     0.138627
     35 H                     0.148250
     36 H                     0.130735
     37 H                     0.132482
     38 H                     0.127561
  ----------------------------------------
  Sum of atomic charges =     0.000000

 -----------------------------------------------------------------
                    Cartesian Multipole Moments
 -----------------------------------------------------------------
    Charge (ESU x 10^10)
                 0.0000
    Dipole Moment (Debye)
         X       0.6061      Y      -2.1280      Z       0.1448
       Tot       2.2173
    Quadrupole Moments (Debye-Ang)
        XX    -138.7284     XY      -4.6543     YY    -186.5173
        XZ       1.3253     YZ       0.2792     ZZ    -181.3030
    Octopole Moments (Debye-Ang^2)
       XXX     117.0306    XXY      20.4655    XYY      21.0962
       YYY     -44.5209    XXZ      20.8886    XYZ      52.2136
       YYZ       0.9939    XZZ     -17.7263    YZZ      -4.1796
       ZZZ       6.6041
    Hexadecapole Moments (Debye-Ang^3)
      XXXX  -20918.6968   XXXY    -420.0409   XXYY   -4484.0046
      XYYY      76.8862   YYYY   -2081.4099   XXXZ     221.9583
      XXYZ      72.2854   XYYZ      10.5148   YYYZ      -9.8237
      XXZZ   -4118.3105   XYZZ       8.9179   YYZZ    -496.5050
      XZZZ      10.8316   YZZZ      -6.9993   ZZZZ   -1016.5084
 -----------------------------------------------------------------
 Calculating analytic gradient of the SCF energy
 K construction time:  CPU 2103.28 s  wall 133.23 s
 Gradient of SCF Energy
            1           2           3           4           5           6
    1  -0.0006006   0.0009756   0.0006253  -0.0006196  -0.0008618   0.0003084
    2  -0.0001967  -0.0004800   0.0001957   0.0001231   0.0003466   0.0004071
    3   0.0003152   0.0005814  -0.0004901   0.0000576  -0.0004343  -0.0001954
            7           8           9          10          11          12
    1   0.0011606   0.0002483   0.0001893  -0.0006135  -0.0029051   0.0021368
    2  -0.0003555   0.0019235  -0.0017915   0.0000908   0.0008774  -0.0018615
    3   0.0002063  -0.0019421   0.0002386   0.0004320  -0.0005221   0.0012672
           13          14          15          16          17          18
    1   0.0065271   0.0014825   0.0004447  -0.0042704   0.0023814  -0.0058196
    2  -0.0112319   0.0029499  -0.0013741   0.0133937  -0.0007057  -0.0042885
    3   0.0012421  -0.0007803   0.0001971  -0.0010708   0.0003686  -0.0022919
           19          20          21          22          23          24
    1   0.0008159  -0.0008598   0.0002771  -0.0004227  -0.0002306  -0.0000864
    2   0.0015986   0.0007087   0.0006249  -0.0005415  -0.0005788  -0.0008281
    3   0.0005869   0.0014797   0.0015304  -0.0008374  -0.0008307  -0.0009369
           25          26          27          28          29          30
    1  -0.0003791   0.0000256   0.0011573  -0.0006290   0.0001889  -0.0000588
    2   0.0008641   0.0003942  -0.0003089   0.0001812   0.0003807   0.0002441
    3   0.0007079   0.0007137  -0.0007512  -0.0008810   0.0000852  -0.0005327
           31          32          33          34          35          36
    1  -0.0003406   0.0001021   0.0001507  -0.0005314   0.0004759   0.0000742
    2   0.0002138  -0.0005481  -0.0003484  -0.0003504  -0.0000452   0.0004123
    3   0.0004997  -0.0002375   0.0004363   0.0006340  -0.0005972   0.0005532
           37          38
    1  -0.0004539  -0.0000649
    2  -0.0002959   0.0002003
    3   0.0007497   0.0004488
 Max gradient component =       1.339E-02
 RMS gradient           =       2.108E-03
 Gradient time:  CPU 2489.33 s  wall 159.52 s
 Geometry Optimization Parameters
   NAtoms,    NIC,     NZ,  NCons,   NDum,   NFix, NCnnct, MaxDiis
       38     289       0       3       0       0       0       0


** CONSTRAINED OPTIMIZATION IN DELOCALIZED INTERNAL COORDINATES **
   Searching for a Minimum

   Optimization Cycle:   1

                       Coordinates (Angstroms)
     ATOM                X               Y               Z
      1  C        -8.2690353902    0.7962548847   -0.1406561833
      2  C        -7.5237698617    1.1874646997   -1.2417930743
      3  C        -7.6288362300    0.2449191893    0.9591539207
      4  C        -6.1466205523    1.0484615548   -1.2333388130
      5  C        -6.2528527179    0.0954438487    0.9656034047
      6  C        -5.4933665568    0.5132508857   -0.1255470860
      7  C        -4.0187110330    0.4585807447   -0.1020838803
      8  C        -3.2667354973    1.5460593899   -0.4535109677
      9  C        -3.2738201711   -0.6896944025    0.2848821067
     10  N        -1.9134383370    1.6020353953   -0.4638750893
     11  N        -3.7619989930   -1.8706241154    0.6704191094
     12  C        -1.8418994263   -0.6475704293    0.2721353920
     13  C        -1.1944275448    0.5676463159   -0.1234184009
     14  S        -2.4834063771   -2.7996761008    0.9806384993
     15  N        -1.2771042945   -1.7943841805    0.6511497173
     16  C         0.2575347208    0.7433919204   -0.1598880682
     17  N         0.9040702131    1.8478257130    0.0453143552
     18  S         1.2616495071   -0.6343251956   -0.5055603888
     19  C         2.2424914185    1.6564250795   -0.0713758190
     20  C         2.6476175168    0.3843081138   -0.3712917143
     21  C         4.0036551445   -0.1001985291   -0.5098070356
     22  S         4.4212335340   -1.4077476941   -1.5660512964
     23  C         5.1365927499    0.3450933689    0.1137404677
     24  C         6.0778566866   -1.3558901672   -1.1490398169
     25  S         5.4626932561    1.5748907738    1.3061371655
     26  C         6.3220904502   -0.3648669092   -0.2393037237
     27  C         7.1552175120    1.1215787136    1.3167368232
     28  C         7.4715511563    0.1207617407    0.4803071945
     29  H        -9.3430968902    0.9203410048   -0.1395142885
     30  H        -8.0125429625    1.6052627941   -2.1121798807
     31  H        -8.2049481761   -0.0621505789    1.8222795182
     32  H        -5.5679692256    1.3413377796   -2.0996499197
     33  H        -5.7626043639   -0.3336640204    1.8288672395
     34  H        -3.7665084822    2.4651462795   -0.7318866626
     35  H         2.9147466866    2.4922101177    0.0553485656
     36  H         6.7739074037   -2.0534266408   -1.5805324960
     37  H         7.8174403521    1.6500195010    1.9831300589
     38  H         8.4689625729   -0.2778345350    0.3814291841
   Point Group: c1    Number of degrees of freedom:   108


   Energy is  -2579.855983645

              Constraints and their Current Values
                                        Value     Constraint
   Dihedral:        4   6   7   8       47.013       47.062
   Dihedral:       10  13  16  18     -150.000     -150.000
   Dihedral:       18  20  21  22       32.692       32.716

 Attempting to Generate Delocalized Internal Coordinates

   Using Lagrange Multiplier Algorithm


111 Hessian modes will be used to form the next step
  Hessian Eigenvalues:
    -0.977753   -0.977753   -0.977753    0.045000    0.045000    0.045000
     0.045000    0.045000    0.045000    0.045000    0.045000    0.045000
     0.045000    0.045000    0.045000    0.045001    0.045001    0.045001
     0.045001    0.045001    0.045002    0.045002    0.045003    0.045003
     0.045004    0.045005    0.045005    0.045007    0.045008    0.045008
     0.045012    0.045021    0.045031    0.045040    0.045052    0.159964
     0.159978    0.159978    0.159981    0.159982    0.159991    0.159991
     0.159994    0.160000    0.160000    0.219984    0.219994    0.225219
     0.233057    0.234605    0.234757    0.237025    0.247518    0.249693
     0.249750    0.249778    0.249982    0.249986    0.249988    0.249992
     0.249995    0.249997    0.249999    0.249999    0.250000    0.296265
     0.304576    0.308354    0.315689    0.324175    0.337612    0.350485
     0.356840    0.357284    0.357325    0.357370    0.358104    0.358490
     0.359875    0.361580    0.362492    0.365132    0.365895    0.369132
     0.381389    0.386883    0.389564    0.393560    0.413656    0.429805
     0.432305    0.470765    0.472706    0.474104    0.479076    0.480434
     0.482725    0.483543    0.486796    0.496421    0.509544    0.519715
     0.527463    0.543236    0.556243    0.579533    0.638655    0.653862
     1.022753    1.022753    1.022753

 Minimum Search - Taking P-RFO Step
 Searching for Lamda that Maximizes Along the Constraint modes Only
 Value Taken    Lamda =   0.00000501
 Searching for Lamda that Minimizes Along All other modes
 Value Taken    Lamda =  -0.00235524
 Step Taken.  Stepsize is  0.135393

                             Maximum     Tolerance    Cnvgd?
         Gradient            0.008916       0.000300      NO
         Displacement        0.049072       0.001200      NO
         Energy change     *********       0.000001      NO


 New Cartesian Coordinates Obtained by Inverse Iteration

 Displacement from previous Coordinates is:  0.846447
 ----------------------------------------------------------------
             Standard Nuclear Orientation (Angstroms)
    I     Atom           X                Y                Z
 ----------------------------------------------------------------
    1      C      -8.2875066950     0.8040896897    -0.1845088606
    2      C      -7.5289284087     1.2247348033    -1.2652917901
    3      C      -7.6605502137     0.2393846180     0.9162745957
    4      C      -6.1502724805     1.0955600416    -1.2377631534
    5      C      -6.2833002528     0.1044452932     0.9434983986
    6      C      -5.5109722447     0.5454203912    -0.1287579308
    7      C      -4.0374846311     0.4769787941    -0.0878341153
    8      C      -3.2564842575     1.5521530345    -0.4165372356
    9      C      -3.3181897111    -0.6853965815     0.3008471997
   10      N      -1.9003355132     1.5828626981    -0.4189725683
   11      N      -3.8256645611    -1.8634806698     0.6742278314
   12      C      -1.8887592473    -0.6670953916     0.3055937092
   13      C      -1.2067204397     0.5324849365    -0.0760024294
   14      S      -2.5726268620    -2.8220644549     0.9949180073
   15      N      -1.3508571035    -1.8270107621     0.6854523371
   16      C       0.2607289000     0.6540166097    -0.0907511657
   17      N       0.8994716399     1.7639177226     0.1054774531
   18      S       1.2957355967    -0.7083704631    -0.4187868610
   19      C       2.2399776427     1.5921327132    -0.0204983655
   20      C       2.6683384991     0.3289336496    -0.3223921250
   21      C       4.0315303331    -0.1315284568    -0.4819673891
   22      S       4.4546540196    -1.4400028959    -1.5326717474
   23      C       5.1697898170     0.3441902867     0.1106846004
   24      C       6.1184763503    -1.3499241164    -1.1548164140
   25      S       5.4991637533     1.5970702896     1.2759899982
   26      C       6.3626880161    -0.3436417347    -0.2630911048
   27      C       7.2014238397     1.1851151219     1.2479542248
   28      C       7.5192960072     0.1771014038     0.4204563272
   29      H      -9.3633188046     0.9128904152    -0.2004233352
   30      H      -8.0087448695     1.6527699562    -2.1346753717
   31      H      -8.2472554541    -0.0937119586     1.7614765085
   32      H      -5.5609197170     1.4091196825    -2.0893101603
   33      H      -5.8030184659    -0.3390977917     1.8040521050
   34      H      -3.7304662654     2.4832193658    -0.7013649853
   35      H       2.8953317702     2.4418649533     0.0994626720
   36      H       6.8170452139    -2.0377340682    -1.5992387531
   37      H       7.8715717903     1.7444311466     1.8802610103
   38      H       8.5227708069    -0.1991719614     0.2959970008
 ----------------------------------------------------------------
 Molecular Point Group                 C1    NOp =  1
 Largest Abelian Subgroup              C1    NOp =  1
 Nuclear Repulsion Energy =  2877.5515180170 hartrees
 There are      111 alpha and      111 beta electrons
 Applying Cartesian multipole field
    Component          Value
    ---------          -----
     (2,0,0)        1.00000E-12
     (0,2,0)        2.00000E-11
     (0,0,2)       -3.00000E-11
 Nucleus-field energy     =     0.0000000293 hartrees
 Requested basis set is cc-pVTZ
 There are 348 shells and 996 basis functions
 A cutoff of  1.0D-11 yielded  28566 shell pairs
 There are    226018 function pairs (    295206 Cartesian)
 Smallest overlap matrix eigenvalue = 3.11E-05
 Guess MOs from SCF MO coefficient file
 Reading MOs from coefficient file
 Reading MOs from coefficient file
 Long-range K will be added via erf
 Coulomb attenuation parameter = 0.2 bohr**(-1)
 A restricted hybrid HF-DFT SCF calculation will be
 performed using Pulay DIIS extrapolation
 Exchange:     0.2220 Hartree-Fock + 1.0000 wB97X-D + LR-HF
 Correlation:  1.0000 wB97X-D
 Using SG-2 standard quadrature grid
 Dispersion:   Grimme D
 SCF converges when DIIS error is below 1.0E-08
 Geometry optimization detected.  Setting ReadMinima to 0
 Setting SaveMinima to 0
 using 16 threads for integral computing 
 using 16 threads for integral computing 
 K construction time:  CPU 905.23 s  wall 59.27 s
 -------------------------------------------------------
 OpenMP BLAS3 based DFT computing Module                
 Release: version 1.0, May 2013, Q-Chem Inc. Pittsburgh 
 -------------------------------------------------------
 ---------------------------------------
  Cycle       Energy         DIIS Error
 ---------------------------------------
    1   -2579.8462030643      4.19E-04
 K construction time:  CPU 899.91 s  wall 59.04 s
    2   -2579.8567863665      4.42E-05
 K construction time:  CPU 697.54 s  wall 45.88 s
    3   -2579.8571110327      4.05E-05
 K construction time:  CPU 658.97 s  wall 43.23 s
    4   -2579.8572788769      1.62E-05
 K construction time:  CPU 620.45 s  wall 40.80 s
    5   -2579.8573126226      7.48E-06
 K construction time:  CPU 574.89 s  wall 37.75 s
    6   -2579.8573200867      2.28E-06
 K construction time:  CPU 524.47 s  wall 34.36 s
    7   -2579.8573208974      7.12E-07
 K construction time:  CPU 477.45 s  wall 31.30 s
    8   -2579.8573210093      3.36E-07
 K construction time:  CPU 436.57 s  wall 28.50 s
    9   -2579.8573210329      1.23E-07
 K construction time:  CPU 382.58 s  wall 24.90 s
   10   -2579.8573210367      5.31E-08
 K construction time:  CPU 343.83 s  wall 22.39 s
   11   -2579.8573210375      2.55E-08
 K construction time:  CPU 303.12 s  wall 19.77 s
   12   -2579.8573210381      8.60E-09 Convergence criterion met
 ---------------------------------------
 SCF time:  CPU 9328.22 s  wall 628.00 s
 SCF   energy in the final basis set = -2579.8573210381
 Total energy in the final basis set = -2579.8573210381
 
 --------------------------------------------------------------
 
                    Orbital Energies (a.u.)
 --------------------------------------------------------------
 
 Alpha MOs
 -- Occupied --
-89.155 -89.091 -89.089 -89.078 -14.492 -14.487 -14.450 -14.442
-10.364 -10.363 -10.360 -10.359 -10.343 -10.342 -10.334 -10.333
-10.330 -10.327 -10.325 -10.322 -10.313 -10.312 -10.305 -10.298
-10.296 -10.296 -10.295 -10.295  -8.165  -8.105  -8.104  -8.093
 -6.115  -6.110  -6.109  -6.055  -6.053  -6.051  -6.049  -6.048
 -6.047  -6.043  -6.039  -6.035  -1.151  -1.086  -1.061  -1.023
 -1.015  -0.975  -0.958  -0.926  -0.918  -0.903  -0.876  -0.860
 -0.856  -0.834  -0.828  -0.802  -0.776  -0.745  -0.736  -0.713
 -0.707  -0.693  -0.691  -0.660  -0.653  -0.637  -0.628  -0.616
 -0.607  -0.598  -0.576  -0.565  -0.561  -0.548  -0.541  -0.531
 -0.528  -0.526  -0.516  -0.514  -0.510  -0.502  -0.498  -0.486
 -0.480  -0.476  -0.470  -0.457  -0.450  -0.440  -0.437  -0.435
 -0.431  -0.424  -0.422  -0.403  -0.392  -0.373  -0.363  -0.363
 -0.358  -0.355  -0.340  -0.338  -0.324  -0.308  -0.274
 -- Virtual --
 -0.050   0.000   0.026   0.043   0.052   0.054   0.066   0.070
  0.076   0.088   0.104   0.107   0.118   0.120   0.130   0.136
  0.141   0.144   0.149   0.155   0.161   0.164   0.171   0.178
  0.188   0.192   0.194   0.199   0.214   0.224   0.233   0.237
  0.244   0.251   0.263   0.266   0.271   0.282   0.283   0.291
  0.296   0.299   0.304   0.305   0.311   0.313   0.319   0.327
  0.330   0.330   0.333   0.336   0.345   0.346   0.349   0.354
  0.360   0.361   0.369   0.375   0.379   0.382   0.383   0.387
  0.389   0.392   0.394   0.399   0.403   0.404   0.406   0.410
  0.414   0.421   0.424   0.425   0.430   0.431   0.436   0.440
  0.442   0.444   0.448   0.451   0.458   0.462   0.464   0.468
  0.468   0.469   0.475   0.476   0.478   0.479   0.480   0.486
  0.489   0.496   0.498   0.501   0.504   0.507   0.511   0.517
  0.521   0.523   0.524   0.532   0.535   0.539   0.543   0.549
  0.553   0.562   0.564   0.565   0.566   0.570   0.571   0.580
  0.584   0.589   0.595   0.607   0.610   0.615   0.623   0.625
  0.630   0.633   0.637   0.644   0.650   0.653   0.662   0.665
  0.668   0.672   0.678   0.682   0.691   0.695   0.701   0.707
  0.718   0.720   0.722   0.728   0.733   0.737   0.740   0.746
  0.747   0.757   0.763   0.767   0.770   0.772   0.779   0.783
  0.789   0.794   0.799   0.802   0.803   0.810   0.811   0.823
  0.826   0.831   0.838   0.839   0.841   0.845   0.849   0.859
  0.863   0.866   0.874   0.878   0.879   0.884   0.892   0.895
  0.901   0.905   0.917   0.920   0.923   0.924   0.930   0.937
  0.942   0.944   0.949   0.954   0.956   0.961   0.964   0.966
  0.976   0.983   0.985   0.987   0.997   1.005   1.011   1.016
  1.029   1.031   1.038   1.041   1.044   1.048   1.055   1.059
  1.064   1.070   1.073   1.081   1.087   1.093   1.095   1.105
  1.109   1.115   1.119   1.120   1.132   1.142   1.149   1.150
  1.160   1.165   1.165   1.171   1.174   1.192   1.196   1.202
  1.206   1.212   1.222   1.226   1.231   1.236   1.242   1.252
  1.254   1.261   1.270   1.273   1.277   1.281   1.295   1.304
  1.309   1.317   1.321   1.330   1.343   1.351   1.353   1.360
  1.364   1.366   1.370   1.383   1.386   1.395   1.408   1.414
  1.415   1.418   1.423   1.434   1.438   1.442   1.447   1.453
  1.454   1.464   1.468   1.480   1.482   1.485   1.486   1.487
  1.492   1.505   1.510   1.514   1.521   1.537   1.546   1.546
  1.551   1.562   1.570   1.574   1.582   1.591   1.600   1.607
  1.608   1.613   1.619   1.628   1.637   1.643   1.647   1.652
  1.656   1.659   1.666   1.667   1.675   1.680   1.689   1.694
  1.702   1.704   1.710   1.712   1.717   1.726   1.740   1.747
  1.754   1.757   1.764   1.767   1.775   1.791   1.798   1.802
  1.820   1.827   1.833   1.840   1.847   1.856   1.874   1.882
  1.887   1.892   1.901   1.909   1.924   1.926   1.932   1.944
  1.948   1.959   1.964   1.967   1.979   1.980   1.999   2.006
  2.010   2.020   2.023   2.033   2.035   2.036   2.050   2.060
  2.064   2.078   2.087   2.091   2.098   2.104   2.110   2.118
  2.127   2.141   2.150   2.163   2.166   2.170   2.182   2.183
  2.191   2.200   2.204   2.212   2.217   2.234   2.240   2.247
  2.253   2.256   2.264   2.266   2.273   2.279   2.288   2.303
  2.308   2.312   2.328   2.331   2.340   2.349   2.353   2.356
  2.362   2.366   2.379   2.393   2.399   2.412   2.416   2.420
  2.434   2.436   2.443   2.454   2.457   2.466   2.470   2.479
  2.483   2.486   2.490   2.497   2.500   2.504   2.506   2.528
  2.534   2.535   2.544   2.552   2.553   2.563   2.574   2.575
  2.583   2.591   2.593   2.607   2.609   2.611   2.620   2.633
  2.639   2.651   2.663   2.670   2.670   2.677   2.687   2.705
  2.710   2.715   2.728   2.732   2.746   2.754   2.760   2.766
  2.773   2.776   2.778   2.781   2.786   2.796   2.801   2.806
  2.815   2.819   2.825   2.827   2.832   2.842   2.842   2.852
  2.857   2.869   2.880   2.892   2.894   2.903   2.907   2.912
  2.919   2.932   2.940   2.949   2.953   2.958   2.966   2.970
  2.977   2.984   2.994   2.995   3.000   3.002   3.009   3.011
  3.015   3.023   3.026   3.033   3.039   3.050   3.053   3.058
  3.061   3.070   3.073   3.079   3.081   3.088   3.089   3.101
  3.102   3.105   3.109   3.112   3.120   3.123   3.127   3.130
  3.143   3.144   3.150   3.154   3.157   3.160   3.165   3.168
  3.172   3.178   3.183   3.186   3.190   3.195   3.200   3.205
  3.212   3.214   3.215   3.221   3.228   3.232   3.234   3.239
  3.248   3.253   3.259   3.264   3.269   3.276   3.280   3.283
  3.284   3.290   3.294   3.297   3.302   3.305   3.317   3.321
  3.323   3.327   3.336   3.340   3.344   3.347   3.349   3.356
  3.363   3.368   3.376   3.383   3.388   3.399   3.404   3.410
  3.422   3.425   3.428   3.434   3.446   3.447   3.457   3.458
  3.461   3.465   3.469   3.473   3.475   3.480   3.486   3.492
  3.496   3.500   3.507   3.510   3.524   3.533   3.543   3.547
  3.549   3.554   3.557   3.569   3.575   3.580   3.584   3.598
  3.601   3.606   3.618   3.627   3.634   3.639   3.666   3.674
  3.677   3.693   3.699   3.711   3.713   3.722   3.726   3.733
  3.739   3.753   3.761   3.766   3.771   3.780   3.782   3.786
  3.795   3.802   3.823   3.830   3.838   3.839   3.850   3.853
  3.856   3.860   3.862   3.865   3.869   3.879   3.880   3.889
  3.893   3.896   3.911   3.920   3.935   3.937   3.938   3.945
  3.953   3.963   3.967   3.973   3.979   3.980   3.984   3.989
  3.995   3.996   4.008   4.022   4.031   4.035   4.055   4.063
  4.072   4.080   4.088   4.089   4.101   4.126   4.129   4.137
  4.142   4.154   4.155   4.164   4.165   4.171   4.172   4.185
  4.192   4.203   4.212   4.223   4.232   4.239   4.249   4.251
  4.265   4.272   4.277   4.288   4.298   4.317   4.320   4.328
  4.332   4.340   4.347   4.354   4.360   4.368   4.379   4.386
  4.390   4.395   4.400   4.409   4.423   4.426   4.432   4.440
  4.445   4.450   4.456   4.468   4.476   4.496   4.508   4.512
  4.528   4.532   4.551   4.559   4.568   4.577   4.592   4.598
  4.603   4.610   4.621   4.629   4.640   4.657   4.666   4.679
  4.689   4.703   4.719   4.735   4.744   4.758   4.775   4.779
  4.789   4.804   4.821   4.825   4.832   4.844   4.845   4.855
  4.857   4.865   4.879   4.885   4.907   4.912   4.920   4.930
  4.936   4.950   4.953   4.964   4.987   4.993   4.995   5.022
  5.029   5.039   5.046   5.055   5.065   5.069   5.084   5.088
  5.090   5.110   5.113   5.116   5.122   5.136   5.153   5.174
  5.181   5.193   5.219   5.244   5.247   5.257   5.263   5.270
  5.272   5.278   5.320   5.334   5.342   5.365   5.375   5.388
  5.408   5.417   5.455   5.462   5.479   5.496   5.506   5.527
  5.550   5.583   5.595   5.625   5.658   5.667   5.684   5.689
  5.707   5.715   5.770   5.779   5.797   5.819   5.823   5.843
  5.891   5.931   5.982   6.013   6.028   6.036   6.048   6.072
  6.127   6.151   6.157   6.191   6.209   6.233   6.249   6.293
  6.362   6.441   6.516   6.850   6.976   8.022   8.532   9.403
  9.974  10.530  11.073  11.138  11.673  11.993  12.239  12.714
 12.764  12.841  12.890  12.971  13.167  13.390  13.458  13.478
 13.799  13.941  14.121  14.647  15.706
 --------------------------------------------------------------
 
          Ground-State Mulliken Net Atomic Charges

     Atom                 Charge (a.u.)
  ----------------------------------------
      1 C                    -0.124479
      2 C                    -0.108474
      3 C                    -0.109481
      4 C                    -0.153310
      5 C                    -0.121246
      6 C                     0.120400
      7 C                     0.011358
      8 C                    -0.101766
      9 C                     0.037057
     10 N                    -0.121843
     11 N                    -0.279059
     12 C                     0.010161
     13 C                     0.058883
     14 S                     0.416876
     15 N                    -0.275625
     16 C                     0.003084
     17 N                    -0.130551
     18 S                     0.111974
     19 C                    -0.145366
     20 C                    -0.018472
     21 C                     0.006141
     22 S                     0.131340
     23 C                    -0.050874
     24 C                    -0.221750
     25 S                     0.057094
     26 C                     0.044105
     27 C                    -0.144591
     28 C                    -0.173178
     29 H                     0.118698
     30 H                     0.115530
     31 H                     0.116255
     32 H                     0.130730
     33 H                     0.114020
     34 H                     0.137971
     35 H                     0.147337
     36 H                     0.130796
     37 H                     0.132416
     38 H                     0.127839
  ----------------------------------------
  Sum of atomic charges =     0.000000

 -----------------------------------------------------------------
                    Cartesian Multipole Moments
 -----------------------------------------------------------------
    Charge (ESU x 10^10)
                 0.0000
    Dipole Moment (Debye)
         X       0.7127      Y      -2.0488      Z       0.0453
       Tot       2.1697
    Quadrupole Moments (Debye-Ang)
        XX    -137.8115     XY      -3.8818     YY    -185.8929
        XZ       0.8344     YZ       0.0584     ZZ    -181.6161
    Octopole Moments (Debye-Ang^2)
       XXX     128.3240    XXY      23.6686    XYY      20.4307
       YYY     -37.9008    XXZ      12.9818    XYZ      54.3669
       YYZ      -1.0360    XZZ     -18.2779    YZZ      -2.4517
       ZZZ      -0.9499
    Hexadecapole Moments (Debye-Ang^3)
      XXXX  -21099.1638   XXXY    -368.1359   XXYY   -4520.6388
      XYYY      75.8247   YYYY   -2094.4999   XXXZ     199.8910
      XXYZ      71.0421   XYYZ      16.2236   YYYZ      -9.9663
      XXZZ   -4178.0054   XYZZ       2.8579   YYZZ    -493.5216
      XZZZ      14.0672   YZZZ      -7.9315   ZZZZ    -988.0010
 -----------------------------------------------------------------
 Calculating analytic gradient of the SCF energy
 K construction time:  CPU 2091.50 s  wall 132.52 s
 Gradient of SCF Energy
            1           2           3           4           5           6
    1  -0.0002076   0.0000884   0.0001411  -0.0002730   0.0000269  -0.0000163
    2  -0.0001125   0.0000183   0.0000521  -0.0003991   0.0004568  -0.0000343
    3   0.0000183   0.0000681  -0.0000330  -0.0004392  -0.0000698   0.0007128
            7           8           9          10          11          12
    1   0.0003133   0.0007751   0.0000946  -0.0024400   0.0004763   0.0006920
    2  -0.0012613   0.0013512   0.0019359   0.0009493   0.0003963   0.0014792
    3  -0.0004636   0.0001430  -0.0009442  -0.0004248  -0.0001399   0.0002286
           13          14          15          16          17          18
    1   0.0021812   0.0007723  -0.0029504  -0.0017994  -0.0009205   0.0007737
    2  -0.0043373  -0.0026042  -0.0007725   0.0071470  -0.0023942  -0.0003045
    3   0.0005302   0.0008090   0.0004045  -0.0005147   0.0010475  -0.0003145
           19          20          21          22          23          24
    1   0.0007373   0.0009329   0.0003741   0.0000350  -0.0002636   0.0001554
    2  -0.0009080  -0.0001661   0.0003196   0.0001814  -0.0004354  -0.0000855
    3   0.0000012  -0.0005264   0.0006053  -0.0002313  -0.0004861  -0.0000278
           25          26          27          28          29          30
    1  -0.0002986   0.0000665   0.0005947  -0.0001005   0.0000615   0.0000416
    2   0.0002202   0.0000829   0.0000126  -0.0000243   0.0002223   0.0000081
    3   0.0003635  -0.0002785  -0.0003833  -0.0001846   0.0001234  -0.0000369
           31          32          33          34          35          36
    1  -0.0000341  -0.0000155  -0.0000754  -0.0001581   0.0000552   0.0002157
    2   0.0000947  -0.0003664  -0.0002197  -0.0001290  -0.0001859   0.0000647
    3   0.0000633  -0.0001413   0.0000034   0.0001334  -0.0003154   0.0002016
           37          38
    1  -0.0001174   0.0000657
    2  -0.0002256  -0.0000266
    3   0.0002998   0.0001985
 Max gradient component =       7.147E-03
 RMS gradient           =       1.069E-03
 Gradient time:  CPU 2479.55 s  wall 158.73 s
 Geometry Optimization Parameters
   NAtoms,    NIC,     NZ,  NCons,   NDum,   NFix, NCnnct, MaxDiis
       38     289       0       3       0       0       0       0

 Cartesian Hessian Update
 Hessian Updated using BFGS Update


** CONSTRAINED OPTIMIZATION IN DELOCALIZED INTERNAL COORDINATES **
   Searching for a Minimum

   Optimization Cycle:   2

                       Coordinates (Angstroms)
     ATOM                X               Y               Z
      1  C        -8.2875066950    0.8040896897   -0.1845088606
      2  C        -7.5289284087    1.2247348033   -1.2652917901
      3  C        -7.6605502137    0.2393846180    0.9162745957
      4  C        -6.1502724805    1.0955600416   -1.2377631534
      5  C        -6.2833002528    0.1044452932    0.9434983986
      6  C        -5.5109722447    0.5454203912   -0.1287579308
      7  C        -4.0374846311    0.4769787941   -0.0878341153
      8  C        -3.2564842575    1.5521530345   -0.4165372356
      9  C        -3.3181897111   -0.6853965815    0.3008471997
     10  N        -1.9003355132    1.5828626981   -0.4189725683
     11  N        -3.8256645611   -1.8634806698    0.6742278314
     12  C        -1.8887592473   -0.6670953916    0.3055937092
     13  C        -1.2067204397    0.5324849365   -0.0760024294
     14  S        -2.5726268620   -2.8220644549    0.9949180073
     15  N        -1.3508571035   -1.8270107621    0.6854523371
     16  C         0.2607289000    0.6540166097   -0.0907511657
     17  N         0.8994716399    1.7639177226    0.1054774531
     18  S         1.2957355967   -0.7083704631   -0.4187868610
     19  C         2.2399776427    1.5921327132   -0.0204983655
     20  C         2.6683384991    0.3289336496   -0.3223921250
     21  C         4.0315303331   -0.1315284568   -0.4819673891
     22  S         4.4546540196   -1.4400028959   -1.5326717474
     23  C         5.1697898170    0.3441902867    0.1106846004
     24  C         6.1184763503   -1.3499241164   -1.1548164140
     25  S         5.4991637533    1.5970702896    1.2759899982
     26  C         6.3626880161   -0.3436417347   -0.2630911048
     27  C         7.2014238397    1.1851151219    1.2479542248
     28  C         7.5192960072    0.1771014038    0.4204563272
     29  H        -9.3633188046    0.9128904152   -0.2004233352
     30  H        -8.0087448695    1.6527699562   -2.1346753717
     31  H        -8.2472554541   -0.0937119586    1.7614765085
     32  H        -5.5609197170    1.4091196825   -2.0893101603
     33  H        -5.8030184659   -0.3390977917    1.8040521050
     34  H        -3.7304662654    2.4832193658   -0.7013649853
     35  H         2.8953317702    2.4418649533    0.0994626720
     36  H         6.8170452139   -2.0377340682   -1.5992387531
     37  H         7.8715717903    1.7444311466    1.8802610103
     38  H         8.5227708069   -0.1991719614    0.2959970008
   Point Group: c1    Number of degrees of freedom:   108


   Energy is  -2579.857321038

              Constraints and their Current Values
                                        Value     Constraint
   Dihedral:        4   6   7   8       47.062       47.062
   Dihedral:       10  13  16  18     -150.000     -150.000
   Dihedral:       18  20  21  22       32.716       32.716
 Hessian Updated using BFGS Update

   Using Lagrange Multiplier Algorithm


107 Hessian modes will be used to form the next step
  Hessian Eigenvalues:
    -0.977691    0.036264    0.045000    0.045000    0.045000    0.045000
     0.045000    0.045000    0.045000    0.045000    0.045000    0.045000
     0.045000    0.045001    0.045001    0.045001    0.045001    0.045002
     0.045002    0.045003    0.045003    0.045004    0.045005    0.045005
     0.045007    0.045007    0.045008    0.045012    0.045021    0.045030
     0.045038    0.045048    0.046572    0.158123    0.159967    0.159979
     0.159981    0.159982    0.159988    0.159994    0.159998    0.160000
     0.160016    0.191356    0.219991    0.220018    0.225219    0.233719
     0.234628    0.235514    0.237077    0.247528    0.249694    0.249751
     0.249779    0.249987    0.249988    0.249989    0.249993    0.249995
     0.249997    0.249999    0.295572    0.296846    0.304501    0.315612
     0.321746    0.325686    0.337589    0.350483    0.356833    0.357290
     0.357325    0.357384    0.358104    0.358488    0.359888    0.361584
     0.362493    0.365134    0.368677    0.377800    0.381764    0.388151
     0.389642    0.403977    0.415771    0.429818    0.432526    0.470896
     0.472523    0.474106    0.479472    0.480421    0.482661    0.483546
     0.486899    0.496375    0.509597    0.523880    0.527032    0.543221
     0.556115    0.584396    0.641268    0.661584    1.022860

 Minimum Search - Taking P-RFO Step
 Searching for Lamda that Maximizes Along the Constraint modes Only
 Value Taken    Lamda =   0.00000013
 Searching for Lamda that Minimizes Along All other modes
 Value Taken    Lamda =  -0.00056453
 Step Taken.  Stepsize is  0.093863

                             Maximum     Tolerance    Cnvgd?
         Gradient            0.003377       0.000300      NO
         Displacement        0.046718       0.001200      NO
         Energy change     -0.001337       0.000001      NO


 New Cartesian Coordinates Obtained by Inverse Iteration

 Displacement from previous Coordinates is:  0.426886
 ----------------------------------------------------------------
             Standard Nuclear Orientation (Angstroms)
    I     Atom           X                Y                Z
 ----------------------------------------------------------------
    1      C      -8.2864988070     0.7874901746    -0.2093570430
    2      C      -7.5217524620     1.2403144914    -1.2725400687
    3      C      -7.6649144481     0.2124149124     0.8891489841
    4      C      -6.1416689481     1.1281775747    -1.2318778900
    5      C      -6.2862174625     0.0973875758     0.9306342790
    6      C      -5.5083620154     0.5661046642    -0.1257679129
    7      C      -4.0357602412     0.4935742569    -0.0775783534
    8      C      -3.2456278336     1.5669510268    -0.3906205369
    9      C      -3.3253306631    -0.6770855001     0.3064617924
   10      N      -1.8879326800     1.5922344608    -0.3913386864
   11      N      -3.8369011628    -1.8567919670     0.6663405999
   12      C      -1.8964832377    -0.6610421002     0.3197353238
   13      C      -1.2075092716     0.5365549060    -0.0472980533
   14      S      -2.5822196567    -2.8131326421     0.9821982798
   15      N      -1.3538067975    -1.8207540098     0.6892929669
   16      C       0.2629347963     0.6273836164    -0.0523857107
   17      N       0.8983128619     1.7443346294     0.1239906163
   18      S       1.2952625547    -0.7354847261    -0.3704506407
   19      C       2.2366775080     1.5754830357    -0.0057841582
   20      C       2.6634221769     0.3088305350    -0.2962724015
   21      C       4.0252496328    -0.1517298063    -0.4596915104
   22      S       4.4415104074    -1.4724986802    -1.4963896413
   23      C       5.1679750675     0.3389305893     0.1126022971
   24      C       6.1086639980    -1.3691587297    -1.1394018695
   25      S       5.5055808457     1.6149942757     1.2486618687
   26      C       6.3594996742    -0.3482313409    -0.2660268296
   27      C       7.2093076309     1.2144765589     1.2036383491
   28      C       7.5222785955     0.1923877609     0.3913380988
   29      H      -9.3639205168     0.8771593707    -0.2381943473
   30      H      -7.9982668469     1.6770453751    -2.1391548807
   31      H      -8.2565252050    -0.1475909896     1.7194875239
   32      H      -5.5471149001     1.4657969193    -2.0704679780
   33      H      -5.8089382943    -0.3571262336     1.7867908364
   34      H      -3.7112328391     2.5028158352    -0.6742877147
   35      H       2.8896920722     2.4285957404     0.1043234798
   36      H       6.8032666199    -2.0595318009    -1.5863133961
   37      H       7.8864678529     1.7948823118     1.8089091085
   38      H       8.5264997923    -0.1775057607     0.2546133361
 ----------------------------------------------------------------
 Molecular Point Group                 C1    NOp =  1
 Largest Abelian Subgroup              C1    NOp =  1
 Nuclear Repulsion Energy =  2879.5868495473 hartrees
 There are      111 alpha and      111 beta electrons
 Applying Cartesian multipole field
    Component          Value
    ---------          -----
     (2,0,0)        1.00000E-12
     (0,2,0)        2.00000E-11
     (0,0,2)       -3.00000E-11
 Nucleus-field energy     =     0.0000000302 hartrees
 Requested basis set is cc-pVTZ
 There are 348 shells and 996 basis functions
 A cutoff of  1.0D-11 yielded  28586 shell pairs
 There are    226244 function pairs (    295532 Cartesian)
 Smallest overlap matrix eigenvalue = 3.11E-05
 Guess MOs from SCF MO coefficient file
 Reading MOs from coefficient file
 Reading MOs from coefficient file
 Long-range K will be added via erf
 Coulomb attenuation parameter = 0.2 bohr**(-1)
 A restricted hybrid HF-DFT SCF calculation will be
 performed using Pulay DIIS extrapolation
 Exchange:     0.2220 Hartree-Fock + 1.0000 wB97X-D + LR-HF
 Correlation:  1.0000 wB97X-D
 Using SG-2 standard quadrature grid
 Dispersion:   Grimme D
 SCF converges when DIIS error is below 1.0E-08
 Geometry optimization detected.  Setting ReadMinima to 0
 Setting SaveMinima to 0
 using 16 threads for integral computing 
 using 16 threads for integral computing 
 K construction time:  CPU 904.82 s  wall 59.43 s
 -------------------------------------------------------
 OpenMP BLAS3 based DFT computing Module                
 Release: version 1.0, May 2013, Q-Chem Inc. Pittsburgh 
 -------------------------------------------------------
 ---------------------------------------
  Cycle       Energy         DIIS Error
 ---------------------------------------
    1   -2579.8571539285      2.72E-04
 K construction time:  CPU 905.91 s  wall 59.28 s
    2   -2579.8573305437      2.84E-05
 K construction time:  CPU 675.66 s  wall 44.42 s
    3   -2579.8575312182      2.01E-05
 K construction time:  CPU 634.73 s  wall 41.58 s
    4   -2579.8575791458      8.42E-06
 K construction time:  CPU 598.44 s  wall 39.30 s
    5   -2579.8575916078      3.22E-06
 K construction time:  CPU 544.93 s  wall 35.82 s
    6   -2579.8575931205      1.44E-06
 K construction time:  CPU 495.33 s  wall 32.49 s
    7   -2579.8575934000      5.02E-07
 K construction time:  CPU 455.64 s  wall 29.94 s
    8   -2579.8575934458      2.52E-07
 K construction time:  CPU 417.23 s  wall 27.36 s
    9   -2579.8575934568      9.88E-08
 K construction time:  CPU 363.73 s  wall 23.71 s
   10   -2579.8575934581      3.75E-08
 K construction time:  CPU 331.25 s  wall 21.72 s
   11   -2579.8575934589      1.99E-08
 K construction time:  CPU 285.69 s  wall 18.70 s
   12   -2579.8575934583      6.36E-09 Convergence criterion met
 ---------------------------------------
 SCF time:  CPU 9065.23 s  wall 610.78 s
 SCF   energy in the final basis set = -2579.8575934583
 Total energy in the final basis set = -2579.8575934583
 
 --------------------------------------------------------------
 
                    Orbital Energies (a.u.)
 --------------------------------------------------------------
 
 Alpha MOs
 -- Occupied --
-89.155 -89.091 -89.089 -89.078 -14.493 -14.487 -14.450 -14.441
-10.363 -10.362 -10.360 -10.358 -10.343 -10.342 -10.334 -10.332
-10.330 -10.327 -10.325 -10.322 -10.313 -10.312 -10.305 -10.298
-10.296 -10.296 -10.295 -10.295  -8.165  -8.105  -8.105  -8.093
 -6.115  -6.109  -6.109  -6.055  -6.054  -6.051  -6.050  -6.048
 -6.048  -6.043  -6.039  -6.035  -1.152  -1.086  -1.061  -1.023
 -1.016  -0.975  -0.959  -0.926  -0.918  -0.903  -0.876  -0.860
 -0.856  -0.834  -0.829  -0.802  -0.776  -0.745  -0.736  -0.713
 -0.707  -0.693  -0.691  -0.660  -0.653  -0.637  -0.628  -0.616
 -0.607  -0.598  -0.576  -0.566  -0.561  -0.547  -0.541  -0.531
 -0.528  -0.526  -0.515  -0.514  -0.510  -0.502  -0.498  -0.486
 -0.479  -0.476  -0.470  -0.457  -0.450  -0.441  -0.437  -0.435
 -0.432  -0.424  -0.423  -0.405  -0.392  -0.373  -0.364  -0.363
 -0.359  -0.355  -0.340  -0.337  -0.325  -0.308  -0.273
 -- Virtual --
 -0.050   0.000   0.026   0.043   0.052   0.054   0.066   0.071
  0.078   0.088   0.105   0.107   0.118   0.120   0.130   0.136
  0.142   0.144   0.149   0.155   0.162   0.164   0.171   0.178
  0.189   0.192   0.194   0.199   0.214   0.224   0.234   0.237
  0.244   0.251   0.263   0.267   0.271   0.282   0.284   0.291
  0.296   0.299   0.304   0.305   0.311   0.313   0.319   0.327
  0.329   0.330   0.334   0.336   0.345   0.346   0.349   0.354
  0.360   0.361   0.370   0.375   0.380   0.382   0.385   0.387
  0.390   0.392   0.394   0.399   0.403   0.405   0.406   0.410
  0.415   0.421   0.424   0.425   0.430   0.431   0.436   0.440
  0.442   0.444   0.448   0.452   0.458   0.462   0.464   0.468
  0.469   0.469   0.475   0.476   0.478   0.479   0.481   0.487
  0.490   0.496   0.499   0.501   0.504   0.508   0.511   0.517
  0.521   0.523   0.524   0.533   0.536   0.538   0.543   0.549
  0.553   0.562   0.564   0.565   0.567   0.570   0.571   0.580
  0.584   0.589   0.595   0.607   0.610   0.615   0.623   0.625
  0.630   0.634   0.638   0.644   0.651   0.654   0.662   0.665
  0.668   0.673   0.678   0.682   0.692   0.696   0.701   0.708
  0.718   0.721   0.722   0.728   0.734   0.738   0.740   0.747
  0.749   0.758   0.763   0.767   0.770   0.773   0.779   0.784
  0.789   0.795   0.799   0.803   0.804   0.810   0.812   0.823
  0.826   0.832   0.838   0.840   0.842   0.845   0.849   0.860
  0.864   0.866   0.876   0.879   0.879   0.886   0.893   0.895
  0.902   0.905   0.917   0.919   0.923   0.925   0.932   0.937
  0.943   0.944   0.949   0.954   0.956   0.961   0.964   0.967
  0.976   0.983   0.985   0.988   0.997   1.005   1.011   1.017
  1.029   1.031   1.038   1.041   1.044   1.050   1.055   1.059
  1.063   1.069   1.072   1.081   1.086   1.093   1.096   1.105
  1.109   1.115   1.119   1.119   1.133   1.142   1.149   1.151
  1.161   1.165   1.166   1.171   1.174   1.192   1.197   1.203
  1.205   1.214   1.221   1.226   1.231   1.236   1.242   1.251
  1.254   1.261   1.270   1.273   1.277   1.281   1.296   1.303
  1.311   1.317   1.321   1.329   1.343   1.350   1.352   1.360
  1.364   1.365   1.370   1.383   1.386   1.395   1.409   1.414
  1.416   1.418   1.424   1.434   1.437   1.443   1.447   1.453
  1.456   1.464   1.468   1.480   1.482   1.485   1.486   1.487
  1.493   1.504   1.509   1.515   1.521   1.537   1.545   1.546
  1.551   1.562   1.570   1.574   1.582   1.592   1.600   1.607
  1.609   1.613   1.620   1.628   1.637   1.643   1.649   1.652
  1.657   1.659   1.666   1.669   1.676   1.681   1.690   1.695
  1.703   1.705   1.710   1.714   1.717   1.728   1.742   1.747
  1.754   1.757   1.764   1.768   1.777   1.792   1.799   1.802
  1.821   1.828   1.835   1.841   1.850   1.858   1.874   1.883
  1.888   1.893   1.901   1.909   1.925   1.927   1.933   1.944
  1.947   1.959   1.964   1.967   1.978   1.980   1.999   2.006
  2.009   2.020   2.023   2.032   2.034   2.037   2.051   2.060
  2.064   2.077   2.087   2.091   2.099   2.104   2.110   2.117
  2.129   2.141   2.149   2.164   2.165   2.171   2.181   2.182
  2.192   2.200   2.205   2.212   2.218   2.234   2.241   2.247
  2.254   2.256   2.265   2.266   2.273   2.279   2.287   2.305
  2.307   2.313   2.327   2.331   2.342   2.349   2.353   2.357
  2.363   2.365   2.380   2.394   2.399   2.413   2.417   2.421
  2.435   2.438   2.443   2.454   2.458   2.467   2.470   2.479
  2.484   2.486   2.490   2.497   2.500   2.504   2.507   2.528
  2.534   2.535   2.545   2.553   2.555   2.563   2.574   2.574
  2.584   2.590   2.594   2.607   2.608   2.612   2.620   2.634
  2.639   2.651   2.663   2.670   2.671   2.677   2.688   2.706
  2.711   2.716   2.726   2.732   2.747   2.755   2.760   2.766
  2.776   2.776   2.778   2.782   2.786   2.798   2.802   2.805
  2.815   2.820   2.825   2.827   2.832   2.843   2.844   2.851
  2.856   2.870   2.881   2.894   2.895   2.904   2.907   2.912
  2.918   2.931   2.940   2.949   2.952   2.959   2.966   2.970
  2.979   2.985   2.994   2.996   2.999   3.003   3.010   3.012
  3.016   3.023   3.026   3.032   3.040   3.050   3.053   3.058
  3.061   3.070   3.074   3.078   3.082   3.088   3.091   3.102
  3.103   3.106   3.109   3.112   3.121   3.124   3.126   3.130
  3.143   3.146   3.150   3.154   3.159   3.162   3.165   3.169
  3.173   3.178   3.183   3.187   3.191   3.195   3.200   3.207
  3.212   3.214   3.216   3.221   3.227   3.233   3.235   3.240
  3.248   3.254   3.260   3.264   3.270   3.276   3.280   3.283
  3.285   3.291   3.293   3.297   3.302   3.306   3.318   3.323
  3.324   3.326   3.336   3.341   3.345   3.348   3.349   3.357
  3.362   3.368   3.378   3.385   3.387   3.400   3.404   3.411
  3.422   3.425   3.430   3.434   3.447   3.448   3.458   3.459
  3.461   3.465   3.469   3.473   3.476   3.481   3.487   3.494
  3.498   3.501   3.507   3.511   3.525   3.534   3.543   3.545
  3.551   3.555   3.558   3.569   3.576   3.580   3.583   3.599
  3.602   3.606   3.617   3.627   3.635   3.642   3.665   3.673
  3.679   3.693   3.700   3.711   3.714   3.724   3.728   3.736
  3.740   3.754   3.761   3.766   3.772   3.780   3.781   3.786
  3.796   3.804   3.823   3.829   3.839   3.840   3.851   3.855
  3.856   3.860   3.863   3.865   3.869   3.880   3.881   3.888
  3.894   3.897   3.913   3.920   3.936   3.938   3.938   3.946
  3.953   3.964   3.968   3.973   3.978   3.981   3.982   3.988
  3.995   3.997   4.011   4.022   4.032   4.036   4.055   4.065
  4.073   4.081   4.088   4.089   4.101   4.125   4.128   4.137
  4.142   4.155   4.156   4.164   4.165   4.171   4.172   4.186
  4.193   4.204   4.212   4.223   4.233   4.239   4.250   4.252
  4.265   4.273   4.277   4.289   4.299   4.316   4.322   4.328
  4.334   4.341   4.348   4.354   4.361   4.369   4.380   4.387
  4.390   4.396   4.401   4.410   4.422   4.427   4.432   4.440
  4.447   4.450   4.457   4.472   4.477   4.497   4.508   4.513
  4.529   4.534   4.551   4.560   4.569   4.578   4.591   4.598
  4.605   4.611   4.620   4.630   4.642   4.657   4.666   4.680
  4.687   4.705   4.720   4.735   4.745   4.756   4.776   4.779
  4.789   4.803   4.820   4.825   4.832   4.844   4.846   4.855
  4.857   4.866   4.878   4.886   4.907   4.914   4.920   4.932
  4.937   4.949   4.952   4.966   4.987   4.993   4.996   5.022
  5.030   5.039   5.047   5.054   5.067   5.071   5.086   5.088
  5.093   5.110   5.114   5.117   5.124   5.138   5.154   5.177
  5.183   5.193   5.219   5.244   5.247   5.258   5.263   5.270
  5.273   5.280   5.320   5.334   5.345   5.368   5.379   5.388
  5.407   5.417   5.456   5.461   5.484   5.498   5.507   5.526
  5.550   5.583   5.596   5.626   5.660   5.667   5.685   5.691
  5.710   5.714   5.771   5.782   5.799   5.821   5.826   5.844
  5.891   5.937   5.987   6.014   6.029   6.036   6.048   6.075
  6.127   6.151   6.157   6.195   6.214   6.234   6.250   6.294
  6.363   6.442   6.516   6.852   6.977   8.014   8.541   9.412
  9.995  10.551  11.100  11.139  11.683  12.017  12.249  12.713
 12.775  12.847  12.897  12.980  13.175  13.383  13.452  13.484
 13.799  13.939  14.130  14.659  15.708
 --------------------------------------------------------------
 
          Ground-State Mulliken Net Atomic Charges

     Atom                 Charge (a.u.)
  ----------------------------------------
      1 C                    -0.124498
      2 C                    -0.108681
      3 C                    -0.109486
      4 C                    -0.151928
      5 C                    -0.121624
      6 C                     0.120761
      7 C                     0.009889
      8 C                    -0.100702
      9 C                     0.035409
     10 N                    -0.121970
     11 N                    -0.277170
     12 C                     0.011311
     13 C                     0.068276
     14 S                     0.413929
     15 N                    -0.276532
     16 C                    -0.006278
     17 N                    -0.128784
     18 S                     0.115681
     19 C                    -0.147300
     20 C                    -0.017586
     21 C                     0.005667
     22 S                     0.131526
     23 C                    -0.051298
     24 C                    -0.222309
     25 S                     0.057416
     26 C                     0.044059
     27 C                    -0.144784
     28 C                    -0.173017
     29 H                     0.118556
     30 H                     0.115491
     31 H                     0.116328
     32 H                     0.130321
     33 H                     0.113567
     34 H                     0.137647
     35 H                     0.147152
     36 H                     0.130676
     37 H                     0.132426
     38 H                     0.127858
  ----------------------------------------
  Sum of atomic charges =     0.000000

 -----------------------------------------------------------------
                    Cartesian Multipole Moments
 -----------------------------------------------------------------
    Charge (ESU x 10^10)
                 0.0000
    Dipole Moment (Debye)
         X       0.7440      Y      -2.0330      Z      -0.0118
       Tot       2.1649
    Quadrupole Moments (Debye-Ang)
        XX    -137.8567     XY      -3.4849     YY    -185.7233
        XZ       0.6585     YZ      -0.0093     ZZ    -181.9086
    Octopole Moments (Debye-Ang^2)
       XXX     130.3469    XXY      24.0625    XYY      21.7738
       YYY     -35.3522    XXZ       8.5097    XYZ      55.0316
       YYZ      -2.6019    XZZ     -18.5184    YZZ      -2.0657
       ZZZ      -4.7587
    Hexadecapole Moments (Debye-Ang^3)
      XXXX  -21082.1347   XXXY    -316.8454   XXYY   -4511.3399
      XYYY      77.5442   YYYY   -2110.5738   XXXZ     185.9502
      XXYZ      65.4106   XYYZ      17.1544   YYYZ      -8.5161
      XXZZ   -4189.4591   XYZZ       1.9211   YYZZ    -491.1575
      XZZZ       6.9467   YZZZ      -9.7739   ZZZZ    -959.6375
 -----------------------------------------------------------------
 Calculating analytic gradient of the SCF energy
 K construction time:  CPU 2103.29 s  wall 133.37 s
 Gradient of SCF Energy
            1           2           3           4           5           6
    1   0.0000572  -0.0001742  -0.0000952   0.0000562   0.0002795  -0.0001377
    2  -0.0000496   0.0001284  -0.0000187  -0.0008930   0.0004942   0.0006806
    3  -0.0000512  -0.0000988   0.0000870  -0.0005395   0.0002687   0.0009918
            7           8           9          10          11          12
    1  -0.0005886   0.0006827  -0.0002637  -0.0008409  -0.0011177   0.0007146
    2  -0.0012966   0.0005738  -0.0002288  -0.0001206   0.0003447  -0.0007476
    3  -0.0013651   0.0014868  -0.0003446  -0.0010192   0.0000146   0.0007939
           13          14          15          16          17          18
    1  -0.0005347   0.0004902   0.0007007   0.0009196  -0.0008582   0.0009915
    2   0.0002895   0.0023465  -0.0000151   0.0009265  -0.0011505  -0.0008035
    3   0.0006046  -0.0006845  -0.0000124   0.0004820   0.0007743  -0.0004977
           19          20          21          22          23          24
    1   0.0000025  -0.0003519   0.0000649  -0.0000304  -0.0000241  -0.0001322
    2  -0.0003439  -0.0000090  -0.0001163   0.0002285  -0.0000269   0.0001137
    3  -0.0000885  -0.0006956   0.0003799  -0.0003388   0.0001103   0.0002756
           25          26          27          28          29          30
    1  -0.0000841  -0.0000282   0.0000344   0.0000376  -0.0000066   0.0000439
    2  -0.0000611   0.0002239   0.0000361  -0.0000554   0.0000896  -0.0000513
    3   0.0000891  -0.0004058   0.0000469   0.0001431   0.0000925   0.0001028
           31          32          33          34          35          36
    1   0.0000453   0.0000086   0.0000832   0.0001189  -0.0001499   0.0000508
    2  -0.0000149  -0.0001508  -0.0003079   0.0000344   0.0001058  -0.0000429
    3  -0.0000737  -0.0000593  -0.0002045  -0.0001350  -0.0000382  -0.0000516
           37          38
    1   0.0000231   0.0000131
    2  -0.0000284  -0.0000835
    3  -0.0000312  -0.0000088
 Max gradient component =       2.347E-03
 RMS gradient           =       5.186E-04
 Gradient time:  CPU 2488.68 s  wall 159.57 s
 Geometry Optimization Parameters
   NAtoms,    NIC,     NZ,  NCons,   NDum,   NFix, NCnnct, MaxDiis
       38     289       0       3       0       0       0       0

 Cartesian Hessian Update
 Hessian Updated using BFGS Update


** CONSTRAINED OPTIMIZATION IN DELOCALIZED INTERNAL COORDINATES **
   Searching for a Minimum

   Optimization Cycle:   3

                       Coordinates (Angstroms)
     ATOM                X               Y               Z
      1  C        -8.2864988070    0.7874901746   -0.2093570430
      2  C        -7.5217524620    1.2403144914   -1.2725400687
      3  C        -7.6649144481    0.2124149124    0.8891489841
      4  C        -6.1416689481    1.1281775747   -1.2318778900
      5  C        -6.2862174625    0.0973875758    0.9306342790
      6  C        -5.5083620154    0.5661046642   -0.1257679129
      7  C        -4.0357602412    0.4935742569   -0.0775783534
      8  C        -3.2456278336    1.5669510268   -0.3906205369
      9  C        -3.3253306631   -0.6770855001    0.3064617924
     10  N        -1.8879326800    1.5922344608   -0.3913386864
     11  N        -3.8369011628   -1.8567919670    0.6663405999
     12  C        -1.8964832377   -0.6610421002    0.3197353238
     13  C        -1.2075092716    0.5365549060   -0.0472980533
     14  S        -2.5822196567   -2.8131326421    0.9821982798
     15  N        -1.3538067975   -1.8207540098    0.6892929669
     16  C         0.2629347963    0.6273836164   -0.0523857107
     17  N         0.8983128619    1.7443346294    0.1239906163
     18  S         1.2952625547   -0.7354847261   -0.3704506407
     19  C         2.2366775080    1.5754830357   -0.0057841582
     20  C         2.6634221769    0.3088305350   -0.2962724015
     21  C         4.0252496328   -0.1517298063   -0.4596915104
     22  S         4.4415104074   -1.4724986802   -1.4963896413
     23  C         5.1679750675    0.3389305893    0.1126022971
     24  C         6.1086639980   -1.3691587297   -1.1394018695
     25  S         5.5055808457    1.6149942757    1.2486618687
     26  C         6.3594996742   -0.3482313409   -0.2660268296
     27  C         7.2093076309    1.2144765589    1.2036383491
     28  C         7.5222785955    0.1923877609    0.3913380988
     29  H        -9.3639205168    0.8771593707   -0.2381943473
     30  H        -7.9982668469    1.6770453751   -2.1391548807
     31  H        -8.2565252050   -0.1475909896    1.7194875239
     32  H        -5.5471149001    1.4657969193   -2.0704679780
     33  H        -5.8089382943   -0.3571262336    1.7867908364
     34  H        -3.7112328391    2.5028158352   -0.6742877147
     35  H         2.8896920722    2.4285957404    0.1043234798
     36  H         6.8032666199   -2.0595318009   -1.5863133961
     37  H         7.8864678529    1.7948823118    1.8089091085
     38  H         8.5264997923   -0.1775057607    0.2546133361
   Point Group: c1    Number of degrees of freedom:   108


   Energy is  -2579.857593458

              Constraints and their Current Values
                                        Value     Constraint
   Dihedral:        4   6   7   8       47.062       47.062
   Dihedral:       10  13  16  18     -150.000     -150.000
   Dihedral:       18  20  21  22       32.716       32.716
 Hessian Updated using BFGS Update

[...]
     31  H        -8.2743313102   -0.1883884929    1.6756292538
     32  H        -5.5277735523    1.5065710307   -2.0509804603
     33  H        -5.8271446287   -0.3737136342    1.7764992236
     34  H        -3.7069662247    2.5139127373   -0.6365208039
     35  H         2.8967078287    2.4324682942    0.0994183235
     36  H         6.7822422339   -2.0892479309   -1.5701337024
     37  H         7.9087408623    1.8242612878    1.7431981363
     38  H         8.5293390251   -0.1755688218    0.2170076050
   Point Group: c1    Number of degrees of freedom:   108


   Energy is  -2579.857672776

              Constraints and their Current Values
                                        Value     Constraint
   Dihedral:        4   6   7   8       47.062       47.062
   Dihedral:       10  13  16  18     -150.000     -150.000
   Dihedral:       18  20  21  22       32.716       32.716
 Hessian Updated using BFGS Update

100 Hessian modes will be used to form the next step
  Hessian Eigenvalues:
     0.014716    0.030248    0.043880    0.045000    0.045000    0.045000
     0.045000    0.045001    0.045001    0.045001    0.045001    0.045002
     0.045002    0.045003    0.045004    0.045004    0.045006    0.045007
     0.045007    0.045007    0.045021    0.045023    0.045025    0.045047
     0.045193    0.045438    0.047231    0.158410    0.159545    0.159924
     0.159979    0.159990    0.159996    0.159998    0.160012    0.160395
     0.162128    0.191108    0.219941    0.220075    0.225184    0.233645
     0.233854    0.236750    0.237382    0.246239    0.247832    0.249064
     0.249749    0.249809    0.249900    0.249991    0.249996    0.253401
     0.263194    0.283859    0.296548    0.304477    0.307736    0.315558
     0.329404    0.337585    0.348887    0.352005    0.356816    0.357296
     0.357329    0.357460    0.358488    0.358564    0.361120    0.361598
     0.362497    0.365245    0.374620    0.382061    0.387459    0.389902
     0.406445    0.413306    0.429689    0.432788    0.440859    0.470596
     0.473235    0.474114    0.479431    0.480445    0.481007    0.483529
     0.487262    0.496039    0.509910    0.523052    0.542932    0.544250
     0.562684    0.626868    0.641621    0.673943

 Minimum Search - Taking Simple RFO Step
 Searching for Lamda that Minimizes Along All modes
 Value Taken    Lamda =   0.00000000
 Step Taken.  Stepsize is  0.002545

                             Maximum     Tolerance    Cnvgd?
         Gradient           0.000040      0.000300     YES
         Displacement       0.001039      0.001200     YES
         Energy change     -0.000001      0.000001     YES

 Final energy is   -2579.85767277609     


 ******************************
 **  OPTIMIZATION CONVERGED  **
 ******************************

                       Coordinates (Angstroms)
     ATOM                X               Y               Z
      1  C        -8.2862834209    0.7729557768   -0.2405315851
      2  C        -7.5103548805    1.2501742408   -1.2847139820
      3  C        -7.6746559318    0.1885814939    0.8585745247
      4  C        -6.1301933792    1.1496935387   -1.2261432521
      5  C        -6.2957620071    0.0848761098    0.9176821152
      6  C        -5.5066994602    0.5759045921   -0.1204178577
      7  C        -4.0344003340    0.4998829409   -0.0623943124
      8  C        -3.2425416802    1.5753587379   -0.3601274906
      9  C        -3.3274819048   -0.6762318151    0.3158360573
     10  N        -1.8841450959    1.6009543818   -0.3511664845
     11  N        -3.8397107761   -1.8624298868    0.6529003377
     12  C        -1.8994458922   -0.6586472004    0.3418273569
     13  C        -1.2065157221    0.5446207703   -0.0053241545
     14  S        -2.5892550183   -2.8251777434    0.9668433045
     15  N        -1.3603288762   -1.8238690874    0.7000252265
     16  C         0.2629840671    0.6347445042   -0.0092670090
     17  N         0.9030519994    1.7549925062    0.1419696822
     18  S         1.2876364819   -0.7306184926   -0.3253794725
     19  C         2.2394719661    1.5807809713    0.0036232691
     20  C         2.6605299231    0.3089920575   -0.2750405798
     21  C         4.0188675598   -0.1608993838   -0.4410531541
     22  S         4.4222306160   -1.4984624184   -1.4614879400
     23  C         5.1690427934    0.3378803140    0.1089450798
     24  C         6.0935668647   -1.3914667416   -1.1258508240
     25  S         5.5215831226    1.6357868848    1.2152255688
     26  C         6.3554412136   -0.3573074687   -0.2712542995
     27  C         7.2241846738    1.2333569339    1.1566455135
     28  C         7.5266388048    0.1959018760    0.3599975051
     29  H        -9.3640826411    0.8503183108   -0.2854940241
     30  H        -7.9785695025    1.6957151365   -2.1515985778
     31  H        -8.2743313102   -0.1883884929    1.6756292538
     32  H        -5.5277735523    1.5065710307   -2.0509804603
     33  H        -5.8271446287   -0.3737136342    1.7764992236
     34  H        -3.7069662247    2.5139127373   -0.6365208039
     35  H         2.8967078287    2.4324682942    0.0994183235
     36  H         6.7822422339   -2.0892479309   -1.5701337024
     37  H         7.9087408623    1.8242612878    1.7431981363
     38  H         8.5293390251   -0.1755688218    0.2170076050

Z-matrix Print:
$molecule
0 1
S 
C  1 1.722835
C  2 1.368353 1 108.758949
H  3 1.080050 2 124.313971 1 -179.607735 0
N  3 1.354809 2 116.349376 1 1.476530 0
C  5 1.299044 3 111.300350 2 -0.696390 0
C  2 1.446872 1 123.284340 3 -177.160545 0
C  7 1.369008 2 128.632561 1 148.782204 0
C  8 1.426667 7 114.460243 2 179.448524 0
C  9 1.366894 8 112.083791 7 -0.293273 0
H  10 1.076364 9 128.752359 8 179.524161 0
C  9 1.440911 8 111.845045 7 178.802743 0
H  12 1.078816 9 124.416433 8 -179.857766 0
C  12 1.342550 9 111.933176 8 -0.040353 0
H  14 1.077882 12 127.117757 9 -179.997366 0
C  6 1.472266 5 122.975045 3 175.568294 0
N  16 1.301779 6 117.981004 5 -25.671050 0
C  17 1.358667 16 120.457735 6 179.735584 0
H  18 1.083036 17 114.461985 16 -178.385879 0
C  18 1.368332 17 126.296213 16 1.766322 0
C  20 1.423390 18 114.824664 17 -1.441237 0
N  21 1.335311 20 127.630650 18 179.823352 0
C  21 1.428381 20 119.418665 18 0.726990 0
N  23 1.332927 21 113.483896 20 179.418702 0
C  20 1.475402 18 121.899509 17 179.178858 0
C  25 1.393057 20 119.938498 18 -47.061881 0
H  26 1.081955 25 119.457094 20 -2.017271 0
C  26 1.385053 25 120.626438 20 178.834583 0
H  28 1.081305 26 119.687800 25 179.822942 0
C  28 1.385684 26 120.074970 25 0.272957 0
H  30 1.081507 28 120.137564 26 179.960510 0
C  30 1.386945 28 119.691649 26 0.344749 0
H  32 1.081340 30 120.073446 28 179.829049 0
C  32 1.384051 30 120.315398 28 -0.216068 0
H  34 1.080497 32 119.856902 30 179.865077 0
S  24 1.607504 23 106.255560 21 -0.142228 0
S  10 1.708059 9 110.959806 8 -0.357176 0
S  8 1.741466 7 134.173439 2 -2.017097 0
$end

 
 --------------------------------------------------------------
 
                    Orbital Energies (a.u.)
 --------------------------------------------------------------
 
 Alpha MOs
 -- Occupied --
-89.155 -89.091 -89.089 -89.078 -14.492 -14.487 -14.450 -14.441
-10.364 -10.362 -10.360 -10.358 -10.343 -10.342 -10.334 -10.333
-10.330 -10.327 -10.325 -10.322 -10.313 -10.312 -10.305 -10.298
-10.296 -10.296 -10.295 -10.295  -8.165  -8.105  -8.105  -8.093
 -6.115  -6.109  -6.109  -6.055  -6.054  -6.051  -6.050  -6.048
 -6.048  -6.043  -6.039  -6.035  -1.151  -1.086  -1.061  -1.023
 -1.015  -0.975  -0.959  -0.926  -0.918  -0.903  -0.876  -0.860
 -0.856  -0.834  -0.829  -0.802  -0.776  -0.745  -0.736  -0.713
 -0.707  -0.693  -0.691  -0.660  -0.653  -0.637  -0.627  -0.616
 -0.607  -0.598  -0.576  -0.565  -0.561  -0.547  -0.541  -0.531
 -0.528  -0.526  -0.515  -0.514  -0.510  -0.502  -0.498  -0.486
 -0.480  -0.476  -0.470  -0.457  -0.449  -0.441  -0.437  -0.435
 -0.432  -0.424  -0.422  -0.404  -0.392  -0.373  -0.364  -0.363
 -0.359  -0.355  -0.340  -0.338  -0.325  -0.308  -0.273
 -- Virtual --
 -0.050   0.000   0.026   0.043   0.052   0.054   0.066   0.071
  0.077   0.088   0.105   0.108   0.118   0.120   0.130   0.136
  0.142   0.144   0.149   0.155   0.162   0.164   0.171   0.178
  0.188   0.192   0.195   0.200   0.214   0.224   0.234   0.237
  0.244   0.251   0.264   0.267   0.271   0.282   0.284   0.292
  0.296   0.299   0.304   0.305   0.312   0.313   0.319   0.327
  0.329   0.330   0.334   0.336   0.345   0.346   0.349   0.355
  0.360   0.361   0.370   0.375   0.380   0.382   0.384   0.387
  0.389   0.392   0.394   0.399   0.403   0.405   0.406   0.411
  0.415   0.421   0.424   0.426   0.429   0.432   0.436   0.440
  0.442   0.444   0.449   0.451   0.458   0.462   0.464   0.468
  0.469   0.469   0.475   0.476   0.478   0.479   0.481   0.487
  0.490   0.496   0.498   0.501   0.504   0.508   0.511   0.517
  0.522   0.523   0.524   0.533   0.536   0.538   0.543   0.549
  0.553   0.562   0.564   0.565   0.567   0.569   0.571   0.580
  0.585   0.589   0.596   0.607   0.610   0.615   0.623   0.626
  0.630   0.635   0.638   0.644   0.651   0.654   0.662   0.666
  0.668   0.672   0.678   0.682   0.692   0.696   0.701   0.708
  0.717   0.721   0.722   0.728   0.734   0.738   0.741   0.747
  0.750   0.758   0.763   0.766   0.770   0.773   0.779   0.784
  0.789   0.796   0.799   0.803   0.804   0.810   0.812   0.824
  0.826   0.831   0.837   0.840   0.842   0.846   0.849   0.860
  0.864   0.866   0.875   0.879   0.879   0.886   0.893   0.895
  0.903   0.906   0.916   0.919   0.923   0.925   0.932   0.936
  0.943   0.945   0.948   0.953   0.956   0.961   0.963   0.966
  0.975   0.982   0.985   0.988   0.997   1.006   1.011   1.018
  1.028   1.031   1.039   1.041   1.043   1.051   1.055   1.059
  1.063   1.069   1.072   1.082   1.086   1.094   1.096   1.106
  1.109   1.116   1.119   1.119   1.132   1.142   1.148   1.151
  1.161   1.165   1.166   1.171   1.174   1.191   1.196   1.203
  1.205   1.214   1.221   1.226   1.231   1.237   1.242   1.250
  1.254   1.261   1.270   1.273   1.277   1.282   1.295   1.303
  1.312   1.316   1.321   1.328   1.343   1.350   1.351   1.360
  1.364   1.365   1.370   1.383   1.387   1.395   1.409   1.414
  1.416   1.418   1.424   1.433   1.437   1.443   1.447   1.453
  1.457   1.464   1.468   1.480   1.482   1.485   1.486   1.487
  1.492   1.504   1.509   1.515   1.520   1.537   1.545   1.546
  1.551   1.563   1.569   1.574   1.582   1.592   1.600   1.607
  1.609   1.612   1.620   1.628   1.636   1.643   1.649   1.653
  1.658   1.659   1.666   1.669   1.676   1.681   1.690   1.696
  1.703   1.704   1.710   1.715   1.718   1.728   1.742   1.747
  1.754   1.757   1.763   1.767   1.777   1.793   1.799   1.801
  1.822   1.829   1.835   1.840   1.851   1.859   1.874   1.883
  1.888   1.893   1.901   1.909   1.925   1.926   1.932   1.944
  1.948   1.959   1.965   1.967   1.978   1.980   1.999   2.006
  2.009   2.019   2.023   2.032   2.034   2.036   2.051   2.060
  2.064   2.077   2.087   2.091   2.099   2.105   2.110   2.117
  2.128   2.141   2.149   2.164   2.165   2.171   2.182   2.183
  2.192   2.199   2.205   2.212   2.218   2.234   2.240   2.247
  2.254   2.256   2.265   2.266   2.273   2.280   2.288   2.305
  2.307   2.313   2.327   2.331   2.342   2.349   2.353   2.357
  2.363   2.364   2.381   2.393   2.399   2.413   2.417   2.420
  2.436   2.438   2.443   2.455   2.458   2.467   2.470   2.479
  2.484   2.485   2.490   2.497   2.500   2.505   2.506   2.528
  2.533   2.536   2.545   2.552   2.556   2.563   2.573   2.574
  2.584   2.590   2.594   2.607   2.609   2.612   2.620   2.633
  2.639   2.651   2.664   2.669   2.671   2.677   2.688   2.706
  2.711   2.716   2.726   2.732   2.747   2.755   2.759   2.765
  2.777   2.777   2.779   2.782   2.786   2.798   2.802   2.806
  2.815   2.821   2.825   2.827   2.832   2.843   2.844   2.850
  2.855   2.869   2.881   2.894   2.895   2.904   2.907   2.912
  2.917   2.930   2.940   2.949   2.952   2.959   2.966   2.970
  2.979   2.985   2.994   2.995   2.999   3.003   3.010   3.013
  3.016   3.023   3.026   3.032   3.039   3.049   3.053   3.058
  3.060   3.070   3.074   3.077   3.082   3.088   3.091   3.101
  3.103   3.107   3.108   3.112   3.121   3.124   3.126   3.130
  3.143   3.146   3.150   3.153   3.159   3.162   3.164   3.169
  3.172   3.178   3.184   3.187   3.191   3.195   3.200   3.206
  3.212   3.213   3.216   3.221   3.226   3.234   3.235   3.240
  3.247   3.255   3.260   3.264   3.269   3.276   3.280   3.282
  3.286   3.291   3.293   3.297   3.302   3.306   3.317   3.323
  3.324   3.326   3.335   3.341   3.345   3.348   3.349   3.356
  3.362   3.368   3.378   3.385   3.386   3.399   3.404   3.412
  3.422   3.425   3.431   3.433   3.447   3.447   3.457   3.458
  3.460   3.465   3.468   3.472   3.476   3.481   3.487   3.494
  3.498   3.501   3.507   3.512   3.525   3.532   3.543   3.545
  3.551   3.555   3.558   3.569   3.576   3.579   3.583   3.599
  3.602   3.606   3.617   3.626   3.634   3.642   3.665   3.672
  3.679   3.692   3.700   3.711   3.715   3.723   3.727   3.735
  3.741   3.754   3.761   3.767   3.772   3.780   3.781   3.785
  3.796   3.803   3.822   3.828   3.839   3.839   3.852   3.855
  3.856   3.860   3.863   3.864   3.870   3.879   3.881   3.887
  3.895   3.898   3.913   3.921   3.936   3.937   3.939   3.945
  3.953   3.964   3.968   3.973   3.978   3.980   3.982   3.987
  3.995   3.998   4.010   4.022   4.031   4.035   4.055   4.065
  4.074   4.081   4.088   4.089   4.101   4.125   4.127   4.138
  4.141   4.155   4.157   4.164   4.165   4.171   4.172   4.185
  4.193   4.204   4.212   4.223   4.233   4.239   4.249   4.253
  4.265   4.273   4.277   4.288   4.299   4.315   4.323   4.328
  4.335   4.340   4.346   4.354   4.361   4.369   4.380   4.387
  4.389   4.397   4.402   4.409   4.422   4.427   4.432   4.440
  4.446   4.449   4.457   4.473   4.476   4.496   4.508   4.511
  4.528   4.533   4.552   4.560   4.569   4.578   4.591   4.597
  4.606   4.610   4.620   4.630   4.642   4.656   4.666   4.680
  4.685   4.704   4.720   4.734   4.744   4.754   4.776   4.779
  4.789   4.803   4.820   4.825   4.832   4.844   4.846   4.854
  4.858   4.865   4.877   4.886   4.907   4.914   4.920   4.932
  4.937   4.949   4.952   4.965   4.987   4.992   4.996   5.021
  5.029   5.039   5.047   5.053   5.067   5.071   5.087   5.088
  5.094   5.109   5.114   5.117   5.125   5.138   5.153   5.177
  5.183   5.194   5.219   5.244   5.247   5.258   5.262   5.270
  5.273   5.279   5.320   5.334   5.344   5.368   5.380   5.388
  5.407   5.414   5.454   5.462   5.486   5.498   5.508   5.526
  5.550   5.583   5.596   5.626   5.658   5.667   5.685   5.690
  5.710   5.714   5.771   5.781   5.798   5.822   5.827   5.845
  5.891   5.937   5.986   6.014   6.029   6.037   6.047   6.078
  6.128   6.150   6.157   6.195   6.214   6.235   6.250   6.293
  6.365   6.443   6.516   6.851   6.978   8.021   8.539   9.417
 10.000  10.552  11.092  11.140  11.682  12.004  12.255  12.697
 12.772  12.840  12.898  12.979  13.173  13.378  13.439  13.494
 13.801  13.939  14.134  14.666  15.707
 --------------------------------------------------------------
 
          Ground-State Mulliken Net Atomic Charges

     Atom                 Charge (a.u.)
  ----------------------------------------
      1 C                    -0.124477
      2 C                    -0.108947
      3 C                    -0.109512
      4 C                    -0.151236
      5 C                    -0.121241
      6 C                     0.119919
      7 C                     0.010647
      8 C                    -0.101329
      9 C                     0.035378
     10 N                    -0.122043
     11 N                    -0.277024
     12 C                     0.011662
     13 C                     0.069787
     14 S                     0.414338
     15 N                    -0.277864
     16 C                    -0.007260
     17 N                    -0.129177
     18 S                     0.116491
     19 C                    -0.147373
     20 C                    -0.018047
     21 C                     0.006879
     22 S                     0.131597
     23 C                    -0.052225
     24 C                    -0.222642
     25 S                     0.057212
     26 C                     0.044626
     27 C                    -0.144929
     28 C                    -0.173038
     29 H                     0.118535
     30 H                     0.115281
     31 H                     0.116257
     32 H                     0.130216
     33 H                     0.113396
     34 H                     0.137861
     35 H                     0.147126
     36 H                     0.130738
     37 H                     0.132530
     38 H                     0.127888
  ----------------------------------------
  Sum of atomic charges =     0.000000

 -----------------------------------------------------------------
                    Cartesian Multipole Moments
 -----------------------------------------------------------------
    Charge (ESU x 10^10)
                 0.0000
    Dipole Moment (Debye)
         X       0.7472      Y      -2.0551      Z      -0.0510
       Tot       2.1873
    Quadrupole Moments (Debye-Ang)
        XX    -137.8064     XY      -3.2754     YY    -185.4916
        XZ       0.5025     YZ      -0.1676     ZZ    -182.1623
    Octopole Moments (Debye-Ang^2)
       XXX     131.9428    XXY      23.5137    XYY      22.3211
       YYY     -35.7139    XXZ       5.5679    XYZ      55.4542
       YYZ      -3.8770    XZZ     -18.9144    YZZ      -2.0892
       ZZZ      -8.0202
    Hexadecapole Moments (Debye-Ang^3)
      XXXX  -21071.4324   XXXY    -294.7661   XXYY   -4505.1761
      XYYY      70.3404   YYYY   -2135.0449   XXXZ     180.2817
      XXYZ      60.2537   XYYZ      16.3579   YYYZ      -7.2736
      XXZZ   -4199.3683   XYZZ      -2.4949   YYZZ    -490.9517
      XZZZ       2.8404   YZZZ     -10.0138   ZZZZ    -931.6092
 -----------------------------------------------------------------
Archival summary:
1\1\mn361\OPT\ProcedureUnspecified\BasisUnspecified\442010\afmv_a\TueJun615:31:522017TueJun615:31:522017\0\\#,OPT,ProcedureUnspecified,BasisUnspecified,\\0,1\S\C,1,1.72284\C,2,1.36835,1,108.759\H,3,1.08005,2,124.314,1,-179.608,0\N,3,1.35481,2,116.349,1,1.47653,0\C,5,1.29904,3,111.3,2,-0.69639,0\C,2,1.44687,1,123.284,3,-177.161,0\C,7,1.36901,2,128.633,1,148.782,0\C,8,1.42667,7,114.46,2,179.449,0\C,9,1.36689,8,112.084,7,-0.293273,0\H,10,1.07636,9,128.752,8,179.524,0\C,9,1.44091,8,111.845,7,178.803,0\H,12,1.07882,9,124.416,8,-179.858,0\C,12,1.34255,9,111.933,8,-0.0403532,0\H,14,1.07788,12,127.118,9,-179.997,0\C,6,1.47227,5,122.975,3,175.568,0\N,16,1.30178,6,117.981,5,-25.6711,0\C,17,1.35867,16,120.458,6,179.736,0\H,18,1.08304,17,114.462,16,-178.386,0\C,18,1.36833,17,126.296,16,1.76632,0\C,20,1.42339,18,114.825,17,-1.44124,0\N,21,1.33531,20,127.631,18,179.823,0\C,21,1.42838,20,119.419,18,0.72699,0\N,23,1.33293,21,113.484,20,179.419,0\C,20,1.4754,18,121.9,17,179.179,0\C,25,1.39306,20,119.938,18,-47.0619,0\H,26,1.08196,25,119.457,20,-2.01727,0\C,26,1.38505,25,120.626,20,178.835,0\H,28,1.08131,26,119.688,25,179.823,0\C,28,1.38568,26,120.075,25,0.272957,0\H,30,1.08151,28,120.138,26,179.961,0\C,30,1.38694,28,119.692,26,0.344749,0\H,32,1.08134,30,120.073,28,179.829,0\C,32,1.38405,30,120.315,28,-0.216068,0\H,34,1.0805,32,119.857,30,179.865,0\S,24,1.6075,23,106.256,21,-0.142228,0\S,10,1.70806,9,110.96,8,-0.357176,0\S,8,1.74147,7,134.173,2,-2.0171,0\\\@

 Total job time:  5253.27s(wall), 78594.42s(cpu) 
 Tue Jun  6 15:31:52 2017

        *************************************************************
        *                                                           *
        *  Thank you very much for using Q-Chem.  Have a nice day.  *
        *                                                           *
        *************************************************************


