
Running Job 1 of 1 C306_2/C306_195.qcin
qchem C306_2/C306_195.qcin_119213.0 /tmpu/cab_g/afmv_a/scratch_qchem/qchem119213/ 1
/tmpu/appuserlic/qchem4.4/serial-multicore/exe/qcprog.exe_s C306_2/C306_195.qcin_119213.0 /tmpu/cab_g/afmv_a/scratch_qchem/qchem119213/
Check license passed

                  Welcome to Q-Chem
     A Quantum Leap Into The Future Of Chemistry


 Q-Chem 4.4, Q-Chem, Inc., Pleasanton, CA (2016)

 Y. Shao,  Z. Gan,  E. Epifanovsky,  A. T. B. Gilbert,  M. Wormit,  
 J. Kussmann,  A. W. Lange,  A. Behn,  J. Deng,  X. Feng,  D. Ghosh,  
 M. Goldey,  P. R. Horn,  L. D. Jacobson,  I. Kaliman,  F. Rob,  
 R. Z. Khaliullin,  T. Kus,  A. Landau,  J. Liu,  E. I. Proynov,  Y. M. Rhee,  
 R. M. Richard,  M. A. Rohrdanz,  R. P. Steele,  E. J. Sundstrom,  
 H. L. Woodcock III,  P. M. Zimmerman,  D. Zuev,  B. Albrecht,  E. Alguire,  
 B. Austin,  S. A. Baeppler,  G. J. O. Beran,  Y. A. Bernard,  E. Berquist,  
 K. Brandhorst,  K. B. Bravaya,  S. T. Brown,  D. Casanova,  C.-M. Chang,  
 Y. Chen,  S. H. Chien,  K. D. Closser,  M. P. Coons,  D. L. Crittenden,  
 S. Dasgupta,  M. Diedenhofen,  R. A. DiStasio Jr.,  H. Do,  A. D. Dutoi,  
 R. G. Edgar,  P.-T. Fang,  S. Fatehi,  Q. Feng,  L. Fusti-Molnar,  
 A. Ghysels,  A. Golubeva-Zadorozhnaya,  J. Gomes,  A. Gunina,  
 M. W. D. Hanson-Heine,  P. H. P. Harbach,  A. W. Hauser,  J. E. Herr,  
 E. G. Hohenstein,  Z. C. Holden,  K. Hui,  T.-C. Jagau,  H. Ji,  B. Kaduk,  
 K. Khistyaev,  Jaehoon Kim,  Jihan Kim,  R. A. King,  P. Klunzinger,  
 K. Koh,  D. Kosenkov,  T. Kowalczyk,  C. M. Krauter,  A. Kunitsa,  
 K. U. Lao,  A. Laurent,  K. V. Lawler,  J. Lee,  D. Lefrancois,  S. Lehtola,  
 S. V. Levchenko,  C. Y. Lin,  Y.-S. Lin,  F. Liu,  E. Livshits,  
 R. C. Lochan,  A. Luenser,  P. Manohar,  S. F. Manzer,  S.-P. Mao,  Y. Mao,  
 N. Mardirossian,  A. V. Marenich,  L. A. Martinez-Martinez,  S. A. Maurer,  
 N. J. Mayhall,  J.-M. Mewes,  A. F. Morrison,  K. Nanda,  T. S. Nguyen-Beck,  
 C. M. Oana,  R. Olivares-Amaya,  D. P. O'Neill,  J. A. Parkhill,  
 T. M. Perrine,  R. Peverati,  P. A. Pieniazek,  F. Plasser,  A. Prociuk,  
 D. R. Rehn,  E. Rosta,  N. J. Russ,  N. Sergueev,  S. M. Sharada,  
 S. Sharma,  D. W. Small,  A. Sodt,  T. Stauch,  T. Stein,  D. Stuck,  
 Y.-C. Su,  A. J. W. Thom,  T. Tsuchimochi,  L. Vogt,  O. Vydrov,  T. Wang,  
 M. A. Watson,  J. Wenzel,  A. White,  C. F. Williams,  V. Vanovschi,  
 K. Yao,  S. Yeganeh,  S. R. Yost,  Z.-Q. You,  I. Y. Zhang,  X. Zhang,  
 Y. Zhao,  B. R. Brooks,  G. K. L. Chan,  D. M. Chipman,  C. J. Cramer,  
 W. A. Goddard III,  M. S. Gordon,  W. J. Hehre,  A. Klamt,  
 H. F. Schaefer III,  M. W. Schmidt,  C. D. Sherrill,  D. G. Truhlar,  
 A. Warshel,  X. Xu,  A. Aspuru-Guzik,  R. Baer,  A. T. Bell,  N. A. Besley,  
 J.-D. Chai,  A. Dreuw,  B. D. Dunietz,  T. R. Furlani,  S. R. Gwaltney,  
 C.-P. Hsu,  Y. Jung,  J. Kong,  D. S. Lambrecht,  W. Liang,  C. Ochsenfeld,  
 V. A. Rassolov,  L. V. Slipchenko,  J. E. Subotnik,  T. Van Voorhis,  
 J. M. Herbert,  A. I. Krylov,  P. M. W. Gill,  M. Head-Gordon

 Contributors to earlier versions of Q-Chem not listed above: 
 R. D. Adamson,  J. Baker,  E. F. C. Byrd,  A. K. Chakraborty,  C.-L. Cheng,  
 H. Dachsel,  R. J. Doerksen,  G. Hawkins,  A. Heyden,  S. Hirata,  
 G. Kedziora,  F. J. Keil,  C. Kelley,  P. P. Korambath,  W. Kurlancheek,  
 A. M. Lee,  M. S. Lee,  D. Liotard,  I. Lotan,  P. E. Maslen,  N. Nair,  
 D. Neuhauser,  R. Olson,  B. Peters,  J. Ritchie,  N. E. Schultz,  
 N. Shenvi,  A. C. Simmonett,  K. S. Thanthiriwatte,  Q. Wu,  W. Zhang

 Please cite Q-Chem as follows:
 Y. Shao et al., Mol. Phys. 113, 184-215 (2015)
 DOI: 10.1080/00268976.2014.952696

 Q-Chem 4.4.2 for Intel X86 Linux

 Parts of Q-Chem use Armadillo 5.200.1 (Boston Tea Smuggler).
 http://arma.sourceforge.net/

 Q-Chem begins on Tue Jun  6 05:50:32 2017  

Host: 
0

     Scratch files written to /tmpu/cab_g/afmv_a/scratch_qchem/qchem119213//
 Dec716 11556_ 22328  22283 4050   
Processing $rem in /tmpu/appuserlic/qchem4.4/serial-multicore/config/preferences.
 MEM_TOTAL  2000 
FILE_GEOM_ORG=        593

Checking the input file for inconsistencies... 	...done.

--------------------------------------------------------------
User input:
--------------------------------------------------------------
$comment
OPTIMIZATION
$end

$rem
JOBTYPE OPT
EXCHANGE omegaB97X-D
BASIS cc-pVTZ
$end

$molecule
0 1
C          0.00000        0.00000        0.00000
C          1.38599        0.00000        0.00000
C         -0.68515       -1.20581        0.00000
C          2.08055       -1.19709        0.02226
C          0.00742       -2.40411        0.01179
C          1.40063       -2.41271        0.04151
C          2.15950       -3.67324        0.15696
C          3.15000       -3.81753        1.08952
C          1.92849       -4.81544       -0.65861
N          3.90172       -4.92812        1.27968
N          1.02636       -4.93526       -1.63501
C          2.72047       -5.99481       -0.47371
C          3.72589       -5.99344        0.54686
S          1.20518       -6.42345       -2.22449
N          2.39935       -6.98227       -1.31015
C          4.58521       -7.13898        0.84639
N          5.29826       -7.30690        1.91562
S          4.69456       -8.43216       -0.31188
C          5.98144       -8.47837        1.86526
C          5.79913       -9.23695        0.74111
C          6.36754      -10.53524        0.45108
S          6.71340      -11.06008       -1.16281
C          6.72032      -11.52659        1.32480
C          7.29655      -12.58450       -0.65578
S          6.62453      -11.70977        3.05623
C          7.24620      -12.69890        0.70575
C          7.27535      -13.33131        2.92478
C          7.55829      -13.72068        1.67193
H         -0.54342        0.93472        0.00000
H          1.93260        0.93382       -0.01501
H         -1.76734       -1.21268        0.00047
H          3.16263       -1.19509        0.00785
H         -0.53593       -3.33924        0.01382
H          3.36185       -2.99842        1.76492
H          6.63588       -8.75064        2.68019
H          7.63146      -13.31043       -1.37556
H          7.39410      -13.90484        3.82968
H          7.95414      -14.69385        1.42752
$end

$opt
CONSTRAINT
tors 4 6 7 8 47.06187
tors 10 13 16 18 -165.00000
tors 18 20 21 22 32.71647
ENDCONSTRAINT
$end
--------------------------------------------------------------
 ----------------------------------------------------------------
             Standard Nuclear Orientation (Angstroms)
    I     Atom           X                Y                Z
 ----------------------------------------------------------------
    1      C      -8.2634252905     0.8563087199     0.0156906495
    2      C      -7.5446888406     1.3114733240    -1.0784808996
    3      C      -7.5991545352     0.2284290959     1.0587245992
    4      C      -6.1694843230     1.1592754353    -1.1182540900
    5      C      -6.2252886056     0.0659234680     1.0163049408
    6      C      -5.4917617567     0.5468425587    -0.0665831110
    7      C      -4.0177306464     0.4768990321    -0.0886839979
    8      C      -3.2636405235     1.5778641226    -0.3900176397
    9      C      -3.2753221184    -0.7011189350     0.2015643989
   10      N      -1.9106101998     1.6216731414    -0.4352243322
   11      N      -3.7658360769    -1.9000362337     0.5233495707
   12      C      -1.8439252852    -0.6717155432     0.1508448396
   13      C      -1.1940829378     0.5605701406    -0.1832379274
   14      S      -2.4896350712    -2.8593192919     0.7360929518
   15      N      -1.2817360964    -1.8460637898     0.4383803873
   16      C       0.2581882521     0.7246634954    -0.2495156520
   17      N       0.9057384858     1.8473618664    -0.2603454473
   18      S       1.2612344502    -0.6947884137    -0.3196293461
   19      C       2.2441555939     1.6358289816    -0.3345511506
   20      C       2.6482581129     0.3293542209    -0.3816534724
   21      C       4.0039518128    -0.1739829712    -0.4205188339
   22      S       4.4221109106    -1.6615807587    -1.2027674444
   23      C       5.1360951096     0.3825573618     0.1078083398
   24      C       6.0778828346    -1.5314502289    -0.7996730874
   25      S       5.4612088444     1.8195654748     1.0404868611
   26      C       6.3214245426    -0.3833352665    -0.0983130566
   27      C       7.1531021002     1.3753917072     1.1426857927
   28      C       7.4699400402     0.2313610630     0.5165030974
   29      H      -9.3355790659     0.9901471051     0.0554441811
   30      H      -8.0527282667     1.7897202777    -1.9056467702
   31      H      -8.1544800163    -0.1288464922     1.9161337069
   32      H      -5.6118685134     1.5025721951    -1.9798344507
   33      H      -5.7160994890    -0.4231580276     1.8355895034
   34      H      -3.7605989421     2.5178060073    -0.5938027184
   35      H       2.9172479004     2.4797484907    -0.3703307608
   36      H       6.7739513268    -2.2999100033    -1.0863445908
   37      H       7.8145568109     2.0222202924     1.6958337660
   38      H       8.4670381056    -0.1797155970     0.4990460880
 ----------------------------------------------------------------
 Molecular Point Group                 C1    NOp =  1
 Largest Abelian Subgroup              C1    NOp =  1
 Nuclear Repulsion Energy =  2886.3525813239 hartrees
 There are      111 alpha and      111 beta electrons
 Requested basis set is cc-pVTZ
 There are 348 shells and 996 basis functions

 Total QAlloc Memory Limit   2000 MB
 Mega-Array Size        61 MB
 MEM_STATIC part        62 MB
 A cutoff of  1.0D-11 yielded  28665 shell pairs
 There are    226955 function pairs (    296507 Cartesian)
 
 -------------------------------------------------------
 OpenMP Integral Computing Module                       
 Release: version 1.0, May 2013, Q-Chem Inc. Pittsburgh 
 -------------------------------------------------------
 Integral Job Info:
 Integral job number is                      11
 Integral operator is                         1
 short-range coefficients              22203600
 long-range coefficients              100000000
 Omega coefficients                         200
 if combine SR and LR in K                    1
 Integral screening is                        0
 Integral computing path is                   2
 max size of driver memory is            800000
 size of driver memory is                776718
 size of scratch memory is             26248924
 max col of scratch BK array              10000
 max len of scratch array in speh3          662
 max len of scratch index in speh4           32
 max int batch size is                      520
 min int batch size is                       52
 fixed nKL is                                52
 max L of basis functions is                  3
 order of int derivative is                   0
 number of shells is                        348
 number of basis is                        1146
 number of cartesian basis is              1146
 number of contracted shell pairs         28665
 number of primitive shell pairs          90997
 maxK2 (contraction) of shell pair          121
 max number of K2 of shell pair               1
 max number of CS2 of shell pair           3879
 max number of PS2 of shell pair          11529
 mem total for path MDJ                  792512
 -------------------------------------------------------
 Smallest overlap matrix eigenvalue = 3.11E-05

 Scale SEOQF with 1.000000e-02/1.000000e-01/1.000000e-01

 Standard Electronic Orientation quadrupole field applied
 Nucleus-field energy     =     0.0000000371 hartrees
 Guess from superposition of atomic densities
 Warning:  Energy on first SCF cycle will be non-variational
 Long-range K will be added via erf
 Coulomb attenuation parameter = 0.2 bohr**(-1)
 A restricted hybrid HF-DFT SCF calculation will be
 performed using Pulay DIIS extrapolation
 Exchange:     0.2220 Hartree-Fock + 1.0000 wB97X-D + LR-HF
 Correlation:  1.0000 wB97X-D
 Using SG-2 standard quadrature grid
 Dispersion:   Grimme D
 SCF converges when DIIS error is below 1.0E-08
 using 16 threads for integral computing 
 using 16 threads for integral computing 
 K construction time:  CPU 59.43 s  wall 4.00 s
 -------------------------------------------------------
 OpenMP BLAS3 based DFT computing Module                
 Release: version 1.0, May 2013, Q-Chem Inc. Pittsburgh 
 -------------------------------------------------------
 ---------------------------------------
  Cycle       Energy         DIIS Error
 ---------------------------------------
    1   -2589.7824162198      1.84E-02
 K construction time:  CPU 919.06 s  wall 60.30 s
    2   -2579.5996309336      1.39E-03
 K construction time:  CPU 879.20 s  wall 57.64 s
    3   -2579.6001760748      1.49E-03
 K construction time:  CPU 841.25 s  wall 55.19 s
    4   -2579.8464867899      2.78E-04
 K construction time:  CPU 777.38 s  wall 51.09 s
    5   -2579.8534015327      1.58E-04
 K construction time:  CPU 740.88 s  wall 48.62 s
    6   -2579.8561463497      5.10E-05
 K construction time:  CPU 692.63 s  wall 45.34 s
    7   -2579.8564401649      1.98E-05
 K construction time:  CPU 651.30 s  wall 42.82 s
    8   -2579.8564999966      6.28E-06
 K construction time:  CPU 619.91 s  wall 40.69 s
    9   -2579.8565116650      3.55E-06
 K construction time:  CPU 597.15 s  wall 39.13 s
   10   -2579.8565155168      1.17E-06
 K construction time:  CPU 532.83 s  wall 34.94 s
   11   -2579.8565159406      6.89E-07
 K construction time:  CPU 492.93 s  wall 32.37 s
   12   -2579.8565160706      1.99E-07
 K construction time:  CPU 433.26 s  wall 28.43 s
   13   -2579.8565160839      1.07E-07
 K construction time:  CPU 378.39 s  wall 24.81 s
   14   -2579.8565160885      3.36E-08
 K construction time:  CPU 332.41 s  wall 21.59 s
   15   -2579.8565160896      1.40E-08
 K construction time:  CPU 911.02 s  wall 59.72 s
   16   -2579.8565160827      4.15E-09 Convergence criterion met
 ---------------------------------------
 SCF time:  CPU 13323.13 s  wall 897.72 s
 SCF   energy in the final basis set = -2579.8565160827
 Total energy in the final basis set = -2579.8565160827
 
 --------------------------------------------------------------
 
                    Orbital Energies (a.u.)
 --------------------------------------------------------------
 
 Alpha MOs
 -- Occupied --
-89.156 -89.090 -89.086 -89.077 -14.494 -14.489 -14.449 -14.442
-10.364 -10.362 -10.362 -10.361 -10.342 -10.340 -10.334 -10.332
-10.330 -10.326 -10.325 -10.322 -10.313 -10.312 -10.305 -10.298
-10.297 -10.296 -10.296 -10.295  -8.166  -8.105  -8.102  -8.092
 -6.116  -6.111  -6.110  -6.054  -6.051  -6.050  -6.048  -6.047
 -6.045  -6.042  -6.038  -6.034  -1.153  -1.086  -1.060  -1.022
 -1.018  -0.976  -0.958  -0.926  -0.917  -0.905  -0.876  -0.860
 -0.856  -0.833  -0.828  -0.801  -0.777  -0.746  -0.737  -0.713
 -0.707  -0.694  -0.690  -0.660  -0.653  -0.637  -0.627  -0.616
 -0.606  -0.598  -0.577  -0.565  -0.560  -0.547  -0.541  -0.531
 -0.530  -0.526  -0.515  -0.514  -0.512  -0.500  -0.497  -0.486
 -0.480  -0.475  -0.470  -0.460  -0.449  -0.441  -0.437  -0.435
 -0.432  -0.424  -0.422  -0.404  -0.392  -0.373  -0.364  -0.362
 -0.359  -0.354  -0.340  -0.338  -0.324  -0.308  -0.272
 -- Virtual --
 -0.053   0.001   0.026   0.044   0.052   0.054   0.067   0.070
  0.077   0.089   0.105   0.109   0.118   0.124   0.131   0.136
  0.142   0.144   0.150   0.155   0.164   0.164   0.170   0.179
  0.188   0.193   0.194   0.202   0.214   0.223   0.233   0.234
  0.245   0.250   0.263   0.266   0.272   0.283   0.283   0.291
  0.296   0.299   0.303   0.305   0.311   0.313   0.319   0.328
  0.330   0.331   0.332   0.336   0.344   0.346   0.349   0.355
  0.360   0.361   0.370   0.373   0.380   0.382   0.384   0.388
  0.390   0.393   0.395   0.399   0.403   0.404   0.407   0.410
  0.415   0.420   0.425   0.427   0.429   0.432   0.435   0.440
  0.445   0.446   0.449   0.451   0.459   0.462   0.464   0.467
  0.469   0.472   0.475   0.476   0.478   0.480   0.481   0.486
  0.491   0.496   0.499   0.503   0.504   0.508   0.511   0.516
  0.521   0.523   0.528   0.532   0.538   0.542   0.543   0.549
  0.554   0.562   0.563   0.565   0.567   0.569   0.572   0.580
  0.584   0.593   0.598   0.607   0.612   0.616   0.624   0.627
  0.629   0.633   0.640   0.651   0.652   0.658   0.665   0.666
  0.668   0.673   0.678   0.683   0.690   0.695   0.705   0.708
  0.716   0.724   0.724   0.729   0.732   0.736   0.747   0.749
  0.754   0.760   0.763   0.769   0.771   0.773   0.781   0.784
  0.789   0.795   0.799   0.803   0.805   0.806   0.816   0.824
  0.828   0.830   0.835   0.841   0.843   0.846   0.850   0.857
  0.863   0.868   0.872   0.881   0.882   0.885   0.894   0.896
  0.904   0.908   0.909   0.918   0.920   0.926   0.934   0.937
  0.943   0.947   0.948   0.950   0.957   0.962   0.965   0.967
  0.977   0.983   0.987   0.988   0.998   1.010   1.012   1.017
  1.030   1.031   1.039   1.043   1.045   1.050   1.054   1.061
  1.063   1.065   1.075   1.083   1.087   1.093   1.095   1.104
  1.116   1.117   1.119   1.121   1.131   1.142   1.150   1.156
  1.163   1.165   1.172   1.175   1.183   1.187   1.199   1.201
  1.210   1.218   1.224   1.228   1.230   1.238   1.240   1.255
  1.257   1.265   1.272   1.274   1.276   1.284   1.296   1.303
  1.310   1.316   1.323   1.329   1.339   1.351   1.352   1.357
  1.363   1.365   1.368   1.383   1.388   1.398   1.408   1.414
  1.415   1.419   1.429   1.435   1.438   1.444   1.449   1.451
  1.456   1.461   1.468   1.479   1.481   1.484   1.487   1.489
  1.493   1.506   1.511   1.515   1.520   1.539   1.546   1.549
  1.554   1.564   1.572   1.576   1.581   1.598   1.606   1.608
  1.610   1.613   1.620   1.630   1.641   1.645   1.646   1.653
  1.655   1.665   1.668   1.672   1.679   1.684   1.686   1.695
  1.701   1.706   1.712   1.716   1.727   1.733   1.745   1.749
  1.756   1.762   1.763   1.770   1.788   1.790   1.797   1.801
  1.828   1.833   1.837   1.849   1.855   1.859   1.873   1.883
  1.890   1.895   1.905   1.909   1.925   1.930   1.932   1.941
  1.956   1.962   1.966   1.970   1.980   1.987   2.001   2.010
  2.012   2.022   2.023   2.030   2.036   2.037   2.050   2.062
  2.067   2.077   2.086   2.092   2.097   2.104   2.111   2.119
  2.126   2.142   2.153   2.164   2.167   2.176   2.184   2.186
  2.190   2.195   2.208   2.210   2.219   2.236   2.242   2.249
  2.255   2.256   2.263   2.267   2.275   2.281   2.285   2.305
  2.307   2.314   2.331   2.333   2.338   2.348   2.355   2.358
  2.366   2.374   2.383   2.391   2.399   2.408   2.417   2.420
  2.432   2.435   2.444   2.455   2.458   2.468   2.474   2.479
  2.486   2.487   2.493   2.496   2.499   2.503   2.507   2.529
  2.531   2.535   2.543   2.547   2.558   2.562   2.565   2.578
  2.583   2.594   2.602   2.607   2.612   2.618   2.623   2.636
  2.641   2.653   2.664   2.671   2.672   2.679   2.690   2.707
  2.712   2.722   2.732   2.742   2.747   2.755   2.761   2.768
  2.776   2.779   2.781   2.786   2.788   2.802   2.805   2.807
  2.817   2.823   2.825   2.827   2.834   2.839   2.846   2.851
  2.860   2.867   2.883   2.891   2.897   2.903   2.907   2.912
  2.919   2.933   2.939   2.943   2.954   2.960   2.969   2.972
  2.977   2.987   2.993   2.998   3.000   3.005   3.012   3.014
  3.016   3.023   3.031   3.035   3.040   3.047   3.055   3.058
  3.063   3.069   3.076   3.078   3.084   3.088   3.093   3.100
  3.102   3.107   3.110   3.111   3.122   3.124   3.129   3.131
  3.140   3.145   3.150   3.152   3.158   3.160   3.170   3.172
  3.173   3.177   3.184   3.186   3.192   3.195   3.202   3.203
  3.214   3.215   3.215   3.223   3.230   3.234   3.239   3.241
  3.248   3.253   3.259   3.262   3.271   3.275   3.278   3.284
  3.285   3.291   3.295   3.297   3.301   3.305   3.313   3.316
  3.324   3.333   3.336   3.339   3.342   3.349   3.355   3.357
  3.362   3.365   3.376   3.382   3.390   3.396   3.401   3.411
  3.423   3.423   3.429   3.431   3.444   3.450   3.456   3.460
  3.463   3.465   3.470   3.473   3.475   3.479   3.493   3.494
  3.498   3.503   3.507   3.515   3.527   3.530   3.543   3.544
  3.549   3.558   3.561   3.569   3.574   3.579   3.584   3.597
  3.601   3.608   3.616   3.630   3.634   3.641   3.668   3.669
  3.682   3.688   3.700   3.709   3.716   3.722   3.728   3.734
  3.748   3.753   3.762   3.767   3.774   3.781   3.782   3.788
  3.797   3.801   3.828   3.830   3.838   3.845   3.853   3.855
  3.859   3.860   3.865   3.867   3.875   3.879   3.881   3.889
  3.894   3.898   3.913   3.922   3.934   3.937   3.942   3.946
  3.953   3.965   3.968   3.976   3.978   3.984   3.989   3.992
  3.996   4.003   4.004   4.021   4.027   4.036   4.058   4.070
  4.076   4.080   4.090   4.095   4.103   4.126   4.134   4.142
  4.147   4.153   4.160   4.163   4.168   4.173   4.180   4.185
  4.192   4.203   4.220   4.226   4.233   4.241   4.247   4.256
  4.269   4.272   4.281   4.289   4.299   4.320   4.325   4.329
  4.332   4.342   4.346   4.356   4.362   4.372   4.381   4.387
  4.390   4.399   4.405   4.414   4.424   4.425   4.435   4.441
  4.445   4.452   4.458   4.471   4.476   4.495   4.503   4.519
  4.529   4.531   4.553   4.558   4.571   4.583   4.591   4.595
  4.608   4.620   4.623   4.628   4.643   4.661   4.667   4.678
  4.682   4.706   4.724   4.736   4.743   4.755   4.774   4.777
  4.794   4.806   4.824   4.829   4.837   4.846   4.847   4.857
  4.859   4.863   4.879   4.890   4.907   4.911   4.921   4.928
  4.935   4.949   4.951   4.956   4.987   4.990   4.992   5.025
  5.026   5.046   5.056   5.060   5.064   5.069   5.084   5.095
  5.101   5.110   5.114   5.118   5.128   5.134   5.155   5.175
  5.185   5.195   5.221   5.247   5.250   5.259   5.263   5.270
  5.273   5.276   5.326   5.338   5.343   5.368   5.386   5.395
  5.401   5.414   5.443   5.462   5.492   5.510   5.527   5.540
  5.551   5.583   5.593   5.632   5.654   5.667   5.680   5.692
  5.708   5.722   5.775   5.783   5.792   5.820   5.821   5.870
  5.907   5.927   5.995   6.018   6.037   6.040   6.055   6.085
  6.138   6.156   6.160   6.192   6.212   6.234   6.251   6.301
  6.380   6.458   6.515   6.863   6.976   8.101   8.559   9.427
 10.020  10.591  11.085  11.140  11.694  12.013  12.278  12.716
 12.818  12.857  12.912  13.006  13.190  13.390  13.445  13.567
 13.829  13.946  14.129  14.717  15.706
 --------------------------------------------------------------
 
          Ground-State Mulliken Net Atomic Charges

     Atom                 Charge (a.u.)
  ----------------------------------------
      1 C                    -0.124917
      2 C                    -0.107882
      3 C                    -0.109155
      4 C                    -0.156448
      5 C                    -0.122233
      6 C                     0.120403
      7 C                     0.011466
      8 C                    -0.104133
      9 C                     0.035662
     10 N                    -0.120353
     11 N                    -0.275129
     12 C                     0.016327
     13 C                     0.048986
     14 S                     0.412250
     15 N                    -0.279551
     16 C                     0.015549
     17 N                    -0.134512
     18 S                     0.111552
     19 C                    -0.140183
     20 C                    -0.021400
     21 C                     0.009616
     22 S                     0.130469
     23 C                    -0.050406
     24 C                    -0.221290
     25 S                     0.055931
     26 C                     0.043390
     27 C                    -0.144566
     28 C                    -0.173076
     29 H                     0.118843
     30 H                     0.115682
     31 H                     0.116014
     32 H                     0.131790
     33 H                     0.115112
     34 H                     0.138705
     35 H                     0.147942
     36 H                     0.129835
     37 H                     0.132070
     38 H                     0.127638
  ----------------------------------------
  Sum of atomic charges =     0.000000

 -----------------------------------------------------------------
                    Cartesian Multipole Moments
 -----------------------------------------------------------------
    Charge (ESU x 10^10)
                 0.0000
    Dipole Moment (Debye)
         X       0.5904      Y      -2.1495      Z       0.4321
       Tot       2.2706
    Quadrupole Moments (Debye-Ang)
        XX    -139.0010     XY      -4.4355     YY    -184.6102
        XZ       1.6485     YZ       0.0114     ZZ    -183.1181
    Octopole Moments (Debye-Ang^2)
       XXX     118.2325    XXY      27.6247    XYY      27.6981
       YYY     -45.8936    XXZ      29.2883    XYZ      48.7163
       YYZ       1.4492    XZZ     -25.0459    YZZ      -3.2254
       ZZZ       5.3274
    Hexadecapole Moments (Debye-Ang^3)
      XXXX  -20937.7852   XXXY    -393.8863   XXYY   -4412.6526
      XYYY      76.1879   YYYY   -2300.5054   XXXZ     224.3320
      XXYZ      36.8426   XYYZ      29.6039   YYYZ       2.1539
      XXZZ   -4175.1944   XYZZ      19.9678   YYZZ    -503.7478
      XZZZ      -0.8150   YZZZ     -14.7019   ZZZZ    -786.3375
 -----------------------------------------------------------------
 Calculating analytic gradient of the SCF energy
 K construction time:  CPU 2157.78 s  wall 136.78 s
 Gradient of SCF Energy
            1           2           3           4           5           6
    1  -0.0005899   0.0009279   0.0007202  -0.0007262  -0.0007588   0.0002773
    2  -0.0002522  -0.0005857   0.0002319   0.0001066   0.0004411   0.0004825
    3   0.0005039   0.0004724  -0.0005572   0.0001520  -0.0003377  -0.0004005
            7           8           9          10          11          12
    1   0.0014613  -0.0008186   0.0000697   0.0011301  -0.0031608   0.0029081
    2  -0.0002016   0.0021068  -0.0020238   0.0002402   0.0008958  -0.0020793
    3   0.0002307  -0.0011131  -0.0000392   0.0007002  -0.0004046   0.0004180
           13          14          15          16          17          18
    1   0.0041053   0.0017972   0.0016881  -0.0018322   0.0003885  -0.0083006
    2  -0.0118935   0.0037115  -0.0020231   0.0143478  -0.0011748  -0.0036637
    3   0.0014371  -0.0007170   0.0003786  -0.0015782   0.0001481  -0.0007045
           19          20          21          22          23          24
    1   0.0014334  -0.0004262   0.0004932  -0.0004146  -0.0000941   0.0001786
    2   0.0011226   0.0012326   0.0008333  -0.0008182  -0.0009787  -0.0007788
    3  -0.0000149   0.0009166   0.0010960  -0.0005757  -0.0006497  -0.0005806
           25          26          27          28          29          30
    1  -0.0006744  -0.0003199   0.0012004  -0.0005497   0.0001962  -0.0000140
    2   0.0012578   0.0004632  -0.0007272  -0.0001384   0.0003693   0.0003578
    3   0.0003210   0.0004794  -0.0003410  -0.0008386   0.0000318  -0.0004521
           31          32          33          34          35          36
    1  -0.0004454   0.0002003  -0.0000063  -0.0004577   0.0007990   0.0000338
    2   0.0002129  -0.0005507  -0.0003844  -0.0004653  -0.0004825   0.0003835
    3   0.0004922  -0.0002558   0.0003482   0.0003924  -0.0002975   0.0003902
           37          38
    1  -0.0004191  -0.0000002
    2   0.0000911   0.0003336
    3   0.0004656   0.0004835
 Max gradient component =       1.435E-02
 RMS gradient           =       2.188E-03
 Gradient time:  CPU 2547.17 s  wall 163.21 s
 Geometry Optimization Parameters
   NAtoms,    NIC,     NZ,  NCons,   NDum,   NFix, NCnnct, MaxDiis
       38     289       0       3       0       0       0       0


** CONSTRAINED OPTIMIZATION IN DELOCALIZED INTERNAL COORDINATES **
   Searching for a Minimum

   Optimization Cycle:   1

                       Coordinates (Angstroms)
     ATOM                X               Y               Z
      1  C        -8.2634252905    0.8563087199    0.0156906495
      2  C        -7.5446888406    1.3114733240   -1.0784808996
      3  C        -7.5991545352    0.2284290959    1.0587245992
      4  C        -6.1694843230    1.1592754353   -1.1182540900
      5  C        -6.2252886056    0.0659234680    1.0163049408
      6  C        -5.4917617567    0.5468425587   -0.0665831110
      7  C        -4.0177306464    0.4768990321   -0.0886839979
      8  C        -3.2636405235    1.5778641226   -0.3900176397
      9  C        -3.2753221184   -0.7011189350    0.2015643989
     10  N        -1.9106101998    1.6216731414   -0.4352243322
     11  N        -3.7658360769   -1.9000362337    0.5233495707
     12  C        -1.8439252852   -0.6717155432    0.1508448396
     13  C        -1.1940829378    0.5605701406   -0.1832379274
     14  S        -2.4896350712   -2.8593192919    0.7360929518
     15  N        -1.2817360964   -1.8460637898    0.4383803873
     16  C         0.2581882521    0.7246634954   -0.2495156520
     17  N         0.9057384858    1.8473618664   -0.2603454473
     18  S         1.2612344502   -0.6947884137   -0.3196293461
     19  C         2.2441555939    1.6358289816   -0.3345511506
     20  C         2.6482581129    0.3293542209   -0.3816534724
     21  C         4.0039518128   -0.1739829712   -0.4205188339
     22  S         4.4221109106   -1.6615807587   -1.2027674444
     23  C         5.1360951096    0.3825573618    0.1078083398
     24  C         6.0778828346   -1.5314502289   -0.7996730874
     25  S         5.4612088444    1.8195654748    1.0404868611
     26  C         6.3214245426   -0.3833352665   -0.0983130566
     27  C         7.1531021002    1.3753917072    1.1426857927
     28  C         7.4699400402    0.2313610630    0.5165030974
     29  H        -9.3355790659    0.9901471051    0.0554441811
     30  H        -8.0527282667    1.7897202777   -1.9056467702
     31  H        -8.1544800163   -0.1288464922    1.9161337069
     32  H        -5.6118685134    1.5025721951   -1.9798344507
     33  H        -5.7160994890   -0.4231580276    1.8355895034
     34  H        -3.7605989421    2.5178060073   -0.5938027184
     35  H         2.9172479004    2.4797484907   -0.3703307608
     36  H         6.7739513268   -2.2999100033   -1.0863445908
     37  H         7.8145568109    2.0222202924    1.6958337660
     38  H         8.4670381056   -0.1797155970    0.4990460880
   Point Group: c1    Number of degrees of freedom:   108


   Energy is  -2579.856516083

              Constraints and their Current Values
                                        Value     Constraint
   Dihedral:        4   6   7   8       47.013       47.062
   Dihedral:       10  13  16  18     -165.000     -165.000
   Dihedral:       18  20  21  22       32.691       32.716

 Attempting to Generate Delocalized Internal Coordinates

   Using Lagrange Multiplier Algorithm


111 Hessian modes will be used to form the next step
  Hessian Eigenvalues:
    -0.977753   -0.977753   -0.977753    0.045000    0.045000    0.045000
     0.045000    0.045000    0.045000    0.045000    0.045000    0.045000
     0.045000    0.045000    0.045000    0.045001    0.045001    0.045001
     0.045001    0.045001    0.045002    0.045002    0.045003    0.045003
     0.045004    0.045005    0.045005    0.045007    0.045008    0.045008
     0.045012    0.045021    0.045031    0.045040    0.045052    0.159964
     0.159978    0.159978    0.159981    0.159982    0.159991    0.159991
     0.159994    0.160000    0.160000    0.219984    0.219994    0.225218
     0.233057    0.234605    0.234757    0.237025    0.247518    0.249693
     0.249750    0.249778    0.249982    0.249986    0.249988    0.249992
     0.249995    0.249997    0.249999    0.249999    0.250000    0.296266
     0.304569    0.308348    0.315686    0.324175    0.337609    0.350485
     0.356840    0.357284    0.357325    0.357370    0.358104    0.358490
     0.359869    0.361575    0.362485    0.365136    0.365895    0.369132
     0.381389    0.386886    0.389564    0.393560    0.413656    0.429805
     0.432305    0.470765    0.472706    0.474104    0.479088    0.480434
     0.482725    0.483543    0.486776    0.496421    0.509558    0.519719
     0.527463    0.543250    0.556243    0.579533    0.638655    0.653861
     1.022753    1.022753    1.022753

 Minimum Search - Taking P-RFO Step
 Searching for Lamda that Maximizes Along the Constraint modes Only
 Value Taken    Lamda =   0.00000320
 Searching for Lamda that Minimizes Along All other modes
 Value Taken    Lamda =  -0.00295422
 Step Taken.  Stepsize is  0.128614

                             Maximum     Tolerance    Cnvgd?
         Gradient            0.012659       0.000300      NO
         Displacement        0.066970       0.001200      NO
         Energy change     *********       0.000001      NO


 New Cartesian Coordinates Obtained by Inverse Iteration

 Displacement from previous Coordinates is:  0.981485
 ----------------------------------------------------------------
             Standard Nuclear Orientation (Angstroms)
    I     Atom           X                Y                Z
 ----------------------------------------------------------------
    1      C      -8.2849210685     0.8849507194    -0.0292699604
    2      C      -7.5498573141     1.3588321582    -1.1042960519
    3      C      -7.6371417156     0.2446755717     1.0168909159
    4      C      -6.1733060282     1.2074127889    -1.1245790257
    5      C      -6.2622971714     0.0866367855     0.9954975648
    6      C      -5.5129531989     0.5801187133    -0.0700495297
    7      C      -4.0404439425     0.4863593378    -0.0744236238
    8      C      -3.2482245917     1.5658750084    -0.3578344750
    9      C      -3.3321088384    -0.7086712443     0.2223724848
   10      N      -1.8930290001     1.5740350063    -0.3912190493
   11      N      -3.8530675302    -1.8985316013     0.5353740979
   12      C      -1.9026694336    -0.7152140161     0.1894939569
   13      C      -1.2054619846     0.4946281448    -0.1345797324
   14      S      -2.6130822440    -2.8997158138     0.7608073642
   15      N      -1.3815624471    -1.9073590118     0.4811564296
   16      C       0.2627207325     0.6071578561    -0.1810566221
   17      N       0.8933742385     1.7399220229    -0.1933892976
   18      S       1.3168607370    -0.7826962758    -0.2437206947
   19      C       2.2351605045     1.5638565771    -0.2756651535
   20      C       2.6776365581     0.2709726972    -0.3309586128
   21      C       4.0459849410    -0.1961283726    -0.3958624463
   22      S       4.4856336047    -1.6706764702    -1.1879202822
   23      C       5.1766623974     0.3891796876     0.1070057391
   24      C       6.1462630454    -1.4980775036    -0.8261925371
   25      S       5.4899706217     1.8324976004     1.0317030765
   26      C       6.3772480791    -0.3447563715    -0.1303778330
   27      C       7.1952009307     1.4369220815     1.0862309940
   28      C       7.5255929280     0.3002341182     0.4534633159
   29      H      -9.3587120215     1.0112295710    -0.0068846903
   30      H      -8.0467725343     1.8455862756    -1.9322773987
   31      H      -8.2047602778    -0.1299388426     1.8576716944
   32      H      -5.6033779931     1.5632499708    -1.9726661683
   33      H      -5.7648622531    -0.4153249483     1.8133702242
   34      H      -3.7119718776     2.5215388138    -0.5687480450
   35      H       2.8785097088     2.4301672598    -0.3172262809
   36      H       6.8533765565    -2.2486730621    -1.1342879742
   37      H       7.8567148369     2.1033287320     1.6154461879
   38      H       8.5320816786    -0.0850679391     0.4040763340
 ----------------------------------------------------------------
 Molecular Point Group                 C1    NOp =  1
 Largest Abelian Subgroup              C1    NOp =  1
 Nuclear Repulsion Energy =  2876.7384776829 hartrees
 There are      111 alpha and      111 beta electrons
 Applying Cartesian multipole field
    Component          Value
    ---------          -----
     (2,0,0)        1.00000E-12
     (0,2,0)        2.00000E-11
     (0,0,2)       -3.00000E-11
 Nucleus-field energy     =     0.0000000381 hartrees
 Requested basis set is cc-pVTZ
 There are 348 shells and 996 basis functions
 A cutoff of  1.0D-11 yielded  28536 shell pairs
 There are    225868 function pairs (    295048 Cartesian)
 Smallest overlap matrix eigenvalue = 3.11E-05
 Guess MOs from SCF MO coefficient file
 Reading MOs from coefficient file
 Reading MOs from coefficient file
 Long-range K will be added via erf
 Coulomb attenuation parameter = 0.2 bohr**(-1)
 A restricted hybrid HF-DFT SCF calculation will be
 performed using Pulay DIIS extrapolation
 Exchange:     0.2220 Hartree-Fock + 1.0000 wB97X-D + LR-HF
 Correlation:  1.0000 wB97X-D
 Using SG-2 standard quadrature grid
 Dispersion:   Grimme D
 SCF converges when DIIS error is below 1.0E-08
 Geometry optimization detected.  Setting ReadMinima to 0
 Setting SaveMinima to 0
 using 16 threads for integral computing 
 using 16 threads for integral computing 
 K construction time:  CPU 910.18 s  wall 59.65 s
 -------------------------------------------------------
 OpenMP BLAS3 based DFT computing Module                
 Release: version 1.0, May 2013, Q-Chem Inc. Pittsburgh 
 -------------------------------------------------------
 ---------------------------------------
  Cycle       Energy         DIIS Error
 ---------------------------------------
    1   -2579.8418312210      4.73E-04
 K construction time:  CPU 908.18 s  wall 59.51 s
    2   -2579.8572690142      5.41E-05
 K construction time:  CPU 716.65 s  wall 46.95 s
    3   -2579.8575208712      5.80E-05
 K construction time:  CPU 676.28 s  wall 44.29 s
    4   -2579.8578722858      1.76E-05
 K construction time:  CPU 632.19 s  wall 41.42 s
    5   -2579.8579094713      8.40E-06
 K construction time:  CPU 589.04 s  wall 38.61 s
    6   -2579.8579190287      2.33E-06
 K construction time:  CPU 533.27 s  wall 35.01 s
    7   -2579.8579199230      7.27E-07
 K construction time:  CPU 482.90 s  wall 31.70 s
    8   -2579.8579200384      3.43E-07
 K construction time:  CPU 437.64 s  wall 28.66 s
    9   -2579.8579200616      1.13E-07
 K construction time:  CPU 377.85 s  wall 24.62 s
   10   -2579.8579200639      4.81E-08
 K construction time:  CPU 336.32 s  wall 21.85 s
   11   -2579.8579200640      2.44E-08
 K construction time:  CPU 297.25 s  wall 19.33 s
   12   -2579.8579200648      8.83E-09 Convergence criterion met
 ---------------------------------------
 SCF time:  CPU 9410.02 s  wall 632.95 s
 SCF   energy in the final basis set = -2579.8579200648
 Total energy in the final basis set = -2579.8579200648
 
 --------------------------------------------------------------
 
                    Orbital Energies (a.u.)
 --------------------------------------------------------------
 
 Alpha MOs
 -- Occupied --
-89.155 -89.091 -89.088 -89.078 -14.492 -14.487 -14.449 -14.441
-10.365 -10.363 -10.360 -10.359 -10.343 -10.342 -10.334 -10.333
-10.330 -10.327 -10.324 -10.322 -10.313 -10.312 -10.305 -10.297
-10.296 -10.296 -10.295 -10.295  -8.165  -8.105  -8.103  -8.093
 -6.116  -6.110  -6.109  -6.055  -6.052  -6.051  -6.049  -6.048
 -6.047  -6.043  -6.039  -6.035  -1.151  -1.085  -1.060  -1.023
 -1.014  -0.975  -0.959  -0.926  -0.917  -0.903  -0.875  -0.860
 -0.856  -0.834  -0.829  -0.802  -0.776  -0.745  -0.736  -0.713
 -0.707  -0.693  -0.691  -0.659  -0.653  -0.637  -0.626  -0.616
 -0.606  -0.598  -0.575  -0.565  -0.561  -0.547  -0.540  -0.531
 -0.529  -0.526  -0.515  -0.514  -0.511  -0.501  -0.499  -0.486
 -0.480  -0.476  -0.469  -0.457  -0.449  -0.441  -0.437  -0.435
 -0.432  -0.424  -0.421  -0.402  -0.392  -0.373  -0.364  -0.362
 -0.359  -0.352  -0.340  -0.338  -0.324  -0.308  -0.273
 -- Virtual --
 -0.052   0.001   0.026   0.044   0.052   0.054   0.067   0.071
  0.076   0.088   0.105   0.109   0.118   0.123   0.131   0.136
  0.142   0.144   0.149   0.155   0.163   0.164   0.171   0.178
  0.188   0.192   0.194   0.199   0.215   0.223   0.234   0.235
  0.243   0.250   0.263   0.267   0.271   0.282   0.284   0.291
  0.296   0.299   0.303   0.305   0.310   0.314   0.320   0.329
  0.330   0.330   0.333   0.335   0.345   0.347   0.349   0.355
  0.359   0.361   0.369   0.373   0.379   0.382   0.385   0.388
  0.389   0.391   0.395   0.399   0.403   0.405   0.407   0.410
  0.414   0.420   0.425   0.426   0.429   0.432   0.436   0.440
  0.444   0.445   0.449   0.452   0.460   0.462   0.464   0.468
  0.469   0.470   0.475   0.476   0.478   0.479   0.482   0.487
  0.491   0.495   0.499   0.503   0.504   0.507   0.511   0.516
  0.522   0.524   0.527   0.532   0.538   0.540   0.543   0.549
  0.554   0.561   0.563   0.565   0.567   0.568   0.571   0.579
  0.584   0.592   0.597   0.607   0.611   0.617   0.624   0.626
  0.629   0.634   0.639   0.650   0.651   0.657   0.662   0.666
  0.667   0.672   0.677   0.683   0.687   0.696   0.704   0.708
  0.713   0.723   0.724   0.728   0.732   0.736   0.746   0.750
  0.756   0.759   0.765   0.769   0.770   0.773   0.781   0.785
  0.788   0.795   0.799   0.803   0.804   0.805   0.816   0.823
  0.826   0.831   0.834   0.841   0.843   0.846   0.851   0.856
  0.864   0.867   0.872   0.881   0.881   0.886   0.893   0.895
  0.903   0.907   0.909   0.918   0.922   0.925   0.933   0.937
  0.944   0.947   0.947   0.950   0.956   0.961   0.964   0.966
  0.976   0.983   0.987   0.989   0.998   1.010   1.013   1.017
  1.027   1.032   1.039   1.043   1.045   1.050   1.054   1.060
  1.063   1.066   1.073   1.082   1.084   1.094   1.097   1.104
  1.114   1.117   1.120   1.122   1.130   1.143   1.149   1.153
  1.163   1.165   1.172   1.174   1.182   1.188   1.198   1.202
  1.209   1.217   1.224   1.225   1.228   1.237   1.240   1.254
  1.255   1.266   1.269   1.273   1.277   1.283   1.297   1.304
  1.313   1.317   1.323   1.330   1.340   1.350   1.352   1.356
  1.363   1.365   1.368   1.384   1.388   1.398   1.407   1.414
  1.415   1.418   1.429   1.435   1.438   1.444   1.448   1.451
  1.457   1.463   1.469   1.479   1.482   1.486   1.486   1.489
  1.492   1.506   1.509   1.514   1.520   1.538   1.545   1.548
  1.553   1.563   1.571   1.574   1.581   1.597   1.606   1.609
  1.610   1.615   1.618   1.631   1.638   1.643   1.645   1.653
  1.654   1.663   1.668   1.672   1.677   1.682   1.686   1.694
  1.699   1.705   1.710   1.717   1.722   1.731   1.741   1.745
  1.756   1.759   1.761   1.770   1.786   1.791   1.794   1.800
  1.828   1.832   1.835   1.845   1.853   1.857   1.874   1.881
  1.889   1.890   1.903   1.909   1.925   1.927   1.931   1.936
  1.949   1.962   1.964   1.967   1.980   1.987   2.001   2.010
  2.011   2.017   2.022   2.025   2.035   2.037   2.049   2.061
  2.067   2.076   2.087   2.093   2.096   2.104   2.112   2.120
  2.126   2.141   2.154   2.164   2.166   2.175   2.181   2.185
  2.195   2.196   2.208   2.211   2.218   2.235   2.240   2.248
  2.254   2.255   2.264   2.268   2.272   2.281   2.287   2.305
  2.308   2.315   2.330   2.332   2.343   2.350   2.354   2.358
  2.368   2.372   2.385   2.393   2.399   2.410   2.416   2.420
  2.433   2.440   2.445   2.455   2.458   2.468   2.473   2.479
  2.484   2.486   2.491   2.494   2.498   2.504   2.506   2.527
  2.530   2.534   2.545   2.548   2.558   2.562   2.565   2.578
  2.584   2.594   2.602   2.607   2.611   2.618   2.621   2.636
  2.641   2.651   2.663   2.671   2.672   2.677   2.690   2.706
  2.711   2.721   2.731   2.737   2.746   2.755   2.760   2.768
  2.776   2.779   2.782   2.784   2.788   2.801   2.803   2.806
  2.816   2.823   2.825   2.827   2.833   2.838   2.845   2.848
  2.857   2.864   2.881   2.892   2.896   2.903   2.907   2.911
  2.915   2.934   2.940   2.943   2.954   2.961   2.967   2.971
  2.978   2.984   2.992   2.997   2.999   3.004   3.012   3.014
  3.015   3.023   3.027   3.031   3.038   3.046   3.054   3.057
  3.062   3.069   3.075   3.076   3.081   3.087   3.092   3.099
  3.101   3.105   3.108   3.111   3.119   3.125   3.129   3.131
  3.141   3.145   3.151   3.152   3.157   3.161   3.169   3.170
  3.171   3.176   3.184   3.187   3.192   3.195   3.203   3.204
  3.212   3.213   3.214   3.223   3.228   3.234   3.235   3.241
  3.248   3.254   3.257   3.260   3.270   3.275   3.278   3.283
  3.284   3.291   3.292   3.296   3.300   3.306   3.314   3.315
  3.323   3.331   3.335   3.341   3.346   3.349   3.352   3.353
  3.360   3.365   3.376   3.381   3.389   3.391   3.401   3.411
  3.424   3.424   3.428   3.432   3.444   3.448   3.455   3.460
  3.460   3.465   3.469   3.473   3.474   3.478   3.491   3.495
  3.498   3.502   3.505   3.514   3.527   3.532   3.541   3.545
  3.549   3.556   3.561   3.569   3.573   3.577   3.584   3.597
  3.603   3.608   3.615   3.630   3.633   3.642   3.665   3.666
  3.681   3.689   3.700   3.710   3.715   3.723   3.728   3.733
  3.749   3.753   3.761   3.768   3.772   3.781   3.782   3.785
  3.795   3.801   3.827   3.828   3.839   3.841   3.851   3.854
  3.857   3.860   3.864   3.866   3.873   3.877   3.881   3.888
  3.894   3.896   3.911   3.922   3.935   3.938   3.941   3.947
  3.952   3.964   3.968   3.975   3.977   3.982   3.987   3.988
  3.994   3.996   4.006   4.020   4.030   4.035   4.058   4.068
  4.076   4.079   4.089   4.093   4.102   4.123   4.132   4.141
  4.142   4.151   4.157   4.163   4.168   4.171   4.176   4.181
  4.192   4.204   4.218   4.224   4.233   4.241   4.249   4.254
  4.266   4.273   4.280   4.288   4.298   4.321   4.325   4.329
  4.330   4.341   4.346   4.355   4.361   4.369   4.380   4.387
  4.389   4.399   4.403   4.411   4.422   4.426   4.433   4.440
  4.446   4.451   4.456   4.477   4.477   4.497   4.503   4.519
  4.526   4.528   4.552   4.557   4.569   4.580   4.594   4.597
  4.606   4.617   4.622   4.629   4.641   4.658   4.668   4.678
  4.684   4.708   4.724   4.736   4.743   4.754   4.774   4.779
  4.792   4.804   4.824   4.829   4.835   4.845   4.846   4.857
  4.859   4.865   4.877   4.889   4.907   4.909   4.918   4.929
  4.935   4.949   4.950   4.955   4.987   4.990   4.994   5.026
  5.027   5.049   5.053   5.057   5.066   5.070   5.086   5.095
  5.100   5.109   5.113   5.117   5.126   5.132   5.157   5.178
  5.188   5.193   5.221   5.245   5.248   5.258   5.260   5.268
  5.271   5.278   5.322   5.335   5.345   5.371   5.385   5.393
  5.401   5.411   5.440   5.463   5.489   5.506   5.523   5.540
  5.551   5.582   5.592   5.631   5.653   5.668   5.678   5.692
  5.709   5.722   5.776   5.782   5.794   5.822   5.823   5.868
  5.903   5.937   5.988   6.016   6.034   6.037   6.050   6.084
  6.134   6.155   6.159   6.192   6.213   6.236   6.249   6.296
  6.375   6.453   6.516   6.858   6.977   8.051   8.547   9.420
  9.998  10.556  11.086  11.141  11.679  12.002  12.254  12.712
 12.800  12.855  12.901  12.996  13.178  13.390  13.438  13.535
 13.818  13.945  14.134  14.690  15.706
 --------------------------------------------------------------
 
          Ground-State Mulliken Net Atomic Charges

     Atom                 Charge (a.u.)
  ----------------------------------------
      1 C                    -0.124777
      2 C                    -0.108193
      3 C                    -0.109764
      4 C                    -0.153892
      5 C                    -0.121861
      6 C                     0.121940
      7 C                     0.010672
      8 C                    -0.104092
      9 C                     0.036316
     10 N                    -0.120122
     11 N                    -0.278885
     12 C                     0.014556
     13 C                     0.064627
     14 S                     0.415690
     15 N                    -0.281762
     16 C                    -0.001272
     17 N                    -0.129494
     18 S                     0.112031
     19 C                    -0.143807
     20 C                    -0.019504
     21 C                     0.006028
     22 S                     0.131916
     23 C                    -0.050967
     24 C                    -0.220712
     25 S                     0.057268
     26 C                     0.044038
     27 C                    -0.144558
     28 C                    -0.173232
     29 H                     0.118620
     30 H                     0.115720
     31 H                     0.116132
     32 H                     0.131046
     33 H                     0.114413
     34 H                     0.138018
     35 H                     0.147420
     36 H                     0.130019
     37 H                     0.132509
     38 H                     0.127917
  ----------------------------------------
  Sum of atomic charges =     0.000000

 -----------------------------------------------------------------
                    Cartesian Multipole Moments
 -----------------------------------------------------------------
    Charge (ESU x 10^10)
                 0.0000
    Dipole Moment (Debye)
         X       0.7533      Y      -2.0098      Z       0.3118
       Tot       2.1689
    Quadrupole Moments (Debye-Ang)
        XX    -138.0175     XY      -3.6687     YY    -183.8922
        XZ       1.0947     YZ      -0.1983     ZZ    -183.3105
    Octopole Moments (Debye-Ang^2)
       XXX     132.1018    XXY      30.9822    XYY      26.1031
       YYY     -36.4717    XXZ      20.8421    XYZ      50.7847
       YYZ      -1.0278    XZZ     -25.0725    YZZ      -0.9392
       ZZZ      -2.1235
    Hexadecapole Moments (Debye-Ang^3)
      XXXX  -21190.2428   XXXY    -365.6034   XXYY   -4464.0180
      XYYY      73.4860   YYYY   -2310.7974   XXXZ     198.5662
      XXYZ      37.6693   XYYZ      35.7883   YYYZ       0.7648
      XXZZ   -4245.7711   XYZZ      10.3553   YYZZ    -503.0267
      XZZZ      10.1776   YZZZ     -14.2289   ZZZZ    -769.3408
 -----------------------------------------------------------------
 Calculating analytic gradient of the SCF energy
 K construction time:  CPU 2133.69 s  wall 135.23 s
 Gradient of SCF Energy
            1           2           3           4           5           6
    1  -0.0002042   0.0001018   0.0001274  -0.0002918   0.0000546  -0.0001189
    2  -0.0000649  -0.0000382   0.0000133  -0.0002049   0.0005256  -0.0002975
    3   0.0000539  -0.0000139  -0.0000040  -0.0004435  -0.0000836   0.0005699
            7           8           9          10          11          12
    1   0.0006205   0.0001306   0.0003814  -0.0018009   0.0005159   0.0003490
    2  -0.0010235   0.0011950   0.0020802   0.0011608   0.0001875   0.0018498
    3  -0.0003131   0.0002941  -0.0009450   0.0003356   0.0000903  -0.0003149
           13          14          15          16          17          18
    1   0.0021656   0.0005441  -0.0042318  -0.0015718  -0.0014035   0.0015554
    2  -0.0043501  -0.0032920  -0.0008639   0.0070819  -0.0022332  -0.0003561
    3   0.0002145   0.0007317   0.0006258  -0.0011497   0.0006856   0.0000941
           19          20          21          22          23          24
    1   0.0014094   0.0009488   0.0002960  -0.0001454  -0.0001408   0.0002827
    2  -0.0008844   0.0000199   0.0007247   0.0000207  -0.0007074  -0.0000666
    3   0.0004483  -0.0006669   0.0001875   0.0000126  -0.0004070   0.0000078
           25          26          27          28          29          30
    1  -0.0001894   0.0000343   0.0006342  -0.0000904   0.0000643   0.0000710
    2   0.0003339  -0.0001042  -0.0001846   0.0000472   0.0002141   0.0000678
    3   0.0001468  -0.0000234  -0.0002194  -0.0002468   0.0001060  -0.0000307
           31          32          33          34          35          36
    1  -0.0000258  -0.0000220   0.0000045  -0.0001319   0.0000289   0.0001541
    2   0.0001207  -0.0003840  -0.0003399  -0.0001836  -0.0002129   0.0001046
    3   0.0000698  -0.0001697  -0.0000238   0.0000945  -0.0003060   0.0001341
           37          38
    1  -0.0001513   0.0000455
    2  -0.0000035   0.0000480
    3   0.0002228   0.0002355
 Max gradient component =       7.082E-03
 RMS gradient           =       1.123E-03
 Gradient time:  CPU 2521.59 s  wall 161.50 s
 Geometry Optimization Parameters
   NAtoms,    NIC,     NZ,  NCons,   NDum,   NFix, NCnnct, MaxDiis
       38     289       0       3       0       0       0       0

 Cartesian Hessian Update
 Hessian Updated using BFGS Update


** CONSTRAINED OPTIMIZATION IN DELOCALIZED INTERNAL COORDINATES **
   Searching for a Minimum

   Optimization Cycle:   2

                       Coordinates (Angstroms)
     ATOM                X               Y               Z
      1  C        -8.2849210685    0.8849507194   -0.0292699604
      2  C        -7.5498573141    1.3588321582   -1.1042960519
      3  C        -7.6371417156    0.2446755717    1.0168909159
      4  C        -6.1733060282    1.2074127889   -1.1245790257
      5  C        -6.2622971714    0.0866367855    0.9954975648
      6  C        -5.5129531989    0.5801187133   -0.0700495297
      7  C        -4.0404439425    0.4863593378   -0.0744236238
      8  C        -3.2482245917    1.5658750084   -0.3578344750
      9  C        -3.3321088384   -0.7086712443    0.2223724848
     10  N        -1.8930290001    1.5740350063   -0.3912190493
     11  N        -3.8530675302   -1.8985316013    0.5353740979
     12  C        -1.9026694336   -0.7152140161    0.1894939569
     13  C        -1.2054619846    0.4946281448   -0.1345797324
     14  S        -2.6130822440   -2.8997158138    0.7608073642
     15  N        -1.3815624471   -1.9073590118    0.4811564296
     16  C         0.2627207325    0.6071578561   -0.1810566221
     17  N         0.8933742385    1.7399220229   -0.1933892976
     18  S         1.3168607370   -0.7826962758   -0.2437206947
     19  C         2.2351605045    1.5638565771   -0.2756651535
     20  C         2.6776365581    0.2709726972   -0.3309586128
     21  C         4.0459849410   -0.1961283726   -0.3958624463
     22  S         4.4856336047   -1.6706764702   -1.1879202822
     23  C         5.1766623974    0.3891796876    0.1070057391
     24  C         6.1462630454   -1.4980775036   -0.8261925371
     25  S         5.4899706217    1.8324976004    1.0317030765
     26  C         6.3772480791   -0.3447563715   -0.1303778330
     27  C         7.1952009307    1.4369220815    1.0862309940
     28  C         7.5255929280    0.3002341182    0.4534633159
     29  H        -9.3587120215    1.0112295710   -0.0068846903
     30  H        -8.0467725343    1.8455862756   -1.9322773987
     31  H        -8.2047602778   -0.1299388426    1.8576716944
     32  H        -5.6033779931    1.5632499708   -1.9726661683
     33  H        -5.7648622531   -0.4153249483    1.8133702242
     34  H        -3.7119718776    2.5215388138   -0.5687480450
     35  H         2.8785097088    2.4301672598   -0.3172262809
     36  H         6.8533765565   -2.2486730621   -1.1342879742
     37  H         7.8567148369    2.1033287320    1.6154461879
     38  H         8.5320816786   -0.0850679391    0.4040763340
   Point Group: c1    Number of degrees of freedom:   108


   Energy is  -2579.857920065

              Constraints and their Current Values
                                        Value     Constraint
   Dihedral:        4   6   7   8       47.062       47.062
   Dihedral:       10  13  16  18     -165.000     -165.000
   Dihedral:       18  20  21  22       32.716       32.716
 Hessian Updated using BFGS Update

 97 Hessian modes will be used to form the next step
  Hessian Eigenvalues:
     0.041318    0.045000    0.045000    0.045000    0.045000    0.045000
     0.045000    0.045001    0.045001    0.045001    0.045001    0.045002
     0.045002    0.045003    0.045004    0.045004    0.045005    0.045006
     0.045007    0.045008    0.045012    0.045021    0.045029    0.045039
     0.045045    0.045684    0.157531    0.159968    0.159978    0.159980
     0.159982    0.159991    0.159994    0.159998    0.159999    0.160005
     0.187471    0.219991    0.220010    0.225220    0.233701    0.234618
     0.234894    0.237034    0.247524    0.249695    0.249751    0.249778
     0.249984    0.249988    0.249990    0.249994    0.249996    0.296234
     0.301081    0.304508    0.315635    0.324036    0.337425    0.337655
     0.350478    0.356825    0.357280    0.357325    0.357367    0.358079
     0.358488    0.359876    0.361576    0.362484    0.365131    0.368195
     0.379099    0.381769    0.387275    0.389566    0.413146    0.429646
     0.430106    0.434148    0.471048    0.472575    0.474133    0.479518
     0.480409    0.482770    0.483528    0.486677    0.496267    0.509547
     0.522585    0.527393    0.543243    0.556324    0.584837    0.642761
     0.656638

 Minimum Search - Taking Simple RFO Step
 Searching for Lamda that Minimizes Along All modes
 Value Taken    Lamda =  -0.00056039
 Step Taken.  Stepsize is  0.064977

                             Maximum     Tolerance    Cnvgd?
         Gradient           0.004487      0.000300      NO
         Displacement       0.026187      0.001200      NO
         Energy change     -0.001404      0.000001      NO


 New Cartesian Coordinates Obtained by Inverse Iteration

 Displacement from previous Coordinates is:  0.352182
 ----------------------------------------------------------------
             Standard Nuclear Orientation (Angstroms)
    I     Atom           X                Y                Z
 ----------------------------------------------------------------
    1      C      -8.2874217682     0.8441489337    -0.0425964739
    2      C      -7.5550029764     1.3425820281    -1.1081172112
    3      C      -7.6342077152     0.2101617094     1.0039824639
    4      C      -6.1754096445     1.2177780842    -1.1208560162
    5      C      -6.2563308630     0.0804509886     0.9909655235
    6      C      -5.5102665023     0.5942514445    -0.0673784692
    7      C      -4.0375547217     0.5100334979    -0.0707379659
    8      C      -3.2472292056     1.5923057179    -0.3520127335
    9      C      -3.3249698933    -0.6836931077     0.2265006946
   10      N      -1.8913728163     1.6077872319    -0.3876383004
   11      N      -3.8360204276    -1.8774917368     0.5368328031
   12      C      -1.8961113981    -0.6802001562     0.1942205568
   13      C      -1.2055981261     0.5302800479    -0.1276081840
   14      S      -2.5828136889    -2.8619187749     0.7585962171
   15      N      -1.3556048149    -1.8635042236     0.4808104929
   16      C       0.2636099527     0.6179314438    -0.1675166951
   17      N       0.8974339441     1.7503291852    -0.1878381218
   18      S       1.3068965631    -0.7771368970    -0.2208775722
   19      C       2.2361322396     1.5678461289    -0.2679037637
   20      C       2.6702659726     0.2712713569    -0.3147913793
   21      C       4.0349923256    -0.2040753567    -0.3808960214
   22      S       4.4628410228    -1.6838627425    -1.1684939790
   23      C       5.1708248663     0.3795364218     0.1129789398
   24      C       6.1257601313    -1.5162266641    -0.8182240773
   25      S       5.4964330946     1.8262550074     1.0266619216
   26      C       6.3665794654    -0.3604444169    -0.1296178520
   27      C       7.2002357193     1.4258108768     1.0691007772
   28      C       7.5217713679     0.2836909016     0.4412312093
   29      H      -9.3641241206     0.9450626477    -0.0283825974
   30      H      -8.0569479951     1.8245643308    -1.9356334287
   31      H      -8.1995944323    -0.1844926582     1.8368219306
   32      H      -5.6074571233     1.5917994717    -1.9623805204
   33      H      -5.7540863599    -0.4182820072     1.8074511846
   34      H      -3.7129294324     2.5468154904    -0.5651182698
   35      H       2.8827510159     2.4317705708    -0.3125411981
   36      H       6.8265106382    -2.2716274085    -1.1294809171
   37      H       7.8700634840     2.0943274854     1.5849668970
   38      H       8.5263608553    -0.1052988279     0.3825950305
 ----------------------------------------------------------------
 Molecular Point Group                 C1    NOp =  1
 Largest Abelian Subgroup              C1    NOp =  1
 Nuclear Repulsion Energy =  2880.3601942680 hartrees
 There are      111 alpha and      111 beta electrons
 Applying Cartesian multipole field
    Component          Value
    ---------          -----
     (2,0,0)        1.00000E-12
     (0,2,0)        2.00000E-11
     (0,0,2)       -3.00000E-11
 Nucleus-field energy     =     0.0000000380 hartrees
 Requested basis set is cc-pVTZ
 There are 348 shells and 996 basis functions
 A cutoff of  1.0D-11 yielded  28582 shell pairs
 There are    226236 function pairs (    295544 Cartesian)
 Smallest overlap matrix eigenvalue = 3.11E-05
 Guess MOs from SCF MO coefficient file
 Reading MOs from coefficient file
 Reading MOs from coefficient file
 Long-range K will be added via erf
 Coulomb attenuation parameter = 0.2 bohr**(-1)
 A restricted hybrid HF-DFT SCF calculation will be
 performed using Pulay DIIS extrapolation
 Exchange:     0.2220 Hartree-Fock + 1.0000 wB97X-D + LR-HF
 Correlation:  1.0000 wB97X-D
 Using SG-2 standard quadrature grid
 Dispersion:   Grimme D
 SCF converges when DIIS error is below 1.0E-08
 Geometry optimization detected.  Setting ReadMinima to 0
 Setting SaveMinima to 0
 using 16 threads for integral computing 
 using 16 threads for integral computing 
 K construction time:  CPU 913.31 s  wall 59.78 s
 -------------------------------------------------------
 OpenMP BLAS3 based DFT computing Module                
 Release: version 1.0, May 2013, Q-Chem Inc. Pittsburgh 
 -------------------------------------------------------
 ---------------------------------------
  Cycle       Energy         DIIS Error
 ---------------------------------------
    1   -2579.8623069202      1.87E-04
 K construction time:  CPU 911.76 s  wall 59.71 s
    2   -2579.8580568551      2.24E-05
 K construction time:  CPU 666.58 s  wall 43.74 s
    3   -2579.8581270779      2.17E-05
 K construction time:  CPU 619.88 s  wall 40.74 s
    4   -2579.8581746414      7.27E-06
 K construction time:  CPU 589.09 s  wall 38.56 s
    5   -2579.8581812274      4.07E-06
 K construction time:  CPU 549.28 s  wall 35.93 s
    6   -2579.8581833634      1.07E-06
 K construction time:  CPU 487.49 s  wall 31.88 s
    7   -2579.8581835397      3.38E-07
 K construction time:  CPU 440.07 s  wall 28.84 s
    8   -2579.8581835596      1.73E-07
 K construction time:  CPU 403.16 s  wall 26.37 s
    9   -2579.8581835651      6.96E-08
 K construction time:  CPU 352.81 s  wall 23.02 s
   10   -2579.8581835661      2.18E-08
 K construction time:  CPU 316.90 s  wall 20.71 s
   11   -2579.8581835663      1.37E-08
 K construction time:  CPU 283.81 s  wall 18.37 s
   12   -2579.8581835671      4.47E-09 Convergence criterion met
 ---------------------------------------
 SCF time:  CPU 8962.92 s  wall 602.94 s
 SCF   energy in the final basis set = -2579.8581835671
 Total energy in the final basis set = -2579.8581835671
 
 --------------------------------------------------------------
 
                    Orbital Energies (a.u.)
 --------------------------------------------------------------
 
 Alpha MOs
 -- Occupied --
-89.155 -89.091 -89.089 -89.078 -14.493 -14.487 -14.449 -14.441
-10.364 -10.363 -10.360 -10.358 -10.343 -10.341 -10.334 -10.333
-10.330 -10.327 -10.324 -10.321 -10.313 -10.312 -10.305 -10.298
-10.296 -10.296 -10.295 -10.295  -8.165  -8.105  -8.104  -8.093
 -6.115  -6.110  -6.109  -6.055  -6.053  -6.051  -6.049  -6.048
 -6.047  -6.043  -6.039  -6.035  -1.152  -1.085  -1.060  -1.023
 -1.016  -0.975  -0.959  -0.926  -0.917  -0.903  -0.875  -0.860
 -0.856  -0.833  -0.829  -0.802  -0.776  -0.745  -0.736  -0.714
 -0.707  -0.693  -0.691  -0.660  -0.653  -0.637  -0.626  -0.616
 -0.606  -0.598  -0.576  -0.565  -0.561  -0.547  -0.540  -0.531
 -0.529  -0.526  -0.515  -0.514  -0.511  -0.501  -0.499  -0.486
 -0.480  -0.476  -0.470  -0.459  -0.449  -0.441  -0.437  -0.435
 -0.432  -0.424  -0.421  -0.403  -0.392  -0.373  -0.364  -0.363
 -0.359  -0.352  -0.340  -0.338  -0.324  -0.308  -0.272
 -- Virtual --
 -0.052   0.001   0.026   0.044   0.052   0.054   0.067   0.071
  0.077   0.088   0.105   0.109   0.118   0.123   0.131   0.136
  0.142   0.144   0.149   0.155   0.163   0.164   0.171   0.178
  0.188   0.193   0.194   0.199   0.215   0.223   0.235   0.235
  0.243   0.250   0.263   0.267   0.271   0.282   0.284   0.291
  0.296   0.299   0.303   0.305   0.311   0.314   0.320   0.329
  0.330   0.330   0.333   0.335   0.345   0.347   0.349   0.355
  0.359   0.361   0.370   0.373   0.380   0.382   0.386   0.389
  0.390   0.391   0.395   0.399   0.403   0.405   0.407   0.411
  0.415   0.420   0.424   0.426   0.429   0.432   0.436   0.440
  0.444   0.446   0.449   0.452   0.460   0.462   0.464   0.468
  0.469   0.471   0.475   0.476   0.478   0.478   0.482   0.487
  0.492   0.495   0.499   0.502   0.504   0.508   0.511   0.516
  0.522   0.523   0.528   0.533   0.538   0.540   0.543   0.549
  0.554   0.562   0.563   0.565   0.567   0.568   0.571   0.579
  0.584   0.592   0.598   0.606   0.611   0.617   0.623   0.626
  0.630   0.634   0.640   0.650   0.652   0.658   0.663   0.666
  0.668   0.673   0.677   0.683   0.688   0.696   0.705   0.708
  0.713   0.723   0.725   0.728   0.733   0.737   0.745   0.750
  0.757   0.759   0.765   0.769   0.769   0.774   0.781   0.785
  0.788   0.796   0.799   0.804   0.804   0.805   0.815   0.825
  0.826   0.831   0.834   0.842   0.843   0.846   0.851   0.857
  0.864   0.868   0.872   0.880   0.882   0.887   0.894   0.896
  0.903   0.907   0.909   0.918   0.922   0.925   0.932   0.939
  0.944   0.946   0.948   0.952   0.957   0.962   0.965   0.967
  0.976   0.983   0.988   0.989   0.998   1.011   1.013   1.018
  1.027   1.033   1.039   1.043   1.047   1.051   1.054   1.059
  1.064   1.066   1.073   1.082   1.084   1.094   1.097   1.104
  1.114   1.117   1.120   1.122   1.131   1.144   1.149   1.154
  1.164   1.165   1.172   1.174   1.183   1.189   1.198   1.204
  1.209   1.219   1.222   1.226   1.229   1.238   1.241   1.253
  1.255   1.266   1.270   1.273   1.277   1.283   1.297   1.304
  1.314   1.318   1.323   1.331   1.340   1.350   1.352   1.356
  1.363   1.365   1.368   1.384   1.388   1.399   1.409   1.414
  1.416   1.418   1.429   1.434   1.438   1.444   1.448   1.452
  1.459   1.463   1.468   1.479   1.481   1.486   1.487   1.489
  1.493   1.506   1.509   1.514   1.520   1.538   1.544   1.547
  1.552   1.564   1.571   1.575   1.581   1.598   1.605   1.609
  1.611   1.614   1.618   1.632   1.639   1.644   1.647   1.653
  1.654   1.664   1.669   1.673   1.678   1.683   1.687   1.695
  1.700   1.705   1.711   1.718   1.724   1.733   1.743   1.746
  1.758   1.760   1.762   1.771   1.786   1.792   1.795   1.801
  1.829   1.832   1.836   1.845   1.855   1.860   1.875   1.882
  1.890   1.892   1.905   1.909   1.926   1.929   1.931   1.936
  1.949   1.962   1.965   1.968   1.980   1.987   2.000   2.010
  2.011   2.017   2.022   2.026   2.035   2.037   2.050   2.062
  2.068   2.076   2.087   2.093   2.097   2.104   2.112   2.119
  2.127   2.141   2.154   2.165   2.167   2.175   2.180   2.185
  2.195   2.195   2.209   2.211   2.221   2.235   2.242   2.248
  2.254   2.256   2.264   2.268   2.273   2.281   2.286   2.306
  2.310   2.315   2.330   2.331   2.344   2.350   2.353   2.359
  2.368   2.372   2.385   2.395   2.400   2.412   2.416   2.421
  2.433   2.441   2.446   2.455   2.459   2.469   2.473   2.479
  2.484   2.486   2.490   2.493   2.499   2.505   2.507   2.528
  2.530   2.534   2.545   2.550   2.559   2.563   2.566   2.578
  2.585   2.594   2.602   2.607   2.611   2.617   2.622   2.636
  2.641   2.652   2.663   2.671   2.672   2.678   2.691   2.707
  2.712   2.722   2.733   2.736   2.748   2.756   2.760   2.768
  2.778   2.778   2.782   2.784   2.788   2.802   2.805   2.806
  2.816   2.822   2.826   2.828   2.833   2.840   2.845   2.849
  2.857   2.864   2.882   2.894   2.897   2.903   2.908   2.912
  2.915   2.933   2.941   2.943   2.954   2.961   2.967   2.971
  2.978   2.985   2.992   2.997   2.999   3.004   3.012   3.015
  3.016   3.024   3.026   3.032   3.038   3.046   3.054   3.058
  3.062   3.070   3.075   3.075   3.081   3.087   3.094   3.099
  3.101   3.106   3.109   3.111   3.119   3.125   3.129   3.133
  3.143   3.145   3.152   3.154   3.158   3.162   3.169   3.170
  3.172   3.176   3.184   3.188   3.193   3.196   3.204   3.205
  3.212   3.214   3.215   3.223   3.227   3.234   3.235   3.242
  3.248   3.255   3.257   3.261   3.270   3.275   3.278   3.283
  3.285   3.291   3.293   3.296   3.301   3.307   3.315   3.315
  3.324   3.333   3.335   3.341   3.347   3.350   3.351   3.355
  3.360   3.366   3.377   3.382   3.390   3.392   3.402   3.413
  3.425   3.425   3.427   3.433   3.446   3.449   3.457   3.460
  3.461   3.465   3.469   3.473   3.475   3.478   3.492   3.497
  3.499   3.502   3.506   3.515   3.529   3.533   3.541   3.545
  3.550   3.557   3.562   3.570   3.574   3.578   3.584   3.598
  3.604   3.609   3.616   3.631   3.634   3.644   3.665   3.666
  3.683   3.690   3.701   3.710   3.716   3.724   3.729   3.735
  3.750   3.754   3.762   3.768   3.773   3.781   3.783   3.784
  3.796   3.804   3.828   3.828   3.839   3.842   3.852   3.855
  3.857   3.860   3.864   3.866   3.873   3.878   3.882   3.887
  3.896   3.897   3.913   3.922   3.936   3.938   3.941   3.948
  3.952   3.965   3.970   3.975   3.979   3.982   3.987   3.989
  3.995   3.998   4.009   4.020   4.030   4.036   4.059   4.069
  4.077   4.080   4.090   4.093   4.102   4.122   4.130   4.141
  4.142   4.152   4.157   4.164   4.167   4.171   4.177   4.183
  4.192   4.205   4.218   4.224   4.233   4.242   4.251   4.254
  4.267   4.273   4.280   4.288   4.299   4.320   4.326   4.330
  4.332   4.341   4.347   4.355   4.362   4.370   4.381   4.388
  4.389   4.399   4.404   4.412   4.422   4.427   4.433   4.441
  4.447   4.451   4.457   4.476   4.482   4.498   4.505   4.519
  4.528   4.532   4.552   4.558   4.571   4.580   4.594   4.598
  4.609   4.617   4.622   4.631   4.644   4.658   4.668   4.678
  4.684   4.709   4.726   4.736   4.747   4.754   4.775   4.779
  4.792   4.803   4.824   4.829   4.836   4.845   4.848   4.857
  4.859   4.865   4.877   4.889   4.907   4.911   4.919   4.932
  4.938   4.950   4.951   4.954   4.987   4.990   4.995   5.027
  5.027   5.050   5.054   5.057   5.068   5.073   5.087   5.095
  5.104   5.110   5.112   5.118   5.128   5.134   5.158   5.179
  5.191   5.194   5.220   5.244   5.249   5.259   5.261   5.270
  5.272   5.279   5.323   5.336   5.347   5.374   5.386   5.395
  5.403   5.410   5.439   5.464   5.492   5.507   5.522   5.542
  5.553   5.582   5.592   5.633   5.656   5.668   5.679   5.693
  5.713   5.722   5.779   5.785   5.795   5.824   5.826   5.868
  5.905   5.941   5.992   6.017   6.035   6.037   6.050   6.085
  6.136   6.155   6.158   6.196   6.219   6.238   6.249   6.299
  6.377   6.454   6.516   6.860   6.979   8.044   8.557   9.429
 10.019  10.589  11.119  11.145  11.686  12.036  12.268  12.714
 12.812  12.861  12.910  13.008  13.187  13.385  13.435  13.534
 13.811  13.945  14.139  14.699  15.707
 --------------------------------------------------------------
 
          Ground-State Mulliken Net Atomic Charges

     Atom                 Charge (a.u.)
  ----------------------------------------
      1 C                    -0.124793
      2 C                    -0.108321
      3 C                    -0.109648
      4 C                    -0.152691
      5 C                    -0.122566
      6 C                     0.122634
      7 C                     0.008237
      8 C                    -0.102203
      9 C                     0.033724
     10 N                    -0.121180
     11 N                    -0.276639
     12 C                     0.017234
     13 C                     0.071715
     14 S                     0.412462
     15 N                    -0.282455
     16 C                    -0.008903
     17 N                    -0.128241
     18 S                     0.116063
     19 C                    -0.144840
     20 C                    -0.018859
     21 C                     0.005507
     22 S                     0.132033
     23 C                    -0.051578
     24 C                    -0.221255
     25 S                     0.057740
     26 C                     0.043913
     27 C                    -0.144970
     28 C                    -0.172938
     29 H                     0.118569
     30 H                     0.115752
     31 H                     0.116133
     32 H                     0.130648
     33 H                     0.114290
     34 H                     0.137904
     35 H                     0.147126
     36 H                     0.129944
     37 H                     0.132659
     38 H                     0.127791
  ----------------------------------------
  Sum of atomic charges =     0.000000

 -----------------------------------------------------------------
                    Cartesian Multipole Moments
 -----------------------------------------------------------------
    Charge (ESU x 10^10)
                 0.0000
    Dipole Moment (Debye)
         X       0.7504      Y      -2.0538      Z       0.2904
       Tot       2.2058
    Quadrupole Moments (Debye-Ang)
        XX    -138.1372     XY      -3.5662     YY    -184.0771
        XZ       1.0945     YZ      -0.2199     ZZ    -183.4203
    Octopole Moments (Debye-Ang^2)
       XXX     129.6057    XXY      28.2154    XYY      27.4192
       YYY     -38.3763    XXZ      17.6368    XYZ      50.7271
       YYZ      -2.0311    XZZ     -25.2746    YZZ      -1.8934
       ZZZ      -4.2939
    Hexadecapole Moments (Debye-Ang^3)
      XXXX  -21132.5827   XXXY    -319.5726   XXYY   -4454.9875
      XYYY      82.1277   YYYY   -2298.9655   XXXZ     194.3384
      XXYZ      32.8849   XYYZ      32.0951   YYYZ       3.8025
      XXZZ   -4242.8103   XYZZ      14.2089   YYZZ    -499.0614
      XZZZ       0.0454   YZZZ     -13.0858   ZZZZ    -759.3829
 -----------------------------------------------------------------
 Calculating analytic gradient of the SCF energy
 K construction time:  CPU 2141.41 s  wall 135.73 s
 Gradient of SCF Energy
            1           2           3           4           5           6
    1  -0.0000213  -0.0000716  -0.0000358  -0.0000524   0.0001788  -0.0000973
    2   0.0000007   0.0000722  -0.0000121  -0.0004861   0.0004818   0.0000859
    3  -0.0000713  -0.0000737   0.0000563  -0.0004482   0.0002034   0.0007494
            7           8           9          10          11          12
    1  -0.0005068   0.0006102  -0.0002512  -0.0013336  -0.0008443   0.0006052
    2  -0.0009856   0.0005641   0.0001187   0.0002818   0.0005546  -0.0007426
    3  -0.0008477   0.0009865  -0.0003708  -0.0000088  -0.0000316   0.0003832
           13          14          15          16          17          18
    1   0.0001035   0.0006917   0.0004688   0.0006154  -0.0008340   0.0009778
    2  -0.0007224   0.0018827  -0.0000066   0.0017996  -0.0009922  -0.0011514
    3   0.0000315  -0.0004241   0.0000016  -0.0003217   0.0005459   0.0001455
           19          20          21          22          23          24
    1  -0.0000526  -0.0001050   0.0000732  -0.0000759  -0.0000554  -0.0000807
    2  -0.0005602  -0.0002425   0.0002946  -0.0000451  -0.0000932   0.0001563
    3   0.0003111  -0.0004483  -0.0000567   0.0000056   0.0000666   0.0001523
           25          26          27          28          29          30
    1  -0.0000314   0.0000404   0.0001352  -0.0000190   0.0000072   0.0000133
    2   0.0000253   0.0000185   0.0000241   0.0000512   0.0001038  -0.0000703
    3   0.0000290  -0.0001200  -0.0001199   0.0000012   0.0001062   0.0000668
           31          32          33          34          35          36
    1   0.0000455  -0.0000145   0.0000285   0.0001106  -0.0002373   0.0000379
    2   0.0000515  -0.0002377  -0.0002178   0.0000419   0.0001081  -0.0000391
    3  -0.0000561  -0.0001051  -0.0002057  -0.0000673  -0.0001749  -0.0000195
           37          38
    1  -0.0000365   0.0000136
    2  -0.0000506  -0.0000623
    3   0.0000755   0.0000540
 Max gradient component =       1.883E-03
 RMS gradient           =       4.523E-04
 Gradient time:  CPU 2529.91 s  wall 162.22 s
 Geometry Optimization Parameters
   NAtoms,    NIC,     NZ,  NCons,   NDum,   NFix, NCnnct, MaxDiis
       38     289       0       3       0       0       0       0

 Cartesian Hessian Update
 Hessian Updated using BFGS Update


** CONSTRAINED OPTIMIZATION IN DELOCALIZED INTERNAL COORDINATES **
   Searching for a Minimum

   Optimization Cycle:   3

                       Coordinates (Angstroms)
     ATOM                X               Y               Z
      1  C        -8.2874217682    0.8441489337   -0.0425964739
      2  C        -7.5550029764    1.3425820281   -1.1081172112
      3  C        -7.6342077152    0.2101617094    1.0039824639
      4  C        -6.1754096445    1.2177780842   -1.1208560162
      5  C        -6.2563308630    0.0804509886    0.9909655235
      6  C        -5.5102665023    0.5942514445   -0.0673784692
      7  C        -4.0375547217    0.5100334979   -0.0707379659
      8  C        -3.2472292056    1.5923057179   -0.3520127335
      9  C        -3.3249698933   -0.6836931077    0.2265006946
     10  N        -1.8913728163    1.6077872319   -0.3876383004
     11  N        -3.8360204276   -1.8774917368    0.5368328031
     12  C        -1.8961113981   -0.6802001562    0.1942205568
     13  C        -1.2055981261    0.5302800479   -0.1276081840
     14  S        -2.5828136889   -2.8619187749    0.7585962171
     15  N        -1.3556048149   -1.8635042236    0.4808104929
     16  C         0.2636099527    0.6179314438   -0.1675166951
     17  N         0.8974339441    1.7503291852   -0.1878381218
     18  S         1.3068965631   -0.7771368970   -0.2208775722
     19  C         2.2361322396    1.5678461289   -0.2679037637
     20  C         2.6702659726    0.2712713569   -0.3147913793
     21  C         4.0349923256   -0.2040753567   -0.3808960214
     22  S         4.4628410228   -1.6838627425   -1.1684939790
     23  C         5.1708248663    0.3795364218    0.1129789398
     24  C         6.1257601313   -1.5162266641   -0.8182240773
     25  S         5.4964330946    1.8262550074    1.0266619216
     26  C         6.3665794654   -0.3604444169   -0.1296178520
     27  C         7.2002357193    1.4258108768    1.0691007772
     28  C         7.5217713679    0.2836909016    0.4412312093
     29  H        -9.3641241206    0.9450626477   -0.0283825974
     30  H        -8.0569479951    1.8245643308   -1.9356334287
     31  H        -8.1995944323   -0.1844926582    1.8368219306
     32  H        -5.6074571233    1.5917994717   -1.9623805204
     33  H        -5.7540863599   -0.4182820072    1.8074511846
     34  H        -3.7129294324    2.5468154904   -0.5651182698
     35  H         2.8827510159    2.4317705708   -0.3125411981
     36  H         6.8265106382   -2.2716274085   -1.1294809171
     37  H         7.8700634840    2.0943274854    1.5849668970
     38  H         8.5263608553   -0.1052988279    0.3825950305
   Point Group: c1    Number of degrees of freedom:   108


   Energy is  -2579.858183567

              Constraints and their Current Values
                                        Value     Constraint
   Dihedral:        4   6   7   8       47.062       47.062
   Dihedral:       10  13  16  18     -165.000     -165.000
   Dihedral:       18  20  21  22       32.716       32.716
 Hessian Updated using BFGS Update

104 Hessian modes will be used to form the next step
  Hessian Eigenvalues:
     0.035460    0.045000    0.045000    0.045000    0.045000    0.045000
     0.045000    0.045000    0.045000    0.045000    0.045000    0.045001
[...]
     32  H        -5.5991447193    1.6249110605   -1.9453945303
     33  H        -5.7605052108   -0.4224111288    1.8045075379
     34  H        -3.7093322624    2.5543773903   -0.5530072001
     35  H         2.8879130860    2.4325216060   -0.3133469091
     36  H         6.8161727624   -2.2836730674   -1.1235386401
     37  H         7.8835800647    2.1025745540    1.5495035804
     38  H         8.5292393579   -0.1064914619    0.3598147936
   Point Group: c1    Number of degrees of freedom:   108


   Energy is  -2579.858241318

              Constraints and their Current Values
                                        Value     Constraint
   Dihedral:        4   6   7   8       47.062       47.062
   Dihedral:       10  13  16  18     -165.000     -165.000
   Dihedral:       18  20  21  22       32.716       32.716
 Hessian Updated using BFGS Update

102 Hessian modes will be used to form the next step
  Hessian Eigenvalues:
     0.016784    0.042354    0.044856    0.045000    0.045000    0.045000
     0.045000    0.045000    0.045000    0.045001    0.045001    0.045001
     0.045001    0.045002    0.045002    0.045003    0.045004    0.045005
     0.045005    0.045006    0.045007    0.045009    0.045015    0.045021
     0.045028    0.045039    0.045042    0.045250    0.045637    0.157713
     0.158912    0.159693    0.159979    0.159984    0.159988    0.159995
     0.159999    0.160005    0.160162    0.185994    0.219988    0.220024
     0.225208    0.233573    0.234517    0.236905    0.240328    0.247177
     0.247575    0.248785    0.249745    0.249794    0.249889    0.249985
     0.249993    0.249997    0.275737    0.294325    0.296516    0.304409
     0.315671    0.322807    0.332372    0.337788    0.350734    0.355106
     0.356874    0.357313    0.357334    0.357541    0.358063    0.358488
     0.360769    0.361622    0.362490    0.365119    0.375200    0.381470
     0.387305    0.389633    0.407698    0.429671    0.432519    0.436950
     0.446073    0.470463    0.473785    0.474392    0.479439    0.480470
     0.481752    0.483528    0.487542    0.497341    0.509495    0.529418
     0.534703    0.543264    0.569838    0.633954    0.641370    0.655496

 Minimum Search - Taking Simple RFO Step
 Searching for Lamda that Minimizes Along All modes
 Value Taken    Lamda =   0.00000000
 Step Taken.  Stepsize is  0.003387

                             Maximum     Tolerance    Cnvgd?
         Gradient           0.000125      0.000300     YES
         Displacement       0.000964      0.001200     YES
         Energy change     -0.000002      0.000001      NO

 Final energy is   -2579.85824131836     


 ******************************
 **  OPTIMIZATION CONVERGED  **
 ******************************

                       Coordinates (Angstroms)
     ATOM                X               Y               Z
      1  C        -8.2889522249    0.8263407974   -0.0607999767
      2  C        -7.5514087290    1.3451400476   -1.1128917361
      3  C        -7.6388955334    0.1909147725    0.9868159834
      4  C        -6.1705866624    1.2346143989   -1.1136847720
      5  C        -6.2596611918    0.0762440437    0.9860286522
      6  C        -5.5086210801    0.6072184216   -0.0606886908
      7  C        -4.0360462696    0.5185815525   -0.0627585370
      8  C        -3.2441742430    1.5993196873   -0.3413577651
      9  C        -3.3270600400   -0.6788391930    0.2346505346
     10  N        -1.8872486950    1.6137478321   -0.3756487910
     11  N        -3.8390740710   -1.8741693786    0.5384187085
     12  C        -1.8987908855   -0.6757787160    0.2055125859
     13  C        -1.2048967594    0.5361501834   -0.1121003395
     14  S        -2.5894520772   -2.8628954087    0.7597322923
     15  N        -1.3611375044   -1.8616698239    0.4890259226
     16  C         0.2638970846    0.6231364329   -0.1516856242
     17  N         0.8996559184    1.7567335372   -0.1846004425
     18  S         1.3027597159   -0.7700384386   -0.2005251485
     19  C         2.2376884049    1.5714803948   -0.2646708911
     20  C         2.6692055334    0.2732022306   -0.3012395501
     21  C         4.0318829663   -0.2084248261   -0.3682951327
     22  S         4.4530998543   -1.6928746443   -1.1506667083
     23  C         5.1717633546    0.3766475159    0.1144519333
     24  C         6.1184623281   -1.5257919344   -0.8118249038
     25  S         5.5049483532    1.8296879169    1.0150627761
     26  C         6.3650039456   -0.3662504857   -0.1313506702
     27  C         7.2086149995    1.4287891478    1.0472919125
     28  C         7.5248384085    0.2817022976    0.4256521498
     29  H        -9.3670734244    0.9119448809   -0.0589043505
     30  H        -8.0502997300    1.8303269075   -1.9405665496
     31  H        -8.2079561918   -0.2184630769    1.8101533913
     32  H        -5.5991447193    1.6249110605   -1.9453945303
     33  H        -5.7605052108   -0.4224111288    1.8045075379
     34  H        -3.7093322624    2.5543773903   -0.5530072001
     35  H         2.8879130860    2.4325216060   -0.3133469091
     36  H         6.8161727624   -2.2836730674   -1.1235386401
     37  H         7.8835800647    2.1025745540    1.5495035804
     38  H         8.5292393579   -0.1064914619    0.3598147936

Z-matrix Print:
$molecule
0 1
S 
C  1 1.722112
C  2 1.368602 1 108.839697
H  3 1.080071 2 124.417900 1 179.883428 0
N  3 1.353167 2 116.309592 1 1.040073 0
C  5 1.300121 3 111.448218 2 -0.258490 0
C  2 1.446842 1 123.255098 3 -178.213153 0
C  7 1.369190 2 128.719465 1 148.418292 0
C  8 1.426934 7 114.391690 2 179.542139 0
C  9 1.366881 8 112.121997 7 -0.140199 0
H  10 1.076266 9 128.654152 8 179.280388 0
C  9 1.440594 8 111.868774 7 178.636761 0
H  12 1.078819 9 124.341855 8 -179.817938 0
C  12 1.342476 9 111.944773 8 -0.176662 0
H  14 1.077860 12 127.040606 9 -179.732777 0
C  6 1.471900 5 122.695699 3 177.825098 0
N  16 1.302413 6 117.934984 5 -13.351901 0
C  17 1.357435 16 120.651237 6 179.317453 0
H  18 1.083191 17 114.517058 16 -178.589022 0
C  18 1.368457 17 126.297671 16 0.953365 0
C  20 1.423000 18 114.758674 17 -1.066717 0
N  21 1.335383 20 127.570209 18 179.906227 0
C  21 1.428570 20 119.476261 18 0.813792 0
N  23 1.332587 21 113.399195 20 179.351907 0
C  20 1.475241 18 122.035851 17 179.555019 0
C  25 1.393063 20 120.021651 18 -47.061927 0
H  26 1.081951 25 119.508255 20 -2.045191 0
C  26 1.385239 25 120.608799 20 178.877762 0
H  28 1.081362 26 119.685877 25 179.666889 0
C  28 1.385648 26 120.075290 25 0.182290 0
H  30 1.081516 28 120.152165 26 -180.000000 0
C  30 1.387025 28 119.705675 26 0.315161 0
H  32 1.081344 30 120.124619 28 179.856580 0
C  32 1.383993 30 120.303881 28 -0.137180 0
H  34 1.080612 32 119.876665 30 179.843281 0
S  24 1.607635 23 106.367155 21 -0.075106 0
S  10 1.707678 9 110.957776 8 -0.355433 0
S  8 1.741677 7 134.272822 2 -2.412863 0
$end

 
 --------------------------------------------------------------
 
                    Orbital Energies (a.u.)
 --------------------------------------------------------------
 
 Alpha MOs
 -- Occupied --
-89.155 -89.091 -89.089 -89.078 -14.493 -14.487 -14.449 -14.441
-10.364 -10.362 -10.360 -10.358 -10.343 -10.341 -10.334 -10.333
-10.330 -10.327 -10.324 -10.322 -10.313 -10.312 -10.305 -10.297
-10.296 -10.296 -10.295 -10.295  -8.165  -8.105  -8.104  -8.093
 -6.115  -6.110  -6.109  -6.055  -6.053  -6.051  -6.050  -6.048
 -6.047  -6.043  -6.039  -6.035  -1.151  -1.085  -1.060  -1.023
 -1.016  -0.975  -0.959  -0.926  -0.917  -0.903  -0.875  -0.860
 -0.856  -0.834  -0.829  -0.802  -0.776  -0.745  -0.736  -0.713
 -0.707  -0.693  -0.691  -0.660  -0.653  -0.637  -0.626  -0.616
 -0.606  -0.598  -0.576  -0.565  -0.561  -0.547  -0.540  -0.531
 -0.529  -0.526  -0.515  -0.514  -0.511  -0.501  -0.499  -0.486
 -0.480  -0.476  -0.470  -0.458  -0.449  -0.441  -0.437  -0.435
 -0.432  -0.424  -0.421  -0.403  -0.392  -0.373  -0.364  -0.363
 -0.359  -0.352  -0.340  -0.338  -0.324  -0.308  -0.272
 -- Virtual --
 -0.052   0.001   0.026   0.043   0.053   0.054   0.067   0.071
  0.077   0.089   0.105   0.110   0.118   0.123   0.131   0.136
  0.142   0.144   0.149   0.155   0.163   0.164   0.171   0.178
  0.188   0.193   0.195   0.199   0.215   0.223   0.235   0.235
  0.243   0.250   0.263   0.267   0.271   0.282   0.284   0.291
  0.296   0.299   0.303   0.305   0.311   0.314   0.319   0.329
  0.330   0.331   0.333   0.335   0.345   0.347   0.349   0.355
  0.359   0.362   0.369   0.373   0.380   0.382   0.386   0.388
  0.390   0.391   0.395   0.399   0.403   0.405   0.407   0.411
  0.415   0.420   0.424   0.426   0.429   0.432   0.436   0.441
  0.444   0.446   0.450   0.452   0.460   0.462   0.464   0.468
  0.469   0.471   0.475   0.476   0.478   0.478   0.482   0.487
  0.492   0.495   0.499   0.502   0.504   0.508   0.511   0.516
  0.522   0.524   0.528   0.533   0.538   0.540   0.543   0.549
  0.554   0.562   0.563   0.565   0.567   0.568   0.571   0.580
  0.584   0.592   0.598   0.606   0.611   0.617   0.623   0.627
  0.630   0.634   0.640   0.650   0.652   0.658   0.663   0.666
  0.668   0.673   0.677   0.683   0.689   0.696   0.705   0.708
  0.713   0.723   0.725   0.728   0.733   0.737   0.745   0.750
  0.757   0.759   0.765   0.769   0.769   0.775   0.781   0.785
  0.788   0.796   0.799   0.804   0.804   0.805   0.815   0.826
  0.826   0.831   0.834   0.841   0.843   0.846   0.851   0.857
  0.864   0.868   0.872   0.880   0.882   0.887   0.894   0.896
  0.903   0.907   0.909   0.917   0.922   0.925   0.932   0.939
  0.945   0.946   0.948   0.952   0.958   0.962   0.964   0.967
  0.976   0.983   0.988   0.989   0.998   1.012   1.013   1.018
  1.027   1.033   1.039   1.043   1.047   1.051   1.055   1.059
  1.063   1.067   1.073   1.082   1.083   1.094   1.097   1.105
  1.114   1.117   1.120   1.122   1.131   1.144   1.148   1.154
  1.164   1.165   1.172   1.174   1.184   1.188   1.198   1.204
  1.209   1.219   1.222   1.225   1.229   1.237   1.241   1.253
  1.254   1.266   1.270   1.273   1.277   1.283   1.297   1.303
  1.314   1.318   1.323   1.330   1.340   1.349   1.352   1.356
  1.364   1.365   1.368   1.385   1.388   1.399   1.408   1.414
  1.417   1.418   1.429   1.434   1.437   1.444   1.449   1.452
  1.460   1.463   1.469   1.480   1.482   1.486   1.487   1.489
  1.493   1.506   1.509   1.514   1.520   1.538   1.544   1.547
  1.552   1.564   1.571   1.575   1.581   1.597   1.605   1.608
  1.611   1.614   1.618   1.633   1.639   1.644   1.647   1.653
  1.654   1.663   1.669   1.673   1.678   1.684   1.687   1.695
  1.700   1.705   1.710   1.718   1.724   1.733   1.742   1.745
  1.758   1.759   1.763   1.771   1.786   1.792   1.794   1.801
  1.830   1.832   1.836   1.846   1.856   1.860   1.875   1.882
  1.889   1.892   1.905   1.908   1.926   1.929   1.931   1.936
  1.950   1.963   1.965   1.968   1.979   1.987   2.000   2.009
  2.012   2.017   2.022   2.026   2.035   2.037   2.050   2.062
  2.068   2.076   2.088   2.093   2.097   2.105   2.112   2.119
  2.127   2.141   2.154   2.165   2.167   2.175   2.181   2.185
  2.194   2.195   2.210   2.211   2.221   2.235   2.241   2.248
  2.255   2.256   2.264   2.268   2.273   2.281   2.287   2.306
  2.310   2.315   2.329   2.331   2.344   2.350   2.353   2.359
  2.368   2.371   2.385   2.396   2.400   2.412   2.416   2.420
  2.433   2.441   2.446   2.455   2.459   2.469   2.473   2.479
  2.484   2.486   2.490   2.493   2.498   2.505   2.507   2.528
  2.530   2.534   2.546   2.549   2.559   2.563   2.566   2.579
  2.585   2.594   2.603   2.607   2.611   2.617   2.622   2.636
  2.641   2.652   2.664   2.671   2.673   2.678   2.692   2.707
  2.711   2.722   2.732   2.736   2.747   2.755   2.760   2.767
  2.778   2.779   2.783   2.784   2.789   2.802   2.805   2.806
  2.816   2.822   2.826   2.827   2.833   2.839   2.846   2.850
  2.857   2.862   2.883   2.894   2.896   2.903   2.907   2.912
  2.915   2.933   2.941   2.942   2.953   2.962   2.966   2.971
  2.978   2.985   2.992   2.997   3.000   3.005   3.012   3.016
  3.017   3.024   3.026   3.032   3.038   3.046   3.053   3.058
  3.062   3.070   3.074   3.075   3.081   3.087   3.094   3.099
  3.102   3.106   3.109   3.112   3.119   3.125   3.129   3.133
  3.142   3.145   3.152   3.154   3.158   3.162   3.169   3.170
  3.172   3.176   3.183   3.188   3.194   3.196   3.204   3.205
  3.212   3.214   3.215   3.223   3.226   3.233   3.235   3.242
  3.248   3.255   3.258   3.260   3.270   3.276   3.278   3.283
  3.285   3.291   3.293   3.296   3.301   3.307   3.315   3.316
  3.324   3.333   3.334   3.341   3.347   3.349   3.351   3.355
  3.361   3.365   3.376   3.382   3.390   3.391   3.402   3.412
  3.424   3.425   3.428   3.433   3.446   3.449   3.456   3.460
  3.461   3.465   3.468   3.473   3.475   3.478   3.492   3.496
  3.499   3.502   3.505   3.515   3.529   3.533   3.541   3.545
  3.550   3.558   3.562   3.569   3.573   3.578   3.584   3.598
  3.604   3.610   3.616   3.630   3.633   3.646   3.665   3.666
  3.683   3.690   3.700   3.710   3.717   3.725   3.728   3.735
  3.750   3.754   3.762   3.768   3.773   3.781   3.783   3.785
  3.795   3.803   3.827   3.828   3.839   3.841   3.852   3.855
  3.857   3.860   3.864   3.865   3.874   3.878   3.882   3.886
  3.895   3.898   3.913   3.923   3.936   3.937   3.941   3.946
  3.952   3.965   3.970   3.975   3.980   3.981   3.985   3.988
  3.994   3.998   4.009   4.021   4.030   4.036   4.060   4.069
  4.077   4.080   4.090   4.093   4.101   4.122   4.130   4.140
  4.143   4.152   4.158   4.164   4.166   4.171   4.177   4.182
  4.192   4.205   4.217   4.224   4.233   4.242   4.251   4.255
  4.266   4.273   4.280   4.288   4.299   4.319   4.326   4.330
  4.334   4.341   4.345   4.356   4.362   4.370   4.381   4.388
  4.390   4.399   4.403   4.412   4.422   4.427   4.433   4.440
  4.447   4.451   4.457   4.475   4.481   4.497   4.503   4.519
  4.528   4.531   4.552   4.558   4.571   4.581   4.593   4.597
  4.610   4.616   4.621   4.631   4.644   4.657   4.668   4.678
  4.684   4.708   4.726   4.734   4.746   4.753   4.775   4.779
  4.792   4.803   4.823   4.828   4.835   4.845   4.847   4.856
  4.859   4.865   4.876   4.889   4.907   4.910   4.920   4.931
  4.938   4.950   4.950   4.953   4.987   4.990   4.996   5.026
  5.027   5.050   5.054   5.056   5.068   5.073   5.088   5.095
  5.104   5.110   5.112   5.118   5.128   5.134   5.157   5.179
  5.190   5.194   5.220   5.244   5.249   5.258   5.261   5.270
  5.272   5.279   5.323   5.336   5.346   5.374   5.385   5.396
  5.402   5.410   5.437   5.466   5.492   5.507   5.520   5.543
  5.553   5.582   5.593   5.633   5.655   5.668   5.679   5.693
  5.713   5.722   5.779   5.782   5.795   5.823   5.827   5.868
  5.905   5.941   5.992   6.017   6.035   6.037   6.049   6.087
  6.136   6.154   6.157   6.196   6.218   6.239   6.249   6.297
  6.377   6.454   6.517   6.858   6.979   8.048   8.558   9.433
 10.018  10.587  11.110  11.145  11.685  12.020  12.274  12.704
 12.806  12.858  12.909  13.002  13.184  13.378  13.428  13.532
 13.815  13.943  14.137  14.706  15.707
 --------------------------------------------------------------
 
          Ground-State Mulliken Net Atomic Charges

     Atom                 Charge (a.u.)
  ----------------------------------------
      1 C                    -0.124851
      2 C                    -0.108618
      3 C                    -0.109679
      4 C                    -0.151733
      5 C                    -0.122332
      6 C                     0.122067
      7 C                     0.009017
      8 C                    -0.102694
      9 C                     0.033756
     10 N                    -0.120841
     11 N                    -0.276771
     12 C                     0.017185
     13 C                     0.071307
     14 S                     0.412896
     15 N                    -0.283131
     16 C                    -0.008034
     17 N                    -0.129362
     18 S                     0.117676
     19 C                    -0.144370
     20 C                    -0.019337
     21 C                     0.005677
     22 S                     0.132214
     23 C                    -0.052168
     24 C                    -0.221522
     25 S                     0.057680
     26 C                     0.044007
     27 C                    -0.145115
     28 C                    -0.172948
     29 H                     0.118571
     30 H                     0.115596
     31 H                     0.116065
     32 H                     0.130392
     33 H                     0.114015
     34 H                     0.137841
     35 H                     0.146960
     36 H                     0.130011
     37 H                     0.132781
     38 H                     0.127792
  ----------------------------------------
  Sum of atomic charges =     0.000000

 -----------------------------------------------------------------
                    Cartesian Multipole Moments
 -----------------------------------------------------------------
    Charge (ESU x 10^10)
                 0.0000
    Dipole Moment (Debye)
         X       0.7537      Y      -2.0739      Z       0.2687
       Tot       2.2230
    Quadrupole Moments (Debye-Ang)
        XX    -138.1297     XY      -3.3440     YY    -183.9597
        XZ       0.9988     YZ      -0.3093     ZZ    -183.5644
    Octopole Moments (Debye-Ang^2)
       XXX     130.7151    XXY      26.9399    XYY      27.5767
       YYY     -39.0439    XXZ      14.9083    XYZ      50.9548
       YYZ      -2.7823    XZZ     -25.2358    YZZ      -2.1696
       ZZZ      -6.3564
    Hexadecapole Moments (Debye-Ang^3)
      XXXX  -21128.9356   XXXY    -295.9889   XXYY   -4452.4460
      XYYY      80.1868   YYYY   -2305.0679   XXXZ     191.9983
      XXYZ      28.9427   XYYZ      31.3309   YYYZ       6.8950
      XXZZ   -4250.5324   XYZZ      12.4386   YYZZ    -498.6148
      XZZZ      -2.1196   YZZZ     -10.1642   ZZZZ    -748.7537
 -----------------------------------------------------------------
Archival summary:
1\1\mn361\OPT\ProcedureUnspecified\BasisUnspecified\442010\afmv_a\TueJun607:07:122017TueJun607:07:122017\0\\#,OPT,ProcedureUnspecified,BasisUnspecified,\\0,1\S\C,1,1.72211\C,2,1.3686,1,108.84\H,3,1.08007,2,124.418,1,179.883,0\N,3,1.35317,2,116.31,1,1.04007,0\C,5,1.30012,3,111.448,2,-0.25849,0\C,2,1.44684,1,123.255,3,-178.213,0\C,7,1.36919,2,128.719,1,148.418,0\C,8,1.42693,7,114.392,2,179.542,0\C,9,1.36688,8,112.122,7,-0.140199,0\H,10,1.07627,9,128.654,8,179.28,0\C,9,1.44059,8,111.869,7,178.637,0\H,12,1.07882,9,124.342,8,-179.818,0\C,12,1.34248,9,111.945,8,-0.176662,0\H,14,1.07786,12,127.041,9,-179.733,0\C,6,1.4719,5,122.696,3,177.825,0\N,16,1.30241,6,117.935,5,-13.3519,0\C,17,1.35744,16,120.651,6,179.317,0\H,18,1.08319,17,114.517,16,-178.589,0\C,18,1.36846,17,126.298,16,0.953365,0\C,20,1.423,18,114.759,17,-1.06672,0\N,21,1.33538,20,127.57,18,179.906,0\C,21,1.42857,20,119.476,18,0.813792,0\N,23,1.33259,21,113.399,20,179.352,0\C,20,1.47524,18,122.036,17,179.555,0\C,25,1.39306,20,120.022,18,-47.0619,0\H,26,1.08195,25,119.508,20,-2.04519,0\C,26,1.38524,25,120.609,20,178.878,0\H,28,1.08136,26,119.686,25,179.667,0\C,28,1.38565,26,120.075,25,0.18229,0\H,30,1.08152,28,120.152,26,-180,0\C,30,1.38703,28,119.706,26,0.315161,0\H,32,1.08134,30,120.125,28,179.857,0\C,32,1.38399,30,120.304,28,-0.13718,0\H,34,1.08061,32,119.877,30,179.843,0\S,24,1.60764,23,106.367,21,-0.0751061,0\S,10,1.70768,9,110.958,8,-0.355433,0\S,8,1.74168,7,134.273,2,-2.41286,0\\\@

 Total job time:  4600.35s(wall), 68872.43s(cpu) 
 Tue Jun  6 07:07:12 2017

        *************************************************************
        *                                                           *
        *  Thank you very much for using Q-Chem.  Have a nice day.  *
        *                                                           *
        *************************************************************


