
Running Job 1 of 1 C306_2/C306_345.qcin
qchem C306_2/C306_345.qcin_114123.0 /tmpu/cab_g/afmv_a/scratch_qchem/qchem114123/ 1
/tmpu/appuserlic/qchem4.4/serial-multicore/exe/qcprog.exe_s C306_2/C306_345.qcin_114123.0 /tmpu/cab_g/afmv_a/scratch_qchem/qchem114123/
Check license passed

                  Welcome to Q-Chem
     A Quantum Leap Into The Future Of Chemistry


 Q-Chem 4.4, Q-Chem, Inc., Pleasanton, CA (2016)

 Y. Shao,  Z. Gan,  E. Epifanovsky,  A. T. B. Gilbert,  M. Wormit,  
 J. Kussmann,  A. W. Lange,  A. Behn,  J. Deng,  X. Feng,  D. Ghosh,  
 M. Goldey,  P. R. Horn,  L. D. Jacobson,  I. Kaliman,  F. Rob,  
 R. Z. Khaliullin,  T. Kus,  A. Landau,  J. Liu,  E. I. Proynov,  Y. M. Rhee,  
 R. M. Richard,  M. A. Rohrdanz,  R. P. Steele,  E. J. Sundstrom,  
 H. L. Woodcock III,  P. M. Zimmerman,  D. Zuev,  B. Albrecht,  E. Alguire,  
 B. Austin,  S. A. Baeppler,  G. J. O. Beran,  Y. A. Bernard,  E. Berquist,  
 K. Brandhorst,  K. B. Bravaya,  S. T. Brown,  D. Casanova,  C.-M. Chang,  
 Y. Chen,  S. H. Chien,  K. D. Closser,  M. P. Coons,  D. L. Crittenden,  
 S. Dasgupta,  M. Diedenhofen,  R. A. DiStasio Jr.,  H. Do,  A. D. Dutoi,  
 R. G. Edgar,  P.-T. Fang,  S. Fatehi,  Q. Feng,  L. Fusti-Molnar,  
 A. Ghysels,  A. Golubeva-Zadorozhnaya,  J. Gomes,  A. Gunina,  
 M. W. D. Hanson-Heine,  P. H. P. Harbach,  A. W. Hauser,  J. E. Herr,  
 E. G. Hohenstein,  Z. C. Holden,  K. Hui,  T.-C. Jagau,  H. Ji,  B. Kaduk,  
 K. Khistyaev,  Jaehoon Kim,  Jihan Kim,  R. A. King,  P. Klunzinger,  
 K. Koh,  D. Kosenkov,  T. Kowalczyk,  C. M. Krauter,  A. Kunitsa,  
 K. U. Lao,  A. Laurent,  K. V. Lawler,  J. Lee,  D. Lefrancois,  S. Lehtola,  
 S. V. Levchenko,  C. Y. Lin,  Y.-S. Lin,  F. Liu,  E. Livshits,  
 R. C. Lochan,  A. Luenser,  P. Manohar,  S. F. Manzer,  S.-P. Mao,  Y. Mao,  
 N. Mardirossian,  A. V. Marenich,  L. A. Martinez-Martinez,  S. A. Maurer,  
 N. J. Mayhall,  J.-M. Mewes,  A. F. Morrison,  K. Nanda,  T. S. Nguyen-Beck,  
 C. M. Oana,  R. Olivares-Amaya,  D. P. O'Neill,  J. A. Parkhill,  
 T. M. Perrine,  R. Peverati,  P. A. Pieniazek,  F. Plasser,  A. Prociuk,  
 D. R. Rehn,  E. Rosta,  N. J. Russ,  N. Sergueev,  S. M. Sharada,  
 S. Sharma,  D. W. Small,  A. Sodt,  T. Stauch,  T. Stein,  D. Stuck,  
 Y.-C. Su,  A. J. W. Thom,  T. Tsuchimochi,  L. Vogt,  O. Vydrov,  T. Wang,  
 M. A. Watson,  J. Wenzel,  A. White,  C. F. Williams,  V. Vanovschi,  
 K. Yao,  S. Yeganeh,  S. R. Yost,  Z.-Q. You,  I. Y. Zhang,  X. Zhang,  
 Y. Zhao,  B. R. Brooks,  G. K. L. Chan,  D. M. Chipman,  C. J. Cramer,  
 W. A. Goddard III,  M. S. Gordon,  W. J. Hehre,  A. Klamt,  
 H. F. Schaefer III,  M. W. Schmidt,  C. D. Sherrill,  D. G. Truhlar,  
 A. Warshel,  X. Xu,  A. Aspuru-Guzik,  R. Baer,  A. T. Bell,  N. A. Besley,  
 J.-D. Chai,  A. Dreuw,  B. D. Dunietz,  T. R. Furlani,  S. R. Gwaltney,  
 C.-P. Hsu,  Y. Jung,  J. Kong,  D. S. Lambrecht,  W. Liang,  C. Ochsenfeld,  
 V. A. Rassolov,  L. V. Slipchenko,  J. E. Subotnik,  T. Van Voorhis,  
 J. M. Herbert,  A. I. Krylov,  P. M. W. Gill,  M. Head-Gordon

 Contributors to earlier versions of Q-Chem not listed above: 
 R. D. Adamson,  J. Baker,  E. F. C. Byrd,  A. K. Chakraborty,  C.-L. Cheng,  
 H. Dachsel,  R. J. Doerksen,  G. Hawkins,  A. Heyden,  S. Hirata,  
 G. Kedziora,  F. J. Keil,  C. Kelley,  P. P. Korambath,  W. Kurlancheek,  
 A. M. Lee,  M. S. Lee,  D. Liotard,  I. Lotan,  P. E. Maslen,  N. Nair,  
 D. Neuhauser,  R. Olson,  B. Peters,  J. Ritchie,  N. E. Schultz,  
 N. Shenvi,  A. C. Simmonett,  K. S. Thanthiriwatte,  Q. Wu,  W. Zhang

 Please cite Q-Chem as follows:
 Y. Shao et al., Mol. Phys. 113, 184-215 (2015)
 DOI: 10.1080/00268976.2014.952696

 Q-Chem 4.4.2 for Intel X86 Linux

 Parts of Q-Chem use Armadillo 5.200.1 (Boston Tea Smuggler).
 http://arma.sourceforge.net/

 Q-Chem begins on Mon Jun  5 18:27:35 2017  

Host: 
0

     Scratch files written to /tmpu/cab_g/afmv_a/scratch_qchem/qchem114123//
 Dec716 11556_ 22328  22283 4050   
Processing $rem in /tmpu/appuserlic/qchem4.4/serial-multicore/config/preferences.
 MEM_TOTAL  2000 
FILE_GEOM_ORG=        593

Checking the input file for inconsistencies... 	...done.

--------------------------------------------------------------
User input:
--------------------------------------------------------------
$comment
OPTIMIZATION
$end

$rem
JOBTYPE OPT
EXCHANGE omegaB97X-D
BASIS cc-pVTZ
$end

$molecule
0 1
C          0.00000        0.00000        0.00000
C          1.38599        0.00000        0.00000
C         -0.68515       -1.20581        0.00000
C          2.08055       -1.19709        0.02226
C          0.00742       -2.40411        0.01179
C          1.40063       -2.41271        0.04151
C          2.15950       -3.67324        0.15696
C          3.15000       -3.81753        1.08952
C          1.92849       -4.81544       -0.65861
N          3.90172       -4.92812        1.27968
N          1.02636       -4.93526       -1.63501
C          2.72047       -5.99481       -0.47371
C          3.72589       -5.99344        0.54686
S          1.20518       -6.42345       -2.22449
N          2.39935       -6.98227       -1.31015
C          4.58521       -7.13898        0.84639
N          4.40935       -8.35847        0.44412
S          5.99663       -6.89451        1.83329
C          5.39118       -9.17066        0.91097
C          6.34821       -8.57735        1.68844
C          7.51743       -9.19598        2.27410
S          8.21440       -8.64656        3.76141
C          8.24528      -10.25619        1.80846
C          9.46436       -9.81171        3.72945
S          8.15320      -11.26114        0.38643
C          9.35792      -10.61260        2.62644
C          9.58810      -12.12593        0.89967
C         10.10859      -11.70533        2.06307
H         -0.54342        0.93472        0.00000
H          1.93260        0.93382       -0.01501
H         -1.76734       -1.21268        0.00047
H          3.16263       -1.19509        0.00785
H         -0.53593       -3.33924        0.01382
H          3.36185       -2.99842        1.76492
H          5.37109      -10.22411        0.67351
H         10.20750       -9.83996        4.50673
H          9.96140      -12.91158        0.26305
H         10.99623      -12.13019        2.50473
$end

$opt
CONSTRAINT
tors 4 6 7 8 47.06187
tors 10 13 16 18 -15.00000
tors 18 20 21 22 32.71647
ENDCONSTRAINT
$end
--------------------------------------------------------------
 ----------------------------------------------------------------
             Standard Nuclear Orientation (Angstroms)
    I     Atom           X                Y                Z
 ----------------------------------------------------------------
    1      C      -7.9963461907     1.6302460759    -0.2691635492
    2      C      -7.0519834759     2.1669188553    -1.1300524335
    3      C      -7.6195302943     0.6489090313     0.6354886845
    4      C      -5.7363988824     1.7407008871    -1.0708157037
    5      C      -6.3067061003     0.2138175524     0.6893694734
    6      C      -5.3450170459     0.7691404708    -0.1525105427
    7      C      -3.9211917867     0.3958783553    -0.0450615554
    8      C      -2.9448459238     1.3514588756     0.0269983695
    9      C      -3.4547957778    -0.9470537141     0.0012968836
   10      N      -1.6147360098     1.1171586251     0.1297842706
   11      N      -4.1955691570    -2.0561710891    -0.0503342919
   12      C      -2.0502627617    -1.2103178153     0.1028495652
   13      C      -1.1467405038    -0.1003907988     0.1672228942
   14      S      -3.1592463364    -3.2864088353     0.0316586239
   15      N      -1.7580162276    -2.5109728518     0.1296006200
   16      C       0.3046518301    -0.2366430699     0.2909426851
   17      N       0.9515617117    -1.3126188541     0.6129480725
   18      S       1.3074821472     1.1511034975    -0.0161964157
   19      C       2.2891717224    -1.0854727997     0.6411579426
   20      C       2.6933015922     0.1857678513     0.3361841182
   21      C       4.0487112717     0.6842101683     0.2513550061
   22      S       4.4589706528     2.3293354982     0.6048665933
   23      C       5.1863101308     0.0080519858    -0.0940584046
   24      C       6.1189800111     2.0989010700     0.2698070906
   25      S       5.5209501246    -1.6273151361    -0.5982042176
   26      C       6.3696537756     0.8041521873    -0.0909883091
   27      C       7.2140412375    -1.2232511879    -0.7991765061
   28      C       7.5245420149     0.0485906443    -0.5036745922
   29      H      -9.0205949012     1.9748857293    -0.3029993750
   30      H      -7.3361232413     2.9225109411    -1.8507276572
   31      H      -8.3519871535     0.2261233579     1.3107233383
   32      H      -5.0036067762     2.1507202441    -1.7534639516
   33      H      -6.0222192663    -0.5504448491     1.3997719531
   34      H      -3.2283818795     2.3962524102     0.0262195045
   35      H       2.9614811809    -1.8862944693     0.9117728123
   36      H       6.8122102933     2.9180898674     0.3445119133
   37      H       7.8812042170    -1.9942466271    -1.1489527610
   38      H       8.5215608380     0.4515044452    -0.5878665165
 ----------------------------------------------------------------
 Molecular Point Group                 C1    NOp =  1
 Largest Abelian Subgroup              C1    NOp =  1
 Nuclear Repulsion Energy =  2866.3431176035 hartrees
 There are      111 alpha and      111 beta electrons
 Requested basis set is cc-pVTZ
 There are 348 shells and 996 basis functions

 Total QAlloc Memory Limit   2000 MB
 Mega-Array Size        61 MB
 MEM_STATIC part        62 MB
 A cutoff of  1.0D-11 yielded  28545 shell pairs
 There are    225965 function pairs (    295237 Cartesian)
 
 -------------------------------------------------------
 OpenMP Integral Computing Module                       
 Release: version 1.0, May 2013, Q-Chem Inc. Pittsburgh 
 -------------------------------------------------------
 Integral Job Info:
 Integral job number is                      11
 Integral operator is                         1
 short-range coefficients              22203600
 long-range coefficients              100000000
 Omega coefficients                         200
 if combine SR and LR in K                    1
 Integral screening is                        0
 Integral computing path is                   2
 max size of driver memory is            800000
 size of driver memory is                776718
 size of scratch memory is             26248924
 max col of scratch BK array              10000
 max len of scratch array in speh3          662
 max len of scratch index in speh4           32
 max int batch size is                      520
 min int batch size is                       52
 fixed nKL is                                52
 max L of basis functions is                  3
 order of int derivative is                   0
 number of shells is                        348
 number of basis is                        1146
 number of cartesian basis is              1146
 number of contracted shell pairs         28545
 number of primitive shell pairs          90640
 maxK2 (contraction) of shell pair          121
 max number of K2 of shell pair               1
 max number of CS2 of shell pair           3866
 max number of PS2 of shell pair          11487
 mem total for path MDJ                  790440
 -------------------------------------------------------
 Smallest overlap matrix eigenvalue = 3.12E-05

 Scale SEOQF with 1.000000e-02/1.000000e-01/1.000000e-01

 Standard Electronic Orientation quadrupole field applied
 Nucleus-field energy     =     0.0000000545 hartrees
 Guess from superposition of atomic densities
 Warning:  Energy on first SCF cycle will be non-variational
 Long-range K will be added via erf
 Coulomb attenuation parameter = 0.2 bohr**(-1)
 A restricted hybrid HF-DFT SCF calculation will be
 performed using Pulay DIIS extrapolation
 Exchange:     0.2220 Hartree-Fock + 1.0000 wB97X-D + LR-HF
 Correlation:  1.0000 wB97X-D
 Using SG-2 standard quadrature grid
 Dispersion:   Grimme D
 SCF converges when DIIS error is below 1.0E-08
 using 16 threads for integral computing 
 using 16 threads for integral computing 
 K construction time:  CPU 59.84 s  wall 4.04 s
 -------------------------------------------------------
 OpenMP BLAS3 based DFT computing Module                
 Release: version 1.0, May 2013, Q-Chem Inc. Pittsburgh 
 -------------------------------------------------------
 ---------------------------------------
  Cycle       Energy         DIIS Error
 ---------------------------------------
    1   -2589.7512925687      1.84E-02
 K construction time:  CPU 913.54 s  wall 59.98 s
    2   -2579.6146739652      1.36E-03
 K construction time:  CPU 871.95 s  wall 57.12 s
    3   -2579.6490990388      1.37E-03
 K construction time:  CPU 834.21 s  wall 54.71 s
    4   -2579.8551409214      2.18E-04
 K construction time:  CPU 767.42 s  wall 50.27 s
    5   -2579.8597872729      1.20E-04
 K construction time:  CPU 734.85 s  wall 48.09 s
    6   -2579.8615295806      3.59E-05
 K construction time:  CPU 682.36 s  wall 44.82 s
    7   -2579.8616945211      1.50E-05
 K construction time:  CPU 643.38 s  wall 42.20 s
    8   -2579.8617330952      5.86E-06
 K construction time:  CPU 617.22 s  wall 40.37 s
    9   -2579.8617425684      3.81E-06
 K construction time:  CPU 586.25 s  wall 38.41 s
   10   -2579.8617459616      1.12E-06
 K construction time:  CPU 530.14 s  wall 34.75 s
   11   -2579.8617463560      6.26E-07
 K construction time:  CPU 486.44 s  wall 31.93 s
   12   -2579.8617464604      1.92E-07
 K construction time:  CPU 432.00 s  wall 28.40 s
   13   -2579.8617464721      9.55E-08
 K construction time:  CPU 373.00 s  wall 24.45 s
   14   -2579.8617464754      3.41E-08
 K construction time:  CPU 327.60 s  wall 21.41 s
   15   -2579.8617464794      1.40E-08
 K construction time:  CPU 907.06 s  wall 59.48 s
   16   -2579.8617464725      4.69E-09 Convergence criterion met
 ---------------------------------------
 SCF time:  CPU 13203.35 s  wall 892.18 s
 SCF   energy in the final basis set = -2579.8617464725
 Total energy in the final basis set = -2579.8617464725
 
 --------------------------------------------------------------
 
                    Orbital Energies (a.u.)
 --------------------------------------------------------------
 
 Alpha MOs
 -- Occupied --
-89.149 -89.090 -89.087 -89.078 -14.486 -14.482 -14.453 -14.444
-10.365 -10.362 -10.357 -10.356 -10.343 -10.342 -10.335 -10.332
-10.330 -10.327 -10.324 -10.322 -10.313 -10.312 -10.305 -10.297
-10.296 -10.296 -10.295 -10.295  -8.159  -8.105  -8.102  -8.093
 -6.109  -6.104  -6.103  -6.054  -6.051  -6.051  -6.048  -6.047
 -6.045  -6.043  -6.039  -6.035  -1.146  -1.086  -1.064  -1.023
 -1.010  -0.975  -0.958  -0.925  -0.920  -0.899  -0.876  -0.860
 -0.856  -0.833  -0.828  -0.802  -0.775  -0.744  -0.734  -0.712
 -0.705  -0.693  -0.691  -0.660  -0.651  -0.637  -0.627  -0.614
 -0.606  -0.598  -0.572  -0.564  -0.556  -0.548  -0.542  -0.531
 -0.530  -0.524  -0.514  -0.514  -0.507  -0.504  -0.496  -0.487
 -0.478  -0.475  -0.469  -0.454  -0.449  -0.439  -0.436  -0.433
 -0.430  -0.423  -0.421  -0.400  -0.392  -0.372  -0.371  -0.361
 -0.358  -0.354  -0.339  -0.337  -0.324  -0.307  -0.272
 -- Virtual --
 -0.049   0.001   0.027   0.042   0.053   0.057   0.067   0.072
  0.083   0.089   0.104   0.111   0.118   0.125   0.131   0.137
  0.140   0.144   0.150   0.156   0.159   0.164   0.170   0.178
  0.189   0.192   0.193   0.199   0.219   0.222   0.231   0.240
  0.242   0.248   0.259   0.267   0.275   0.282   0.286   0.290
  0.296   0.302   0.304   0.309   0.311   0.316   0.323   0.326
  0.329   0.331   0.336   0.339   0.346   0.348   0.350   0.355
  0.358   0.363   0.370   0.372   0.378   0.383   0.384   0.387
  0.388   0.392   0.396   0.398   0.403   0.405   0.408   0.409
  0.413   0.417   0.421   0.426   0.431   0.434   0.436   0.437
  0.440   0.446   0.448   0.453   0.454   0.460   0.464   0.464
  0.467   0.469   0.470   0.475   0.478   0.481   0.484   0.490
  0.492   0.496   0.500   0.504   0.506   0.509   0.511   0.516
  0.521   0.527   0.528   0.531   0.533   0.543   0.544   0.550
  0.555   0.559   0.563   0.565   0.567   0.568   0.575   0.580
  0.582   0.589   0.596   0.602   0.609   0.617   0.621   0.626
  0.628   0.631   0.635   0.646   0.649   0.653   0.659   0.665
  0.665   0.674   0.679   0.686   0.687   0.692   0.702   0.714
  0.722   0.726   0.728   0.731   0.735   0.742   0.746   0.749
  0.755   0.760   0.764   0.765   0.770   0.773   0.778   0.785
  0.790   0.794   0.796   0.800   0.803   0.811   0.816   0.821
  0.826   0.834   0.835   0.840   0.848   0.850   0.854   0.860
  0.863   0.870   0.872   0.876   0.884   0.886   0.889   0.893
  0.901   0.905   0.910   0.918   0.921   0.925   0.926   0.935
  0.940   0.945   0.951   0.956   0.958   0.962   0.963   0.970
  0.975   0.982   0.987   0.987   0.997   1.004   1.011   1.013
  1.028   1.033   1.037   1.043   1.045   1.050   1.051   1.058
  1.063   1.069   1.077   1.080   1.089   1.092   1.096   1.102
  1.109   1.114   1.123   1.130   1.133   1.140   1.147   1.148
  1.157   1.164   1.168   1.175   1.178   1.189   1.196   1.209
  1.210   1.218   1.222   1.229   1.233   1.246   1.248   1.252
  1.256   1.257   1.267   1.275   1.278   1.286   1.293   1.297
  1.317   1.318   1.325   1.336   1.348   1.356   1.359   1.363
  1.366   1.373   1.373   1.382   1.390   1.397   1.405   1.410
  1.415   1.419   1.423   1.435   1.435   1.444   1.449   1.454
  1.456   1.460   1.469   1.472   1.482   1.483   1.485   1.489
  1.492   1.498   1.515   1.517   1.519   1.537   1.544   1.550
  1.561   1.566   1.572   1.574   1.582   1.589   1.600   1.605
  1.611   1.612   1.620   1.629   1.637   1.641   1.648   1.655
  1.657   1.660   1.670   1.675   1.676   1.687   1.691   1.697
  1.704   1.711   1.712   1.720   1.724   1.732   1.744   1.746
  1.755   1.758   1.769   1.773   1.774   1.785   1.793   1.799
  1.823   1.830   1.835   1.839   1.853   1.870   1.883   1.888
  1.892   1.900   1.908   1.915   1.927   1.933   1.934   1.937
  1.943   1.954   1.967   1.973   1.977   1.989   1.997   2.008
  2.016   2.023   2.024   2.032   2.037   2.038   2.042   2.066
  2.069   2.078   2.084   2.092   2.100   2.103   2.113   2.120
  2.133   2.139   2.150   2.158   2.161   2.167   2.172   2.181
  2.188   2.202   2.204   2.212   2.218   2.230   2.236   2.243
  2.248   2.255   2.263   2.268   2.278   2.285   2.290   2.296
  2.319   2.328   2.330   2.332   2.336   2.346   2.352   2.356
  2.367   2.376   2.390   2.395   2.399   2.411   2.415   2.424
  2.436   2.438   2.443   2.450   2.457   2.463   2.469   2.478
  2.486   2.489   2.496   2.498   2.499   2.506   2.509   2.520
  2.530   2.536   2.539   2.551   2.557   2.561   2.570   2.584
  2.587   2.592   2.598   2.607   2.614   2.617   2.634   2.637
  2.646   2.647   2.662   2.670   2.675   2.678   2.692   2.708
  2.714   2.724   2.728   2.743   2.744   2.751   2.762   2.767
  2.777   2.779   2.781   2.785   2.787   2.800   2.804   2.807
  2.816   2.823   2.827   2.834   2.837   2.841   2.847   2.855
  2.861   2.870   2.881   2.894   2.897   2.902   2.907   2.912
  2.925   2.933   2.937   2.944   2.952   2.965   2.966   2.972
  2.977   2.987   2.993   2.995   2.998   3.004   3.014   3.017
  3.023   3.026   3.029   3.037   3.044   3.049   3.056   3.066
  3.067   3.071   3.074   3.075   3.084   3.085   3.089   3.097
  3.102   3.106   3.108   3.112   3.119   3.124   3.126   3.132
  3.139   3.147   3.149   3.154   3.157   3.160   3.165   3.169
  3.173   3.177   3.182   3.182   3.190   3.196   3.202   3.208
  3.210   3.214   3.218   3.222   3.226   3.233   3.238   3.241
  3.248   3.253   3.260   3.268   3.271   3.279   3.279   3.281
  3.287   3.289   3.295   3.298   3.306   3.308   3.310   3.319
  3.321   3.324   3.331   3.337   3.344   3.350   3.355   3.356
  3.366   3.373   3.373   3.384   3.389   3.394   3.407   3.413
  3.417   3.422   3.426   3.431   3.436   3.447   3.451   3.456
  3.460   3.464   3.468   3.469   3.476   3.480   3.485   3.493
  3.502   3.505   3.507   3.516   3.532   3.535   3.535   3.545
  3.552   3.558   3.565   3.571   3.575   3.581   3.585   3.595
  3.602   3.606   3.616   3.622   3.636   3.639   3.665   3.668
  3.688   3.692   3.698   3.703   3.713   3.718   3.729   3.737
  3.748   3.752   3.763   3.769   3.776   3.779   3.786   3.793
  3.798   3.806   3.811   3.834   3.839   3.842   3.850   3.854
  3.858   3.860   3.864   3.867   3.877   3.882   3.884   3.888
  3.892   3.898   3.908   3.920   3.933   3.936   3.945   3.950
  3.956   3.963   3.965   3.968   3.976   3.982   3.986   3.993
  3.996   4.010   4.018   4.029   4.034   4.040   4.051   4.060
  4.077   4.081   4.085   4.088   4.105   4.125   4.133   4.139
  4.147   4.150   4.161   4.163   4.168   4.178   4.181   4.190
  4.196   4.208   4.211   4.222   4.239   4.240   4.249   4.254
  4.267   4.273   4.277   4.284   4.299   4.312   4.319   4.329
  4.334   4.342   4.346   4.352   4.363   4.376   4.382   4.384
  4.389   4.399   4.404   4.410   4.422   4.427   4.431   4.438
  4.443   4.451   4.455   4.472   4.484   4.503   4.510   4.519
  4.524   4.534   4.552   4.560   4.570   4.581   4.593   4.598
  4.605   4.621   4.625   4.634   4.642   4.664   4.669   4.678
  4.688   4.717   4.724   4.735   4.745   4.751   4.776   4.782
  4.789   4.813   4.818   4.829   4.832   4.841   4.846   4.854
  4.860   4.864   4.883   4.890   4.898   4.903   4.920   4.939
  4.942   4.953   4.957   4.968   4.984   4.997   5.007   5.014
  5.026   5.043   5.050   5.064   5.068   5.075   5.084   5.087
  5.091   5.110   5.111   5.116   5.120   5.142   5.150   5.169
  5.182   5.193   5.216   5.241   5.248   5.254   5.264   5.272
  5.276   5.299   5.324   5.338   5.348   5.359   5.386   5.390
  5.401   5.431   5.447   5.461   5.505   5.510   5.521   5.533
  5.569   5.589   5.594   5.628   5.634   5.663   5.674   5.694
  5.725   5.734   5.760   5.793   5.814   5.824   5.837   5.862
  5.878   5.961   5.997   6.021   6.031   6.041   6.045   6.100
  6.137   6.156   6.168   6.186   6.208   6.234   6.251   6.295
  6.363   6.480   6.515   6.855   6.976   8.031   8.564   9.401
 10.084  10.661  11.111  11.139  11.685  12.011  12.283  12.616
 12.735  12.861  12.915  12.963  13.167  13.395  13.448  13.747
 13.817  13.947  14.127  14.672  15.706
 --------------------------------------------------------------
 
          Ground-State Mulliken Net Atomic Charges

     Atom                 Charge (a.u.)
  ----------------------------------------
      1 C                    -0.124695
      2 C                    -0.107599
      3 C                    -0.108856
      4 C                    -0.157426
      5 C                    -0.120336
      6 C                     0.120440
      7 C                     0.011408
      8 C                    -0.109598
      9 C                     0.035310
     10 N                    -0.173130
     11 N                    -0.279096
     12 C                    -0.014271
     13 C                     0.106710
     14 S                     0.412826
     15 N                    -0.223423
     16 C                    -0.005856
     17 N                    -0.138661
     18 S                     0.121938
     19 C                    -0.144074
     20 C                    -0.018808
     21 C                     0.005340
     22 S                     0.133096
     23 C                    -0.050175
     24 C                    -0.221115
     25 S                     0.056387
     26 C                     0.042939
     27 C                    -0.145412
     28 C                    -0.173114
     29 H                     0.118255
     30 H                     0.114711
     31 H                     0.115766
     32 H                     0.130191
     33 H                     0.115397
     34 H                     0.137643
     35 H                     0.145413
     36 H                     0.131084
     37 H                     0.132652
     38 H                     0.128140
  ----------------------------------------
  Sum of atomic charges =     0.000000

 -----------------------------------------------------------------
                    Cartesian Multipole Moments
 -----------------------------------------------------------------
    Charge (ESU x 10^10)
                 0.0000
    Dipole Moment (Debye)
         X       0.7640      Y       0.9478      Z      -0.5123
       Tot       1.3208
    Quadrupole Moments (Debye-Ang)
        XX    -140.2507     XY      -0.3101     YY    -177.7232
        XZ      -3.8706     YZ      -1.8698     ZZ    -186.7169
    Octopole Moments (Debye-Ang^2)
       XXX     152.3872    XXY      53.9480    XYY      11.7860
       YYY     -18.1599    XXZ     -13.8469    XYZ      37.9150
       YYZ     -11.2467    XZZ     -21.7977    YZZ      -5.7670
       ZZZ       0.3927
    Hexadecapole Moments (Debye-Ang^3)
      XXXX  -21150.0199   XXXY    -256.4307   XXYY   -4257.9487
      XYYY     147.3762   YYYY   -2918.6730   XXXZ    -447.3337
      XXYZ     -67.4555   XYYZ      52.4516   YYYZ      -2.4463
      XXZZ   -4319.9225   XYZZ     -13.8298   YYZZ    -584.4432
      XZZZ       5.2445   YZZZ     -12.9094   ZZZZ    -500.3931
 -----------------------------------------------------------------
 Calculating analytic gradient of the SCF energy
 K construction time:  CPU 2130.62 s  wall 135.09 s
 Gradient of SCF Energy
            1           2           3           4           5           6
    1  -0.0005522   0.0009244   0.0006799  -0.0005629  -0.0007806   0.0002032
    2  -0.0000068  -0.0009154   0.0002864   0.0001328   0.0007310  -0.0001086
    3   0.0001156   0.0003788  -0.0002765  -0.0000773  -0.0003257  -0.0003928
            7           8           9          10          11          12
    1   0.0001413   0.0011273   0.0000390  -0.0011776  -0.0006674  -0.0002689
    2  -0.0008418   0.0006915  -0.0005163  -0.0003585   0.0000033   0.0004643
    3   0.0001962   0.0005723  -0.0004242   0.0019681  -0.0003584  -0.0017260
           13          14          15          16          17          18
    1   0.0015001  -0.0001038   0.0001264  -0.0003041  -0.0002880   0.0003314
    2  -0.0006435   0.0004382   0.0001076  -0.0005479   0.0006585   0.0007610
    3  -0.0026216   0.0002050   0.0009456   0.0012240   0.0011249  -0.0016367
           19          20          21          22          23          24
    1  -0.0005467   0.0005526   0.0007425  -0.0005196  -0.0003587   0.0003965
    2   0.0000330  -0.0000276  -0.0012209   0.0006149   0.0012944   0.0012240
    3  -0.0005257   0.0013843  -0.0008175   0.0004616   0.0004495   0.0004938
           25          26          27          28          29          30
    1  -0.0006380  -0.0001220   0.0014555  -0.0005623   0.0002099   0.0001033
    2  -0.0013448  -0.0005015   0.0008294   0.0004219   0.0002286   0.0004593
    3  -0.0001544  -0.0001950   0.0005145   0.0008380   0.0002442  -0.0003647
           31          32          33          34          35          36
    1  -0.0004144   0.0001305  -0.0001000  -0.0005700   0.0004133   0.0001422
    2   0.0000510  -0.0003224  -0.0004753  -0.0003194   0.0000084  -0.0005828
    3   0.0004570  -0.0002452   0.0003562   0.0002082  -0.0002375  -0.0005374
           37          38
    1  -0.0006540  -0.0000281
    2  -0.0002631  -0.0004430
    3  -0.0007818  -0.0004395
 Max gradient component =       2.622E-03
 RMS gradient           =       7.022E-04
 Gradient time:  CPU 2519.92 s  wall 169.99 s
 Geometry Optimization Parameters
   NAtoms,    NIC,     NZ,  NCons,   NDum,   NFix, NCnnct, MaxDiis
       38     289       0       3       0       0       0       0


** CONSTRAINED OPTIMIZATION IN DELOCALIZED INTERNAL COORDINATES **
   Searching for a Minimum

   Optimization Cycle:   1

                       Coordinates (Angstroms)
     ATOM                X               Y               Z
      1  C        -7.9963461907    1.6302460759   -0.2691635492
      2  C        -7.0519834759    2.1669188553   -1.1300524335
      3  C        -7.6195302943    0.6489090313    0.6354886845
      4  C        -5.7363988824    1.7407008871   -1.0708157037
      5  C        -6.3067061003    0.2138175524    0.6893694734
      6  C        -5.3450170459    0.7691404708   -0.1525105427
      7  C        -3.9211917867    0.3958783553   -0.0450615554
      8  C        -2.9448459238    1.3514588756    0.0269983695
      9  C        -3.4547957778   -0.9470537141    0.0012968836
     10  N        -1.6147360098    1.1171586251    0.1297842706
     11  N        -4.1955691570   -2.0561710891   -0.0503342919
     12  C        -2.0502627617   -1.2103178153    0.1028495652
     13  C        -1.1467405038   -0.1003907988    0.1672228942
     14  S        -3.1592463364   -3.2864088353    0.0316586239
     15  N        -1.7580162276   -2.5109728518    0.1296006200
     16  C         0.3046518301   -0.2366430699    0.2909426851
     17  N         0.9515617117   -1.3126188541    0.6129480725
     18  S         1.3074821472    1.1511034975   -0.0161964157
     19  C         2.2891717224   -1.0854727997    0.6411579426
     20  C         2.6933015922    0.1857678513    0.3361841182
     21  C         4.0487112717    0.6842101683    0.2513550061
     22  S         4.4589706528    2.3293354982    0.6048665933
     23  C         5.1863101308    0.0080519858   -0.0940584046
     24  C         6.1189800111    2.0989010700    0.2698070906
     25  S         5.5209501246   -1.6273151361   -0.5982042176
     26  C         6.3696537756    0.8041521873   -0.0909883091
     27  C         7.2140412375   -1.2232511879   -0.7991765061
     28  C         7.5245420149    0.0485906443   -0.5036745922
     29  H        -9.0205949012    1.9748857293   -0.3029993750
     30  H        -7.3361232413    2.9225109411   -1.8507276572
     31  H        -8.3519871535    0.2261233579    1.3107233383
     32  H        -5.0036067762    2.1507202441   -1.7534639516
     33  H        -6.0222192663   -0.5504448491    1.3997719531
     34  H        -3.2283818795    2.3962524102    0.0262195045
     35  H         2.9614811809   -1.8862944693    0.9117728123
     36  H         6.8122102933    2.9180898674    0.3445119133
     37  H         7.8812042170   -1.9942466271   -1.1489527610
     38  H         8.5215608380    0.4515044452   -0.5878665165
   Point Group: c1    Number of degrees of freedom:   108


   Energy is  -2579.861746472

              Constraints and their Current Values
                                        Value     Constraint
   Dihedral:        4   6   7   8       47.013       47.062
   Dihedral:       10  13  16  18      -15.000      -15.000
   Dihedral:       18  20  21  22       32.691       32.716

 Attempting to Generate Delocalized Internal Coordinates

   Using Lagrange Multiplier Algorithm


111 Hessian modes will be used to form the next step
  Hessian Eigenvalues:
    -0.977753   -0.977753   -0.977753    0.045000    0.045000    0.045000
     0.045000    0.045000    0.045000    0.045000    0.045000    0.045000
     0.045000    0.045000    0.045000    0.045001    0.045001    0.045001
     0.045001    0.045001    0.045002    0.045002    0.045003    0.045003
     0.045004    0.045005    0.045005    0.045007    0.045008    0.045008
     0.045012    0.045021    0.045031    0.045040    0.045052    0.159964
     0.159978    0.159978    0.159981    0.159982    0.159991    0.159991
     0.159994    0.160000    0.160000    0.219984    0.219994    0.225219
     0.233057    0.234605    0.234757    0.237025    0.247518    0.249693
     0.249750    0.249778    0.249982    0.249986    0.249988    0.249992
     0.249995    0.249997    0.249999    0.249999    0.250000    0.296271
     0.304572    0.308353    0.315685    0.324178    0.337610    0.350485
     0.356840    0.357284    0.357325    0.357370    0.358104    0.358490
     0.359861    0.361586    0.362484    0.365138    0.365895    0.369132
     0.381386    0.386881    0.389560    0.393560    0.413656    0.429805
     0.432305    0.470765    0.472706    0.474104    0.479083    0.480434
     0.482725    0.483543    0.486783    0.496421    0.509552    0.519734
     0.527463    0.543237    0.556243    0.579533    0.638655    0.653848
     1.022753    1.022753    1.022753

 Minimum Search - Taking P-RFO Step
 Searching for Lamda that Maximizes Along the Constraint modes Only
 Value Taken    Lamda =   0.00000913
 Searching for Lamda that Minimizes Along All other modes
 Value Taken    Lamda =  -0.00044932
 Step Taken.  Stepsize is  0.078527

                             Maximum     Tolerance    Cnvgd?
         Gradient            0.004263       0.000300      NO
         Displacement        0.028849       0.001200      NO
         Energy change     *********       0.000001      NO


 New Cartesian Coordinates Obtained by Inverse Iteration

 Displacement from previous Coordinates is:  0.587118
 ----------------------------------------------------------------
             Standard Nuclear Orientation (Angstroms)
    I     Atom           X                Y                Z
 ----------------------------------------------------------------
    1      C      -8.0254292676     1.5709892305    -0.2537206742
    2      C      -7.1005340148     2.1420348964    -1.1134199496
    3      C      -7.6161282779     0.6005910013     0.6486758544
    4      C      -5.7712885464     1.7560268571    -1.0591838529
    5      C      -6.2896493711     0.2090217434     0.7001253929
    6      C      -5.3487397019     0.7938467827    -0.1441660636
    7      C      -3.9196836523     0.4385915824    -0.0494816897
    8      C      -2.9435028440     1.3954836032     0.0111144964
    9      C      -3.4512355956    -0.9037706857     0.0003792560
   10      N      -1.6115685445     1.1608729733     0.1056307453
   11      N      -4.1905320122    -2.0143342528    -0.0416803138
   12      C      -2.0476524530    -1.1678104436     0.0942056207
   13      C      -1.1457255164    -0.0577167437     0.1476623221
   14      S      -3.1544215671    -3.2456102907     0.0292450942
   15      N      -1.7536921662    -2.4683739021     0.1150274723
   16      C       0.3052134256    -0.2048106866     0.2636917237
   17      N       0.9425736549    -1.2879914683     0.5818229387
   18      S       1.3206988166     1.1687645955    -0.0555743021
   19      C       2.2821146243    -1.0739313571     0.6106549558
   20      C       2.6975467801     0.1922578342     0.2998517025
   21      C       4.0575532358     0.6795587105     0.2216231837
   22      S       4.4764169226     2.3197290463     0.5816148816
   23      C       5.1959630500    -0.0061524926    -0.1071376080
   24      C       6.1385885822     2.0765048018     0.2731774538
   25      S       5.5298389391    -1.6440275149    -0.5991105242
   26      C       6.3859230089     0.7804671809    -0.0829888549
   27      C       7.2297290876    -1.2560152399    -0.7642511210
   28      C       7.5436935765     0.0152937569    -0.4697708743
   29      H      -9.0615348619     1.8787345897    -0.2885367986
   30      H      -7.4119982074     2.8878863109    -1.8317625542
   31      H      -8.3332081249     0.1494336113     1.3207484755
   32      H      -5.0543959967     2.1896027093    -1.7438784714
   33      H      -5.9789549963    -0.5497790724     1.4041479324
   34      H      -3.2230369716     2.4415818533     0.0049338185
   35      H       2.9444349865    -1.8803943225     0.8879494764
   36      H       6.8348093434     2.8919935778     0.3663592150
   37      H       7.9030185298    -2.0337929075    -1.0859842516
   38      H       8.5452811857     0.4120706611    -0.5277104761
 ----------------------------------------------------------------
 Molecular Point Group                 C1    NOp =  1
 Largest Abelian Subgroup              C1    NOp =  1
 Nuclear Repulsion Energy =  2866.7688686319 hartrees
 There are      111 alpha and      111 beta electrons
 Applying Cartesian multipole field
    Component          Value
    ---------          -----
     (2,0,0)        1.00000E-12
     (0,2,0)        2.00000E-11
     (0,0,2)       -3.00000E-11
 Nucleus-field energy     =     0.0000000542 hartrees
 Requested basis set is cc-pVTZ
 There are 348 shells and 996 basis functions
 A cutoff of  1.0D-11 yielded  28542 shell pairs
 There are    225906 function pairs (    295159 Cartesian)
 Smallest overlap matrix eigenvalue = 3.11E-05
 Guess MOs from SCF MO coefficient file
 Reading MOs from coefficient file
 Reading MOs from coefficient file
 Long-range K will be added via erf
 Coulomb attenuation parameter = 0.2 bohr**(-1)
 A restricted hybrid HF-DFT SCF calculation will be
 performed using Pulay DIIS extrapolation
 Exchange:     0.2220 Hartree-Fock + 1.0000 wB97X-D + LR-HF
 Correlation:  1.0000 wB97X-D
 Using SG-2 standard quadrature grid
 Dispersion:   Grimme D
 SCF converges when DIIS error is below 1.0E-08
 Geometry optimization detected.  Setting ReadMinima to 0
 Setting SaveMinima to 0
 using 16 threads for integral computing 
 using 16 threads for integral computing 
 K construction time:  CPU 908.01 s  wall 59.62 s
 -------------------------------------------------------
 OpenMP BLAS3 based DFT computing Module                
 Release: version 1.0, May 2013, Q-Chem Inc. Pittsburgh 
 -------------------------------------------------------
 ---------------------------------------
  Cycle       Energy         DIIS Error
 ---------------------------------------
    1   -2579.8578028601      2.67E-04
 K construction time:  CPU 906.10 s  wall 59.49 s
    2   -2579.8618119249      2.64E-05
 K construction time:  CPU 673.28 s  wall 44.16 s
    3   -2579.8619917089      1.49E-05
 K construction time:  CPU 636.84 s  wall 41.84 s
    4   -2579.8620194170      8.72E-06
 K construction time:  CPU 604.52 s  wall 39.64 s
    5   -2579.8620310654      3.32E-06
 K construction time:  CPU 550.45 s  wall 36.08 s
    6   -2579.8620327111      1.18E-06
 K construction time:  CPU 498.18 s  wall 32.61 s
    7   -2579.8620329261      5.02E-07
 K construction time:  CPU 455.25 s  wall 29.91 s
    8   -2579.8620329704      2.62E-07
 K construction time:  CPU 413.47 s  wall 27.02 s
    9   -2579.8620329810      8.90E-08
 K construction time:  CPU 358.35 s  wall 23.32 s
   10   -2579.8620329817      3.26E-08
 K construction time:  CPU 328.20 s  wall 21.51 s
   11   -2579.8620329828      1.52E-08
 K construction time:  CPU 269.93 s  wall 17.64 s
   12   -2579.8620329808      6.69E-09 Convergence criterion met
 ---------------------------------------
 SCF time:  CPU 9048.91 s  wall 609.58 s
 SCF   energy in the final basis set = -2579.8620329808
 Total energy in the final basis set = -2579.8620329808
 
 --------------------------------------------------------------
 
                    Orbital Energies (a.u.)
 --------------------------------------------------------------
 
 Alpha MOs
 -- Occupied --
-89.149 -89.090 -89.087 -89.078 -14.485 -14.481 -14.453 -14.443
-10.365 -10.362 -10.357 -10.355 -10.343 -10.342 -10.335 -10.333
-10.330 -10.327 -10.324 -10.322 -10.313 -10.311 -10.305 -10.297
-10.296 -10.296 -10.295 -10.294  -8.159  -8.105  -8.102  -8.093
 -6.109  -6.104  -6.103  -6.054  -6.051  -6.050  -6.048  -6.047
 -6.045  -6.043  -6.039  -6.035  -1.146  -1.086  -1.064  -1.023
 -1.010  -0.975  -0.958  -0.925  -0.920  -0.899  -0.876  -0.860
 -0.855  -0.833  -0.828  -0.802  -0.775  -0.744  -0.734  -0.712
 -0.705  -0.693  -0.691  -0.660  -0.651  -0.637  -0.627  -0.614
 -0.606  -0.598  -0.572  -0.564  -0.556  -0.548  -0.542  -0.531
 -0.530  -0.524  -0.514  -0.514  -0.506  -0.505  -0.496  -0.487
 -0.478  -0.475  -0.469  -0.455  -0.449  -0.439  -0.436  -0.433
 -0.430  -0.423  -0.421  -0.399  -0.392  -0.372  -0.371  -0.361
 -0.359  -0.353  -0.339  -0.337  -0.324  -0.307  -0.272
 -- Virtual --
 -0.049   0.001   0.027   0.042   0.053   0.057   0.067   0.072
  0.083   0.090   0.105   0.111   0.118   0.126   0.131   0.138
  0.140   0.144   0.150   0.156   0.159   0.164   0.170   0.178
  0.189   0.192   0.194   0.199   0.219   0.222   0.231   0.240
  0.242   0.248   0.259   0.267   0.274   0.282   0.287   0.290
  0.296   0.303   0.304   0.309   0.311   0.316   0.323   0.326
  0.329   0.331   0.336   0.340   0.346   0.348   0.350   0.355
  0.358   0.364   0.370   0.373   0.378   0.383   0.385   0.387
  0.388   0.393   0.396   0.398   0.403   0.406   0.408   0.409
  0.414   0.417   0.421   0.426   0.431   0.434   0.436   0.438
  0.441   0.446   0.448   0.453   0.454   0.460   0.464   0.465
  0.468   0.469   0.471   0.475   0.477   0.480   0.484   0.489
  0.492   0.496   0.500   0.504   0.505   0.509   0.511   0.517
  0.522   0.527   0.528   0.531   0.534   0.543   0.544   0.550
  0.556   0.559   0.563   0.565   0.567   0.568   0.576   0.580
  0.583   0.589   0.596   0.602   0.609   0.617   0.621   0.627
  0.629   0.630   0.636   0.646   0.650   0.653   0.660   0.665
  0.665   0.674   0.679   0.686   0.688   0.693   0.702   0.714
  0.722   0.726   0.727   0.731   0.735   0.743   0.746   0.749
  0.755   0.760   0.764   0.766   0.770   0.773   0.778   0.785
  0.790   0.794   0.797   0.800   0.803   0.811   0.817   0.821
  0.827   0.834   0.834   0.839   0.848   0.850   0.854   0.861
  0.863   0.870   0.873   0.876   0.885   0.886   0.889   0.893
  0.901   0.905   0.910   0.918   0.922   0.925   0.926   0.935
  0.942   0.946   0.951   0.957   0.959   0.962   0.964   0.969
  0.976   0.982   0.986   0.987   0.997   1.004   1.012   1.015
  1.028   1.033   1.037   1.042   1.045   1.050   1.052   1.059
  1.063   1.069   1.077   1.080   1.089   1.092   1.096   1.103
  1.107   1.114   1.123   1.131   1.134   1.140   1.147   1.148
  1.157   1.165   1.168   1.175   1.178   1.189   1.197   1.209
  1.211   1.218   1.223   1.228   1.234   1.245   1.249   1.253
  1.256   1.256   1.268   1.275   1.279   1.287   1.293   1.296
  1.317   1.320   1.326   1.336   1.348   1.356   1.360   1.363
  1.367   1.371   1.374   1.382   1.391   1.398   1.406   1.411
  1.416   1.419   1.423   1.435   1.436   1.445   1.449   1.454
  1.457   1.461   1.470   1.474   1.482   1.483   1.486   1.489
  1.492   1.498   1.514   1.517   1.519   1.537   1.543   1.550
  1.560   1.566   1.573   1.574   1.582   1.589   1.601   1.605
  1.611   1.614   1.621   1.630   1.636   1.641   1.648   1.655
  1.657   1.661   1.669   1.674   1.677   1.687   1.690   1.696
  1.704   1.710   1.712   1.720   1.724   1.732   1.743   1.745
  1.756   1.757   1.769   1.773   1.775   1.784   1.793   1.800
  1.823   1.830   1.836   1.839   1.853   1.869   1.883   1.888
  1.892   1.899   1.908   1.915   1.927   1.933   1.934   1.937
  1.944   1.954   1.967   1.973   1.977   1.989   1.996   2.008
  2.016   2.022   2.024   2.031   2.036   2.038   2.042   2.066
  2.069   2.078   2.085   2.092   2.101   2.103   2.113   2.120
  2.132   2.139   2.150   2.158   2.161   2.169   2.172   2.180
  2.189   2.203   2.206   2.212   2.218   2.231   2.237   2.243
  2.249   2.257   2.263   2.267   2.278   2.284   2.290   2.295
  2.319   2.327   2.331   2.333   2.337   2.347   2.352   2.357
  2.367   2.375   2.391   2.395   2.399   2.411   2.416   2.425
  2.437   2.439   2.443   2.450   2.456   2.463   2.469   2.478
  2.486   2.488   2.496   2.497   2.499   2.506   2.509   2.521
  2.530   2.536   2.539   2.553   2.558   2.562   2.570   2.585
  2.589   2.593   2.598   2.608   2.613   2.618   2.633   2.638
  2.646   2.648   2.662   2.670   2.675   2.679   2.692   2.707
  2.713   2.723   2.729   2.742   2.744   2.751   2.761   2.768
  2.777   2.779   2.782   2.785   2.787   2.800   2.804   2.807
  2.815   2.822   2.828   2.834   2.837   2.842   2.849   2.855
  2.860   2.870   2.882   2.895   2.897   2.901   2.907   2.912
  2.925   2.933   2.937   2.944   2.952   2.966   2.966   2.973
  2.977   2.987   2.994   2.995   2.998   3.005   3.014   3.018
  3.023   3.027   3.028   3.038   3.043   3.049   3.056   3.066
  3.068   3.070   3.074   3.075   3.084   3.085   3.089   3.097
  3.102   3.106   3.107   3.113   3.119   3.125   3.127   3.131
  3.138   3.149   3.149   3.155   3.157   3.161   3.165   3.169
  3.174   3.177   3.182   3.183   3.189   3.196   3.202   3.208
  3.210   3.214   3.217   3.222   3.227   3.233   3.239   3.241
  3.247   3.253   3.260   3.267   3.271   3.279   3.281   3.282
  3.286   3.289   3.296   3.298   3.306   3.308   3.311   3.319
  3.322   3.325   3.331   3.338   3.344   3.351   3.355   3.356
  3.367   3.373   3.374   3.385   3.389   3.395   3.407   3.412
  3.417   3.422   3.427   3.431   3.437   3.447   3.452   3.456
  3.460   3.464   3.467   3.470   3.477   3.479   3.485   3.494
  3.502   3.504   3.507   3.517   3.532   3.535   3.536   3.546
  3.552   3.559   3.565   3.572   3.575   3.581   3.585   3.596
  3.602   3.607   3.616   3.623   3.635   3.641   3.664   3.668
  3.688   3.692   3.700   3.704   3.714   3.719   3.729   3.737
  3.748   3.752   3.763   3.769   3.777   3.779   3.787   3.795
  3.798   3.808   3.811   3.834   3.838   3.843   3.850   3.855
  3.859   3.861   3.864   3.866   3.878   3.882   3.885   3.888
  3.893   3.898   3.909   3.920   3.934   3.937   3.945   3.950
  3.955   3.963   3.966   3.969   3.975   3.983   3.986   3.993
  3.996   4.011   4.020   4.029   4.032   4.038   4.052   4.060
  4.077   4.080   4.085   4.088   4.105   4.124   4.132   4.138
  4.145   4.150   4.159   4.164   4.167   4.177   4.182   4.189
  4.197   4.209   4.212   4.224   4.237   4.240   4.249   4.255
  4.268   4.273   4.277   4.285   4.299   4.313   4.319   4.328
  4.334   4.344   4.347   4.353   4.363   4.375   4.382   4.385
  4.390   4.400   4.404   4.410   4.422   4.426   4.431   4.437
  4.443   4.451   4.455   4.472   4.485   4.503   4.510   4.519
  4.525   4.535   4.552   4.561   4.571   4.580   4.594   4.600
  4.607   4.620   4.625   4.634   4.642   4.664   4.670   4.677
  4.689   4.719   4.724   4.736   4.747   4.751   4.777   4.781
  4.791   4.812   4.818   4.829   4.832   4.841   4.844   4.854
  4.860   4.866   4.883   4.891   4.898   4.903   4.920   4.939
  4.943   4.953   4.957   4.969   4.984   4.999   5.007   5.013
  5.029   5.041   5.050   5.064   5.068   5.075   5.084   5.089
  5.092   5.110   5.112   5.117   5.120   5.141   5.149   5.170
  5.183   5.193   5.216   5.242   5.248   5.254   5.265   5.271
  5.277   5.300   5.325   5.337   5.350   5.359   5.386   5.389
  5.399   5.432   5.447   5.461   5.505   5.510   5.523   5.533
  5.569   5.591   5.595   5.628   5.635   5.665   5.676   5.695
  5.726   5.735   5.763   5.794   5.816   5.827   5.838   5.864
  5.878   5.963   5.998   6.019   6.030   6.041   6.046   6.101
  6.139   6.155   6.171   6.189   6.209   6.236   6.250   6.296
  6.365   6.476   6.516   6.856   6.978   8.028   8.567   9.415
 10.085  10.667  11.119  11.142  11.678  12.014  12.298  12.619
 12.748  12.857  12.914  12.955  13.164  13.401  13.454  13.739
 13.808  13.946  14.123  14.661  15.706
 --------------------------------------------------------------
 
          Ground-State Mulliken Net Atomic Charges

     Atom                 Charge (a.u.)
  ----------------------------------------
      1 C                    -0.124372
      2 C                    -0.108102
      3 C                    -0.109813
      4 C                    -0.155347
      5 C                    -0.121181
      6 C                     0.122174
      7 C                     0.011904
      8 C                    -0.107212
      9 C                     0.033898
     10 N                    -0.174300
     11 N                    -0.280385
     12 C                    -0.014451
     13 C                     0.107327
     14 S                     0.413023
     15 N                    -0.223192
     16 C                    -0.006480
     17 N                    -0.138662
     18 S                     0.122539
     19 C                    -0.144303
     20 C                    -0.017528
     21 C                     0.003678
     22 S                     0.133910
     23 C                    -0.051842
     24 C                    -0.221390
     25 S                     0.057147
     26 C                     0.043586
     27 C                    -0.145619
     28 C                    -0.172551
     29 H                     0.118146
     30 H                     0.115129
     31 H                     0.115834
     32 H                     0.129290
     33 H                     0.115202
     34 H                     0.137102
     35 H                     0.145437
     36 H                     0.130742
     37 H                     0.132586
     38 H                     0.128078
  ----------------------------------------
  Sum of atomic charges =     0.000000

 -----------------------------------------------------------------
                    Cartesian Multipole Moments
 -----------------------------------------------------------------
    Charge (ESU x 10^10)
                 0.0000
    Dipole Moment (Debye)
         X       0.7948      Y       0.8739      Z      -0.4472
       Tot       1.2631
    Quadrupole Moments (Debye-Ang)
        XX    -139.8981     XY      -0.2453     YY    -177.7412
        XZ      -3.1211     YZ      -1.9504     ZZ    -186.8004
    Octopole Moments (Debye-Ang^2)
       XXX     152.8857    XXY      48.4697    XYY      12.1626
       YYY     -22.9101    XXZ     -10.4513    XYZ      38.3741
       YYZ      -9.5923    XZZ     -23.1760    YZZ      -6.9036
       ZZZ       4.3421
    Hexadecapole Moments (Debye-Ang^3)
      XXXX  -21180.0921   XXXY    -224.1047   XXYY   -4273.2934
      XYYY     167.6236   YYYY   -2880.7942   XXXZ    -384.4110
      XXYZ     -70.7853   XYYZ      56.0473   YYYZ      -1.9406
      XXZZ   -4343.0475   XYZZ      -3.0007   YYZZ    -576.1360
      XZZZ      12.1103   YZZZ     -12.8683   ZZZZ    -488.5819
 -----------------------------------------------------------------
 Calculating analytic gradient of the SCF energy
 K construction time:  CPU 2135.85 s  wall 135.35 s
 Gradient of SCF Energy
            1           2           3           4           5           6
    1  -0.0001457   0.0000237   0.0001152  -0.0001739   0.0001923  -0.0001592
    2  -0.0001319   0.0000816   0.0000068   0.0000168   0.0004004  -0.0003860
    3   0.0000375  -0.0000381  -0.0001232  -0.0004994   0.0000285   0.0002630
            7           8           9          10          11          12
    1  -0.0000752   0.0007953   0.0000086  -0.0009677   0.0002182  -0.0000445
    2  -0.0009760   0.0007196   0.0007277   0.0003332   0.0003702   0.0006415
    3  -0.0002192   0.0009458  -0.0008921   0.0017000   0.0003027  -0.0007287
           13          14          15          16          17          18
    1   0.0004660   0.0000750   0.0000101  -0.0001709  -0.0002819   0.0000632
    2  -0.0007512  -0.0007246   0.0001048  -0.0003899   0.0002758   0.0000131
    3  -0.0023763   0.0000757   0.0004864   0.0020502  -0.0001562  -0.0019171
           19          20          21          22          23          24
    1   0.0000505  -0.0000792   0.0000507  -0.0002078  -0.0001244   0.0000822
    2  -0.0000901   0.0001507  -0.0004260   0.0000679   0.0005242   0.0000010
    3  -0.0000533   0.0013817  -0.0005774   0.0003296   0.0000048   0.0000084
           25          26          27          28          29          30
    1  -0.0002730   0.0000114   0.0007229  -0.0001794   0.0001111   0.0000062
    2  -0.0002937  -0.0001304   0.0002862   0.0000837   0.0002068   0.0000032
    3  -0.0000245   0.0002635   0.0002807   0.0001691   0.0001707  -0.0000178
           31          32          33          34          35          36
    1  -0.0000063  -0.0000479   0.0000603  -0.0001489   0.0000475   0.0001110
    2   0.0001363  -0.0003016  -0.0002531  -0.0000375   0.0000255  -0.0000800
    3   0.0000955  -0.0001956  -0.0001132   0.0001682  -0.0000185  -0.0002361
           37          38
    1  -0.0002224   0.0000871
    2  -0.0000608  -0.0001440
    3  -0.0003834  -0.0001918
 Max gradient component =       2.376E-03
 RMS gradient           =       5.167E-04
 Gradient time:  CPU 2523.60 s  wall 161.70 s
 Geometry Optimization Parameters
   NAtoms,    NIC,     NZ,  NCons,   NDum,   NFix, NCnnct, MaxDiis
       38     289       0       3       0       0       0       0

 Cartesian Hessian Update
 Hessian Updated using BFGS Update


** CONSTRAINED OPTIMIZATION IN DELOCALIZED INTERNAL COORDINATES **
   Searching for a Minimum

   Optimization Cycle:   2

                       Coordinates (Angstroms)
     ATOM                X               Y               Z
      1  C        -8.0254292676    1.5709892305   -0.2537206742
      2  C        -7.1005340148    2.1420348964   -1.1134199496
      3  C        -7.6161282779    0.6005910013    0.6486758544
      4  C        -5.7712885464    1.7560268571   -1.0591838529
      5  C        -6.2896493711    0.2090217434    0.7001253929
      6  C        -5.3487397019    0.7938467827   -0.1441660636
      7  C        -3.9196836523    0.4385915824   -0.0494816897
      8  C        -2.9435028440    1.3954836032    0.0111144964
      9  C        -3.4512355956   -0.9037706857    0.0003792560
     10  N        -1.6115685445    1.1608729733    0.1056307453
     11  N        -4.1905320122   -2.0143342528   -0.0416803138
     12  C        -2.0476524530   -1.1678104436    0.0942056207
     13  C        -1.1457255164   -0.0577167437    0.1476623221
     14  S        -3.1544215671   -3.2456102907    0.0292450942
     15  N        -1.7536921662   -2.4683739021    0.1150274723
     16  C         0.3052134256   -0.2048106866    0.2636917237
     17  N         0.9425736549   -1.2879914683    0.5818229387
     18  S         1.3206988166    1.1687645955   -0.0555743021
     19  C         2.2821146243   -1.0739313571    0.6106549558
     20  C         2.6975467801    0.1922578342    0.2998517025
     21  C         4.0575532358    0.6795587105    0.2216231837
     22  S         4.4764169226    2.3197290463    0.5816148816
     23  C         5.1959630500   -0.0061524926   -0.1071376080
     24  C         6.1385885822    2.0765048018    0.2731774538
     25  S         5.5298389391   -1.6440275149   -0.5991105242
     26  C         6.3859230089    0.7804671809   -0.0829888549
     27  C         7.2297290876   -1.2560152399   -0.7642511210
     28  C         7.5436935765    0.0152937569   -0.4697708743
     29  H        -9.0615348619    1.8787345897   -0.2885367986
     30  H        -7.4119982074    2.8878863109   -1.8317625542
     31  H        -8.3332081249    0.1494336113    1.3207484755
     32  H        -5.0543959967    2.1896027093   -1.7438784714
     33  H        -5.9789549963   -0.5497790724    1.4041479324
     34  H        -3.2230369716    2.4415818533    0.0049338185
     35  H         2.9444349865   -1.8803943225    0.8879494764
     36  H         6.8348093434    2.8919935778    0.3663592150
     37  H         7.9030185298   -2.0337929075   -1.0859842516
     38  H         8.5452811857    0.4120706611   -0.5277104761
   Point Group: c1    Number of degrees of freedom:   108


   Energy is  -2579.862032981

              Constraints and their Current Values
                                        Value     Constraint
   Dihedral:        4   6   7   8       47.062       47.062
   Dihedral:       10  13  16  18      -15.000      -15.000
   Dihedral:       18  20  21  22       32.716       32.716
 Hessian Updated using BFGS Update

 92 Hessian modes will be used to form the next step
  Hessian Eigenvalues:
     0.025553    0.045000    0.045000    0.045001    0.045001    0.045001
     0.045001    0.045003    0.045003    0.045004    0.045005    0.045006
     0.045007    0.045008    0.045012    0.045021    0.045027    0.045037
     0.045048    0.047236    0.157439    0.159972    0.159979    0.159981
     0.159984    0.159993    0.159997    0.160000    0.160404    0.219841
     0.220030    0.225223    0.233046    0.234637    0.234818    0.237045
     0.242552    0.247577    0.249754    0.249758    0.249783    0.249982
     0.249991    0.249992    0.249996    0.249999    0.249999    0.250000
     0.287007    0.296124    0.304252    0.308046    0.315725    0.324236
     0.336863    0.350507    0.356846    0.357296    0.357334    0.357506
     0.357964    0.358481    0.359866    0.361614    0.362482    0.365116
     0.365941    0.379940    0.382706    0.386946    0.389546    0.396977
     0.417511    0.429821    0.436962    0.471885    0.472940    0.474109
     0.480314    0.481371    0.482909    0.484954    0.486812    0.499390
     0.509366    0.519761    0.525885    0.543249    0.556910    0.579937
     0.642033    0.653568

 Minimum Search - Taking Simple RFO Step
 Searching for Lamda that Minimizes Along All modes
 Value Taken    Lamda =  -0.00016674
 Step Taken.  Stepsize is  0.077074

                             Maximum     Tolerance    Cnvgd?
         Gradient           0.001112      0.000300      NO
         Displacement       0.030390      0.001200      NO
         Energy change     -0.000287      0.000001      NO


 New Cartesian Coordinates Obtained by Inverse Iteration

 Displacement from previous Coordinates is:  0.338756
 ----------------------------------------------------------------
             Standard Nuclear Orientation (Angstroms)
    I     Atom           X                Y                Z
 ----------------------------------------------------------------
    1      C      -8.0391142988     1.5427763575    -0.2458944359
    2      C      -7.1209937903     2.1329914620    -1.0996755452
    3      C      -7.6159925427     0.5800738534     0.6583858623
    4      C      -5.7853039768     1.7692322281    -1.0426993949
    5      C      -6.2827420094     0.2129365091     0.7144264072
    6      C      -5.3496176186     0.8121938668    -0.1290830240
    7      C      -3.9192591345     0.4590952671    -0.0476954011
    8      C      -2.9394174656     1.4117765440    -0.0011260238
    9      C      -3.4547766977    -0.8858623173     0.0043141686
   10      N      -1.6067736612     1.1730832952     0.0848543074
   11      N      -4.1991122030    -1.9932976435    -0.0343470154
   12      C      -2.0511121991    -1.1551834736     0.0883022594
   13      C      -1.1455624314    -0.0465299124     0.1317072477
   14      S      -3.1662556846    -3.2271174189     0.0251942517
   15      N      -1.7614772932    -2.4566788618     0.1015081480
   16      C       0.3059104468    -0.1963822046     0.2430836398
   17      N       0.9420317741    -1.2805481761     0.5621891757
   18      S       1.3242266233     1.1712084132    -0.0870597942
   19      C       2.2821522625    -1.0700250636     0.5850734425
   20      C       2.7000061381     0.1933923986     0.2661401718
   21      C       4.0608367885     0.6788074346     0.1907881354
   22      S       4.4797033692     2.3170073349     0.5566113973
   23      C       5.2018923629    -0.0108164266    -0.1226775787
   24      C       6.1444215943     2.0697124539     0.2713651725
   25      S       5.5402605436    -1.6509000414    -0.6014290420
   26      C       6.3935183507     0.7729400759    -0.0807726698
   27      C       7.2434611169    -1.2695986713    -0.7351220022
   28      C       7.5558159076     0.0028080088    -0.4427791447
   29      H      -9.0816509014     1.8275442094    -0.2883989021
   30      H      -7.4436811306     2.8733088582    -1.8184632214
   31      H      -8.3274747486     0.1121775524     1.3245829544
   32      H      -5.0745751878     2.2166051198    -1.7249735858
   33      H      -5.9618499843    -0.5422762608     1.4170264695
   34      H      -3.2126232199     2.4595431540    -0.0140499873
   35      H       2.9420812139    -1.8767658585     0.8669166427
   36      H       6.8401112085     2.8837697961     0.3813206422
   37      H       7.9240898862    -2.0515485545    -1.0300038360
   38      H       8.5593316521     0.3973732210    -0.4772562602
 ----------------------------------------------------------------
 Molecular Point Group                 C1    NOp =  1
 Largest Abelian Subgroup              C1    NOp =  1
 Nuclear Repulsion Energy =  2866.6250370169 hartrees
 There are      111 alpha and      111 beta electrons
 Applying Cartesian multipole field
    Component          Value
    ---------          -----
     (2,0,0)        1.00000E-12
     (0,2,0)        2.00000E-11
     (0,0,2)       -3.00000E-11
 Nucleus-field energy     =     0.0000000543 hartrees
 Requested basis set is cc-pVTZ
 There are 348 shells and 996 basis functions
 A cutoff of  1.0D-11 yielded  28541 shell pairs
 There are    225935 function pairs (    295198 Cartesian)
 Smallest overlap matrix eigenvalue = 3.11E-05
 Guess MOs from SCF MO coefficient file
 Reading MOs from coefficient file
 Reading MOs from coefficient file
 Long-range K will be added via erf
 Coulomb attenuation parameter = 0.2 bohr**(-1)
 A restricted hybrid HF-DFT SCF calculation will be
 performed using Pulay DIIS extrapolation
 Exchange:     0.2220 Hartree-Fock + 1.0000 wB97X-D + LR-HF
 Correlation:  1.0000 wB97X-D
 Using SG-2 standard quadrature grid
 Dispersion:   Grimme D
 SCF converges when DIIS error is below 1.0E-08
 Geometry optimization detected.  Setting ReadMinima to 0
 Setting SaveMinima to 0
 using 16 threads for integral computing 
 using 16 threads for integral computing 
 K construction time:  CPU 908.72 s  wall 59.63 s
 -------------------------------------------------------
 OpenMP BLAS3 based DFT computing Module                
 Release: version 1.0, May 2013, Q-Chem Inc. Pittsburgh 
 -------------------------------------------------------
 ---------------------------------------
  Cycle       Energy         DIIS Error
 ---------------------------------------
    1   -2579.8618160158      1.87E-04
 K construction time:  CPU 912.30 s  wall 59.74 s
    2   -2579.8620062332      1.86E-05
 K construction time:  CPU 655.79 s  wall 43.04 s
    3   -2579.8621061240      1.17E-05
 K construction time:  CPU 614.46 s  wall 40.38 s
    4   -2579.8621204444      8.37E-06
 K construction time:  CPU 584.11 s  wall 38.39 s
    5   -2579.8621300705      2.76E-06
 K construction time:  CPU 534.91 s  wall 35.12 s
    6   -2579.8621311837      1.20E-06
 K construction time:  CPU 486.75 s  wall 31.89 s
    7   -2579.8621313891      3.35E-07
 K construction time:  CPU 448.01 s  wall 29.34 s
    8   -2579.8621314170      1.71E-07
 K construction time:  CPU 400.99 s  wall 26.20 s
    9   -2579.8621314224      6.31E-08
 K construction time:  CPU 348.31 s  wall 22.68 s
   10   -2579.8621314226      2.58E-08
 K construction time:  CPU 316.57 s  wall 20.64 s
   11   -2579.8621314236      1.10E-08
 K construction time:  CPU 258.19 s  wall 16.73 s
   12   -2579.8621314238      4.54E-09 Convergence criterion met
 ---------------------------------------
 SCF time:  CPU 8895.04 s  wall 598.59 s
 SCF   energy in the final basis set = -2579.8621314238
 Total energy in the final basis set = -2579.8621314238
 
 --------------------------------------------------------------
 
                    Orbital Energies (a.u.)
 --------------------------------------------------------------
 
 Alpha MOs
 -- Occupied --
-89.149 -89.090 -89.087 -89.078 -14.485 -14.481 -14.453 -14.443
-10.365 -10.362 -10.357 -10.355 -10.343 -10.342 -10.335 -10.333
-10.330 -10.327 -10.324 -10.322 -10.313 -10.311 -10.305 -10.297
-10.296 -10.295 -10.295 -10.294  -8.159  -8.105  -8.102  -8.093
 -6.109  -6.104  -6.103  -6.054  -6.051  -6.050  -6.048  -6.047
 -6.045  -6.043  -6.039  -6.035  -1.146  -1.086  -1.064  -1.023
 -1.010  -0.974  -0.959  -0.925  -0.920  -0.899  -0.877  -0.860
 -0.855  -0.833  -0.828  -0.802  -0.775  -0.744  -0.734  -0.712
 -0.705  -0.693  -0.691  -0.660  -0.651  -0.637  -0.627  -0.615
 -0.606  -0.598  -0.572  -0.564  -0.556  -0.548  -0.542  -0.531
 -0.530  -0.524  -0.515  -0.514  -0.506  -0.505  -0.496  -0.487
 -0.478  -0.475  -0.469  -0.455  -0.449  -0.439  -0.436  -0.433
 -0.430  -0.423  -0.421  -0.400  -0.392  -0.372  -0.371  -0.361
 -0.359  -0.353  -0.339  -0.337  -0.324  -0.307  -0.272
 -- Virtual --
 -0.049   0.001   0.027   0.042   0.053   0.057   0.067   0.072
  0.083   0.090   0.105   0.111   0.118   0.126   0.131   0.138
  0.140   0.144   0.149   0.156   0.159   0.164   0.170   0.178
  0.189   0.192   0.194   0.199   0.220   0.222   0.231   0.240
  0.243   0.248   0.258   0.267   0.274   0.282   0.287   0.290
  0.297   0.303   0.304   0.309   0.311   0.316   0.323   0.326
  0.329   0.331   0.337   0.340   0.346   0.348   0.351   0.355
  0.358   0.363   0.370   0.373   0.378   0.383   0.385   0.387
  0.388   0.393   0.396   0.398   0.403   0.406   0.408   0.409
  0.414   0.417   0.422   0.426   0.430   0.434   0.435   0.438
  0.441   0.446   0.448   0.453   0.454   0.459   0.465   0.465
  0.468   0.469   0.471   0.474   0.477   0.480   0.485   0.489
  0.492   0.496   0.500   0.503   0.505   0.508   0.512   0.518
  0.522   0.526   0.528   0.531   0.533   0.543   0.544   0.550
  0.556   0.558   0.563   0.565   0.566   0.568   0.576   0.580
  0.583   0.590   0.596   0.602   0.608   0.617   0.622   0.627
  0.629   0.630   0.636   0.645   0.650   0.653   0.660   0.665
  0.665   0.674   0.679   0.685   0.688   0.694   0.703   0.714
  0.722   0.725   0.727   0.730   0.734   0.744   0.746   0.749
  0.755   0.761   0.765   0.767   0.771   0.773   0.777   0.785
  0.790   0.794   0.797   0.799   0.803   0.810   0.817   0.822
  0.826   0.833   0.834   0.839   0.848   0.850   0.855   0.861
  0.862   0.870   0.873   0.876   0.885   0.887   0.889   0.893
  0.901   0.905   0.909   0.918   0.922   0.925   0.926   0.936
  0.943   0.946   0.951   0.957   0.959   0.962   0.965   0.969
  0.977   0.981   0.985   0.988   0.998   1.004   1.013   1.016
  1.027   1.033   1.037   1.042   1.045   1.050   1.053   1.059
  1.063   1.068   1.076   1.080   1.089   1.092   1.096   1.102
  1.106   1.114   1.123   1.131   1.134   1.140   1.146   1.149
  1.157   1.165   1.168   1.175   1.178   1.189   1.198   1.208
  1.211   1.217   1.223   1.227   1.234   1.244   1.249   1.253
  1.256   1.257   1.268   1.276   1.279   1.287   1.294   1.296
  1.316   1.320   1.326   1.335   1.348   1.355   1.360   1.364
  1.366   1.371   1.374   1.382   1.391   1.398   1.406   1.411
  1.416   1.420   1.423   1.435   1.436   1.445   1.449   1.454
  1.457   1.461   1.470   1.475   1.483   1.484   1.486   1.489
  1.492   1.497   1.514   1.517   1.518   1.537   1.542   1.550
  1.560   1.567   1.573   1.575   1.582   1.589   1.601   1.604
  1.611   1.615   1.621   1.630   1.637   1.641   1.648   1.655
  1.658   1.662   1.669   1.674   1.676   1.688   1.690   1.696
  1.704   1.710   1.712   1.719   1.725   1.732   1.743   1.745
  1.756   1.757   1.769   1.773   1.776   1.784   1.793   1.800
  1.823   1.831   1.836   1.839   1.854   1.870   1.883   1.888
  1.893   1.899   1.909   1.915   1.927   1.933   1.934   1.937
  1.944   1.954   1.967   1.973   1.976   1.989   1.996   2.008
  2.016   2.022   2.026   2.030   2.036   2.039   2.043   2.066
  2.069   2.078   2.086   2.092   2.101   2.102   2.113   2.119
  2.131   2.139   2.150   2.159   2.161   2.169   2.173   2.180
  2.189   2.203   2.206   2.211   2.219   2.232   2.236   2.244
  2.249   2.258   2.263   2.268   2.278   2.284   2.290   2.295
  2.318   2.327   2.331   2.334   2.337   2.348   2.353   2.356
  2.368   2.375   2.392   2.396   2.399   2.410   2.416   2.425
  2.437   2.440   2.444   2.450   2.455   2.463   2.469   2.479
  2.486   2.488   2.495   2.497   2.499   2.505   2.509   2.522
  2.530   2.535   2.539   2.554   2.559   2.562   2.571   2.585
  2.590   2.593   2.598   2.608   2.612   2.618   2.632   2.638
  2.646   2.648   2.662   2.670   2.674   2.680   2.692   2.707
  2.712   2.723   2.730   2.742   2.744   2.751   2.761   2.769
  2.776   2.780   2.783   2.786   2.787   2.800   2.804   2.807
  2.815   2.822   2.828   2.834   2.837   2.843   2.850   2.855
  2.859   2.870   2.882   2.896   2.897   2.901   2.908   2.912
  2.925   2.933   2.937   2.944   2.952   2.966   2.966   2.973
  2.977   2.987   2.995   2.995   2.999   3.005   3.013   3.018
  3.022   3.027   3.028   3.039   3.042   3.048   3.056   3.066
  3.069   3.071   3.074   3.075   3.083   3.085   3.089   3.097
  3.101   3.106   3.108   3.113   3.119   3.125   3.128   3.130
  3.138   3.149   3.150   3.154   3.157   3.161   3.165   3.169
  3.175   3.178   3.183   3.184   3.189   3.196   3.202   3.207
  3.210   3.214   3.217   3.222   3.227   3.233   3.239   3.240
  3.247   3.254   3.259   3.266   3.271   3.279   3.282   3.282
  3.286   3.290   3.297   3.298   3.306   3.308   3.312   3.319
  3.323   3.326   3.330   3.339   3.343   3.352   3.354   3.356
  3.367   3.373   3.374   3.385   3.388   3.395   3.407   3.411
  3.417   3.421   3.428   3.431   3.438   3.446   3.452   3.456
  3.460   3.464   3.466   3.471   3.477   3.478   3.485   3.494
  3.502   3.504   3.507   3.518   3.533   3.535   3.536   3.546
  3.553   3.559   3.565   3.572   3.574   3.581   3.584   3.597
  3.603   3.607   3.616   3.623   3.635   3.642   3.663   3.668
  3.689   3.692   3.700   3.704   3.714   3.720   3.729   3.737
  3.748   3.751   3.763   3.769   3.775   3.779   3.789   3.796
  3.798   3.809   3.811   3.833   3.837   3.844   3.850   3.855
  3.860   3.861   3.864   3.866   3.878   3.882   3.885   3.888
  3.893   3.898   3.909   3.920   3.934   3.938   3.944   3.950
  3.954   3.962   3.966   3.969   3.974   3.983   3.985   3.993
  3.995   4.010   4.021   4.029   4.031   4.038   4.052   4.060
  4.077   4.080   4.084   4.089   4.104   4.124   4.132   4.138
  4.145   4.150   4.159   4.165   4.167   4.178   4.182   4.190
  4.196   4.209   4.211   4.224   4.236   4.241   4.249   4.255
  4.267   4.272   4.278   4.286   4.299   4.314   4.320   4.327
  4.334   4.344   4.346   4.354   4.364   4.374   4.382   4.385
  4.391   4.399   4.403   4.409   4.422   4.427   4.430   4.436
  4.443   4.451   4.455   4.471   4.484   4.502   4.510   4.519
  4.525   4.534   4.552   4.561   4.571   4.580   4.594   4.600
  4.607   4.619   4.626   4.634   4.642   4.664   4.670   4.677
  4.690   4.720   4.724   4.736   4.747   4.751   4.777   4.781
  4.791   4.811   4.818   4.828   4.831   4.841   4.844   4.854
  4.860   4.866   4.882   4.892   4.898   4.903   4.920   4.939
  4.944   4.951   4.957   4.969   4.985   5.000   5.007   5.013
  5.030   5.041   5.050   5.064   5.068   5.075   5.084   5.090
  5.092   5.110   5.112   5.118   5.121   5.140   5.148   5.170
  5.183   5.193   5.216   5.242   5.247   5.254   5.265   5.271
  5.277   5.300   5.325   5.337   5.349   5.359   5.386   5.388
  5.398   5.432   5.448   5.461   5.505   5.510   5.523   5.533
  5.568   5.592   5.595   5.628   5.636   5.666   5.676   5.696
  5.726   5.736   5.762   5.795   5.817   5.829   5.838   5.864
  5.877   5.963   5.999   6.018   6.030   6.041   6.046   6.102
  6.140   6.155   6.172   6.189   6.209   6.235   6.249   6.297
  6.365   6.474   6.516   6.855   6.980   8.027   8.569   9.421
 10.082  10.664  11.116  11.148  11.676  12.008  12.294  12.613
 12.743  12.852  12.912  12.951  13.162  13.401  13.464  13.730
 13.809  13.945  14.122  14.656  15.707
 --------------------------------------------------------------
 
          Ground-State Mulliken Net Atomic Charges

     Atom                 Charge (a.u.)
  ----------------------------------------
      1 C                    -0.124240
      2 C                    -0.108528
      3 C                    -0.109785
      4 C                    -0.153607
      5 C                    -0.121448
      6 C                     0.122410
      7 C                     0.013804
      8 C                    -0.107321
      9 C                     0.033135
     10 N                    -0.174374
     11 N                    -0.280221
     12 C                    -0.015135
     13 C                     0.106583
     14 S                     0.412620
     15 N                    -0.222936
     16 C                    -0.006269
     17 N                    -0.139076
     18 S                     0.122858
     19 C                    -0.143905
     20 C                    -0.016387
     21 C                     0.002758
     22 S                     0.134601
     23 C                    -0.053436
     24 C                    -0.221821
     25 S                     0.057951
     26 C                     0.044022
     27 C                    -0.145912
     28 C                    -0.171976
     29 H                     0.118051
     30 H                     0.115164
     31 H                     0.115847
     32 H                     0.128641
     33 H                     0.114864
     34 H                     0.136669
     35 H                     0.145438
     36 H                     0.130522
     37 H                     0.132455
     38 H                     0.127984
  ----------------------------------------
  Sum of atomic charges =     0.000000

 -----------------------------------------------------------------
                    Cartesian Multipole Moments
 -----------------------------------------------------------------
    Charge (ESU x 10^10)
                 0.0000
    Dipole Moment (Debye)
         X       0.7940      Y       0.8487      Z      -0.3927
       Tot       1.2268
    Quadrupole Moments (Debye-Ang)
        XX    -139.6273     XY      -0.1483     YY    -177.8117
        XZ      -2.4779     YZ      -1.9905     ZZ    -186.8893
    Octopole Moments (Debye-Ang^2)
       XXX     153.5378    XXY      44.7989    XYY      12.8151
       YYY     -24.3177    XXZ      -6.9410    XYZ      38.5520
       YYZ      -8.2233    XZZ     -23.8934    YZZ      -7.2704
       ZZZ       7.8379
    Hexadecapole Moments (Debye-Ang^3)
      XXXX  -21198.2597   XXXY    -207.8828   XXYY   -4283.8864
      XYYY     175.1410   YYYY   -2868.2874   XXXZ    -326.0638
      XXYZ     -73.3203   XYYZ      61.9005   YYYZ      -0.3303
      XXZZ   -4359.0470   XYZZ       2.6707   YYZZ    -572.5460
      XZZZ      23.4172   YZZZ     -11.3377   ZZZZ    -479.0259
 -----------------------------------------------------------------
 Calculating analytic gradient of the SCF energy
 K construction time:  CPU 2135.82 s  wall 135.44 s
 Gradient of SCF Energy
            1           2           3           4           5           6
    1   0.0000996  -0.0001569  -0.0002566   0.0000318   0.0003481  -0.0000310
    2  -0.0001460   0.0002463  -0.0001089  -0.0003872   0.0001622   0.0003646
    3   0.0000048  -0.0000644   0.0000092  -0.0005216   0.0004012   0.0005710
            7           8           9          10          11          12
    1  -0.0000308   0.0000529  -0.0000251  -0.0000649  -0.0003709   0.0001816
    2  -0.0001301  -0.0000483  -0.0000560   0.0002266   0.0000227  -0.0002133
    3  -0.0010974   0.0011055  -0.0006579   0.0015866   0.0002688  -0.0000619
           13          14          15          16          17          18
    1  -0.0000540   0.0000758   0.0001426  -0.0001979   0.0000468   0.0000689
    2  -0.0001976   0.0005241  -0.0001931   0.0004933   0.0000675  -0.0006777
    3  -0.0025024   0.0000712   0.0000744   0.0022951  -0.0002781  -0.0016694
           19          20          21          22          23          24
    1   0.0002155  -0.0000674  -0.0001470   0.0001806   0.0000669  -0.0000990
    2   0.0000586   0.0003101   0.0000616  -0.0001679  -0.0002059  -0.0002697
    3  -0.0000680   0.0011420  -0.0006511   0.0003288  -0.0002799  -0.0002581
           25          26          27          28          29          30
    1   0.0000172   0.0000559  -0.0001192   0.0000416  -0.0000194  -0.0000159
    2   0.0001822   0.0000458  -0.0000984  -0.0000326   0.0001012  -0.0001521
    3   0.0000283   0.0004382  -0.0000139  -0.0002114   0.0000977   0.0000646
           31          32          33          34          35          36
    1   0.0000725  -0.0000330  -0.0000335   0.0000781  -0.0000997  -0.0000254
    2   0.0000732  -0.0001635  -0.0000457   0.0000436   0.0000292   0.0001516
    3  -0.0000611  -0.0001160  -0.0002802   0.0000533   0.0001199   0.0000575
           37          38
    1   0.0000560   0.0000152
    2   0.0000550   0.0000748
    3   0.0000192   0.0000556
 Max gradient component =       2.502E-03
 RMS gradient           =       4.739E-04
 Gradient time:  CPU 2525.66 s  wall 161.73 s
 Geometry Optimization Parameters
   NAtoms,    NIC,     NZ,  NCons,   NDum,   NFix, NCnnct, MaxDiis
       38     289       0       3       0       0       0       0

 Cartesian Hessian Update
 Hessian Updated using BFGS Update


** CONSTRAINED OPTIMIZATION IN DELOCALIZED INTERNAL COORDINATES **
   Searching for a Minimum

   Optimization Cycle:   3

                       Coordinates (Angstroms)
     ATOM                X               Y               Z
      1  C        -8.0391142988    1.5427763575   -0.2458944359
      2  C        -7.1209937903    2.1329914620   -1.0996755452
      3  C        -7.6159925427    0.5800738534    0.6583858623
      4  C        -5.7853039768    1.7692322281   -1.0426993949
      5  C        -6.2827420094    0.2129365091    0.7144264072
      6  C        -5.3496176186    0.8121938668   -0.1290830240
      7  C        -3.9192591345    0.4590952671   -0.0476954011
      8  C        -2.9394174656    1.4117765440   -0.0011260238
      9  C        -3.4547766977   -0.8858623173    0.0043141686
     10  N        -1.6067736612    1.1730832952    0.0848543074
     11  N        -4.1991122030   -1.9932976435   -0.0343470154
     12  C        -2.0511121991   -1.1551834736    0.0883022594
     13  C        -1.1455624314   -0.0465299124    0.1317072477
     14  S        -3.1662556846   -3.2271174189    0.0251942517
     15  N        -1.7614772932   -2.4566788618    0.1015081480
     16  C         0.3059104468   -0.1963822046    0.2430836398
     17  N         0.9420317741   -1.2805481761    0.5621891757
     18  S         1.3242266233    1.1712084132   -0.0870597942
     19  C         2.2821522625   -1.0700250636    0.5850734425
     20  C         2.7000061381    0.1933923986    0.2661401718
     21  C         4.0608367885    0.6788074346    0.1907881354
     22  S         4.4797033692    2.3170073349    0.5566113973
     23  C         5.2018923629   -0.0108164266   -0.1226775787
     24  C         6.1444215943    2.0697124539    0.2713651725
     25  S         5.5402605436   -1.6509000414   -0.6014290420
     26  C         6.3935183507    0.7729400759   -0.0807726698
     27  C         7.2434611169   -1.2695986713   -0.7351220022
     28  C         7.5558159076    0.0028080088   -0.4427791447
     29  H        -9.0816509014    1.8275442094   -0.2883989021
     30  H        -7.4436811306    2.8733088582   -1.8184632214
     31  H        -8.3274747486    0.1121775524    1.3245829544
     32  H        -5.0745751878    2.2166051198   -1.7249735858
     33  H        -5.9618499843   -0.5422762608    1.4170264695
     34  H        -3.2126232199    2.4595431540   -0.0140499873
     35  H         2.9420812139   -1.8767658585    0.8669166427
     36  H         6.8401112085    2.8837697961    0.3813206422
     37  H         7.9240898862   -2.0515485545   -1.0300038360
     38  H         8.5593316521    0.3973732210   -0.4772562602
   Point Group: c1    Number of degrees of freedom:   108


   Energy is  -2579.862131424

              Constraints and their Current Values
                                        Value     Constraint
   Dihedral:        4   6   7   8       47.062       47.062
   Dihedral:       10  13  16  18      -15.000      -15.000
   Dihedral:       18  20  21  22       32.716       32.716
 Hessian Updated using BFGS Update

 98 Hessian modes will be used to form the next step
  Hessian Eigenvalues:
     0.018006    0.045000    0.045000    0.045000    0.045000    0.045001
     0.045001    0.045001    0.045001    0.045002    0.045003    0.045003
     0.045003    0.045005    0.045005    0.045006    0.045007    0.045007
[...]
     32  H        -5.0749055743    2.2238785817   -1.7114599469
     33  H        -5.9632801559   -0.5373229507    1.4290633654
     34  H        -3.2133403991    2.4612282355   -0.0230470845
     35  H         2.9435242045   -1.8737386307    0.8566525476
     36  H         6.8447152981    2.8804498040    0.3846993720
     37  H         7.9249252271   -2.0584943194   -1.0144941013
     38  H         8.5625015653    0.3900055443   -0.4641096739
   Point Group: c1    Number of degrees of freedom:   108


   Energy is  -2579.862153157

              Constraints and their Current Values
                                        Value     Constraint
   Dihedral:        4   6   7   8       47.062       47.062
   Dihedral:       10  13  16  18      -15.000      -15.000
   Dihedral:       18  20  21  22       32.716       32.716
 Hessian Updated using BFGS Update

105 Hessian modes will be used to form the next step
  Hessian Eigenvalues:
     0.015250    0.025334    0.044999    0.045000    0.045000    0.045000
     0.045000    0.045000    0.045000    0.045000    0.045000    0.045001
     0.045001    0.045001    0.045001    0.045002    0.045002    0.045003
     0.045003    0.045004    0.045005    0.045006    0.045007    0.045007
     0.045012    0.045020    0.045027    0.045036    0.045038    0.045070
     0.045575    0.046408    0.155201    0.159807    0.159973    0.159979
     0.159987    0.159991    0.159994    0.159999    0.160198    0.160427
     0.219932    0.220027    0.225272    0.233062    0.234262    0.234847
     0.237063    0.245757    0.247594    0.249299    0.249712    0.249854
     0.249935    0.249963    0.249987    0.249992    0.249999    0.260461
     0.294200    0.296461    0.304127    0.307389    0.315441    0.324053
     0.337246    0.350013    0.352521    0.356881    0.357317    0.357393
     0.357912    0.358144    0.358491    0.359904    0.361669    0.362485
     0.365250    0.366463    0.381560    0.386915    0.389540    0.411854
     0.414655    0.429747    0.435714    0.441818    0.470213    0.474163
     0.474710    0.479848    0.481039    0.483903    0.485661    0.487099
     0.500356    0.509154    0.520825    0.524865    0.543229    0.556621
     0.638339    0.652390    0.661805

 Minimum Search - Taking Simple RFO Step
 Searching for Lamda that Minimizes Along All modes
 Value Taken    Lamda =   0.00000000
 Step Taken.  Stepsize is  0.002645

                             Maximum     Tolerance    Cnvgd?
         Gradient           0.000078      0.000300     YES
         Displacement       0.000848      0.001200     YES
         Energy change     -0.000001      0.000001     YES

 Final energy is   -2579.86215315738     


 ******************************
 **  OPTIMIZATION CONVERGED  **
 ******************************

                       Coordinates (Angstroms)
     ATOM                X               Y               Z
      1  C        -8.0426528719    1.5358405181   -0.2467446382
      2  C        -7.1230869803    2.1301362378   -1.0960214335
      3  C        -7.6184687338    0.5765969669    0.6608318156
      4  C        -5.7865167176    1.7715953694   -1.0333245938
      5  C        -6.2842184959    0.2143740582    0.7223126792
      6  C        -5.3500107704    0.8165509345   -0.1179665732
      7  C        -3.9198818323    0.4611176480   -0.0437302362
      8  C        -2.9396807866    1.4136857465   -0.0063088923
      9  C        -3.4551454781   -0.8839554952    0.0087119792
     10  N        -1.6067158192    1.1754587723    0.0758163163
     11  N        -4.1980500649   -1.9920934433   -0.0331696804
     12  C        -2.0509947218   -1.1523260578    0.0857816988
     13  C        -1.1450311013   -0.0436633200    0.1256425840
     14  S        -3.1644476753   -3.2258603943    0.0176638846
     15  N        -1.7604088856   -2.4535151488    0.0925034491
     16  C         0.3062501529   -0.1928117496    0.2382470076
     17  N         0.9422603558   -1.2767364412    0.5586449131
     18  S         1.3242307158    1.1746074602   -0.0943315459
     19  C         2.2824734100   -1.0668762812    0.5775280574
     20  C         2.7002629899    0.1960102474    0.2558711114
     21  C         4.0610314770    0.6816937203    0.1803436648
     22  S         4.4810232691    2.3192429751    0.5488934196
     23  C         5.2022836196   -0.0099521337   -0.1267914517
     24  C         6.1469205359    2.0688870364    0.2712748877
     25  S         5.5399872039   -1.6520964608   -0.6003047830
     26  C         6.3949587533    0.7717400593   -0.0808380891
     27  C         7.2446270599   -1.2740926765   -0.7253673804
     28  C         7.5577583821   -0.0016471303   -0.4341627828
     29  H        -9.0867300870    1.8133999896   -0.2962588501
     30  H        -7.4449429520    2.8699718287   -1.8160203314
     31  H        -8.3307390571    0.1055374288    1.3242529470
     32  H        -5.0749055743    2.2238785817   -1.7114599469
     33  H        -5.9632801559   -0.5373229507    1.4290633654
     34  H        -3.2133403991    2.4612282355   -0.0230470845
     35  H         2.9435242045   -1.8737386307    0.8566525476
     36  H         6.8447152981    2.8804498040    0.3846993720
     37  H         7.9249252271   -2.0584943194   -1.0144941013
     38  H         8.5625015653    0.3900055443   -0.4641096739

Z-matrix Print:
$molecule
0 1
S 
C  1 1.724459
C  2 1.368537 1 109.135477
H  3 1.079780 2 124.292699 1 178.855836 0
N  3 1.356676 2 116.170977 1 0.142305 0
C  5 1.296941 3 111.014233 2 0.560223 0
C  2 1.446818 1 123.325347 3 -178.945829 0
C  7 1.369366 2 128.755999 1 149.630437 0
C  8 1.426754 7 114.376584 2 178.584032 0
C  9 1.366783 8 112.120928 7 -0.247364 0
H  10 1.076298 9 128.690097 8 179.919440 0
C  9 1.440510 8 111.884087 7 179.022286 0
H  12 1.078794 9 124.312021 8 179.967001 0
C  12 1.342374 9 111.951935 8 -0.107382 0
H  14 1.077815 12 126.928418 9 179.732207 0
C  6 1.463264 5 126.197800 3 179.677073 0
N  16 1.304567 6 116.691889 5 -165.722906 0
C  17 1.356574 16 120.941301 6 178.894805 0
H  18 1.082827 17 114.781023 16 -178.900030 0
C  18 1.367326 17 125.712226 16 -0.090402 0
C  20 1.424062 18 115.028324 17 0.083990 0
N  21 1.334778 20 126.967627 18 178.874913 0
C  21 1.431643 20 119.941787 18 0.372220 0
N  23 1.333259 21 113.389830 20 178.319787 0
C  20 1.475504 18 121.896509 17 -179.273722 0
C  25 1.393028 20 120.127472 18 -47.061875 0
H  26 1.082043 25 119.492412 20 -2.139992 0
C  26 1.385245 25 120.632566 20 178.871191 0
H  28 1.081363 26 119.630121 25 179.711996 0
C  28 1.385662 26 120.103373 25 0.183717 0
H  30 1.081475 28 120.168552 26 179.866820 0
C  30 1.387002 28 119.650672 26 0.305304 0
H  32 1.081367 30 120.083999 28 179.762423 0
C  32 1.383911 30 120.327383 28 -0.122009 0
H  34 1.080531 32 119.834960 30 179.700622 0
S  24 1.604195 23 106.193365 21 0.368848 0
S  10 1.707327 9 110.985268 8 -0.320426 0
S  8 1.742095 7 134.316924 2 -2.837488 0
$end

 
 --------------------------------------------------------------
 
                    Orbital Energies (a.u.)
 --------------------------------------------------------------
 
 Alpha MOs
 -- Occupied --
-89.149 -89.090 -89.087 -89.078 -14.485 -14.481 -14.453 -14.443
-10.365 -10.362 -10.357 -10.355 -10.343 -10.342 -10.335 -10.333
-10.330 -10.327 -10.324 -10.322 -10.313 -10.311 -10.305 -10.297
-10.296 -10.296 -10.295 -10.294  -8.159  -8.105  -8.102  -8.093
 -6.109  -6.104  -6.103  -6.054  -6.051  -6.050  -6.048  -6.047
 -6.045  -6.043  -6.039  -6.035  -1.146  -1.086  -1.064  -1.023
 -1.010  -0.974  -0.959  -0.925  -0.920  -0.899  -0.877  -0.860
 -0.855  -0.833  -0.828  -0.802  -0.775  -0.744  -0.734  -0.712
 -0.705  -0.693  -0.691  -0.660  -0.651  -0.637  -0.627  -0.614
 -0.606  -0.598  -0.572  -0.564  -0.556  -0.548  -0.542  -0.531
 -0.530  -0.524  -0.515  -0.514  -0.506  -0.505  -0.496  -0.487
 -0.478  -0.475  -0.469  -0.455  -0.449  -0.439  -0.436  -0.433
 -0.430  -0.423  -0.421  -0.400  -0.392  -0.372  -0.371  -0.361
 -0.359  -0.353  -0.339  -0.337  -0.324  -0.307  -0.272
 -- Virtual --
 -0.049   0.001   0.027   0.042   0.053   0.057   0.067   0.072
  0.083   0.090   0.105   0.111   0.118   0.126   0.131   0.138
  0.140   0.144   0.150   0.156   0.159   0.164   0.170   0.178
  0.189   0.192   0.195   0.199   0.220   0.222   0.232   0.240
  0.243   0.248   0.259   0.267   0.274   0.282   0.287   0.290
  0.297   0.303   0.304   0.309   0.311   0.316   0.323   0.326
  0.329   0.331   0.336   0.339   0.346   0.348   0.351   0.355
  0.358   0.363   0.370   0.372   0.378   0.383   0.385   0.387
  0.388   0.392   0.396   0.398   0.403   0.406   0.408   0.409
  0.414   0.417   0.421   0.427   0.431   0.434   0.435   0.438
  0.441   0.446   0.448   0.453   0.455   0.459   0.465   0.465
  0.468   0.469   0.471   0.474   0.477   0.480   0.485   0.489
  0.493   0.495   0.500   0.503   0.505   0.508   0.512   0.518
  0.522   0.526   0.528   0.531   0.534   0.543   0.544   0.550
  0.556   0.558   0.563   0.565   0.566   0.568   0.576   0.580
  0.583   0.590   0.596   0.603   0.608   0.617   0.621   0.627
  0.630   0.630   0.636   0.645   0.650   0.653   0.660   0.665
  0.665   0.675   0.679   0.685   0.688   0.694   0.703   0.714
  0.722   0.725   0.727   0.730   0.734   0.744   0.746   0.749
  0.755   0.760   0.765   0.767   0.771   0.773   0.777   0.785
  0.790   0.794   0.797   0.799   0.803   0.810   0.818   0.822
  0.826   0.833   0.835   0.840   0.848   0.851   0.855   0.862
  0.862   0.869   0.873   0.876   0.885   0.887   0.889   0.893
  0.901   0.906   0.909   0.917   0.922   0.926   0.926   0.936
  0.943   0.946   0.951   0.958   0.960   0.962   0.965   0.969
  0.977   0.981   0.985   0.989   0.998   1.004   1.014   1.016
  1.027   1.033   1.037   1.042   1.044   1.050   1.053   1.059
  1.063   1.068   1.076   1.080   1.089   1.092   1.096   1.102
  1.106   1.114   1.123   1.131   1.135   1.141   1.146   1.149
  1.156   1.165   1.168   1.175   1.178   1.189   1.197   1.208
  1.211   1.217   1.223   1.227   1.234   1.245   1.249   1.253
  1.256   1.257   1.269   1.275   1.280   1.287   1.294   1.296
  1.316   1.320   1.326   1.335   1.348   1.355   1.360   1.363
  1.366   1.371   1.374   1.383   1.390   1.398   1.406   1.411
  1.416   1.420   1.423   1.435   1.436   1.445   1.449   1.454
  1.457   1.461   1.470   1.475   1.483   1.484   1.487   1.489
  1.492   1.497   1.514   1.516   1.518   1.537   1.542   1.550
  1.560   1.567   1.573   1.575   1.582   1.589   1.601   1.604
  1.611   1.614   1.621   1.630   1.637   1.641   1.648   1.655
  1.658   1.662   1.669   1.674   1.676   1.688   1.690   1.696
  1.704   1.710   1.712   1.719   1.725   1.732   1.742   1.744
  1.756   1.756   1.769   1.773   1.776   1.784   1.793   1.800
  1.823   1.830   1.836   1.838   1.854   1.870   1.882   1.888
  1.893   1.899   1.909   1.915   1.927   1.933   1.934   1.937
  1.945   1.954   1.967   1.973   1.976   1.989   1.996   2.008
  2.015   2.021   2.026   2.030   2.036   2.039   2.043   2.066
  2.069   2.078   2.086   2.092   2.101   2.102   2.113   2.119
  2.131   2.139   2.150   2.159   2.162   2.169   2.173   2.180
  2.188   2.203   2.206   2.211   2.219   2.232   2.236   2.244
  2.249   2.257   2.263   2.268   2.278   2.284   2.291   2.295
  2.318   2.327   2.331   2.334   2.337   2.349   2.353   2.356
  2.368   2.375   2.392   2.396   2.399   2.410   2.417   2.424
  2.437   2.440   2.443   2.451   2.455   2.463   2.469   2.479
  2.486   2.488   2.495   2.497   2.499   2.505   2.510   2.522
  2.530   2.535   2.539   2.554   2.559   2.562   2.571   2.585
  2.590   2.593   2.598   2.608   2.612   2.618   2.632   2.638
  2.646   2.648   2.662   2.671   2.674   2.680   2.692   2.706
  2.712   2.723   2.731   2.742   2.745   2.751   2.760   2.769
  2.776   2.779   2.783   2.786   2.787   2.800   2.804   2.807
  2.816   2.822   2.828   2.834   2.837   2.842   2.850   2.855
  2.858   2.870   2.882   2.896   2.897   2.901   2.907   2.912
  2.925   2.933   2.937   2.944   2.952   2.965   2.966   2.973
  2.977   2.986   2.995   2.995   2.999   3.006   3.013   3.018
  3.021   3.027   3.029   3.039   3.042   3.048   3.055   3.066
  3.069   3.071   3.074   3.075   3.082   3.085   3.089   3.096
  3.100   3.105   3.108   3.113   3.119   3.126   3.128   3.130
  3.138   3.149   3.150   3.154   3.157   3.161   3.165   3.169
  3.175   3.178   3.182   3.184   3.189   3.196   3.202   3.207
  3.209   3.213   3.217   3.223   3.227   3.233   3.239   3.240
  3.247   3.254   3.258   3.265   3.272   3.280   3.281   3.283
  3.286   3.290   3.297   3.297   3.305   3.308   3.311   3.319
  3.322   3.326   3.330   3.339   3.343   3.352   3.354   3.356
  3.368   3.373   3.374   3.385   3.388   3.394   3.407   3.411
  3.417   3.421   3.428   3.431   3.437   3.446   3.452   3.456
  3.461   3.464   3.466   3.471   3.477   3.478   3.484   3.494
  3.502   3.504   3.507   3.518   3.533   3.534   3.536   3.546
  3.552   3.559   3.566   3.571   3.574   3.581   3.584   3.597
  3.603   3.607   3.616   3.623   3.635   3.643   3.663   3.668
  3.688   3.692   3.700   3.704   3.713   3.720   3.729   3.737
  3.747   3.751   3.763   3.770   3.774   3.779   3.789   3.795
  3.798   3.809   3.811   3.833   3.838   3.844   3.850   3.855
  3.860   3.861   3.864   3.866   3.878   3.883   3.885   3.888
  3.893   3.898   3.909   3.920   3.933   3.939   3.944   3.950
  3.954   3.963   3.966   3.969   3.973   3.981   3.985   3.993
  3.995   4.010   4.021   4.030   4.030   4.039   4.052   4.061
  4.077   4.079   4.084   4.089   4.104   4.124   4.132   4.139
  4.145   4.151   4.159   4.165   4.167   4.177   4.182   4.190
  4.195   4.208   4.212   4.223   4.236   4.241   4.248   4.255
  4.267   4.272   4.278   4.286   4.299   4.314   4.320   4.327
  4.334   4.344   4.346   4.355   4.364   4.374   4.382   4.385
  4.390   4.399   4.403   4.409   4.422   4.427   4.430   4.436
  4.443   4.451   4.455   4.470   4.484   4.501   4.510   4.519
  4.525   4.534   4.552   4.561   4.571   4.581   4.594   4.600
  4.607   4.619   4.626   4.634   4.643   4.664   4.670   4.677
  4.689   4.720   4.723   4.737   4.746   4.751   4.777   4.780
  4.791   4.811   4.818   4.829   4.831   4.842   4.844   4.854
  4.860   4.866   4.882   4.891   4.899   4.903   4.920   4.939
  4.945   4.952   4.957   4.969   4.985   5.000   5.007   5.013
  5.030   5.041   5.050   5.064   5.069   5.075   5.084   5.090
  5.092   5.110   5.111   5.117   5.121   5.140   5.148   5.170
  5.183   5.193   5.217   5.243   5.248   5.253   5.265   5.271
  5.277   5.300   5.326   5.337   5.349   5.359   5.386   5.389
  5.399   5.432   5.448   5.461   5.505   5.509   5.523   5.533
  5.568   5.592   5.595   5.628   5.637   5.666   5.675   5.695
  5.727   5.736   5.762   5.795   5.817   5.829   5.838   5.863
  5.877   5.963   5.998   6.018   6.031   6.041   6.046   6.102
  6.140   6.155   6.171   6.189   6.210   6.235   6.249   6.296
  6.365   6.475   6.517   6.855   6.981   8.025   8.568   9.422
 10.082  10.665  11.118  11.147  11.677  12.009  12.296  12.613
 12.742  12.853  12.915  12.952  13.164  13.400  13.470  13.730
 13.807  13.945  14.124  14.658  15.708
 --------------------------------------------------------------
 
          Ground-State Mulliken Net Atomic Charges

     Atom                 Charge (a.u.)
  ----------------------------------------
      1 C                    -0.124341
      2 C                    -0.108745
      3 C                    -0.109527
      4 C                    -0.152935
      5 C                    -0.121078
      6 C                     0.121601
      7 C                     0.014977
      8 C                    -0.107951
      9 C                     0.032330
     10 N                    -0.174425
     11 N                    -0.279693
     12 C                    -0.014990
     13 C                     0.106282
     14 S                     0.412732
     15 N                    -0.223146
     16 C                    -0.006007
     17 N                    -0.139044
     18 S                     0.122807
     19 C                    -0.143508
     20 C                    -0.016215
     21 C                     0.002990
     22 S                     0.134587
     23 C                    -0.053770
     24 C                    -0.221866
     25 S                     0.057712
     26 C                     0.044028
     27 C                    -0.145864
     28 C                    -0.171994
     29 H                     0.118098
     30 H                     0.115015
     31 H                     0.115768
     32 H                     0.128457
     33 H                     0.114686
     34 H                     0.136665
     35 H                     0.145369
     36 H                     0.130540
     37 H                     0.132431
     38 H                     0.128024
  ----------------------------------------
  Sum of atomic charges =     0.000000

 -----------------------------------------------------------------
                    Cartesian Multipole Moments
 -----------------------------------------------------------------
    Charge (ESU x 10^10)
                 0.0000
    Dipole Moment (Debye)
         X       0.7970      Y       0.8390      Z      -0.3817
       Tot       1.2185
    Quadrupole Moments (Debye-Ang)
        XX    -139.5494     XY      -0.1506     YY    -177.8079
        XZ      -2.3179     YZ      -1.9843     ZZ    -186.9201
    Octopole Moments (Debye-Ang^2)
       XXX     153.6067    XXY      43.7958    XYY      12.9798
       YYY     -25.0361    XXZ      -6.2503    XYZ      38.6096
       YYZ      -7.9237    XZZ     -24.1202    YZZ      -7.4072
       ZZZ       8.8636
    Hexadecapole Moments (Debye-Ang^3)
      XXXX  -21193.4675   XXXY    -205.3078   XXYY   -4286.8309
      XYYY     175.3627   YYYY   -2867.4421   XXXZ    -309.8072
      XXYZ     -74.2942   XYYZ      63.6936   YYYZ      -0.7178
      XXZZ   -4361.6786   XYZZ       3.7193   YYZZ    -572.1593
      XZZZ      25.9680   YZZZ     -11.8234   ZZZZ    -475.9660
 -----------------------------------------------------------------
Archival summary:
1\1\mn361\OPT\ProcedureUnspecified\BasisUnspecified\442010\afmv_a\MonJun519:41:222017MonJun519:41:222017\0\\#,OPT,ProcedureUnspecified,BasisUnspecified,\\0,1\S\C,1,1.72446\C,2,1.36854,1,109.135\H,3,1.07978,2,124.293,1,178.856,0\N,3,1.35668,2,116.171,1,0.142305,0\C,5,1.29694,3,111.014,2,0.560223,0\C,2,1.44682,1,123.325,3,-178.946,0\C,7,1.36937,2,128.756,1,149.63,0\C,8,1.42675,7,114.377,2,178.584,0\C,9,1.36678,8,112.121,7,-0.247364,0\H,10,1.0763,9,128.69,8,179.919,0\C,9,1.44051,8,111.884,7,179.022,0\H,12,1.07879,9,124.312,8,179.967,0\C,12,1.34237,9,111.952,8,-0.107382,0\H,14,1.07782,12,126.928,9,179.732,0\C,6,1.46326,5,126.198,3,179.677,0\N,16,1.30457,6,116.692,5,-165.723,0\C,17,1.35657,16,120.941,6,178.895,0\H,18,1.08283,17,114.781,16,-178.9,0\C,18,1.36733,17,125.712,16,-0.0904024,0\C,20,1.42406,18,115.028,17,0.0839902,0\N,21,1.33478,20,126.968,18,178.875,0\C,21,1.43164,20,119.942,18,0.37222,0\N,23,1.33326,21,113.39,20,178.32,0\C,20,1.4755,18,121.897,17,-179.274,0\C,25,1.39303,20,120.127,18,-47.0619,0\H,26,1.08204,25,119.492,20,-2.13999,0\C,26,1.38524,25,120.633,20,178.871,0\H,28,1.08136,26,119.63,25,179.712,0\C,28,1.38566,26,120.103,25,0.183717,0\H,30,1.08147,28,120.169,26,179.867,0\C,30,1.387,28,119.651,26,0.305304,0\H,32,1.08137,30,120.084,28,179.762,0\C,32,1.38391,30,120.327,28,-0.122009,0\H,34,1.08053,32,119.835,30,179.701,0\S,24,1.6042,23,106.193,21,0.368848,0\S,10,1.70733,9,110.985,8,-0.320426,0\S,8,1.7421,7,134.317,2,-2.83749,0\\\@

 Total job time:  4427.77s(wall), 65975.01s(cpu) 
 Mon Jun  5 19:41:23 2017

        *************************************************************
        *                                                           *
        *  Thank you very much for using Q-Chem.  Have a nice day.  *
        *                                                           *
        *************************************************************


