
Running Job 1 of 1 C306_2/C306_15.qcin
qchem C306_2/C306_15.qcin_122169.0 /tmpu/cab_g/afmv_a/scratch_qchem/qchem122169/ 1
/tmpu/appuserlic/qchem4.4/serial-multicore/exe/qcprog.exe_s C306_2/C306_15.qcin_122169.0 /tmpu/cab_g/afmv_a/scratch_qchem/qchem122169/
Check license passed

                  Welcome to Q-Chem
     A Quantum Leap Into The Future Of Chemistry


 Q-Chem 4.4, Q-Chem, Inc., Pleasanton, CA (2016)

 Y. Shao,  Z. Gan,  E. Epifanovsky,  A. T. B. Gilbert,  M. Wormit,  
 J. Kussmann,  A. W. Lange,  A. Behn,  J. Deng,  X. Feng,  D. Ghosh,  
 M. Goldey,  P. R. Horn,  L. D. Jacobson,  I. Kaliman,  F. Rob,  
 R. Z. Khaliullin,  T. Kus,  A. Landau,  J. Liu,  E. I. Proynov,  Y. M. Rhee,  
 R. M. Richard,  M. A. Rohrdanz,  R. P. Steele,  E. J. Sundstrom,  
 H. L. Woodcock III,  P. M. Zimmerman,  D. Zuev,  B. Albrecht,  E. Alguire,  
 B. Austin,  S. A. Baeppler,  G. J. O. Beran,  Y. A. Bernard,  E. Berquist,  
 K. Brandhorst,  K. B. Bravaya,  S. T. Brown,  D. Casanova,  C.-M. Chang,  
 Y. Chen,  S. H. Chien,  K. D. Closser,  M. P. Coons,  D. L. Crittenden,  
 S. Dasgupta,  M. Diedenhofen,  R. A. DiStasio Jr.,  H. Do,  A. D. Dutoi,  
 R. G. Edgar,  P.-T. Fang,  S. Fatehi,  Q. Feng,  L. Fusti-Molnar,  
 A. Ghysels,  A. Golubeva-Zadorozhnaya,  J. Gomes,  A. Gunina,  
 M. W. D. Hanson-Heine,  P. H. P. Harbach,  A. W. Hauser,  J. E. Herr,  
 E. G. Hohenstein,  Z. C. Holden,  K. Hui,  T.-C. Jagau,  H. Ji,  B. Kaduk,  
 K. Khistyaev,  Jaehoon Kim,  Jihan Kim,  R. A. King,  P. Klunzinger,  
 K. Koh,  D. Kosenkov,  T. Kowalczyk,  C. M. Krauter,  A. Kunitsa,  
 K. U. Lao,  A. Laurent,  K. V. Lawler,  J. Lee,  D. Lefrancois,  S. Lehtola,  
 S. V. Levchenko,  C. Y. Lin,  Y.-S. Lin,  F. Liu,  E. Livshits,  
 R. C. Lochan,  A. Luenser,  P. Manohar,  S. F. Manzer,  S.-P. Mao,  Y. Mao,  
 N. Mardirossian,  A. V. Marenich,  L. A. Martinez-Martinez,  S. A. Maurer,  
 N. J. Mayhall,  J.-M. Mewes,  A. F. Morrison,  K. Nanda,  T. S. Nguyen-Beck,  
 C. M. Oana,  R. Olivares-Amaya,  D. P. O'Neill,  J. A. Parkhill,  
 T. M. Perrine,  R. Peverati,  P. A. Pieniazek,  F. Plasser,  A. Prociuk,  
 D. R. Rehn,  E. Rosta,  N. J. Russ,  N. Sergueev,  S. M. Sharada,  
 S. Sharma,  D. W. Small,  A. Sodt,  T. Stauch,  T. Stein,  D. Stuck,  
 Y.-C. Su,  A. J. W. Thom,  T. Tsuchimochi,  L. Vogt,  O. Vydrov,  T. Wang,  
 M. A. Watson,  J. Wenzel,  A. White,  C. F. Williams,  V. Vanovschi,  
 K. Yao,  S. Yeganeh,  S. R. Yost,  Z.-Q. You,  I. Y. Zhang,  X. Zhang,  
 Y. Zhao,  B. R. Brooks,  G. K. L. Chan,  D. M. Chipman,  C. J. Cramer,  
 W. A. Goddard III,  M. S. Gordon,  W. J. Hehre,  A. Klamt,  
 H. F. Schaefer III,  M. W. Schmidt,  C. D. Sherrill,  D. G. Truhlar,  
 A. Warshel,  X. Xu,  A. Aspuru-Guzik,  R. Baer,  A. T. Bell,  N. A. Besley,  
 J.-D. Chai,  A. Dreuw,  B. D. Dunietz,  T. R. Furlani,  S. R. Gwaltney,  
 C.-P. Hsu,  Y. Jung,  J. Kong,  D. S. Lambrecht,  W. Liang,  C. Ochsenfeld,  
 V. A. Rassolov,  L. V. Slipchenko,  J. E. Subotnik,  T. Van Voorhis,  
 J. M. Herbert,  A. I. Krylov,  P. M. W. Gill,  M. Head-Gordon

 Contributors to earlier versions of Q-Chem not listed above: 
 R. D. Adamson,  J. Baker,  E. F. C. Byrd,  A. K. Chakraborty,  C.-L. Cheng,  
 H. Dachsel,  R. J. Doerksen,  G. Hawkins,  A. Heyden,  S. Hirata,  
 G. Kedziora,  F. J. Keil,  C. Kelley,  P. P. Korambath,  W. Kurlancheek,  
 A. M. Lee,  M. S. Lee,  D. Liotard,  I. Lotan,  P. E. Maslen,  N. Nair,  
 D. Neuhauser,  R. Olson,  B. Peters,  J. Ritchie,  N. E. Schultz,  
 N. Shenvi,  A. C. Simmonett,  K. S. Thanthiriwatte,  Q. Wu,  W. Zhang

 Please cite Q-Chem as follows:
 Y. Shao et al., Mol. Phys. 113, 184-215 (2015)
 DOI: 10.1080/00268976.2014.952696

 Q-Chem 4.4.2 for Intel X86 Linux

 Parts of Q-Chem use Armadillo 5.200.1 (Boston Tea Smuggler).
 http://arma.sourceforge.net/

 Q-Chem begins on Tue Jun  6 12:51:10 2017  

Host: 
0

     Scratch files written to /tmpu/cab_g/afmv_a/scratch_qchem/qchem122169//
 Dec716 11556_ 22328  22283 4050   
Processing $rem in /tmpu/appuserlic/qchem4.4/serial-multicore/config/preferences.
 MEM_TOTAL  2000 
FILE_GEOM_ORG=        593

Checking the input file for inconsistencies... 	...done.

--------------------------------------------------------------
User input:
--------------------------------------------------------------
$comment
OPTIMIZATION
$end

$rem
JOBTYPE OPT
EXCHANGE omegaB97X-D
BASIS cc-pVTZ
$end

$molecule
0 1
C          0.00000        0.00000        0.00000
C          1.38599        0.00000        0.00000
C         -0.68515       -1.20581        0.00000
C          2.08055       -1.19709        0.02226
C          0.00742       -2.40411        0.01179
C          1.40063       -2.41271        0.04151
C          2.15950       -3.67324        0.15696
C          3.15000       -3.81753        1.08952
C          1.92849       -4.81544       -0.65861
N          3.90172       -4.92812        1.27968
N          1.02636       -4.93526       -1.63501
C          2.72047       -5.99481       -0.47371
C          3.72589       -5.99344        0.54686
S          1.20518       -6.42345       -2.22449
N          2.39935       -6.98227       -1.31015
C          4.58521       -7.13898        0.84639
N          4.77576       -8.17564        0.09213
S          5.46221       -7.16069        2.34847
C          5.62938       -9.05286        0.67818
C          6.11328       -8.69632        1.90745
C          7.06149       -9.41981        2.72612
S          7.04888       -9.33920        4.45617
C          8.07412      -10.24865        2.32834
C          8.39221      -10.38294        4.62065
S          8.68872      -10.75710        0.77775
C          8.84050      -10.79903        3.39783
C          9.94685      -11.68034        1.57460
C          9.91597      -11.62698        2.91531
H         -0.54342        0.93472        0.00000
H          1.93260        0.93382       -0.01501
H         -1.76734       -1.21268        0.00047
H          3.16263       -1.19509        0.00785
H         -0.53593       -3.33924        0.01382
H          3.36185       -2.99842        1.76492
H          5.87293       -9.97768        0.17625
H          8.78299      -10.62441        5.59338
H         10.65521      -12.20942        0.95800
H         10.62959      -12.13284        3.54645
$end

$opt
CONSTRAINT
tors 4 6 7 8 47.06187
tors 10 13 16 18 15.00000
tors 18 20 21 22 32.71647
ENDCONSTRAINT
$end
--------------------------------------------------------------
 ----------------------------------------------------------------
             Standard Nuclear Orientation (Angstroms)
    I     Atom           X                Y                Z
 ----------------------------------------------------------------
    1      C      -7.9524044548     1.7212748407    -0.4239953162
    2      C      -7.0403597653     2.0519256889    -1.4138502456
    3      C      -7.5559881389     0.9121595076     0.6303266274
    4      C      -5.7361341847     1.5946665152    -1.3374090778
    5      C      -6.2550553856     0.4452952368     0.7033117139
    6      C      -5.3241734780     0.7971417429    -0.2722159652
    7      C      -3.9078317617     0.3967547122    -0.1635208474
    8      C      -2.9022681683     1.3113225366    -0.3183935750
    9      C      -3.4779877812    -0.9307050832     0.1125688647
   10      N      -1.5757694889     1.0500439829    -0.2359999884
   11      N      -4.2516845355    -2.0011284863     0.3052847172
   12      C      -2.0780906587    -1.2234692741     0.1957019033
   13      C      -1.1412402125    -0.1560443560     0.0076868401
   14      S      -3.2478522281    -3.2329093375     0.5683614594
   15      N      -1.8219211453    -2.5064775984     0.4527894371
   16      C       0.3102214282    -0.3217595064     0.0864813152
   17      N       0.9599047996    -1.4424655600     0.0439270664
   18      S       1.3090960075     1.0927736451     0.2513757931
   19      C       2.2966194640    -1.2337373152     0.1500546365
   20      C       2.6972029437     0.0685310231     0.2766040946
   21      C       4.0510968470     0.5706023071     0.3641042524
   22      S       4.4543675184     2.0123860955     1.2349442262
   23      C       5.1921948392     0.0461042707    -0.1775795787
   24      C       6.1162497830     1.9072362319     0.8501414302
   25      S       5.5342557337    -1.3357629912    -1.1845657383
   26      C       6.3726789595     0.8006962516     0.0890915540
   27      C       7.2265425524    -0.8843908757    -1.2361569547
   28      C       7.5315696551     0.2230127746    -0.5419525251
   29      H      -8.9667914014     2.0921369706    -0.4738669314
   30      H      -7.3408870322     2.6701899977    -2.2495895535
   31      H      -8.2631640775     0.6506873534     1.4066752079
   32      H      -5.0293813060     1.8422110203    -2.1186458287
   33      H      -5.9549752312    -0.1834087589     1.5305871500
   34      H      -3.1556321449     2.3476489861    -0.5022983332
   35      H       2.9708826410    -2.0774842931     0.1484530195
   36      H       6.8063262502     2.6592394434     1.1900032572
   37      H       7.8975670671    -1.4982491163    -1.8147753583
   38      H       8.5274204274     0.6337200618    -0.4863979829
 ----------------------------------------------------------------
 Molecular Point Group                 C1    NOp =  1
 Largest Abelian Subgroup              C1    NOp =  1
 Nuclear Repulsion Energy =  2865.5178624109 hartrees
 There are      111 alpha and      111 beta electrons
 Requested basis set is cc-pVTZ
 There are 348 shells and 996 basis functions

 Total QAlloc Memory Limit   2000 MB
 Mega-Array Size        61 MB
 MEM_STATIC part        62 MB
 A cutoff of  1.0D-11 yielded  28537 shell pairs
 There are    225925 function pairs (    295191 Cartesian)
 
 -------------------------------------------------------
 OpenMP Integral Computing Module                       
 Release: version 1.0, May 2013, Q-Chem Inc. Pittsburgh 
 -------------------------------------------------------
 Integral Job Info:
 Integral job number is                      11
 Integral operator is                         1
 short-range coefficients              22203600
 long-range coefficients              100000000
 Omega coefficients                         200
 if combine SR and LR in K                    1
 Integral screening is                        0
 Integral computing path is                   2
 max size of driver memory is            800000
 size of driver memory is                776718
 size of scratch memory is             26248924
 max col of scratch BK array              10000
 max len of scratch array in speh3          662
 max len of scratch index in speh4           32
 max int batch size is                      520
 min int batch size is                       52
 fixed nKL is                                52
 max L of basis functions is                  3
 order of int derivative is                   0
 number of shells is                        348
 number of basis is                        1146
 number of cartesian basis is              1146
 number of contracted shell pairs         28537
 number of primitive shell pairs          90602
 maxK2 (contraction) of shell pair          121
 max number of K2 of shell pair               1
 max number of CS2 of shell pair           3873
 max number of PS2 of shell pair          11501
 mem total for path MDJ                  790440
 -------------------------------------------------------
 Smallest overlap matrix eigenvalue = 3.11E-05

 Scale SEOQF with 1.000000e-02/1.000000e-01/1.000000e-01

 Standard Electronic Orientation quadrupole field applied
 Nucleus-field energy     =     0.0000000436 hartrees
 Guess from superposition of atomic densities
 Warning:  Energy on first SCF cycle will be non-variational
 Long-range K will be added via erf
 Coulomb attenuation parameter = 0.2 bohr**(-1)
 A restricted hybrid HF-DFT SCF calculation will be
 performed using Pulay DIIS extrapolation
 Exchange:     0.2220 Hartree-Fock + 1.0000 wB97X-D + LR-HF
 Correlation:  1.0000 wB97X-D
 Using SG-2 standard quadrature grid
 Dispersion:   Grimme D
 SCF converges when DIIS error is below 1.0E-08
 using 16 threads for integral computing 
 using 16 threads for integral computing 
 K construction time:  CPU 60.73 s  wall 3.93 s
 -------------------------------------------------------
 OpenMP BLAS3 based DFT computing Module                
 Release: version 1.0, May 2013, Q-Chem Inc. Pittsburgh 
 -------------------------------------------------------
 ---------------------------------------
  Cycle       Energy         DIIS Error
 ---------------------------------------
    1   -2589.7921383361      1.84E-02
 K construction time:  CPU 909.21 s  wall 59.67 s
    2   -2579.6157257615      1.36E-03
 K construction time:  CPU 868.51 s  wall 56.80 s
    3   -2579.6498658768      1.37E-03
 K construction time:  CPU 828.74 s  wall 54.41 s
    4   -2579.8552221808      2.16E-04
 K construction time:  CPU 761.75 s  wall 50.08 s
    5   -2579.8597902585      1.20E-04
 K construction time:  CPU 730.01 s  wall 47.92 s
    6   -2579.8615144072      3.56E-05
 K construction time:  CPU 676.15 s  wall 44.40 s
    7   -2579.8616763756      1.50E-05
 K construction time:  CPU 638.70 s  wall 41.99 s
    8   -2579.8617147069      5.81E-06
 K construction time:  CPU 613.99 s  wall 40.17 s
    9   -2579.8617240368      3.78E-06
 K construction time:  CPU 581.98 s  wall 38.12 s
   10   -2579.8617273870      1.10E-06
 K construction time:  CPU 525.43 s  wall 34.49 s
   11   -2579.8617277732      6.29E-07
 K construction time:  CPU 484.29 s  wall 31.55 s
   12   -2579.8617278770      1.88E-07
 K construction time:  CPU 428.16 s  wall 28.01 s
   13   -2579.8617278884      9.51E-08
 K construction time:  CPU 366.28 s  wall 24.07 s
   14   -2579.8617278918      3.32E-08
 K construction time:  CPU 324.27 s  wall 21.20 s
   15   -2579.8617278960      1.39E-08
 K construction time:  CPU 903.53 s  wall 59.25 s
   16   -2579.8617278884      4.56E-09 Convergence criterion met
 ---------------------------------------
 SCF time:  CPU 13124.67 s  wall 884.15 s
 SCF   energy in the final basis set = -2579.8617278884
 Total energy in the final basis set = -2579.8617278884
 
 --------------------------------------------------------------
 
                    Orbital Energies (a.u.)
 --------------------------------------------------------------
 
 Alpha MOs
 -- Occupied --
-89.149 -89.090 -89.086 -89.078 -14.486 -14.482 -14.454 -14.444
-10.365 -10.362 -10.357 -10.356 -10.343 -10.342 -10.335 -10.332
-10.330 -10.327 -10.324 -10.322 -10.313 -10.312 -10.305 -10.297
-10.296 -10.296 -10.295 -10.295  -8.159  -8.105  -8.102  -8.093
 -6.110  -6.104  -6.103  -6.054  -6.051  -6.051  -6.048  -6.047
 -6.045  -6.043  -6.039  -6.034  -1.146  -1.086  -1.065  -1.023
 -1.010  -0.975  -0.958  -0.925  -0.920  -0.899  -0.876  -0.860
 -0.856  -0.833  -0.828  -0.802  -0.775  -0.744  -0.735  -0.712
 -0.705  -0.693  -0.691  -0.660  -0.651  -0.637  -0.627  -0.614
 -0.606  -0.598  -0.572  -0.564  -0.556  -0.549  -0.542  -0.531
 -0.529  -0.525  -0.514  -0.513  -0.508  -0.503  -0.498  -0.486
 -0.477  -0.476  -0.469  -0.455  -0.449  -0.440  -0.436  -0.433
 -0.430  -0.423  -0.421  -0.400  -0.393  -0.375  -0.366  -0.362
 -0.358  -0.354  -0.340  -0.338  -0.324  -0.307  -0.273
 -- Virtual --
 -0.049   0.001   0.027   0.043   0.053   0.056   0.067   0.072
  0.083   0.088   0.106   0.114   0.118   0.123   0.130   0.137
  0.140   0.144   0.149   0.155   0.160   0.164   0.170   0.179
  0.189   0.192   0.193   0.201   0.219   0.219   0.234   0.236
  0.242   0.251   0.259   0.267   0.275   0.282   0.287   0.291
  0.297   0.302   0.304   0.308   0.312   0.316   0.322   0.324
  0.329   0.331   0.335   0.339   0.344   0.348   0.351   0.356
  0.358   0.362   0.370   0.372   0.376   0.384   0.386   0.387
  0.389   0.391   0.396   0.397   0.402   0.406   0.408   0.412
  0.413   0.417   0.421   0.427   0.428   0.433   0.434   0.441
  0.442   0.445   0.449   0.452   0.454   0.460   0.462   0.464
  0.467   0.469   0.470   0.475   0.479   0.480   0.484   0.486
  0.492   0.497   0.502   0.503   0.506   0.510   0.511   0.517
  0.521   0.525   0.528   0.530   0.533   0.544   0.546   0.552
  0.553   0.558   0.563   0.564   0.566   0.569   0.575   0.579
  0.580   0.592   0.598   0.603   0.609   0.615   0.618   0.625
  0.628   0.630   0.635   0.645   0.650   0.652   0.659   0.666
  0.668   0.672   0.678   0.686   0.691   0.697   0.704   0.711
  0.721   0.726   0.727   0.732   0.735   0.738   0.745   0.750
  0.754   0.757   0.761   0.766   0.769   0.773   0.777   0.783
  0.791   0.794   0.796   0.804   0.806   0.814   0.815   0.818
  0.824   0.833   0.837   0.840   0.846   0.851   0.855   0.859
  0.863   0.867   0.874   0.879   0.883   0.886   0.889   0.896
  0.900   0.909   0.910   0.919   0.923   0.925   0.929   0.935
  0.942   0.945   0.952   0.953   0.956   0.962   0.966   0.969
  0.976   0.982   0.984   0.992   0.995   1.008   1.011   1.013
  1.019   1.031   1.038   1.042   1.047   1.051   1.056   1.057
  1.063   1.077   1.077   1.083   1.085   1.090   1.097   1.099
  1.108   1.117   1.124   1.125   1.132   1.135   1.141   1.152
  1.161   1.162   1.167   1.176   1.181   1.190   1.200   1.206
  1.209   1.218   1.220   1.227   1.236   1.240   1.249   1.253
  1.257   1.263   1.266   1.275   1.278   1.288   1.292   1.305
  1.314   1.316   1.326   1.338   1.346   1.353   1.356   1.360
  1.365   1.368   1.379   1.382   1.390   1.397   1.402   1.408
  1.417   1.419   1.424   1.434   1.436   1.445   1.449   1.452
  1.456   1.461   1.465   1.472   1.481   1.484   1.486   1.490
  1.492   1.501   1.515   1.516   1.522   1.538   1.540   1.548
  1.558   1.565   1.571   1.578   1.581   1.589   1.604   1.605
  1.610   1.620   1.623   1.627   1.640   1.643   1.650   1.655
  1.658   1.660   1.666   1.674   1.677   1.686   1.689   1.695
  1.703   1.705   1.709   1.713   1.730   1.735   1.740   1.748
  1.749   1.760   1.763   1.770   1.774   1.784   1.798   1.804
  1.822   1.830   1.835   1.841   1.854   1.873   1.882   1.886
  1.890   1.901   1.907   1.914   1.928   1.932   1.935   1.937
  1.948   1.957   1.966   1.974   1.980   1.992   1.993   2.004
  2.011   2.018   2.025   2.032   2.036   2.042   2.044   2.064
  2.068   2.081   2.082   2.091   2.102   2.104   2.113   2.127
  2.127   2.137   2.143   2.152   2.162   2.169   2.175   2.181
  2.191   2.201   2.206   2.210   2.215   2.237   2.239   2.241
  2.252   2.256   2.263   2.270   2.274   2.286   2.290   2.301
  2.316   2.324   2.326   2.331   2.334   2.340   2.351   2.358
  2.366   2.376   2.387   2.392   2.400   2.411   2.419   2.424
  2.433   2.443   2.446   2.455   2.459   2.463   2.471   2.479
  2.483   2.488   2.491   2.497   2.500   2.506   2.507   2.523
  2.532   2.536   2.540   2.549   2.554   2.564   2.570   2.585
  2.588   2.590   2.600   2.607   2.613   2.616   2.630   2.641
  2.643   2.648   2.665   2.668   2.676   2.677   2.692   2.708
  2.714   2.725   2.728   2.735   2.751   2.758   2.762   2.769
  2.770   2.779   2.782   2.784   2.787   2.800   2.803   2.810
  2.814   2.822   2.827   2.833   2.836   2.841   2.843   2.849
  2.862   2.872   2.880   2.897   2.898   2.903   2.912   2.913
  2.920   2.932   2.941   2.949   2.957   2.961   2.966   2.973
  2.977   2.984   2.993   2.994   2.997   3.006   3.012   3.019
  3.023   3.027   3.031   3.034   3.043   3.051   3.054   3.059
  3.067   3.072   3.074   3.079   3.083   3.086   3.093   3.099
  3.102   3.106   3.109   3.115   3.118   3.120   3.128   3.133
  3.137   3.141   3.149   3.153   3.154   3.165   3.166   3.171
  3.172   3.178   3.184   3.188   3.193   3.200   3.200   3.206
  3.210   3.216   3.217   3.222   3.225   3.230   3.233   3.242
  3.251   3.253   3.261   3.263   3.272   3.277   3.283   3.283
  3.287   3.289   3.290   3.301   3.304   3.308   3.312   3.318
  3.320   3.324   3.335   3.337   3.346   3.346   3.356   3.362
  3.364   3.368   3.374   3.381   3.391   3.394   3.399   3.408
  3.413   3.419   3.431   3.433   3.443   3.447   3.452   3.459
  3.461   3.462   3.468   3.473   3.477   3.483   3.487   3.493
  3.498   3.506   3.510   3.516   3.530   3.532   3.536   3.546
  3.548   3.561   3.565   3.568   3.572   3.579   3.585   3.596
  3.603   3.608   3.614   3.624   3.637   3.640   3.664   3.674
  3.683   3.693   3.698   3.704   3.713   3.720   3.731   3.740
  3.743   3.755   3.764   3.767   3.773   3.780   3.780   3.794
  3.800   3.801   3.810   3.835   3.840   3.844   3.852   3.856
  3.857   3.861   3.864   3.867   3.876   3.881   3.887   3.888
  3.893   3.897   3.905   3.922   3.934   3.934   3.944   3.948
  3.957   3.963   3.965   3.972   3.975   3.983   3.987   3.994
  3.995   4.005   4.012   4.027   4.033   4.040   4.054   4.073
  4.075   4.080   4.083   4.089   4.106   4.124   4.130   4.135
  4.149   4.152   4.161   4.165   4.170   4.173   4.181   4.187
  4.196   4.208   4.215   4.223   4.236   4.238   4.249   4.254
  4.271   4.273   4.277   4.290   4.297   4.313   4.322   4.325
  4.332   4.339   4.347   4.349   4.362   4.377   4.384   4.386
  4.388   4.396   4.403   4.410   4.423   4.427   4.432   4.435
  4.442   4.450   4.454   4.473   4.482   4.502   4.509   4.524
  4.526   4.543   4.550   4.560   4.572   4.579   4.593   4.600
  4.604   4.622   4.623   4.635   4.636   4.659   4.670   4.682
  4.690   4.717   4.719   4.734   4.747   4.753   4.776   4.781
  4.790   4.813   4.816   4.830   4.831   4.845   4.845   4.854
  4.859   4.864   4.882   4.887   4.895   4.912   4.918   4.934
  4.945   4.954   4.957   4.968   4.988   4.997   5.003   5.009
  5.024   5.045   5.053   5.062   5.068   5.075   5.085   5.088
  5.099   5.108   5.112   5.116   5.120   5.134   5.145   5.168
  5.189   5.196   5.214   5.242   5.247   5.253   5.264   5.272
  5.276   5.300   5.323   5.337   5.349   5.360   5.385   5.390
  5.401   5.430   5.437   5.468   5.505   5.510   5.517   5.531
  5.569   5.591   5.598   5.628   5.633   5.663   5.675   5.693
  5.723   5.735   5.760   5.793   5.811   5.822   5.837   5.861
  5.878   5.963   5.996   6.021   6.031   6.040   6.045   6.100
  6.136   6.156   6.168   6.186   6.208   6.233   6.251   6.293
  6.363   6.480   6.515   6.854   6.976   8.031   8.562   9.403
 10.090  10.654  11.110  11.139  11.684  12.011  12.282  12.625
 12.735  12.861  12.910  12.957  13.168  13.394  13.451  13.739
 13.818  13.946  14.125  14.669  15.706
 --------------------------------------------------------------
 
          Ground-State Mulliken Net Atomic Charges

     Atom                 Charge (a.u.)
  ----------------------------------------
      1 C                    -0.124502
      2 C                    -0.108568
      3 C                    -0.107776
      4 C                    -0.155430
      5 C                    -0.120492
      6 C                     0.120095
      7 C                     0.011171
      8 C                    -0.109830
      9 C                     0.035978
     10 N                    -0.171901
     11 N                    -0.279868
     12 C                    -0.013774
     13 C                     0.106321
     14 S                     0.413349
     15 N                    -0.223421
     16 C                    -0.005952
     17 N                    -0.138622
     18 S                     0.120379
     19 C                    -0.145852
     20 C                    -0.019449
     21 C                     0.006532
     22 S                     0.132396
     23 C                    -0.049183
     24 C                    -0.220624
     25 S                     0.056144
     26 C                     0.043057
     27 C                    -0.144555
     28 C                    -0.172586
     29 H                     0.117943
     30 H                     0.115684
     31 H                     0.114939
     32 H                     0.129887
     33 H                     0.115357
     34 H                     0.136817
     35 H                     0.146317
     36 H                     0.130366
     37 H                     0.132050
     38 H                     0.127603
  ----------------------------------------
  Sum of atomic charges =     0.000000

 -----------------------------------------------------------------
                    Cartesian Multipole Moments
 -----------------------------------------------------------------
    Charge (ESU x 10^10)
                 0.0000
    Dipole Moment (Debye)
         X       0.7340      Y       1.0954      Z       0.1038
       Tot       1.3227
    Quadrupole Moments (Debye-Ang)
        XX    -140.5142     XY      -0.1204     YY    -180.8170
        XZ      -2.7600     YZ      -0.5482     ZZ    -183.2431
    Octopole Moments (Debye-Ang^2)
       XXX     159.2613    XXY      69.1805    XYY       4.6704
       YYY     -22.1766    XXZ     -14.2696    XYZ      52.2885
       YYZ      -1.3563    XZZ     -18.9755    YZZ      -3.1172
       ZZZ       0.0818
    Hexadecapole Moments (Debye-Ang^3)
      XXXX  -21212.6199   XXXY    -233.6857   XXYY   -4348.0179
      XYYY     172.0605   YYYY   -2707.0028   XXXZ    -383.6153
      XXYZ      37.9635   XYYZ      63.1289   YYYZ      -9.3307
      XXZZ   -4191.0027   XYZZ     -29.9316   YYZZ    -570.1482
      XZZZ     -13.4258   YZZZ     -13.1186   ZZZZ    -798.4248
 -----------------------------------------------------------------
 Calculating analytic gradient of the SCF energy
 K construction time:  CPU 2118.82 s  wall 134.32 s
 Gradient of SCF Energy
            1           2           3           4           5           6
    1  -0.0006632   0.0007867   0.0007106  -0.0006273  -0.0007115   0.0003337
    2   0.0001432  -0.0007397   0.0001316   0.0001934   0.0005007  -0.0001546
    3   0.0004442   0.0005194  -0.0006262   0.0002011  -0.0005142  -0.0003900
            7           8           9          10          11          12
    1   0.0000170   0.0014750  -0.0000402  -0.0010695  -0.0006192  -0.0000499
    2  -0.0007086   0.0003737  -0.0005862  -0.0004569   0.0001065   0.0003858
    3   0.0004396  -0.0008905  -0.0003404  -0.0007221  -0.0001629   0.0008582
           13          14          15          16          17          18
    1   0.0012310  -0.0002377   0.0002214  -0.0002982  -0.0001617   0.0003803
    2  -0.0001152   0.0004237  -0.0000679  -0.0006505   0.0004467   0.0011205
    3   0.0011062   0.0000676  -0.0007681  -0.0009902  -0.0007443   0.0011710
           19          20          21          22          23          24
    1  -0.0009107   0.0006044   0.0007355  -0.0004748  -0.0003008   0.0005120
    2  -0.0001612  -0.0005808  -0.0007400   0.0006582   0.0009205   0.0008670
    3   0.0003538   0.0001348  -0.0011518   0.0005616   0.0008221   0.0005720
           25          26          27          28          29          30
    1  -0.0005651  -0.0002576   0.0011012  -0.0006040   0.0002002   0.0002033
    2  -0.0012068  -0.0003978   0.0005924   0.0001130   0.0002337   0.0002528
    3  -0.0005174  -0.0004723   0.0004337   0.0008260   0.0001512  -0.0004975
           31          32          33          34          35          36
    1  -0.0002969  -0.0000015  -0.0001946  -0.0006999   0.0006393   0.0000188
    2   0.0001163  -0.0003841  -0.0001503  -0.0002255   0.0004129  -0.0004072
    3   0.0006163  -0.0003839   0.0005642   0.0004688   0.0002415  -0.0004071
           37          38
    1  -0.0003699  -0.0000163
    2   0.0000445  -0.0003038
    3  -0.0005240  -0.0004506
 Max gradient component =       1.475E-03
 RMS gradient           =       5.798E-04
 Gradient time:  CPU 2504.37 s  wall 160.54 s
 Geometry Optimization Parameters
   NAtoms,    NIC,     NZ,  NCons,   NDum,   NFix, NCnnct, MaxDiis
       38     289       0       3       0       0       0       0


** CONSTRAINED OPTIMIZATION IN DELOCALIZED INTERNAL COORDINATES **
   Searching for a Minimum

   Optimization Cycle:   1

                       Coordinates (Angstroms)
     ATOM                X               Y               Z
      1  C        -7.9524044548    1.7212748407   -0.4239953162
      2  C        -7.0403597653    2.0519256889   -1.4138502456
      3  C        -7.5559881389    0.9121595076    0.6303266274
      4  C        -5.7361341847    1.5946665152   -1.3374090778
      5  C        -6.2550553856    0.4452952368    0.7033117139
      6  C        -5.3241734780    0.7971417429   -0.2722159652
      7  C        -3.9078317617    0.3967547122   -0.1635208474
      8  C        -2.9022681683    1.3113225366   -0.3183935750
      9  C        -3.4779877812   -0.9307050832    0.1125688647
     10  N        -1.5757694889    1.0500439829   -0.2359999884
     11  N        -4.2516845355   -2.0011284863    0.3052847172
     12  C        -2.0780906587   -1.2234692741    0.1957019033
     13  C        -1.1412402125   -0.1560443560    0.0076868401
     14  S        -3.2478522281   -3.2329093375    0.5683614594
     15  N        -1.8219211453   -2.5064775984    0.4527894371
     16  C         0.3102214282   -0.3217595064    0.0864813152
     17  N         0.9599047996   -1.4424655600    0.0439270664
     18  S         1.3090960075    1.0927736451    0.2513757931
     19  C         2.2966194640   -1.2337373152    0.1500546365
     20  C         2.6972029437    0.0685310231    0.2766040946
     21  C         4.0510968470    0.5706023071    0.3641042524
     22  S         4.4543675184    2.0123860955    1.2349442262
     23  C         5.1921948392    0.0461042707   -0.1775795787
     24  C         6.1162497830    1.9072362319    0.8501414302
     25  S         5.5342557337   -1.3357629912   -1.1845657383
     26  C         6.3726789595    0.8006962516    0.0890915540
     27  C         7.2265425524   -0.8843908757   -1.2361569547
     28  C         7.5315696551    0.2230127746   -0.5419525251
     29  H        -8.9667914014    2.0921369706   -0.4738669314
     30  H        -7.3408870322    2.6701899977   -2.2495895535
     31  H        -8.2631640775    0.6506873534    1.4066752079
     32  H        -5.0293813060    1.8422110203   -2.1186458287
     33  H        -5.9549752312   -0.1834087589    1.5305871500
     34  H        -3.1556321449    2.3476489861   -0.5022983332
     35  H         2.9708826410   -2.0774842931    0.1484530195
     36  H         6.8063262502    2.6592394434    1.1900032572
     37  H         7.8975670671   -1.4982491163   -1.8147753583
     38  H         8.5274204274    0.6337200618   -0.4863979829
   Point Group: c1    Number of degrees of freedom:   108


   Energy is  -2579.861727888

              Constraints and their Current Values
                                        Value     Constraint
   Dihedral:        4   6   7   8       47.013       47.062
   Dihedral:       10  13  16  18       15.000       15.000
   Dihedral:       18  20  21  22       32.691       32.716

 Attempting to Generate Delocalized Internal Coordinates

   Using Lagrange Multiplier Algorithm


111 Hessian modes will be used to form the next step
  Hessian Eigenvalues:
    -0.977753   -0.977753   -0.977753    0.045000    0.045000    0.045000
     0.045000    0.045000    0.045000    0.045000    0.045000    0.045000
     0.045000    0.045000    0.045000    0.045001    0.045001    0.045001
     0.045001    0.045001    0.045002    0.045002    0.045003    0.045003
     0.045004    0.045005    0.045005    0.045007    0.045008    0.045008
     0.045012    0.045021    0.045031    0.045040    0.045052    0.159964
     0.159978    0.159978    0.159981    0.159982    0.159991    0.159991
     0.159994    0.160000    0.160000    0.219984    0.219994    0.225218
     0.233057    0.234605    0.234758    0.237025    0.247519    0.249693
     0.249750    0.249778    0.249982    0.249986    0.249988    0.249992
     0.249995    0.249997    0.249999    0.249999    0.250000    0.296267
     0.304569    0.308353    0.315683    0.324175    0.337614    0.350485
     0.356840    0.357284    0.357325    0.357370    0.358104    0.358490
     0.359864    0.361579    0.362477    0.365138    0.365895    0.369132
     0.381387    0.386888    0.389562    0.393560    0.413656    0.429805
     0.432305    0.470765    0.472706    0.474104    0.479086    0.480434
     0.482725    0.483543    0.486780    0.496421    0.509556    0.519704
     0.527463    0.543245    0.556243    0.579533    0.638655    0.653870
     1.022753    1.022753    1.022753

 Minimum Search - Taking P-RFO Step
 Searching for Lamda that Maximizes Along the Constraint modes Only
 Value Taken    Lamda =   0.00000641
 Searching for Lamda that Minimizes Along All other modes
 Value Taken    Lamda =  -0.00040584
 Step Taken.  Stepsize is  0.077527

                             Maximum     Tolerance    Cnvgd?
         Gradient            0.003454       0.000300      NO
         Displacement        0.038824       0.001200      NO
         Energy change     *********       0.000001      NO


 New Cartesian Coordinates Obtained by Inverse Iteration

 Displacement from previous Coordinates is:  0.555833
 ----------------------------------------------------------------
             Standard Nuclear Orientation (Angstroms)
    I     Atom           X                Y                Z
 ----------------------------------------------------------------
    1      C      -7.9821016469     1.6570064372    -0.4310826780
    2      C      -7.0739270229     2.0301288845    -1.4089361453
    3      C      -7.5681827544     0.8532806198     0.6208779781
    4      C      -5.7554965892     1.6139471469    -1.3263178278
    5      C      -6.2523617931     0.4313593055     0.7020610131
    6      C      -5.3274731806     0.8203817945    -0.2640611540
    7      C      -3.9063062964     0.4389505761    -0.1559554511
    8      C      -2.9037139066     1.3578872426    -0.3064020897
    9      C      -3.4718883205    -0.8868801546     0.1221735774
   10      N      -1.5752970323     1.0973788884    -0.2327860831
   11      N      -4.2408412487    -1.9601912510     0.3189197235
   12      C      -2.0728325260    -1.1772734897     0.2029595310
   13      C      -1.1401161358    -0.1093836351     0.0078274126
   14      S      -3.2346259015    -3.1898085618     0.5841990841
   15      N      -1.8119778803    -2.4582753747     0.4659059283
   16      C       0.3110077364    -0.2847902302     0.0720535080
   17      N       0.9498823751    -1.4119503467     0.0285736153
   18      S       1.3236163491     1.1189386944     0.2247138111
   19      C       2.2892477453    -1.2167350431     0.1246321284
   20      C       2.7020728604     0.0819067967     0.2514168918
   21      C       4.0607125180     0.5707485164     0.3439516661
   22      S       4.4723487809     2.0053666794     1.2199676255
   23      C       5.2022382661     0.0352470433    -0.1890120034
   24      C       6.1356553348     1.8841773842     0.8505309740
   25      S       5.5421609890    -1.3489649108    -1.1910856409
   26      C       6.3888060098     0.7763467294     0.0912213498
   27      C       7.2400139252    -0.9201334287    -1.2207443390
   28      C       7.5492556009     0.1858677330    -0.5258613007
   29      H      -9.0094463551     1.9895162283    -0.4891585078
   30      H      -7.3908404400     2.6444397528    -2.2406227000
   31      H      -8.2738478916     0.5567746752     1.3846578916
   32      H      -5.0510719517     1.8906971387    -2.0994279916
   33      H      -5.9371710017    -0.1995487752     1.5211025729
   34      H      -3.1547910675     2.3941300577    -0.4950042261
   35      H       2.9508906666    -2.0702685464     0.1215190031
   36      H       6.8286250252     2.6291149955     1.2017120262
   37      H       7.9137032067    -1.5453280989    -1.7838574473
   38      H       8.5486778897     0.5857071711    -0.4534009601
 ----------------------------------------------------------------
 Molecular Point Group                 C1    NOp =  1
 Largest Abelian Subgroup              C1    NOp =  1
 Nuclear Repulsion Energy =  2866.0415196972 hartrees
 There are      111 alpha and      111 beta electrons
 Applying Cartesian multipole field
    Component          Value
    ---------          -----
     (2,0,0)        1.00000E-12
     (0,2,0)        2.00000E-11
     (0,0,2)       -3.00000E-11
 Nucleus-field energy     =     0.0000000431 hartrees
 Requested basis set is cc-pVTZ
 There are 348 shells and 996 basis functions
 A cutoff of  1.0D-11 yielded  28544 shell pairs
 There are    225950 function pairs (    295209 Cartesian)
 Smallest overlap matrix eigenvalue = 3.11E-05
 Guess MOs from SCF MO coefficient file
 Reading MOs from coefficient file
 Reading MOs from coefficient file
 Long-range K will be added via erf
 Coulomb attenuation parameter = 0.2 bohr**(-1)
 A restricted hybrid HF-DFT SCF calculation will be
 performed using Pulay DIIS extrapolation
 Exchange:     0.2220 Hartree-Fock + 1.0000 wB97X-D + LR-HF
 Correlation:  1.0000 wB97X-D
 Using SG-2 standard quadrature grid
 Dispersion:   Grimme D
 SCF converges when DIIS error is below 1.0E-08
 Geometry optimization detected.  Setting ReadMinima to 0
 Setting SaveMinima to 0
 using 16 threads for integral computing 
 using 16 threads for integral computing 
 K construction time:  CPU 906.35 s  wall 59.40 s
 -------------------------------------------------------
 OpenMP BLAS3 based DFT computing Module                
 Release: version 1.0, May 2013, Q-Chem Inc. Pittsburgh 
 -------------------------------------------------------
 ---------------------------------------
  Cycle       Energy         DIIS Error
 ---------------------------------------
    1   -2579.8585487110      2.55E-04
 K construction time:  CPU 907.45 s  wall 59.48 s
    2   -2579.8617502622      2.69E-05
 K construction time:  CPU 664.66 s  wall 43.71 s
    3   -2579.8619447895      1.62E-05
 K construction time:  CPU 632.59 s  wall 41.57 s
    4   -2579.8619767751      9.41E-06
 K construction time:  CPU 597.65 s  wall 39.31 s
    5   -2579.8619898759      3.68E-06
 K construction time:  CPU 546.45 s  wall 36.00 s
    6   -2579.8619917724      1.26E-06
 K construction time:  CPU 483.55 s  wall 31.84 s
    7   -2579.8619919813      4.91E-07
 K construction time:  CPU 443.37 s  wall 29.07 s
    8   -2579.8619920144      2.48E-07
 K construction time:  CPU 407.58 s  wall 26.67 s
    9   -2579.8619920236      8.24E-08
 K construction time:  CPU 345.44 s  wall 22.66 s
   10   -2579.8619920243      2.40E-08
 K construction time:  CPU 319.29 s  wall 20.76 s
   11   -2579.8619920262      1.35E-08
 K construction time:  CPU 265.88 s  wall 17.27 s
   12   -2579.8619920259      5.50E-09 Convergence criterion met
 ---------------------------------------
 SCF time:  CPU 8941.79 s  wall 603.24 s
 SCF   energy in the final basis set = -2579.8619920259
 Total energy in the final basis set = -2579.8619920259
 
 --------------------------------------------------------------
 
                    Orbital Energies (a.u.)
 --------------------------------------------------------------
 
 Alpha MOs
 -- Occupied --
-89.149 -89.090 -89.087 -89.078 -14.485 -14.481 -14.454 -14.443
-10.365 -10.362 -10.357 -10.355 -10.343 -10.342 -10.335 -10.332
-10.330 -10.327 -10.324 -10.322 -10.313 -10.312 -10.305 -10.297
-10.296 -10.296 -10.295 -10.295  -8.159  -8.105  -8.102  -8.093
 -6.110  -6.104  -6.103  -6.054  -6.051  -6.050  -6.048  -6.047
 -6.045  -6.043  -6.039  -6.035  -1.146  -1.086  -1.064  -1.023
 -1.010  -0.975  -0.958  -0.925  -0.920  -0.899  -0.876  -0.860
 -0.855  -0.833  -0.828  -0.802  -0.775  -0.744  -0.734  -0.712
 -0.705  -0.693  -0.691  -0.660  -0.651  -0.637  -0.627  -0.614
 -0.606  -0.598  -0.572  -0.564  -0.556  -0.549  -0.542  -0.531
 -0.529  -0.525  -0.514  -0.513  -0.508  -0.503  -0.498  -0.486
 -0.478  -0.476  -0.469  -0.455  -0.449  -0.440  -0.436  -0.433
 -0.430  -0.423  -0.421  -0.399  -0.393  -0.375  -0.366  -0.362
 -0.358  -0.353  -0.339  -0.338  -0.324  -0.306  -0.273
 -- Virtual --
 -0.049   0.001   0.028   0.043   0.053   0.056   0.067   0.072
  0.083   0.089   0.106   0.114   0.118   0.123   0.130   0.138
  0.140   0.144   0.149   0.155   0.160   0.164   0.170   0.179
  0.189   0.192   0.193   0.201   0.219   0.219   0.235   0.237
  0.243   0.251   0.259   0.267   0.275   0.282   0.287   0.291
  0.297   0.303   0.304   0.308   0.312   0.316   0.322   0.325
  0.329   0.331   0.335   0.339   0.344   0.348   0.351   0.356
  0.359   0.362   0.370   0.372   0.376   0.384   0.386   0.388
  0.389   0.391   0.396   0.397   0.403   0.407   0.408   0.412
  0.414   0.417   0.421   0.428   0.428   0.433   0.433   0.441
  0.442   0.445   0.449   0.452   0.454   0.460   0.463   0.464
  0.467   0.469   0.470   0.474   0.478   0.480   0.484   0.487
  0.492   0.497   0.501   0.503   0.506   0.509   0.512   0.518
  0.522   0.525   0.528   0.530   0.533   0.544   0.546   0.552
  0.554   0.558   0.562   0.564   0.566   0.570   0.575   0.579
  0.580   0.593   0.599   0.604   0.608   0.615   0.618   0.625
  0.628   0.632   0.636   0.645   0.650   0.652   0.660   0.665
  0.669   0.672   0.678   0.687   0.692   0.697   0.704   0.711
  0.721   0.726   0.728   0.731   0.735   0.738   0.745   0.750
  0.754   0.757   0.760   0.766   0.770   0.773   0.777   0.783
  0.791   0.794   0.796   0.804   0.806   0.814   0.815   0.818
  0.825   0.832   0.836   0.840   0.846   0.852   0.855   0.860
  0.863   0.867   0.874   0.879   0.883   0.886   0.890   0.897
  0.900   0.909   0.910   0.919   0.923   0.925   0.930   0.935
  0.942   0.945   0.953   0.953   0.957   0.962   0.966   0.970
  0.976   0.981   0.985   0.992   0.995   1.009   1.013   1.014
  1.019   1.032   1.038   1.042   1.047   1.051   1.056   1.058
  1.063   1.076   1.077   1.084   1.086   1.090   1.097   1.099
  1.107   1.116   1.124   1.125   1.132   1.134   1.142   1.153
  1.161   1.162   1.168   1.175   1.182   1.189   1.203   1.205
  1.209   1.218   1.219   1.224   1.236   1.240   1.249   1.252
  1.257   1.264   1.267   1.276   1.278   1.287   1.292   1.306
  1.315   1.317   1.327   1.338   1.346   1.352   1.356   1.360
  1.365   1.368   1.378   1.382   1.391   1.398   1.402   1.408
  1.416   1.419   1.423   1.435   1.437   1.445   1.450   1.453
  1.457   1.464   1.466   1.475   1.481   1.485   1.487   1.490
  1.491   1.501   1.515   1.516   1.521   1.537   1.539   1.548
  1.558   1.563   1.571   1.578   1.581   1.589   1.605   1.606
  1.611   1.620   1.623   1.628   1.640   1.642   1.650   1.655
  1.659   1.660   1.666   1.674   1.677   1.687   1.690   1.694
  1.703   1.705   1.709   1.712   1.730   1.735   1.741   1.747
  1.749   1.760   1.763   1.771   1.774   1.783   1.798   1.804
  1.823   1.831   1.836   1.841   1.854   1.873   1.882   1.887
  1.890   1.901   1.907   1.915   1.929   1.932   1.935   1.937
  1.948   1.958   1.966   1.974   1.980   1.991   1.993   2.004
  2.011   2.018   2.025   2.031   2.036   2.042   2.044   2.064
  2.068   2.081   2.083   2.092   2.101   2.105   2.113   2.128
  2.128   2.137   2.143   2.152   2.161   2.169   2.175   2.181
  2.192   2.202   2.206   2.210   2.215   2.237   2.239   2.241
  2.252   2.257   2.264   2.269   2.274   2.285   2.290   2.300
  2.316   2.323   2.326   2.331   2.336   2.341   2.351   2.358
  2.367   2.375   2.389   2.391   2.400   2.412   2.420   2.426
  2.433   2.443   2.447   2.455   2.459   2.463   2.472   2.479
  2.482   2.488   2.491   2.497   2.501   2.505   2.507   2.524
  2.532   2.536   2.541   2.550   2.555   2.564   2.571   2.586
  2.590   2.591   2.601   2.607   2.611   2.616   2.630   2.641
  2.642   2.648   2.665   2.668   2.676   2.678   2.692   2.708
  2.714   2.724   2.727   2.735   2.751   2.758   2.762   2.770
  2.771   2.779   2.782   2.785   2.787   2.800   2.803   2.809
  2.813   2.822   2.828   2.832   2.836   2.842   2.844   2.849
  2.862   2.871   2.880   2.897   2.898   2.903   2.912   2.913
  2.920   2.932   2.941   2.949   2.957   2.962   2.967   2.974
  2.977   2.985   2.993   2.994   2.997   3.007   3.012   3.020
  3.023   3.028   3.030   3.034   3.042   3.051   3.054   3.059
  3.067   3.072   3.074   3.080   3.082   3.085   3.094   3.101
  3.102   3.105   3.109   3.115   3.118   3.121   3.127   3.133
  3.137   3.142   3.149   3.153   3.154   3.166   3.166   3.171
  3.173   3.178   3.185   3.189   3.193   3.200   3.201   3.206
  3.210   3.216   3.217   3.222   3.226   3.230   3.233   3.242
  3.252   3.253   3.261   3.264   3.271   3.277   3.282   3.284
  3.287   3.289   3.291   3.301   3.304   3.308   3.312   3.319
  3.320   3.326   3.335   3.337   3.345   3.346   3.356   3.362
  3.364   3.367   3.374   3.382   3.391   3.394   3.399   3.409
  3.413   3.418   3.432   3.434   3.443   3.448   3.451   3.459
  3.461   3.462   3.469   3.473   3.477   3.482   3.488   3.493
  3.498   3.505   3.510   3.517   3.529   3.533   3.536   3.546
  3.548   3.561   3.565   3.569   3.572   3.580   3.585   3.597
  3.604   3.609   3.614   3.625   3.636   3.641   3.664   3.672
  3.685   3.694   3.700   3.705   3.714   3.720   3.731   3.740
  3.744   3.755   3.764   3.768   3.774   3.779   3.781   3.795
  3.802   3.802   3.810   3.835   3.840   3.844   3.853   3.856
  3.858   3.862   3.864   3.866   3.876   3.881   3.887   3.889
  3.892   3.897   3.906   3.922   3.934   3.935   3.944   3.949
  3.957   3.963   3.966   3.972   3.975   3.983   3.988   3.994
  3.997   4.005   4.012   4.027   4.033   4.038   4.054   4.072
  4.074   4.079   4.082   4.090   4.106   4.123   4.130   4.134
  4.148   4.152   4.159   4.165   4.170   4.174   4.181   4.188
  4.197   4.208   4.215   4.225   4.235   4.239   4.249   4.253
  4.272   4.273   4.278   4.289   4.298   4.316   4.321   4.324
  4.332   4.341   4.347   4.350   4.362   4.377   4.384   4.386
  4.389   4.396   4.403   4.409   4.423   4.426   4.431   4.434
  4.442   4.450   4.454   4.473   4.483   4.502   4.509   4.523
  4.526   4.543   4.551   4.560   4.572   4.579   4.593   4.603
  4.606   4.621   4.623   4.635   4.637   4.659   4.671   4.682
  4.692   4.717   4.721   4.735   4.749   4.754   4.777   4.781
  4.792   4.813   4.816   4.830   4.830   4.845   4.846   4.853
  4.859   4.866   4.882   4.887   4.896   4.912   4.918   4.935
  4.946   4.954   4.956   4.969   4.987   4.999   5.003   5.009
  5.026   5.043   5.053   5.062   5.068   5.074   5.085   5.090
  5.099   5.107   5.112   5.117   5.121   5.135   5.143   5.169
  5.188   5.196   5.214   5.242   5.247   5.254   5.265   5.271
  5.278   5.301   5.324   5.336   5.350   5.359   5.385   5.390
  5.400   5.430   5.438   5.468   5.505   5.510   5.519   5.532
  5.569   5.592   5.599   5.628   5.634   5.664   5.676   5.694
  5.725   5.736   5.762   5.795   5.813   5.826   5.838   5.863
  5.878   5.965   5.996   6.020   6.030   6.040   6.045   6.102
  6.138   6.156   6.171   6.189   6.209   6.235   6.250   6.295
  6.364   6.477   6.515   6.856   6.978   8.028   8.563   9.418
 10.090  10.661  11.116  11.139  11.676  12.015  12.302  12.626
 12.747  12.859  12.909  12.952  13.165  13.399  13.461  13.733
 13.807  13.943  14.118  14.662  15.707
 --------------------------------------------------------------
 
          Ground-State Mulliken Net Atomic Charges

     Atom                 Charge (a.u.)
  ----------------------------------------
      1 C                    -0.124477
      2 C                    -0.108895
      3 C                    -0.108599
      4 C                    -0.153365
      5 C                    -0.121220
      6 C                     0.121338
      7 C                     0.011419
      8 C                    -0.108320
      9 C                     0.035700
     10 N                    -0.172984
     11 N                    -0.281640
     12 C                    -0.013034
     13 C                     0.106540
     14 S                     0.413559
     15 N                    -0.223489
     16 C                    -0.006331
     17 N                    -0.138441
     18 S                     0.120834
     19 C                    -0.145825
     20 C                    -0.018973
     21 C                     0.005584
     22 S                     0.132996
     23 C                    -0.050157
     24 C                    -0.220948
     25 S                     0.056597
     26 C                     0.043583
     27 C                    -0.144671
     28 C                    -0.172596
     29 H                     0.117952
     30 H                     0.115896
     31 H                     0.115215
     32 H                     0.129195
     33 H                     0.114917
     34 H                     0.136217
     35 H                     0.146252
     36 H                     0.130273
     37 H                     0.132230
     38 H                     0.127665
  ----------------------------------------
  Sum of atomic charges =     0.000000

 -----------------------------------------------------------------
                    Cartesian Multipole Moments
 -----------------------------------------------------------------
    Charge (ESU x 10^10)
                 0.0000
    Dipole Moment (Debye)
         X       0.7580      Y       1.0030      Z       0.1214
       Tot       1.2630
    Quadrupole Moments (Debye-Ang)
        XX    -140.1434     XY      -0.0438     YY    -180.8272
        XZ      -2.2774     YZ      -0.6119     ZZ    -183.3956
    Octopole Moments (Debye-Ang^2)
       XXX     156.7930    XXY      61.7826    XYY       5.0698
       YYY     -27.8283    XXZ     -13.4522    XYZ      53.4642
       YYZ      -1.1192    XZZ     -19.7034    YZZ      -4.6908
       ZZZ       1.7785
    Hexadecapole Moments (Debye-Ang^3)
      XXXX  -21224.3993   XXXY    -197.8535   XXYY   -4368.4718
      XYYY     189.7018   YYYY   -2663.3214   XXXZ    -334.2420
      XXYZ      35.4654   XYYZ      64.3584   YYYZ      -7.6349
      XXZZ   -4213.0216   XYZZ     -21.0278   YYZZ    -561.3238
      XZZZ      -3.7202   YZZZ     -11.6537   ZZZZ    -792.8805
 -----------------------------------------------------------------
 Calculating analytic gradient of the SCF energy
 K construction time:  CPU 2111.80 s  wall 133.84 s
 Gradient of SCF Energy
            1           2           3           4           5           6
    1  -0.0002658   0.0000684   0.0001071  -0.0002467   0.0001990   0.0000038
    2   0.0000929  -0.0000786   0.0001113  -0.0003300   0.0004831  -0.0002771
    3  -0.0000280   0.0000348  -0.0000799  -0.0004060  -0.0000601   0.0005811
            7           8           9          10          11          12
    1  -0.0001586   0.0008631  -0.0000545  -0.0007952   0.0001942  -0.0000216
    2  -0.0009845   0.0007558   0.0006295   0.0000820   0.0004394   0.0005314
    3  -0.0003654   0.0005695  -0.0002642  -0.0011491  -0.0000058   0.0004723
           13          14          15          16          17          18
    1   0.0001991  -0.0000024  -0.0000072  -0.0000600  -0.0001314  -0.0000235
    2  -0.0003135  -0.0007361   0.0000730  -0.0006562   0.0003682   0.0004449
    3   0.0013700   0.0000790  -0.0004101  -0.0009886  -0.0002382   0.0005579
           19          20          21          22          23          24
    1  -0.0001728  -0.0000277   0.0000002  -0.0001611  -0.0001727   0.0001332
    2  -0.0002015  -0.0002352  -0.0002100   0.0000360   0.0004250   0.0000228
    3  -0.0003232   0.0007878  -0.0004471   0.0001988   0.0002778  -0.0001096
           25          26          27          28          29          30
    1  -0.0002468  -0.0000167   0.0005802  -0.0001014   0.0001254   0.0000345
    2  -0.0002704  -0.0001023   0.0001771   0.0000044   0.0002305  -0.0000037
    3  -0.0001599   0.0001133   0.0002240   0.0001605   0.0001228  -0.0000528
           31          32          33          34          35          36
    1   0.0000473  -0.0001082   0.0001150  -0.0001347   0.0001848   0.0001182
    2   0.0000354  -0.0002668  -0.0002779  -0.0000183   0.0001161  -0.0000738
    3   0.0000652  -0.0001780   0.0000021  -0.0000014   0.0001864  -0.0001296
           37          38
    1  -0.0001258   0.0000615
    2   0.0000306  -0.0000536
    3  -0.0002058  -0.0002005
 Max gradient component =       1.370E-03
 RMS gradient           =       3.580E-04
 Gradient time:  CPU 2502.22 s  wall 160.23 s
 Geometry Optimization Parameters
   NAtoms,    NIC,     NZ,  NCons,   NDum,   NFix, NCnnct, MaxDiis
       38     289       0       3       0       0       0       0

 Cartesian Hessian Update
 Hessian Updated using BFGS Update


** CONSTRAINED OPTIMIZATION IN DELOCALIZED INTERNAL COORDINATES **
   Searching for a Minimum

   Optimization Cycle:   2

                       Coordinates (Angstroms)
     ATOM                X               Y               Z
      1  C        -7.9821016469    1.6570064372   -0.4310826780
      2  C        -7.0739270229    2.0301288845   -1.4089361453
      3  C        -7.5681827544    0.8532806198    0.6208779781
      4  C        -5.7554965892    1.6139471469   -1.3263178278
      5  C        -6.2523617931    0.4313593055    0.7020610131
      6  C        -5.3274731806    0.8203817945   -0.2640611540
      7  C        -3.9063062964    0.4389505761   -0.1559554511
      8  C        -2.9037139066    1.3578872426   -0.3064020897
      9  C        -3.4718883205   -0.8868801546    0.1221735774
     10  N        -1.5752970323    1.0973788884   -0.2327860831
     11  N        -4.2408412487   -1.9601912510    0.3189197235
     12  C        -2.0728325260   -1.1772734897    0.2029595310
     13  C        -1.1401161358   -0.1093836351    0.0078274126
     14  S        -3.2346259015   -3.1898085618    0.5841990841
     15  N        -1.8119778803   -2.4582753747    0.4659059283
     16  C         0.3110077364   -0.2847902302    0.0720535080
     17  N         0.9498823751   -1.4119503467    0.0285736153
     18  S         1.3236163491    1.1189386944    0.2247138111
     19  C         2.2892477453   -1.2167350431    0.1246321284
     20  C         2.7020728604    0.0819067967    0.2514168918
     21  C         4.0607125180    0.5707485164    0.3439516661
     22  S         4.4723487809    2.0053666794    1.2199676255
     23  C         5.2022382661    0.0352470433   -0.1890120034
     24  C         6.1356553348    1.8841773842    0.8505309740
     25  S         5.5421609890   -1.3489649108   -1.1910856409
     26  C         6.3888060098    0.7763467294    0.0912213498
     27  C         7.2400139252   -0.9201334287   -1.2207443390
     28  C         7.5492556009    0.1858677330   -0.5258613007
     29  H        -9.0094463551    1.9895162283   -0.4891585078
     30  H        -7.3908404400    2.6444397528   -2.2406227000
     31  H        -8.2738478916    0.5567746752    1.3846578916
     32  H        -5.0510719517    1.8906971387   -2.0994279916
     33  H        -5.9371710017   -0.1995487752    1.5211025729
     34  H        -3.1547910675    2.3941300577   -0.4950042261
     35  H         2.9508906666   -2.0702685464    0.1215190031
     36  H         6.8286250252    2.6291149955    1.2017120262
     37  H         7.9137032067   -1.5453280989   -1.7838574473
     38  H         8.5486778897    0.5857071711   -0.4534009601
   Point Group: c1    Number of degrees of freedom:   108


   Energy is  -2579.861992026

              Constraints and their Current Values
                                        Value     Constraint
   Dihedral:        4   6   7   8       47.062       47.062
   Dihedral:       10  13  16  18       15.000       15.000
   Dihedral:       18  20  21  22       32.716       32.716
 Hessian Updated using BFGS Update

 96 Hessian modes will be used to form the next step
  Hessian Eigenvalues:
     0.024966    0.045000    0.045000    0.045001    0.045001    0.045001
     0.045001    0.045001    0.045002    0.045002    0.045003    0.045004
     0.045004    0.045005    0.045006    0.045006    0.045007    0.045011
     0.045021    0.045029    0.045038    0.045045    0.047253    0.157514
     0.159968    0.159979    0.159980    0.159988    0.159991    0.159994
     0.159998    0.160000    0.161236    0.219621    0.220014    0.225219
     0.232925    0.234530    0.234947    0.237035    0.244671    0.247665
     0.249733    0.249774    0.249778    0.249982    0.249990    0.249992
     0.249994    0.249998    0.249999    0.250000    0.278289    0.295880
     0.303942    0.307943    0.315682    0.324264    0.337018    0.350836
     0.356851    0.357313    0.357342    0.357507    0.357967    0.358482
     0.359861    0.361606    0.362477    0.365133    0.365885    0.378810
     0.383469    0.387195    0.389557    0.395035    0.417076    0.430079
     0.434213    0.471996    0.473124    0.474168    0.480219    0.481946
     0.482858    0.485963    0.486878    0.498830    0.509335    0.519821
     0.525743    0.543182    0.556718    0.579838    0.641256    0.653618

 Minimum Search - Taking Simple RFO Step
 Searching for Lamda that Minimizes Along All modes
 Value Taken    Lamda =  -0.00015873
 Step Taken.  Stepsize is  0.076629

                             Maximum     Tolerance    Cnvgd?
         Gradient           0.000947      0.000300      NO
         Displacement       0.037955      0.001200      NO
         Energy change     -0.000264      0.000001      NO


 New Cartesian Coordinates Obtained by Inverse Iteration

 Displacement from previous Coordinates is:  0.398687
 ----------------------------------------------------------------
             Standard Nuclear Orientation (Angstroms)
    I     Atom           X                Y                Z
 ----------------------------------------------------------------
    1      C      -7.9977300395     1.6137150493    -0.4566993566
    2      C      -7.0812936990     2.0235449392    -1.4117553513
    3      C      -7.5838801277     0.8102127672     0.5952713466
    4      C      -5.7547846974     1.6371635998    -1.3107420286
    5      C      -6.2595182699     0.4208854068     0.6964869552
    6      C      -5.3277200536     0.8403913205    -0.2508091812
    7      C      -3.9051078811     0.4647339385    -0.1382409063
    8      C      -2.9021736911     1.3837729203    -0.2785949093
    9      C      -3.4712713624    -0.8629061624     0.1388783954
   10      N      -1.5727950617     1.1219552103    -0.2086074751
   11      N      -4.2413354180    -1.9361471367     0.3330020551
   12      C      -2.0721878282    -1.1539439115     0.2219307344
   13      C      -1.1390945546    -0.0859347390     0.0263228209
   14      S      -3.2350985838    -3.1638779656     0.6033326243
   15      N      -1.8116619883    -2.4341510309     0.4884393780
   16      C       0.3124382153    -0.2656446624     0.0756771810
   17      N       0.9464920886    -1.3957832414     0.0279703903
   18      S       1.3321001327     1.1324499275     0.2193271208
   19      C       2.2874211263    -1.2062069411     0.1125680604
   20      C       2.7066682876     0.0907339888     0.2364486619
   21      C       4.0675151539     0.5737776374     0.3261190133
   22      S       4.4854590784     2.0026226973     1.2071649588
   23      C       5.2074493724     0.0317648277    -0.2048648263
   24      C       6.1484031103     1.8722880824     0.8433108178
   25      S       5.5430548901    -1.3542450546    -1.2043271067
   26      C       6.3977012845     0.7645033691     0.0824450732
   27      C       7.2435504683    -0.9394803719    -1.2231220178
   28      C       7.5572133688     0.1652636924    -0.5277601463
   29      H      -9.0332704190     1.9161856584    -0.5334163545
   30      H      -7.3994927178     2.6389205211    -2.2418797613
   31      H      -8.2970072825     0.4851332521     1.3399450491
   32      H      -5.0434028004     1.9392237377    -2.0677919317
   33      H      -5.9449613465    -0.2139702356     1.5119301456
   34      H      -3.1500137327     2.4211751090    -0.4651768291
   35      H       2.9425506486    -2.0646135137     0.1031220143
   36      H       6.8432993649     2.6120119321     1.2021320743
   37      H       7.9180583045    -1.5726899300    -1.7761572687
   38      H       8.5590309963     0.5569339568    -0.4446186540
 ----------------------------------------------------------------
 Molecular Point Group                 C1    NOp =  1
 Largest Abelian Subgroup              C1    NOp =  1
 Nuclear Repulsion Energy =  2866.1536407968 hartrees
 There are      111 alpha and      111 beta electrons
 Applying Cartesian multipole field
    Component          Value
    ---------          -----
     (2,0,0)        1.00000E-12
     (0,2,0)        2.00000E-11
     (0,0,2)       -3.00000E-11
 Nucleus-field energy     =     0.0000000428 hartrees
 Requested basis set is cc-pVTZ
 There are 348 shells and 996 basis functions
 A cutoff of  1.0D-11 yielded  28543 shell pairs
 There are    225923 function pairs (    295172 Cartesian)
 Smallest overlap matrix eigenvalue = 3.11E-05
 Guess MOs from SCF MO coefficient file
 Reading MOs from coefficient file
 Reading MOs from coefficient file
 Long-range K will be added via erf
 Coulomb attenuation parameter = 0.2 bohr**(-1)
 A restricted hybrid HF-DFT SCF calculation will be
 performed using Pulay DIIS extrapolation
 Exchange:     0.2220 Hartree-Fock + 1.0000 wB97X-D + LR-HF
 Correlation:  1.0000 wB97X-D
 Using SG-2 standard quadrature grid
 Dispersion:   Grimme D
 SCF converges when DIIS error is below 1.0E-08
 Geometry optimization detected.  Setting ReadMinima to 0
 Setting SaveMinima to 0
 using 16 threads for integral computing 
 using 16 threads for integral computing 
 K construction time:  CPU 905.47 s  wall 59.50 s
 -------------------------------------------------------
 OpenMP BLAS3 based DFT computing Module                
 Release: version 1.0, May 2013, Q-Chem Inc. Pittsburgh 
 -------------------------------------------------------
 ---------------------------------------
  Cycle       Energy         DIIS Error
 ---------------------------------------
    1   -2579.8607029149      2.10E-04
 K construction time:  CPU 905.37 s  wall 59.29 s
    2   -2579.8619055475      2.22E-05
 K construction time:  CPU 648.67 s  wall 42.69 s
    3   -2579.8620574256      1.18E-05
 K construction time:  CPU 615.63 s  wall 40.50 s
    4   -2579.8620766100      7.49E-06
 K construction time:  CPU 586.82 s  wall 38.58 s
    5   -2579.8620847104      3.46E-06
 K construction time:  CPU 535.42 s  wall 35.15 s
    6   -2579.8620862697      1.18E-06
 K construction time:  CPU 476.17 s  wall 31.14 s
    7   -2579.8620864391      4.32E-07
 K construction time:  CPU 432.29 s  wall 28.36 s
    8   -2579.8620864645      1.81E-07
 K construction time:  CPU 390.59 s  wall 25.66 s
    9   -2579.8620864697      5.49E-08
 K construction time:  CPU 319.34 s  wall 20.89 s
   10   -2579.8620864699      1.83E-08
 K construction time:  CPU 297.45 s  wall 19.43 s
   11   -2579.8620864716      8.00E-09 Convergence criterion met
 ---------------------------------------
 SCF time:  CPU 8364.28 s  wall 564.22 s
 SCF   energy in the final basis set = -2579.8620864716
 Total energy in the final basis set = -2579.8620864716
 
 --------------------------------------------------------------
 
                    Orbital Energies (a.u.)
 --------------------------------------------------------------
 
 Alpha MOs
 -- Occupied --
-89.149 -89.090 -89.087 -89.078 -14.485 -14.482 -14.454 -14.443
-10.364 -10.362 -10.357 -10.355 -10.343 -10.342 -10.335 -10.332
-10.330 -10.327 -10.324 -10.322 -10.313 -10.311 -10.305 -10.297
-10.296 -10.296 -10.295 -10.294  -8.159  -8.105  -8.102  -8.093
 -6.109  -6.104  -6.103  -6.054  -6.051  -6.050  -6.048  -6.047
 -6.045  -6.043  -6.039  -6.035  -1.146  -1.086  -1.064  -1.023
 -1.010  -0.975  -0.959  -0.925  -0.920  -0.899  -0.876  -0.860
 -0.855  -0.833  -0.828  -0.802  -0.775  -0.744  -0.734  -0.712
 -0.705  -0.693  -0.691  -0.660  -0.651  -0.637  -0.627  -0.615
 -0.606  -0.598  -0.572  -0.564  -0.556  -0.548  -0.542  -0.531
 -0.529  -0.524  -0.514  -0.513  -0.508  -0.503  -0.498  -0.486
 -0.478  -0.476  -0.469  -0.455  -0.449  -0.440  -0.436  -0.433
 -0.430  -0.423  -0.421  -0.399  -0.393  -0.375  -0.367  -0.362
 -0.358  -0.353  -0.339  -0.338  -0.324  -0.306  -0.273
 -- Virtual --
 -0.049   0.001   0.028   0.043   0.053   0.056   0.067   0.072
  0.083   0.089   0.106   0.114   0.118   0.123   0.130   0.138
  0.140   0.144   0.149   0.156   0.160   0.164   0.170   0.179
  0.189   0.192   0.194   0.201   0.219   0.220   0.235   0.237
  0.243   0.251   0.259   0.267   0.274   0.282   0.288   0.290
  0.297   0.303   0.304   0.308   0.312   0.316   0.322   0.325
  0.329   0.331   0.335   0.340   0.344   0.348   0.351   0.356
  0.359   0.362   0.370   0.372   0.376   0.384   0.385   0.388
  0.389   0.391   0.396   0.397   0.403   0.407   0.408   0.412
  0.414   0.417   0.421   0.428   0.428   0.433   0.433   0.442
  0.442   0.446   0.449   0.453   0.454   0.460   0.463   0.465
  0.467   0.469   0.470   0.474   0.478   0.480   0.484   0.487
  0.492   0.496   0.501   0.503   0.506   0.509   0.512   0.518
  0.522   0.525   0.527   0.530   0.533   0.544   0.547   0.552
  0.554   0.558   0.562   0.564   0.566   0.570   0.575   0.579
  0.581   0.593   0.599   0.604   0.607   0.615   0.618   0.625
  0.628   0.632   0.636   0.645   0.650   0.652   0.660   0.664
  0.669   0.672   0.678   0.688   0.692   0.698   0.704   0.711
  0.721   0.725   0.728   0.730   0.736   0.739   0.745   0.750
  0.755   0.758   0.760   0.766   0.771   0.774   0.777   0.783
  0.792   0.793   0.796   0.804   0.806   0.814   0.815   0.818
  0.826   0.832   0.836   0.840   0.846   0.852   0.855   0.861
  0.863   0.868   0.874   0.878   0.883   0.885   0.890   0.897
  0.900   0.909   0.910   0.919   0.923   0.925   0.930   0.936
  0.942   0.945   0.953   0.954   0.958   0.962   0.966   0.971
  0.977   0.980   0.986   0.992   0.995   1.009   1.014   1.016
  1.019   1.031   1.037   1.042   1.047   1.051   1.056   1.058
  1.064   1.074   1.077   1.083   1.086   1.090   1.097   1.099
  1.106   1.116   1.124   1.124   1.133   1.135   1.143   1.153
  1.160   1.162   1.169   1.174   1.182   1.189   1.204   1.205
  1.210   1.217   1.219   1.224   1.236   1.240   1.249   1.251
  1.256   1.264   1.267   1.276   1.279   1.287   1.292   1.307
  1.315   1.318   1.327   1.337   1.346   1.352   1.356   1.360
  1.365   1.369   1.378   1.382   1.392   1.398   1.402   1.408
  1.416   1.419   1.423   1.435   1.437   1.445   1.450   1.453
  1.458   1.464   1.466   1.476   1.482   1.485   1.487   1.489
  1.491   1.500   1.515   1.516   1.520   1.537   1.539   1.548
  1.558   1.563   1.572   1.578   1.581   1.589   1.605   1.607
  1.612   1.620   1.623   1.628   1.640   1.642   1.650   1.655
  1.659   1.659   1.666   1.673   1.677   1.687   1.690   1.694
  1.702   1.705   1.709   1.712   1.730   1.735   1.741   1.747
  1.749   1.760   1.763   1.772   1.774   1.783   1.798   1.804
  1.823   1.831   1.835   1.841   1.854   1.873   1.882   1.887
  1.890   1.901   1.907   1.914   1.929   1.933   1.935   1.937
  1.948   1.958   1.966   1.975   1.980   1.990   1.992   2.004
  2.011   2.018   2.025   2.031   2.036   2.042   2.045   2.064
  2.068   2.082   2.083   2.091   2.100   2.106   2.112   2.128
  2.128   2.137   2.143   2.152   2.162   2.169   2.175   2.181
  2.192   2.203   2.206   2.210   2.215   2.237   2.239   2.241
  2.252   2.258   2.263   2.270   2.274   2.284   2.290   2.300
  2.316   2.322   2.327   2.331   2.336   2.342   2.352   2.358
  2.367   2.376   2.390   2.391   2.400   2.412   2.419   2.427
  2.433   2.443   2.447   2.454   2.459   2.463   2.472   2.479
  2.481   2.488   2.491   2.497   2.501   2.506   2.507   2.524
  2.532   2.535   2.541   2.551   2.555   2.564   2.571   2.585
  2.590   2.592   2.602   2.608   2.610   2.617   2.630   2.642
  2.643   2.648   2.665   2.668   2.676   2.678   2.692   2.709
  2.713   2.723   2.727   2.736   2.751   2.759   2.762   2.770
  2.772   2.779   2.782   2.785   2.787   2.800   2.802   2.809
  2.814   2.822   2.829   2.832   2.837   2.842   2.846   2.849
  2.861   2.871   2.880   2.896   2.898   2.904   2.912   2.913
  2.920   2.933   2.941   2.950   2.956   2.962   2.968   2.973
  2.977   2.985   2.993   2.994   2.998   3.007   3.013   3.019
  3.023   3.028   3.030   3.035   3.042   3.050   3.055   3.058
  3.066   3.071   3.074   3.080   3.082   3.085   3.094   3.101
  3.103   3.105   3.109   3.115   3.118   3.121   3.126   3.134
  3.137   3.142   3.149   3.154   3.154   3.165   3.166   3.171
  3.173   3.178   3.185   3.189   3.193   3.200   3.202   3.206
  3.210   3.216   3.217   3.222   3.226   3.230   3.234   3.241
  3.252   3.253   3.262   3.264   3.269   3.276   3.282   3.285
  3.287   3.288   3.291   3.301   3.304   3.307   3.313   3.319
  3.321   3.326   3.335   3.337   3.345   3.346   3.356   3.362
  3.365   3.367   3.374   3.382   3.391   3.395   3.399   3.409
  3.412   3.418   3.432   3.434   3.443   3.448   3.451   3.460
  3.461   3.462   3.468   3.473   3.476   3.482   3.488   3.493
  3.498   3.505   3.510   3.517   3.529   3.533   3.536   3.547
  3.549   3.561   3.564   3.569   3.571   3.581   3.584   3.598
  3.605   3.610   3.614   3.625   3.635   3.643   3.663   3.671
  3.686   3.694   3.700   3.705   3.715   3.720   3.731   3.740
  3.744   3.754   3.764   3.767   3.773   3.779   3.782   3.795
  3.802   3.803   3.810   3.834   3.839   3.844   3.853   3.856
  3.858   3.863   3.864   3.866   3.876   3.881   3.886   3.888
  3.891   3.897   3.907   3.922   3.934   3.936   3.943   3.949
  3.956   3.964   3.966   3.971   3.974   3.982   3.987   3.994
  3.998   4.004   4.012   4.028   4.032   4.038   4.054   4.072
  4.074   4.079   4.081   4.090   4.105   4.123   4.129   4.133
  4.147   4.152   4.159   4.165   4.169   4.174   4.180   4.189
  4.197   4.209   4.215   4.225   4.233   4.240   4.249   4.253
  4.271   4.273   4.278   4.288   4.298   4.317   4.321   4.324
  4.331   4.342   4.347   4.351   4.363   4.376   4.384   4.388
  4.389   4.395   4.402   4.409   4.422   4.427   4.431   4.434
  4.442   4.450   4.454   4.471   4.483   4.502   4.510   4.523
  4.525   4.542   4.551   4.560   4.572   4.579   4.593   4.603
  4.606   4.621   4.624   4.635   4.638   4.660   4.671   4.682
  4.693   4.718   4.722   4.735   4.749   4.753   4.778   4.781
  4.792   4.812   4.816   4.829   4.830   4.844   4.845   4.853
  4.859   4.867   4.882   4.886   4.896   4.911   4.918   4.934
  4.947   4.953   4.955   4.969   4.987   5.000   5.004   5.009
  5.027   5.043   5.052   5.063   5.068   5.074   5.085   5.092
  5.099   5.107   5.112   5.118   5.122   5.135   5.142   5.170
  5.188   5.197   5.214   5.243   5.246   5.253   5.265   5.271
  5.278   5.302   5.324   5.336   5.350   5.359   5.384   5.390
  5.400   5.430   5.440   5.469   5.505   5.510   5.520   5.531
  5.568   5.593   5.600   5.628   5.635   5.665   5.676   5.695
  5.725   5.736   5.762   5.795   5.814   5.828   5.838   5.864
  5.877   5.965   5.997   6.019   6.029   6.040   6.045   6.103
  6.140   6.156   6.172   6.190   6.209   6.235   6.250   6.296
  6.364   6.476   6.516   6.855   6.980   8.026   8.563   9.425
 10.089  10.660  11.115  11.142  11.675  12.011  12.304  12.621
 12.742  12.856  12.910  12.949  13.160  13.396  13.473  13.727
 13.806  13.941  14.117  14.655  15.707
 --------------------------------------------------------------
 
          Ground-State Mulliken Net Atomic Charges

     Atom                 Charge (a.u.)
  ----------------------------------------
      1 C                    -0.124331
      2 C                    -0.109267
      3 C                    -0.108855
      4 C                    -0.151585
      5 C                    -0.121194
      6 C                     0.121532
      7 C                     0.012529
      8 C                    -0.108722
      9 C                     0.035640
     10 N                    -0.173216
     11 N                    -0.282014
     12 C                    -0.013045
     13 C                     0.105873
     14 S                     0.413064
     15 N                    -0.223104
     16 C                    -0.005971
     17 N                    -0.138675
     18 S                     0.121193
     19 C                    -0.145789
     20 C                    -0.018261
     21 C                     0.005288
     22 S                     0.133632
     23 C                    -0.051206
     24 C                    -0.221434
     25 S                     0.057258
     26 C                     0.043817
     27 C                    -0.144990
     28 C                    -0.172447
     29 H                     0.117831
     30 H                     0.115876
     31 H                     0.115352
     32 H                     0.128747
     33 H                     0.114180
     34 H                     0.135862
     35 H                     0.146167
     36 H                     0.130248
     37 H                     0.132337
     38 H                     0.127681
  ----------------------------------------
  Sum of atomic charges =     0.000000

 -----------------------------------------------------------------
                    Cartesian Multipole Moments
 -----------------------------------------------------------------
    Charge (ESU x 10^10)
                 0.0000
    Dipole Moment (Debye)
         X       0.7651      Y       0.9514      Z       0.1184
       Tot       1.2266
    Quadrupole Moments (Debye-Ang)
        XX    -139.8667     XY       0.0866     YY    -180.8860
        XZ      -1.9577     YZ      -0.6596     ZZ    -183.5304
    Octopole Moments (Debye-Ang^2)
       XXX     154.3058    XXY      55.8994    XYY       5.6167
       YYY     -30.7174    XXZ     -13.8531    XYZ      54.4690
       YYZ      -1.4960    XZZ     -19.5130    YZZ      -5.6871
       ZZZ       1.8376
    Hexadecapole Moments (Debye-Ang^3)
      XXXX  -21225.2329   XXXY    -169.5753   XXYY   -4382.3361
      XYYY     193.7623   YYYY   -2642.3980   XXXZ    -290.0593
      XXYZ      32.8321   XYYZ      68.2306   YYYZ      -3.9057
      XXZZ   -4228.2015   XYZZ     -17.6780   YYZZ    -556.7650
      XZZZ      10.8442   YZZZ      -7.9158   ZZZZ    -792.1951
 -----------------------------------------------------------------
 Calculating analytic gradient of the SCF energy
 K construction time:  CPU 2126.14 s  wall 134.75 s
 Gradient of SCF Energy
            1           2           3           4           5           6
    1   0.0001504  -0.0001236  -0.0002457  -0.0000152   0.0002726  -0.0000185
    2  -0.0001675   0.0001613   0.0000345  -0.0007757   0.0003507   0.0006745
    3  -0.0000533  -0.0000826   0.0001776  -0.0006250   0.0004292   0.0008646
            7           8           9          10          11          12
    1  -0.0000040  -0.0000593  -0.0000541   0.0000730  -0.0004525   0.0001091
    2  -0.0003909   0.0002316  -0.0000219  -0.0000630   0.0000936  -0.0002135
    3  -0.0015574   0.0014018   0.0001645  -0.0012062  -0.0000934   0.0002826
           13          14          15          16          17          18
    1  -0.0002673   0.0001485   0.0002589   0.0000723   0.0000319  -0.0000694
    2   0.0001406   0.0005311  -0.0001289  -0.0000211   0.0001030  -0.0002303
    3   0.0017125  -0.0000882  -0.0001434  -0.0014642  -0.0000306   0.0004562
           19          20          21          22          23          24
    1   0.0001977  -0.0000727  -0.0001018   0.0001321   0.0000774  -0.0001580
    2   0.0000612   0.0000808   0.0001672  -0.0001941  -0.0000879  -0.0000835
    3  -0.0002633   0.0008235  -0.0002716   0.0001314  -0.0002189  -0.0002731
           25          26          27          28          29          30
    1   0.0000246   0.0000481  -0.0000909   0.0000829   0.0000093  -0.0000437
    2   0.0001240  -0.0000627  -0.0000740  -0.0000038   0.0001454  -0.0001173
    3   0.0000236   0.0003074  -0.0000142  -0.0001542   0.0001192   0.0000681
           31          32          33          34          35          36
    1   0.0000465  -0.0000171   0.0000590   0.0001203  -0.0001558   0.0000280
    2  -0.0000134  -0.0001244  -0.0002061  -0.0000028  -0.0000730   0.0000705
    3  -0.0001669  -0.0000155  -0.0002534  -0.0002282   0.0000859   0.0000763
           37          38
    1   0.0000144  -0.0000077
    2  -0.0000036   0.0000894
    3   0.0000377   0.0000414
 Max gradient component =       1.713E-03
 RMS gradient           =       3.833E-04
 Gradient time:  CPU 2513.37 s  wall 161.02 s
 Geometry Optimization Parameters
   NAtoms,    NIC,     NZ,  NCons,   NDum,   NFix, NCnnct, MaxDiis
       38     289       0       3       0       0       0       0

 Cartesian Hessian Update
 Hessian Updated using BFGS Update


** CONSTRAINED OPTIMIZATION IN DELOCALIZED INTERNAL COORDINATES **
   Searching for a Minimum

   Optimization Cycle:   3

                       Coordinates (Angstroms)
     ATOM                X               Y               Z
      1  C        -7.9977300395    1.6137150493   -0.4566993566
      2  C        -7.0812936990    2.0235449392   -1.4117553513
      3  C        -7.5838801277    0.8102127672    0.5952713466
      4  C        -5.7547846974    1.6371635998   -1.3107420286
      5  C        -6.2595182699    0.4208854068    0.6964869552
      6  C        -5.3277200536    0.8403913205   -0.2508091812
      7  C        -3.9051078811    0.4647339385   -0.1382409063
      8  C        -2.9021736911    1.3837729203   -0.2785949093
      9  C        -3.4712713624   -0.8629061624    0.1388783954
     10  N        -1.5727950617    1.1219552103   -0.2086074751
     11  N        -4.2413354180   -1.9361471367    0.3330020551
     12  C        -2.0721878282   -1.1539439115    0.2219307344
     13  C        -1.1390945546   -0.0859347390    0.0263228209
     14  S        -3.2350985838   -3.1638779656    0.6033326243
     15  N        -1.8116619883   -2.4341510309    0.4884393780
     16  C         0.3124382153   -0.2656446624    0.0756771810
     17  N         0.9464920886   -1.3957832414    0.0279703903
     18  S         1.3321001327    1.1324499275    0.2193271208
     19  C         2.2874211263   -1.2062069411    0.1125680604
     20  C         2.7066682876    0.0907339888    0.2364486619
     21  C         4.0675151539    0.5737776374    0.3261190133
     22  S         4.4854590784    2.0026226973    1.2071649588
     23  C         5.2074493724    0.0317648277   -0.2048648263
     24  C         6.1484031103    1.8722880824    0.8433108178
     25  S         5.5430548901   -1.3542450546   -1.2043271067
     26  C         6.3977012845    0.7645033691    0.0824450732
     27  C         7.2435504683   -0.9394803719   -1.2231220178
     28  C         7.5572133688    0.1652636924   -0.5277601463
     29  H        -9.0332704190    1.9161856584   -0.5334163545
     30  H        -7.3994927178    2.6389205211   -2.2418797613
     31  H        -8.2970072825    0.4851332521    1.3399450491
     32  H        -5.0434028004    1.9392237377   -2.0677919317
     33  H        -5.9449613465   -0.2139702356    1.5119301456
     34  H        -3.1500137327    2.4211751090   -0.4651768291
     35  H         2.9425506486   -2.0646135137    0.1031220143
     36  H         6.8432993649    2.6120119321    1.2021320743
     37  H         7.9180583045   -1.5726899300   -1.7761572687
     38  H         8.5590309963    0.5569339568   -0.4446186540
   Point Group: c1    Number of degrees of freedom:   108


   Energy is  -2579.862086472

              Constraints and their Current Values
                                        Value     Constraint
   Dihedral:        4   6   7   8       47.062       47.062
   Dihedral:       10  13  16  18       15.000       15.000
   Dihedral:       18  20  21  22       32.716       32.716
 Hessian Updated using BFGS Update

 96 Hessian modes will be used to form the next step
  Hessian Eigenvalues:
     0.017491    0.045000    0.045000    0.045000    0.045000    0.045000
     0.045001    0.045001    0.045001    0.045002    0.045002    0.045002
     0.045003    0.045003    0.045004    0.045006    0.045006    0.045007
     0.045010    0.045021    0.045028    0.045038    0.045440    0.048032
[...]
     32  H        -5.0236299025    1.9623919152   -2.0450315106
     33  H        -5.9650678916   -0.2225098994    1.5060825768
     34  H        -3.1522431627    2.4281917733   -0.4274483733
     35  H         2.9435339503   -2.0587148203    0.0963962233
     36  H         6.8538613571    2.6045703566    1.1958666730
     37  H         7.9090895222   -1.5776682173   -1.7925975824
     38  H         8.5597574887    0.5462559976   -0.4585967475
   Point Group: c1    Number of degrees of freedom:   108


   Energy is  -2579.862109887

              Constraints and their Current Values
                                        Value     Constraint
   Dihedral:        4   6   7   8       47.062       47.062
   Dihedral:       10  13  16  18       15.000       15.000
   Dihedral:       18  20  21  22       32.716       32.716
 Hessian Updated using BFGS Update

105 Hessian modes will be used to form the next step
  Hessian Eigenvalues:
     0.014370    0.024981    0.044969    0.045000    0.045000    0.045000
     0.045000    0.045000    0.045000    0.045000    0.045000    0.045000
     0.045001    0.045001    0.045001    0.045002    0.045002    0.045003
     0.045003    0.045004    0.045005    0.045006    0.045006    0.045007
     0.045010    0.045021    0.045027    0.045031    0.045038    0.045063
     0.046159    0.046315    0.155809    0.159748    0.159961    0.159975
     0.159988    0.159991    0.159995    0.160003    0.160321    0.161521
     0.219745    0.220040    0.225251    0.232954    0.234061    0.234955
     0.237036    0.246961    0.247858    0.249154    0.249668    0.249796
     0.249904    0.249942    0.249986    0.249992    0.249996    0.263956
     0.275053    0.295032    0.303890    0.307365    0.315343    0.323957
     0.337102    0.348740    0.353378    0.356873    0.357317    0.357363
     0.357970    0.358452    0.358783    0.359980    0.361651    0.362482
     0.365197    0.365759    0.381933    0.386998    0.389570    0.400753
     0.417975    0.429809    0.435679    0.440541    0.472603    0.474020
     0.474322    0.480217    0.481797    0.484248    0.486494    0.487216
     0.500225    0.508639    0.518085    0.523522    0.543253    0.556608
     0.636424    0.652998    0.659023

 Minimum Search - Taking Simple RFO Step
 Searching for Lamda that Minimizes Along All modes
 Value Taken    Lamda =   0.00000000
 Step Taken.  Stepsize is  0.003154

                             Maximum     Tolerance    Cnvgd?
         Gradient           0.000068      0.000300     YES
         Displacement       0.000838      0.001200     YES
         Energy change     -0.000001      0.000001     YES

 Final energy is   -2579.86210988679     


 ******************************
 **  OPTIMIZATION CONVERGED  **
 ******************************

                       Coordinates (Angstroms)
     ATOM                X               Y               Z
      1  C        -8.0003932930    1.6007222966   -0.4849130023
      2  C        -7.0713166038    2.0257896024   -1.4209182587
      3  C        -7.5961601826    0.7938218403    0.5682617963
      4  C        -5.7440013378    1.6483320751   -1.3013824144
      5  C        -6.2709212337    0.4129336248    0.6876308088
      6  C        -5.3270823818    0.8457746799   -0.2415915917
      7  C        -3.9055203640    0.4684336372   -0.1214097886
      8  C        -2.9029252180    1.3894059194   -0.2509235984
      9  C        -3.4712510974   -0.8599939724    0.1525993900
     10  N        -1.5734820994    1.1287185855   -0.1795877458
     11  N        -4.2397188807   -1.9347906129    0.3435920961
     12  C        -2.0719814970   -1.1489458798    0.2403138818
     13  C        -1.1388177203   -0.0797428584    0.0496600439
     14  S        -3.2333936411   -3.1616018913    0.6175680658
     15  N        -1.8110218990   -2.4287531779    0.5080863206
     16  C         0.3127983969   -0.2597605539    0.0904860509
     17  N         0.9459385020   -1.3902465812    0.0367375064
     18  S         1.3337986015    1.1378326789    0.2322669440
     19  C         2.2873721790   -1.2011683036    0.1136709563
     20  C         2.7079639449    0.0953871444    0.2366434419
     21  C         4.0695089856    0.5776186000    0.3202382905
     22  S         4.4936583768    2.0026327390    1.2049089701
     23  C         5.2065349200    0.0334970401   -0.2142990010
     24  C         6.1557032155    1.8680861820    0.8371471862
     25  S         5.5358390372   -1.3525174232   -1.2163032937
     26  C         6.3995906959    0.7621121883    0.0717095925
     27  C         7.2375862393   -0.9430027583   -1.2375537023
     28  C         7.5560042439    0.1595052856   -0.5408892036
     29  H        -9.0376618499    1.8919751992   -0.5787250033
     30  H        -7.3796953397    2.6460671795   -2.2513289609
     31  H        -8.3176497246    0.4591290536    1.3008937292
     32  H        -5.0236299025    1.9623919152   -2.0450315106
     33  H        -5.9650678916   -0.2225098994    1.5060825768
     34  H        -3.1522431627    2.4281917733   -0.4274483733
     35  H         2.9435339503   -2.0587148203    0.0963962233
     36  H         6.8538613571    2.6045703566    1.1958666730
     37  H         7.9090895222   -1.5776682173   -1.7925975824
     38  H         8.5597574887    0.5462559976   -0.4585967475

Z-matrix Print:
$molecule
0 1
S 
C  1 1.724831
C  2 1.368604 1 109.116794
H  3 1.079923 2 124.540665 1 179.504934 0
N  3 1.356876 2 116.162845 1 0.851647 0
C  5 1.296825 3 111.029119 2 -0.348278 0
C  2 1.446838 1 123.259885 3 -178.358981 0
C  7 1.369170 2 128.790848 1 148.754671 0
C  8 1.426907 7 114.404022 2 179.359187 0
C  9 1.366951 8 112.098418 7 -0.229271 0
H  10 1.076343 9 128.645811 8 179.308429 0
C  9 1.440731 8 111.858100 7 178.687430 0
H  12 1.078827 9 124.362251 8 -179.762279 0
C  12 1.342481 9 111.948418 8 -0.112675 0
H  14 1.077864 12 127.086858 9 -179.724052 0
C  6 1.463305 5 126.186027 3 179.322072 0
N  16 1.304556 6 116.704561 5 165.353464 0
C  17 1.356638 16 120.914161 6 -179.229082 0
H  18 1.082773 17 114.744117 16 -178.949396 0
C  18 1.367538 17 125.736188 16 1.095255 0
C  20 1.424216 18 115.013503 17 -2.049167 0
N  21 1.334994 20 127.081498 18 -178.879516 0
C  21 1.431483 20 119.875983 18 1.467215 0
N  23 1.333307 21 113.414528 20 -179.670153 0
C  20 1.475693 18 121.757710 17 178.750578 0
C  25 1.393225 20 119.835879 18 -47.061879 0
H  26 1.081935 25 119.393422 20 -1.888981 0
C  26 1.385110 25 120.622925 20 179.207449 0
H  28 1.081399 26 119.725645 25 179.777015 0
C  28 1.385630 26 120.042120 25 0.273106 0
H  30 1.081460 28 120.125455 26 179.800870 0
C  30 1.386964 28 119.734956 26 0.179647 0
H  32 1.081349 30 120.004719 28 179.965837 0
C  32 1.384046 30 120.308931 28 -0.023746 0
H  34 1.080369 32 119.885871 30 179.490060 0
S  24 1.603806 23 106.184777 21 -0.433088 0
S  10 1.707555 9 110.978265 8 -0.341049 0
S  8 1.741692 7 134.256542 2 -2.420844 0
$end

 
 --------------------------------------------------------------
 
                    Orbital Energies (a.u.)
 --------------------------------------------------------------
 
 Alpha MOs
 -- Occupied --
-89.149 -89.090 -89.087 -89.078 -14.485 -14.481 -14.454 -14.443
-10.365 -10.362 -10.357 -10.355 -10.343 -10.342 -10.335 -10.332
-10.330 -10.327 -10.324 -10.322 -10.313 -10.312 -10.305 -10.297
-10.296 -10.296 -10.295 -10.294  -8.159  -8.105  -8.102  -8.093
 -6.109  -6.104  -6.103  -6.054  -6.051  -6.050  -6.048  -6.047
 -6.045  -6.043  -6.039  -6.035  -1.146  -1.086  -1.064  -1.023
 -1.010  -0.974  -0.959  -0.925  -0.920  -0.899  -0.877  -0.860
 -0.855  -0.833  -0.828  -0.802  -0.775  -0.744  -0.734  -0.712
 -0.705  -0.693  -0.691  -0.660  -0.651  -0.637  -0.627  -0.614
 -0.606  -0.598  -0.572  -0.564  -0.556  -0.548  -0.542  -0.531
 -0.529  -0.524  -0.514  -0.513  -0.508  -0.503  -0.498  -0.486
 -0.478  -0.476  -0.469  -0.455  -0.449  -0.440  -0.436  -0.433
 -0.430  -0.423  -0.421  -0.399  -0.393  -0.375  -0.367  -0.363
 -0.358  -0.353  -0.339  -0.338  -0.324  -0.306  -0.273
 -- Virtual --
 -0.049   0.001   0.028   0.043   0.053   0.056   0.067   0.072
  0.083   0.089   0.106   0.114   0.118   0.123   0.130   0.138
  0.140   0.144   0.149   0.156   0.160   0.164   0.170   0.179
  0.189   0.192   0.194   0.201   0.219   0.220   0.235   0.237
  0.243   0.251   0.259   0.267   0.274   0.282   0.288   0.291
  0.297   0.303   0.304   0.308   0.312   0.316   0.322   0.325
  0.329   0.331   0.335   0.340   0.344   0.348   0.351   0.356
  0.359   0.362   0.370   0.372   0.376   0.384   0.385   0.388
  0.389   0.391   0.396   0.397   0.403   0.407   0.408   0.412
  0.414   0.417   0.421   0.428   0.428   0.433   0.434   0.442
  0.442   0.446   0.449   0.453   0.454   0.460   0.463   0.465
  0.467   0.469   0.470   0.473   0.478   0.480   0.484   0.487
  0.492   0.496   0.501   0.503   0.505   0.509   0.512   0.518
  0.522   0.525   0.527   0.530   0.533   0.544   0.547   0.552
  0.554   0.558   0.562   0.564   0.566   0.570   0.575   0.579
  0.581   0.593   0.599   0.604   0.607   0.615   0.618   0.625
  0.629   0.633   0.636   0.645   0.650   0.652   0.660   0.664
  0.669   0.672   0.678   0.688   0.693   0.698   0.704   0.712
  0.721   0.725   0.727   0.730   0.736   0.739   0.745   0.750
  0.755   0.758   0.760   0.767   0.771   0.774   0.777   0.783
  0.792   0.793   0.796   0.803   0.806   0.814   0.815   0.818
  0.826   0.832   0.837   0.840   0.846   0.851   0.855   0.861
  0.863   0.868   0.874   0.878   0.883   0.885   0.890   0.897
  0.900   0.909   0.910   0.919   0.923   0.925   0.930   0.936
  0.942   0.945   0.952   0.954   0.958   0.963   0.967   0.971
  0.977   0.979   0.987   0.992   0.995   1.009   1.014   1.015
  1.020   1.031   1.037   1.043   1.048   1.051   1.056   1.058
  1.064   1.073   1.077   1.083   1.086   1.089   1.097   1.099
  1.106   1.116   1.124   1.124   1.133   1.135   1.143   1.153
  1.160   1.162   1.169   1.174   1.182   1.188   1.204   1.205
  1.210   1.216   1.218   1.224   1.236   1.239   1.249   1.250
  1.256   1.264   1.267   1.276   1.279   1.287   1.292   1.307
  1.315   1.318   1.327   1.336   1.346   1.352   1.356   1.360
  1.365   1.370   1.378   1.382   1.392   1.398   1.402   1.408
  1.416   1.419   1.423   1.435   1.436   1.445   1.451   1.453
  1.458   1.464   1.466   1.476   1.482   1.485   1.487   1.489
  1.491   1.500   1.515   1.516   1.520   1.537   1.539   1.548
  1.557   1.563   1.572   1.578   1.581   1.589   1.604   1.607
  1.612   1.620   1.623   1.628   1.640   1.641   1.650   1.655
  1.659   1.660   1.666   1.673   1.677   1.687   1.691   1.694
  1.702   1.705   1.710   1.712   1.730   1.735   1.741   1.747
  1.749   1.760   1.764   1.772   1.774   1.783   1.797   1.804
  1.823   1.831   1.835   1.841   1.854   1.873   1.882   1.887
  1.890   1.901   1.908   1.914   1.929   1.933   1.935   1.938
  1.949   1.958   1.966   1.975   1.980   1.990   1.992   2.004
  2.011   2.018   2.025   2.031   2.036   2.042   2.045   2.064
  2.068   2.082   2.083   2.091   2.100   2.107   2.112   2.128
  2.129   2.137   2.143   2.152   2.162   2.169   2.175   2.181
  2.192   2.202   2.206   2.210   2.215   2.237   2.239   2.242
  2.252   2.258   2.263   2.270   2.274   2.284   2.291   2.300
  2.316   2.322   2.327   2.331   2.336   2.342   2.352   2.358
  2.367   2.376   2.390   2.391   2.400   2.412   2.417   2.426
  2.433   2.443   2.447   2.454   2.460   2.462   2.472   2.479
  2.481   2.487   2.492   2.497   2.501   2.506   2.507   2.524
  2.532   2.535   2.541   2.552   2.555   2.564   2.571   2.585
  2.590   2.593   2.602   2.608   2.609   2.617   2.630   2.642
  2.642   2.647   2.665   2.668   2.675   2.679   2.693   2.709
  2.713   2.722   2.727   2.736   2.751   2.759   2.761   2.770
  2.772   2.779   2.782   2.785   2.787   2.800   2.802   2.808
  2.814   2.822   2.828   2.832   2.837   2.842   2.846   2.849
  2.860   2.871   2.880   2.897   2.898   2.904   2.912   2.913
  2.920   2.932   2.941   2.949   2.956   2.962   2.968   2.973
  2.977   2.986   2.993   2.994   2.998   3.007   3.013   3.019
  3.023   3.028   3.031   3.035   3.042   3.050   3.055   3.058
  3.066   3.071   3.075   3.079   3.082   3.085   3.094   3.100
  3.103   3.105   3.109   3.115   3.118   3.121   3.126   3.134
  3.138   3.142   3.149   3.153   3.154   3.165   3.166   3.171
  3.173   3.179   3.185   3.189   3.193   3.200   3.202   3.206
  3.210   3.216   3.217   3.222   3.226   3.230   3.234   3.241
  3.252   3.253   3.263   3.264   3.269   3.276   3.282   3.285
  3.287   3.288   3.291   3.300   3.304   3.307   3.313   3.320
  3.321   3.325   3.335   3.338   3.345   3.346   3.355   3.362
  3.365   3.366   3.374   3.382   3.391   3.395   3.399   3.409
  3.412   3.418   3.432   3.434   3.443   3.447   3.451   3.460
  3.461   3.462   3.468   3.473   3.475   3.482   3.488   3.492
  3.498   3.505   3.509   3.517   3.529   3.533   3.537   3.547
  3.549   3.561   3.564   3.568   3.571   3.581   3.585   3.597
  3.604   3.609   3.614   3.625   3.634   3.644   3.663   3.671
  3.687   3.693   3.700   3.705   3.715   3.720   3.731   3.740
  3.744   3.754   3.764   3.767   3.773   3.780   3.783   3.795
  3.802   3.803   3.809   3.834   3.839   3.844   3.853   3.856
  3.859   3.863   3.864   3.866   3.876   3.881   3.885   3.889
  3.891   3.898   3.907   3.922   3.934   3.936   3.943   3.949
  3.955   3.965   3.966   3.971   3.974   3.981   3.987   3.994
  3.998   4.004   4.012   4.028   4.032   4.037   4.054   4.071
  4.075   4.079   4.081   4.090   4.105   4.123   4.129   4.134
  4.147   4.152   4.160   4.165   4.169   4.174   4.180   4.189
  4.196   4.210   4.216   4.224   4.233   4.240   4.249   4.253
  4.271   4.273   4.278   4.288   4.298   4.318   4.321   4.324
  4.331   4.342   4.347   4.351   4.363   4.376   4.384   4.388
  4.389   4.395   4.402   4.408   4.422   4.428   4.431   4.434
  4.443   4.450   4.454   4.471   4.482   4.503   4.510   4.523
  4.525   4.542   4.550   4.560   4.572   4.579   4.593   4.603
  4.606   4.620   4.624   4.635   4.637   4.660   4.671   4.682
  4.692   4.718   4.722   4.735   4.749   4.752   4.777   4.780
  4.792   4.812   4.816   4.829   4.830   4.844   4.845   4.853
  4.859   4.866   4.882   4.886   4.896   4.911   4.918   4.935
  4.948   4.953   4.955   4.969   4.987   5.001   5.004   5.009
  5.027   5.043   5.052   5.063   5.068   5.074   5.085   5.093
  5.099   5.107   5.112   5.118   5.122   5.135   5.141   5.169
  5.188   5.197   5.214   5.243   5.247   5.253   5.265   5.271
  5.278   5.302   5.325   5.336   5.349   5.360   5.384   5.390
  5.401   5.430   5.440   5.470   5.504   5.510   5.520   5.530
  5.568   5.594   5.600   5.628   5.636   5.664   5.676   5.695
  5.725   5.735   5.762   5.796   5.814   5.828   5.838   5.864
  5.877   5.965   5.997   6.018   6.029   6.040   6.045   6.103
  6.140   6.156   6.171   6.190   6.209   6.235   6.250   6.295
  6.364   6.477   6.516   6.854   6.980   8.025   8.564   9.425
 10.089  10.662  11.115  11.142  11.675  12.011  12.309  12.620
 12.739  12.858  12.913  12.950  13.159  13.395  13.478  13.728
 13.805  13.942  14.120  14.656  15.707
 --------------------------------------------------------------
 
          Ground-State Mulliken Net Atomic Charges

     Atom                 Charge (a.u.)
  ----------------------------------------
      1 C                    -0.124463
      2 C                    -0.109288
      3 C                    -0.108854
      4 C                    -0.151011
      5 C                    -0.120942
      6 C                     0.120807
      7 C                     0.012546
      8 C                    -0.109654
      9 C                     0.036155
     10 N                    -0.173135
     11 N                    -0.282389
     12 C                    -0.012398
     13 C                     0.105419
     14 S                     0.413254
     15 N                    -0.223336
     16 C                    -0.005586
     17 N                    -0.138604
     18 S                     0.121170
     19 C                    -0.145473
     20 C                    -0.017852
     21 C                     0.005465
     22 S                     0.133619
     23 C                    -0.051606
     24 C                    -0.221521
     25 S                     0.057083
     26 C                     0.043940
     27 C                    -0.144946
     28 C                    -0.172507
     29 H                     0.117859
     30 H                     0.115709
     31 H                     0.115253
     32 H                     0.128756
     33 H                     0.114197
     34 H                     0.136081
     35 H                     0.145933
     36 H                     0.130265
     37 H                     0.132303
     38 H                     0.127750
  ----------------------------------------
  Sum of atomic charges =     0.000000

 -----------------------------------------------------------------
                    Cartesian Multipole Moments
 -----------------------------------------------------------------
    Charge (ESU x 10^10)
                 0.0000
    Dipole Moment (Debye)
         X       0.7722      Y       0.9352      Z       0.1006
       Tot       1.2170
    Quadrupole Moments (Debye-Ang)
        XX    -139.7870     XY       0.1600     YY    -180.8699
        XZ      -1.9398     YZ      -0.6771     ZZ    -183.5823
    Octopole Moments (Debye-Ang^2)
       XXX     153.5285    XXY      54.0152    XYY       5.5009
       YYY     -31.5849    XXZ     -15.4102    XYZ      54.9158
       YYZ      -2.1308    XZZ     -18.9312    YZZ      -6.0242
       ZZZ       0.4535
    Hexadecapole Moments (Debye-Ang^3)
      XXXX  -21213.1561   XXXY    -159.1245   XXYY   -4385.9695
      XYYY     190.0322   YYYY   -2639.0252   XXXZ    -273.5274
      XXYZ      31.4834   XYYZ      70.4838   YYYZ      -1.3032
      XXZZ   -4231.1056   XYZZ     -19.1199   YYZZ    -556.5439
      XZZZ      18.6002   YZZZ      -4.7338   ZZZZ    -796.7919
 -----------------------------------------------------------------
Archival summary:
1\1\mn361\OPT\ProcedureUnspecified\BasisUnspecified\442010\afmv_a\TueJun614:04:182017TueJun614:04:182017\0\\#,OPT,ProcedureUnspecified,BasisUnspecified,\\0,1\S\C,1,1.72483\C,2,1.3686,1,109.117\H,3,1.07992,2,124.541,1,179.505,0\N,3,1.35688,2,116.163,1,0.851647,0\C,5,1.29682,3,111.029,2,-0.348278,0\C,2,1.44684,1,123.26,3,-178.359,0\C,7,1.36917,2,128.791,1,148.755,0\C,8,1.42691,7,114.404,2,179.359,0\C,9,1.36695,8,112.098,7,-0.229271,0\H,10,1.07634,9,128.646,8,179.308,0\C,9,1.44073,8,111.858,7,178.687,0\H,12,1.07883,9,124.362,8,-179.762,0\C,12,1.34248,9,111.948,8,-0.112675,0\H,14,1.07786,12,127.087,9,-179.724,0\C,6,1.46331,5,126.186,3,179.322,0\N,16,1.30456,6,116.705,5,165.353,0\C,17,1.35664,16,120.914,6,-179.229,0\H,18,1.08277,17,114.744,16,-178.949,0\C,18,1.36754,17,125.736,16,1.09526,0\C,20,1.42422,18,115.014,17,-2.04917,0\N,21,1.33499,20,127.081,18,-178.88,0\C,21,1.43148,20,119.876,18,1.46721,0\N,23,1.33331,21,113.415,20,-179.67,0\C,20,1.47569,18,121.758,17,178.751,0\C,25,1.39323,20,119.836,18,-47.0619,0\H,26,1.08193,25,119.393,20,-1.88898,0\C,26,1.38511,25,120.623,20,179.207,0\H,28,1.0814,26,119.726,25,179.777,0\C,28,1.38563,26,120.042,25,0.273106,0\H,30,1.08146,28,120.125,26,179.801,0\C,30,1.38696,28,119.735,26,0.179647,0\H,32,1.08135,30,120.005,28,179.966,0\C,32,1.38405,30,120.309,28,-0.0237463,0\H,34,1.08037,32,119.886,30,179.49,0\S,24,1.60381,23,106.185,21,-0.433088,0\S,10,1.70756,9,110.978,8,-0.341049,0\S,8,1.74169,7,134.257,2,-2.42084,0\\\@

 Total job time:  4387.90s(wall), 65622.01s(cpu) 
 Tue Jun  6 14:04:18 2017

        *************************************************************
        *                                                           *
        *  Thank you very much for using Q-Chem.  Have a nice day.  *
        *                                                           *
        *************************************************************


