
Running Job 1 of 1 C306_2/C306_120.qcin
qchem C306_2/C306_120.qcin_114647.0 /tmpu/cab_g/afmv_a/scratch_qchem/qchem114647/ 1
/tmpu/appuserlic/qchem4.4/serial-multicore/exe/qcprog.exe_s C306_2/C306_120.qcin_114647.0 /tmpu/cab_g/afmv_a/scratch_qchem/qchem114647/
Check license passed

                  Welcome to Q-Chem
     A Quantum Leap Into The Future Of Chemistry


 Q-Chem 4.4, Q-Chem, Inc., Pleasanton, CA (2016)

 Y. Shao,  Z. Gan,  E. Epifanovsky,  A. T. B. Gilbert,  M. Wormit,  
 J. Kussmann,  A. W. Lange,  A. Behn,  J. Deng,  X. Feng,  D. Ghosh,  
 M. Goldey,  P. R. Horn,  L. D. Jacobson,  I. Kaliman,  F. Rob,  
 R. Z. Khaliullin,  T. Kus,  A. Landau,  J. Liu,  E. I. Proynov,  Y. M. Rhee,  
 R. M. Richard,  M. A. Rohrdanz,  R. P. Steele,  E. J. Sundstrom,  
 H. L. Woodcock III,  P. M. Zimmerman,  D. Zuev,  B. Albrecht,  E. Alguire,  
 B. Austin,  S. A. Baeppler,  G. J. O. Beran,  Y. A. Bernard,  E. Berquist,  
 K. Brandhorst,  K. B. Bravaya,  S. T. Brown,  D. Casanova,  C.-M. Chang,  
 Y. Chen,  S. H. Chien,  K. D. Closser,  M. P. Coons,  D. L. Crittenden,  
 S. Dasgupta,  M. Diedenhofen,  R. A. DiStasio Jr.,  H. Do,  A. D. Dutoi,  
 R. G. Edgar,  P.-T. Fang,  S. Fatehi,  Q. Feng,  L. Fusti-Molnar,  
 A. Ghysels,  A. Golubeva-Zadorozhnaya,  J. Gomes,  A. Gunina,  
 M. W. D. Hanson-Heine,  P. H. P. Harbach,  A. W. Hauser,  J. E. Herr,  
 E. G. Hohenstein,  Z. C. Holden,  K. Hui,  T.-C. Jagau,  H. Ji,  B. Kaduk,  
 K. Khistyaev,  Jaehoon Kim,  Jihan Kim,  R. A. King,  P. Klunzinger,  
 K. Koh,  D. Kosenkov,  T. Kowalczyk,  C. M. Krauter,  A. Kunitsa,  
 K. U. Lao,  A. Laurent,  K. V. Lawler,  J. Lee,  D. Lefrancois,  S. Lehtola,  
 S. V. Levchenko,  C. Y. Lin,  Y.-S. Lin,  F. Liu,  E. Livshits,  
 R. C. Lochan,  A. Luenser,  P. Manohar,  S. F. Manzer,  S.-P. Mao,  Y. Mao,  
 N. Mardirossian,  A. V. Marenich,  L. A. Martinez-Martinez,  S. A. Maurer,  
 N. J. Mayhall,  J.-M. Mewes,  A. F. Morrison,  K. Nanda,  T. S. Nguyen-Beck,  
 C. M. Oana,  R. Olivares-Amaya,  D. P. O'Neill,  J. A. Parkhill,  
 T. M. Perrine,  R. Peverati,  P. A. Pieniazek,  F. Plasser,  A. Prociuk,  
 D. R. Rehn,  E. Rosta,  N. J. Russ,  N. Sergueev,  S. M. Sharada,  
 S. Sharma,  D. W. Small,  A. Sodt,  T. Stauch,  T. Stein,  D. Stuck,  
 Y.-C. Su,  A. J. W. Thom,  T. Tsuchimochi,  L. Vogt,  O. Vydrov,  T. Wang,  
 M. A. Watson,  J. Wenzel,  A. White,  C. F. Williams,  V. Vanovschi,  
 K. Yao,  S. Yeganeh,  S. R. Yost,  Z.-Q. You,  I. Y. Zhang,  X. Zhang,  
 Y. Zhao,  B. R. Brooks,  G. K. L. Chan,  D. M. Chipman,  C. J. Cramer,  
 W. A. Goddard III,  M. S. Gordon,  W. J. Hehre,  A. Klamt,  
 H. F. Schaefer III,  M. W. Schmidt,  C. D. Sherrill,  D. G. Truhlar,  
 A. Warshel,  X. Xu,  A. Aspuru-Guzik,  R. Baer,  A. T. Bell,  N. A. Besley,  
 J.-D. Chai,  A. Dreuw,  B. D. Dunietz,  T. R. Furlani,  S. R. Gwaltney,  
 C.-P. Hsu,  Y. Jung,  J. Kong,  D. S. Lambrecht,  W. Liang,  C. Ochsenfeld,  
 V. A. Rassolov,  L. V. Slipchenko,  J. E. Subotnik,  T. Van Voorhis,  
 J. M. Herbert,  A. I. Krylov,  P. M. W. Gill,  M. Head-Gordon

 Contributors to earlier versions of Q-Chem not listed above: 
 R. D. Adamson,  J. Baker,  E. F. C. Byrd,  A. K. Chakraborty,  C.-L. Cheng,  
 H. Dachsel,  R. J. Doerksen,  G. Hawkins,  A. Heyden,  S. Hirata,  
 G. Kedziora,  F. J. Keil,  C. Kelley,  P. P. Korambath,  W. Kurlancheek,  
 A. M. Lee,  M. S. Lee,  D. Liotard,  I. Lotan,  P. E. Maslen,  N. Nair,  
 D. Neuhauser,  R. Olson,  B. Peters,  J. Ritchie,  N. E. Schultz,  
 N. Shenvi,  A. C. Simmonett,  K. S. Thanthiriwatte,  Q. Wu,  W. Zhang

 Please cite Q-Chem as follows:
 Y. Shao et al., Mol. Phys. 113, 184-215 (2015)
 DOI: 10.1080/00268976.2014.952696

 Q-Chem 4.4.2 for Intel X86 Linux

 Parts of Q-Chem use Armadillo 5.200.1 (Boston Tea Smuggler).
 http://arma.sourceforge.net/

 Q-Chem begins on Mon Jun  5 19:41:26 2017  

Host: 
0

     Scratch files written to /tmpu/cab_g/afmv_a/scratch_qchem/qchem114647//
 Dec716 11556_ 22328  22283 4050   
Processing $rem in /tmpu/appuserlic/qchem4.4/serial-multicore/config/preferences.
 MEM_TOTAL  2000 
FILE_GEOM_ORG=        593

Checking the input file for inconsistencies... 	...done.

--------------------------------------------------------------
User input:
--------------------------------------------------------------
$comment
OPTIMIZATION
$end

$rem
JOBTYPE OPT
EXCHANGE omegaB97X-D
BASIS cc-pVTZ
$end

$molecule
0 1
C          0.00000        0.00000        0.00000
C          1.38599        0.00000        0.00000
C         -0.68515       -1.20581        0.00000
C          2.08055       -1.19709        0.02226
C          0.00742       -2.40411        0.01179
C          1.40063       -2.41271        0.04151
C          2.15950       -3.67324        0.15696
C          3.15000       -3.81753        1.08952
C          1.92849       -4.81544       -0.65861
N          3.90172       -4.92812        1.27968
N          1.02636       -4.93526       -1.63501
C          2.72047       -5.99481       -0.47371
C          3.72589       -5.99344        0.54686
S          1.20518       -6.42345       -2.22449
N          2.39935       -6.98227       -1.31015
C          4.58521       -7.13898        0.84639
N          5.88010       -7.16324        0.79583
S          3.84728       -8.63973        1.32500
C          6.35668       -8.38934        1.12923
C          5.42103       -9.33639        1.44550
C          5.65409      -10.69862        1.87303
S          4.54269      -11.98313        1.53456
C          6.71617      -11.20382        2.57117
C          5.48956      -13.15707        2.33847
S          8.15693      -10.50627        3.26269
C          6.63113      -12.60086        2.84526
C          8.61272      -12.07231        3.90300
C          7.75480      -13.06437        3.61822
H         -0.54342        0.93472        0.00000
H          1.93260        0.93382       -0.01501
H         -1.76734       -1.21268        0.00047
H          3.16263       -1.19509        0.00785
H         -0.53593       -3.33924        0.01382
H          3.36185       -2.99842        1.76492
H          7.42136       -8.57051        1.11566
H          5.15723      -14.17806        2.40448
H          9.52094      -12.13945        4.47963
H          7.89111      -14.08130        3.95101
$end

$opt
CONSTRAINT
tors 4 6 7 8 47.06187
tors 10 13 16 18 120.00000
tors 18 20 21 22 32.71647
ENDCONSTRAINT
$end
--------------------------------------------------------------
 ----------------------------------------------------------------
             Standard Nuclear Orientation (Angstroms)
    I     Atom           X                Y                Z
 ----------------------------------------------------------------
    1      C       8.1103499919     1.1790741203    -0.8106820575
    2      C       7.4063795648     2.0296506270     0.0271207381
    3      C       7.4716581012     0.0797381124    -1.3647048811
    4      C       6.0680514683     1.7942684114     0.2905722287
    5      C       6.1361684770    -0.1633422372    -1.0943449241
    6      C       5.4134949836     0.7032748933    -0.2765985614
    7      C       3.9655102089     0.5232284412    -0.0550773941
    8      C       3.0933629302     1.5660777464    -0.2080560151
    9      C       3.3677007388    -0.7130496492     0.3155723137
   10      N       1.7515959459     1.5074141344    -0.0323463890
   11      N       3.9906456439    -1.8746262230     0.5258859788
   12      C       1.9506191599    -0.7886401645     0.5117859731
   13      C       1.1663981718     0.3940888442     0.3153580934
   14      S       2.8407098990    -2.9290312320     0.9259492218
   15      N       1.5308160257    -2.0046534810     0.8623628150
   16      C      -0.2880550373     0.4423239791     0.4658579583
   17      N      -0.9519981525     1.1953471420     1.2856266020
   18      S      -1.2700933452    -0.5905178846    -0.5314871304
   19      C      -2.2870868700     0.9820902873     1.1687296537
   20      C      -2.6719255413     0.0497743555     0.2440364406
   21      C      -4.0200521783    -0.3374643743    -0.1100400683
   22      S      -4.4155486010    -1.9300555463    -0.6640922134
   23      C      -5.1607919663     0.4163606504    -0.0768588383
   24      C      -6.0734552116    -1.5648812835    -0.8614817699
   25      S      -5.5079002523     2.0760550208     0.3299528198
   26      C      -6.3345380643    -0.2706291052    -0.5063271893
   27      C      -7.1931960554     1.8285454142    -0.0808266255
   28      C      -7.4925830216     0.5858811552    -0.4900483288
   29      H       9.1512276901     1.3718199597    -1.0307489417
   30      H       7.8969137450     2.8825280438     0.4776802950
   31      H       8.0155746964    -0.5880051438    -2.0200340313
   32      H       5.5239574419     2.4514859139     0.9562565528
   33      H       5.6463998939    -1.0221415913    -1.5328558870
   34      H       3.4742499697     2.5311091566    -0.5172909014
   35      H      -2.9724538744     1.5259710921     1.8019878599
   36      H      -6.7578817155    -2.3071009969    -1.2328190651
   37      H      -7.8646283932     2.6673100088     0.0059263309
   38      H      -8.4835180030     0.2812254790    -0.7878889013
 ----------------------------------------------------------------
 Molecular Point Group                 C1    NOp =  1
 Largest Abelian Subgroup              C1    NOp =  1
 Nuclear Repulsion Energy =  2875.9727174298 hartrees
 There are      111 alpha and      111 beta electrons
 Requested basis set is cc-pVTZ
 There are 348 shells and 996 basis functions

 Total QAlloc Memory Limit   2000 MB
 Mega-Array Size        61 MB
 MEM_STATIC part        62 MB
 A cutoff of  1.0D-11 yielded  28593 shell pairs
 There are    226137 function pairs (    295379 Cartesian)
 
 -------------------------------------------------------
 OpenMP Integral Computing Module                       
 Release: version 1.0, May 2013, Q-Chem Inc. Pittsburgh 
 -------------------------------------------------------
 Integral Job Info:
 Integral job number is                      11
 Integral operator is                         1
 short-range coefficients              22203600
 long-range coefficients              100000000
 Omega coefficients                         200
 if combine SR and LR in K                    1
 Integral screening is                        0
 Integral computing path is                   2
 max size of driver memory is            800000
 size of driver memory is                776718
 size of scratch memory is             26248924
 max col of scratch BK array              10000
 max len of scratch array in speh3          662
 max len of scratch index in speh4           32
 max int batch size is                      520
 min int batch size is                       52
 fixed nKL is                                52
 max L of basis functions is                  3
 order of int derivative is                   0
 number of shells is                        348
 number of basis is                        1146
 number of cartesian basis is              1146
 number of contracted shell pairs         28593
 number of primitive shell pairs          90692
 maxK2 (contraction) of shell pair          121
 max number of K2 of shell pair               1
 max number of CS2 of shell pair           3875
 max number of PS2 of shell pair          11529
 mem total for path MDJ                  792512
 -------------------------------------------------------
 Smallest overlap matrix eigenvalue = 3.12E-05

 Scale SEOQF with 1.000000e-02/1.000000e-01/1.000000e-01

 Standard Electronic Orientation quadrupole field applied
 Nucleus-field energy     =     0.0000000433 hartrees
 Guess from superposition of atomic densities
 Warning:  Energy on first SCF cycle will be non-variational
 Long-range K will be added via erf
 Coulomb attenuation parameter = 0.2 bohr**(-1)
 A restricted hybrid HF-DFT SCF calculation will be
 performed using Pulay DIIS extrapolation
 Exchange:     0.2220 Hartree-Fock + 1.0000 wB97X-D + LR-HF
 Correlation:  1.0000 wB97X-D
 Using SG-2 standard quadrature grid
 Dispersion:   Grimme D
 SCF converges when DIIS error is below 1.0E-08
 using 16 threads for integral computing 
 using 16 threads for integral computing 
 K construction time:  CPU 58.42 s  wall 3.96 s
 -------------------------------------------------------
 OpenMP BLAS3 based DFT computing Module                
 Release: version 1.0, May 2013, Q-Chem Inc. Pittsburgh 
 -------------------------------------------------------
 ---------------------------------------
  Cycle       Energy         DIIS Error
 ---------------------------------------
    1   -2589.9263849512      1.85E-02
 K construction time:  CPU 907.10 s  wall 59.49 s
    2   -2579.6025192163      1.37E-03
 K construction time:  CPU 870.76 s  wall 57.12 s
    3   -2579.6049242985      1.48E-03
 K construction time:  CPU 829.85 s  wall 54.45 s
    4   -2579.8450918585      2.58E-04
 K construction time:  CPU 767.98 s  wall 50.37 s
    5   -2579.8510646090      1.49E-04
 K construction time:  CPU 726.16 s  wall 47.80 s
    6   -2579.8534942340      4.77E-05
 K construction time:  CPU 678.54 s  wall 44.54 s
    7   -2579.8537487437      1.98E-05
 K construction time:  CPU 637.57 s  wall 41.84 s
    8   -2579.8538050977      5.95E-06
 K construction time:  CPU 608.09 s  wall 39.91 s
    9   -2579.8538153327      3.33E-06
 K construction time:  CPU 577.26 s  wall 37.89 s
   10   -2579.8538186519      9.83E-07
 K construction time:  CPU 515.49 s  wall 33.69 s
   11   -2579.8538189989      6.66E-07
 K construction time:  CPU 474.05 s  wall 31.06 s
   12   -2579.8538191064      1.86E-07
 K construction time:  CPU 420.21 s  wall 27.50 s
   13   -2579.8538191178      1.01E-07
 K construction time:  CPU 366.22 s  wall 23.99 s
   14   -2579.8538191224      3.25E-08
 K construction time:  CPU 321.37 s  wall 20.99 s
   15   -2579.8538191241      1.32E-08
 K construction time:  CPU 902.58 s  wall 59.17 s
   16   -2579.8538191173      4.27E-09 Convergence criterion met
 ---------------------------------------
 SCF time:  CPU 13090.81 s  wall 882.64 s
 SCF   energy in the final basis set = -2579.8538191173
 Total energy in the final basis set = -2579.8538191173
 
 --------------------------------------------------------------
 
                    Orbital Energies (a.u.)
 --------------------------------------------------------------
 
 Alpha MOs
 -- Occupied --
-89.155 -89.090 -89.089 -89.077 -14.492 -14.487 -14.452 -14.444
-10.364 -10.364 -10.361 -10.360 -10.342 -10.342 -10.334 -10.332
-10.330 -10.326 -10.326 -10.322 -10.313 -10.313 -10.305 -10.298
-10.298 -10.297 -10.296 -10.296  -8.165  -8.105  -8.105  -8.092
 -6.115  -6.109  -6.109  -6.054  -6.054  -6.050  -6.050  -6.048
 -6.048  -6.042  -6.038  -6.034  -1.151  -1.086  -1.063  -1.022
 -1.016  -0.976  -0.958  -0.926  -0.919  -0.905  -0.877  -0.860
 -0.857  -0.834  -0.828  -0.802  -0.777  -0.745  -0.737  -0.713
 -0.708  -0.695  -0.691  -0.660  -0.652  -0.637  -0.633  -0.617
 -0.607  -0.598  -0.576  -0.565  -0.562  -0.548  -0.544  -0.530
 -0.528  -0.524  -0.516  -0.515  -0.513  -0.500  -0.493  -0.487
 -0.480  -0.476  -0.469  -0.456  -0.451  -0.439  -0.437  -0.434
 -0.432  -0.424  -0.423  -0.406  -0.391  -0.373  -0.367  -0.363
 -0.358  -0.356  -0.340  -0.335  -0.324  -0.313  -0.275
 -- Virtual --
 -0.047   0.000   0.029   0.041   0.049   0.053   0.064   0.072
  0.078   0.087   0.090   0.105   0.116   0.120   0.128   0.134
  0.142   0.143   0.149   0.155   0.159   0.164   0.169   0.178
  0.188   0.190   0.194   0.200   0.215   0.221   0.229   0.242
  0.246   0.252   0.261   0.265   0.270   0.283   0.288   0.291
  0.293   0.298   0.301   0.304   0.308   0.318   0.321   0.325
  0.330   0.331   0.333   0.336   0.343   0.345   0.347   0.354
  0.355   0.362   0.367   0.371   0.375   0.378   0.384   0.386
  0.390   0.392   0.396   0.399   0.400   0.403   0.404   0.408
  0.414   0.415   0.421   0.425   0.429   0.433   0.433   0.438
  0.441   0.443   0.446   0.452   0.457   0.460   0.464   0.468
  0.469   0.471   0.472   0.474   0.478   0.479   0.482   0.484
  0.486   0.496   0.499   0.504   0.504   0.509   0.510   0.514
  0.521   0.523   0.526   0.532   0.536   0.542   0.546   0.548
  0.556   0.559   0.563   0.563   0.565   0.570   0.575   0.581
  0.582   0.588   0.598   0.601   0.610   0.616   0.619   0.623
  0.626   0.631   0.633   0.639   0.644   0.654   0.658   0.664
  0.668   0.674   0.675   0.680   0.682   0.686   0.693   0.702
  0.711   0.716   0.724   0.729   0.731   0.736   0.738   0.743
  0.750   0.756   0.760   0.765   0.767   0.770   0.775   0.783
  0.787   0.792   0.796   0.798   0.803   0.806   0.809   0.815
  0.824   0.832   0.835   0.840   0.846   0.851   0.852   0.854
  0.862   0.868   0.870   0.874   0.879   0.883   0.887   0.890
  0.901   0.903   0.916   0.920   0.924   0.925   0.932   0.942
  0.944   0.947   0.947   0.953   0.958   0.962   0.968   0.972
  0.976   0.982   0.984   0.990   0.994   0.999   1.010   1.021
  1.026   1.031   1.034   1.039   1.042   1.046   1.057   1.061
  1.066   1.071   1.080   1.084   1.087   1.093   1.095   1.103
  1.108   1.112   1.118   1.126   1.133   1.139   1.141   1.151
  1.159   1.166   1.173   1.176   1.181   1.191   1.200   1.204
  1.213   1.216   1.221   1.226   1.238   1.240   1.245   1.248
  1.253   1.260   1.264   1.274   1.277   1.282   1.286   1.301
  1.305   1.317   1.323   1.338   1.348   1.351   1.358   1.360
  1.364   1.373   1.375   1.377   1.383   1.393   1.405   1.413
  1.417   1.423   1.431   1.435   1.436   1.445   1.450   1.454
  1.456   1.461   1.464   1.478   1.483   1.484   1.485   1.491
  1.496   1.504   1.514   1.519   1.520   1.535   1.543   1.547
  1.551   1.560   1.571   1.574   1.580   1.587   1.596   1.605
  1.608   1.611   1.618   1.625   1.633   1.640   1.643   1.649
  1.655   1.655   1.668   1.676   1.679   1.684   1.687   1.702
  1.703   1.707   1.709   1.716   1.720   1.729   1.739   1.750
  1.753   1.756   1.762   1.768   1.772   1.781   1.795   1.800
  1.805   1.829   1.830   1.840   1.845   1.866   1.875   1.882
  1.888   1.895   1.904   1.910   1.920   1.926   1.933   1.937
  1.945   1.954   1.963   1.975   1.979   1.990   1.992   2.005
  2.011   2.016   2.024   2.031   2.034   2.040   2.043   2.059
  2.063   2.074   2.082   2.087   2.093   2.097   2.106   2.111
  2.132   2.138   2.150   2.157   2.165   2.168   2.177   2.183
  2.193   2.198   2.207   2.217   2.219   2.236   2.241   2.243
  2.251   2.256   2.259   2.263   2.272   2.279   2.290   2.292
  2.310   2.318   2.329   2.330   2.341   2.347   2.354   2.357
  2.360   2.363   2.376   2.383   2.398   2.409   2.411   2.419
  2.427   2.439   2.444   2.452   2.455   2.462   2.470   2.478
  2.481   2.482   2.492   2.495   2.498   2.502   2.506   2.525
  2.530   2.533   2.542   2.549   2.554   2.567   2.574   2.581
  2.586   2.590   2.598   2.603   2.611   2.614   2.624   2.638
  2.641   2.656   2.665   2.671   2.676   2.682   2.692   2.702
  2.710   2.719   2.720   2.733   2.744   2.745   2.762   2.763
  2.768   2.771   2.780   2.782   2.785   2.788   2.798   2.809
  2.816   2.823   2.826   2.829   2.832   2.837   2.841   2.850
  2.857   2.861   2.881   2.892   2.900   2.904   2.909   2.913
  2.921   2.924   2.941   2.942   2.958   2.963   2.966   2.972
  2.976   2.977   2.995   2.997   3.000   3.002   3.010   3.013
  3.019   3.024   3.030   3.036   3.043   3.047   3.055   3.059
  3.067   3.072   3.076   3.079   3.084   3.087   3.091   3.095
  3.102   3.106   3.108   3.117   3.118   3.126   3.127   3.132
  3.140   3.145   3.146   3.153   3.154   3.159   3.167   3.170
  3.177   3.180   3.183   3.186   3.191   3.194   3.202   3.208
  3.212   3.217   3.220   3.224   3.228   3.232   3.236   3.242
  3.249   3.260   3.261   3.269   3.273   3.275   3.280   3.284
  3.288   3.293   3.296   3.297   3.302   3.305   3.309   3.317
  3.320   3.324   3.330   3.340   3.343   3.352   3.355   3.365
  3.368   3.369   3.375   3.386   3.391   3.401   3.407   3.412
  3.420   3.423   3.430   3.436   3.440   3.445   3.453   3.457
  3.458   3.461   3.465   3.469   3.472   3.481   3.486   3.487
  3.494   3.499   3.509   3.519   3.528   3.532   3.538   3.544
  3.552   3.556   3.565   3.567   3.573   3.586   3.591   3.596
  3.602   3.610   3.612   3.618   3.626   3.641   3.663   3.668
  3.683   3.685   3.701   3.702   3.713   3.726   3.730   3.736
  3.745   3.757   3.761   3.770   3.772   3.778   3.785   3.791
  3.792   3.806   3.817   3.830   3.839   3.845   3.847   3.853
  3.859   3.860   3.861   3.870   3.872   3.879   3.882   3.887
  3.894   3.897   3.903   3.923   3.930   3.934   3.940   3.948
  3.951   3.963   3.965   3.970   3.976   3.977   3.985   3.988
  3.996   4.000   4.007   4.022   4.032   4.040   4.046   4.055
  4.077   4.083   4.085   4.088   4.113   4.120   4.128   4.139
  4.147   4.153   4.155   4.159   4.165   4.177   4.181   4.188
  4.194   4.199   4.216   4.226   4.230   4.239   4.245   4.252
  4.266   4.267   4.276   4.287   4.296   4.316   4.318   4.328
  4.330   4.339   4.340   4.358   4.359   4.367   4.371   4.381
  4.387   4.398   4.401   4.411   4.422   4.427   4.431   4.439
  4.443   4.448   4.452   4.459   4.482   4.489   4.506   4.521
  4.522   4.541   4.550   4.568   4.572   4.579   4.588   4.589
  4.592   4.606   4.624   4.628   4.641   4.655   4.666   4.678
  4.684   4.703   4.714   4.732   4.746   4.765   4.776   4.776
  4.790   4.804   4.810   4.824   4.834   4.842   4.846   4.853
  4.857   4.863   4.883   4.889   4.902   4.916   4.926   4.935
  4.948   4.953   4.961   4.978   4.982   4.990   5.004   5.019
  5.021   5.031   5.045   5.053   5.059   5.068   5.075   5.086
  5.089   5.107   5.110   5.114   5.118   5.132   5.141   5.168
  5.184   5.194   5.219   5.244   5.249   5.255   5.266   5.272
  5.275   5.294   5.311   5.329   5.339   5.345   5.358   5.387
  5.412   5.425   5.438   5.458   5.473   5.501   5.514   5.536
  5.553   5.586   5.606   5.621   5.663   5.665   5.694   5.695
  5.702   5.716   5.749   5.772   5.795   5.820   5.829   5.843
  5.886   5.907   5.972   6.008   6.030   6.036   6.046   6.057
  6.121   6.148   6.157   6.174   6.201   6.242   6.248   6.274
  6.346   6.429   6.514   6.840   6.971   8.019   8.504   9.395
  9.961  10.529  11.056  11.138  11.682  11.986  12.230  12.686
 12.728  12.824  12.890  12.942  13.161  13.315  13.402  13.502
 13.832  13.942  14.112  14.641  15.705
 --------------------------------------------------------------
 
          Ground-State Mulliken Net Atomic Charges

     Atom                 Charge (a.u.)
  ----------------------------------------
      1 C                    -0.123445
      2 C                    -0.106848
      3 C                    -0.107841
      4 C                    -0.155267
      5 C                    -0.121147
      6 C                     0.118642
      7 C                     0.019834
      8 C                    -0.109318
      9 C                     0.030905
     10 N                    -0.123676
     11 N                    -0.276584
     12 C                    -0.000537
     13 C                     0.038152
     14 S                     0.415902
     15 N                    -0.255292
     16 C                     0.041852
     17 N                    -0.144236
     18 S                     0.108395
     19 C                    -0.146308
     20 C                    -0.015096
     21 C                     0.002819
     22 S                     0.129551
     23 C                    -0.049030
     24 C                    -0.220836
     25 S                     0.056489
     26 C                     0.042018
     27 C                    -0.145337
     28 C                    -0.173221
     29 H                     0.117833
     30 H                     0.115534
     31 H                     0.114979
     32 H                     0.131621
     33 H                     0.114176
     34 H                     0.137231
     35 H                     0.147022
     36 H                     0.130331
     37 H                     0.132914
     38 H                     0.127818
  ----------------------------------------
  Sum of atomic charges =     0.000000

 -----------------------------------------------------------------
                    Cartesian Multipole Moments
 -----------------------------------------------------------------
    Charge (ESU x 10^10)
                 0.0000
    Dipole Moment (Debye)
         X      -0.4339      Y      -1.4888      Z      -1.2980
       Tot       2.0223
    Quadrupole Moments (Debye-Ang)
        XX    -139.0650     XY       2.6150     YY    -178.2446
        XZ       1.1006     YZ       3.5669     ZZ    -188.0576
    Octopole Moments (Debye-Ang^2)
       XXX    -134.0232    XXY      55.6442    XYY      -3.2371
       YYY     -26.4161    XXZ     -66.9025    XYZ      -1.6487
       YYZ       4.2962    XZZ      12.7754    YZZ     -15.9420
       ZZZ       5.7107
    Hexadecapole Moments (Debye-Ang^3)
      XXXX  -21054.7329   XXXY     196.8028   XXYY   -4141.9267
      XYYY     -65.6216   YYYY   -2527.1731   XXXZ      -3.1905
      XXYZ     228.8047   XYYZ      67.9347   YYYZ       7.3739
      XXZZ   -4346.9780   XYZZ     -32.0682   YYZZ    -560.2361
      XZZZ       5.2344   YZZZ      -0.3294   ZZZZ    -730.2464
 -----------------------------------------------------------------
 Calculating analytic gradient of the SCF energy
 K construction time:  CPU 2041.72 s  wall 129.51 s
 Gradient of SCF Energy
            1           2           3           4           5           6
    1   0.0005924  -0.0007929  -0.0004627   0.0006073   0.0007471  -0.0005280
    2  -0.0002704  -0.0007436   0.0004581   0.0000570   0.0005564   0.0003681
    3  -0.0004874  -0.0000871   0.0006550  -0.0004869   0.0000431   0.0006663
            7           8           9          10          11          12
    1  -0.0002092  -0.0026862  -0.0001922   0.0039033   0.0021879  -0.0008137
    2  -0.0008386   0.0019956  -0.0012240   0.0003372   0.0011509  -0.0026341
    3   0.0000757  -0.0012539   0.0008412  -0.0018823  -0.0004526   0.0031166
           13          14          15          16          17          18
    1  -0.0129107  -0.0013630   0.0023389   0.0100611  -0.0067135   0.0012589
    2  -0.0088548   0.0015889  -0.0007341   0.0102427  -0.0000853  -0.0025018
    3   0.0004503  -0.0005128  -0.0004951  -0.0001877   0.0022707  -0.0050047
           19          20          21          22          23          24
    1   0.0022681   0.0021000   0.0000338   0.0004440   0.0000254  -0.0001448
    2   0.0027932  -0.0012663   0.0011661  -0.0008794  -0.0010828  -0.0013005
    3   0.0029906  -0.0002671   0.0004982  -0.0002611   0.0001207  -0.0000920
           25          26          27          28          29          30
    1   0.0005874   0.0001297  -0.0013357   0.0004937  -0.0002278   0.0000386
    2   0.0010824   0.0007236  -0.0008804  -0.0004351   0.0002308   0.0004831
    3   0.0003743  -0.0001525   0.0000216   0.0006566  -0.0002967   0.0003266
           31          32          33          34          35          36
    1   0.0000916   0.0000987  -0.0001409   0.0005695  -0.0006202  -0.0000619
    2  -0.0001988  -0.0001831  -0.0004737  -0.0003846   0.0000489   0.0007119
    3  -0.0006860   0.0005676  -0.0001935   0.0000484  -0.0001556  -0.0001080
           37          38
    1   0.0005391   0.0000868
    2   0.0005436   0.0004329
    3  -0.0004726  -0.0001879
 Max gradient component =       1.291E-02
 RMS gradient           =       2.392E-03
 Gradient time:  CPU 2424.52 s  wall 155.64 s
 Geometry Optimization Parameters
   NAtoms,    NIC,     NZ,  NCons,   NDum,   NFix, NCnnct, MaxDiis
       38     289       0       3       0       0       0       0


** CONSTRAINED OPTIMIZATION IN DELOCALIZED INTERNAL COORDINATES **
   Searching for a Minimum

   Optimization Cycle:   1

                       Coordinates (Angstroms)
     ATOM                X               Y               Z
      1  C         8.1103499919    1.1790741203   -0.8106820575
      2  C         7.4063795648    2.0296506270    0.0271207381
      3  C         7.4716581012    0.0797381124   -1.3647048811
      4  C         6.0680514683    1.7942684114    0.2905722287
      5  C         6.1361684770   -0.1633422372   -1.0943449241
      6  C         5.4134949836    0.7032748933   -0.2765985614
      7  C         3.9655102089    0.5232284412   -0.0550773941
      8  C         3.0933629302    1.5660777464   -0.2080560151
      9  C         3.3677007388   -0.7130496492    0.3155723137
     10  N         1.7515959459    1.5074141344   -0.0323463890
     11  N         3.9906456439   -1.8746262230    0.5258859788
     12  C         1.9506191599   -0.7886401645    0.5117859731
     13  C         1.1663981718    0.3940888442    0.3153580934
     14  S         2.8407098990   -2.9290312320    0.9259492218
     15  N         1.5308160257   -2.0046534810    0.8623628150
     16  C        -0.2880550373    0.4423239791    0.4658579583
     17  N        -0.9519981525    1.1953471420    1.2856266020
     18  S        -1.2700933452   -0.5905178846   -0.5314871304
     19  C        -2.2870868700    0.9820902873    1.1687296537
     20  C        -2.6719255413    0.0497743555    0.2440364406
     21  C        -4.0200521783   -0.3374643743   -0.1100400683
     22  S        -4.4155486010   -1.9300555463   -0.6640922134
     23  C        -5.1607919663    0.4163606504   -0.0768588383
     24  C        -6.0734552116   -1.5648812835   -0.8614817699
     25  S        -5.5079002523    2.0760550208    0.3299528198
     26  C        -6.3345380643   -0.2706291052   -0.5063271893
     27  C        -7.1931960554    1.8285454142   -0.0808266255
     28  C        -7.4925830216    0.5858811552   -0.4900483288
     29  H         9.1512276901    1.3718199597   -1.0307489417
     30  H         7.8969137450    2.8825280438    0.4776802950
     31  H         8.0155746964   -0.5880051438   -2.0200340313
     32  H         5.5239574419    2.4514859139    0.9562565528
     33  H         5.6463998939   -1.0221415913   -1.5328558870
     34  H         3.4742499697    2.5311091566   -0.5172909014
     35  H        -2.9724538744    1.5259710921    1.8019878599
     36  H        -6.7578817155   -2.3071009969   -1.2328190651
     37  H        -7.8646283932    2.6673100088    0.0059263309
     38  H        -8.4835180030    0.2812254790   -0.7878889013
   Point Group: c1    Number of degrees of freedom:   108


   Energy is  -2579.853819117

              Constraints and their Current Values
                                        Value     Constraint
   Dihedral:        4   6   7   8       47.013       47.062
   Dihedral:       10  13  16  18      120.000      120.000
   Dihedral:       18  20  21  22       32.691       32.716

 Attempting to Generate Delocalized Internal Coordinates

   Using Lagrange Multiplier Algorithm


111 Hessian modes will be used to form the next step
  Hessian Eigenvalues:
    -0.977753   -0.977753   -0.977753    0.045000    0.045000    0.045000
     0.045000    0.045000    0.045000    0.045000    0.045000    0.045000
     0.045000    0.045000    0.045000    0.045001    0.045001    0.045001
     0.045001    0.045001    0.045002    0.045002    0.045003    0.045003
     0.045004    0.045005    0.045005    0.045007    0.045008    0.045008
     0.045012    0.045021    0.045031    0.045040    0.045052    0.159964
     0.159978    0.159978    0.159981    0.159982    0.159991    0.159991
     0.159994    0.160000    0.160000    0.219984    0.219994    0.225219
     0.233057    0.234605    0.234757    0.237025    0.247519    0.249693
     0.249750    0.249778    0.249982    0.249986    0.249988    0.249992
     0.249995    0.249997    0.249999    0.249999    0.250000    0.296270
     0.304573    0.308349    0.315681    0.324176    0.337618    0.350485
     0.356840    0.357284    0.357325    0.357370    0.358104    0.358490
     0.359859    0.361585    0.362490    0.365137    0.365895    0.369132
     0.381389    0.386884    0.389564    0.393560    0.413656    0.429805
     0.432305    0.470765    0.472706    0.474104    0.479080    0.480434
     0.482725    0.483543    0.486789    0.496421    0.509549    0.519725
     0.527463    0.543241    0.556243    0.579533    0.638655    0.653867
     1.022753    1.022753    1.022753

 Minimum Search - Taking P-RFO Step
 Searching for Lamda that Maximizes Along the Constraint modes Only
 Value Taken    Lamda =   0.00000840
 Searching for Lamda that Minimizes Along All other modes
 Value Taken    Lamda =  -0.00204147
 Step Taken.  Stepsize is  0.120451

                             Maximum     Tolerance    Cnvgd?
         Gradient            0.010842       0.000300      NO
         Displacement        0.055942       0.001200      NO
         Energy change     *********       0.000001      NO


 New Cartesian Coordinates Obtained by Inverse Iteration

 Displacement from previous Coordinates is:  0.880043
 ----------------------------------------------------------------
             Standard Nuclear Orientation (Angstroms)
    I     Atom           X                Y                Z
 ----------------------------------------------------------------
    1      C       8.1540866260     1.1526087787    -0.7123401437
    2      C       7.4277814833     2.0230032778     0.0844386381
    3      C       7.5240173892     0.0584368085    -1.2866917767
    4      C       6.0759918372     1.8077032674     0.2931100382
    5      C       6.1739620507    -0.1620317384    -1.0744355744
    6      C       5.4315296511     0.7204267459    -0.2927070375
    7      C       3.9777224958     0.5473910532    -0.1071967594
    8      C       3.1035636950     1.5873310519    -0.2776939992
    9      C       3.3750725541    -0.6894450031     0.2512711218
   10      N       1.7556854015     1.5318649028    -0.1198803757
   11      N       3.9850938968    -1.8560004989     0.4770974646
   12      C       1.9587989408    -0.7602838023     0.4258672898
   13      C       1.1770255954     0.4170023554     0.2270506474
   14      S       2.8276471397    -2.9057631284     0.8673778926
   15      N       1.5249378301    -1.9713455964     0.7796640025
   16      C      -0.2895430796     0.4220371775     0.3906189595
   17      N      -0.9388139443     1.1861673594     1.2065961841
   18      S      -1.2981637775    -0.6124684185    -0.5740367900
   19      C      -2.2797388666     0.9773977025     1.1129194810
   20      C      -2.6907685929     0.0408669199     0.2072967451
   21      C      -4.0477384941    -0.3438033714    -0.1192918975
   22      S      -4.4599994940    -1.9413036192    -0.6416080668
   23      C      -5.1869373156     0.4131516996    -0.0708630924
   24      C      -6.1209303890    -1.5766673991    -0.8052193349
   25      S      -5.5252326339     2.0756391612     0.3270226938
   26      C      -6.3723811591    -0.2783185974    -0.4611008848
   27      C      -7.2205418889     1.8242930671    -0.0337833246
   28      C      -7.5303701674     0.5779305360    -0.4240777967
   29      H       9.2079325992     1.3243509792    -0.8834924077
   30      H       7.9126218018     2.8708157121     0.5485913231
   31      H       8.0878185090    -0.6252225568    -1.9064424451
   32      H       5.5131034649     2.4772612372     0.9297626226
   33      H       5.6915321110    -1.0194816732    -1.5217913254
   34      H       3.4844731449     2.5543617563    -0.5814008908
   35      H      -2.9467940766     1.5337250898     1.7540615435
   36      H      -6.8132844462    -2.3269992066    -1.1460013448
   37      H      -7.8939029547     2.6594093830     0.0706863130
   38      H      -8.5291784725     0.2664626635    -0.6873259309
 ----------------------------------------------------------------
 Molecular Point Group                 C1    NOp =  1
 Largest Abelian Subgroup              C1    NOp =  1
 Nuclear Repulsion Energy =  2873.6194280154 hartrees
 There are      111 alpha and      111 beta electrons
 Applying Cartesian multipole field
    Component          Value
    ---------          -----
     (2,0,0)        1.00000E-12
     (0,2,0)        2.00000E-11
     (0,0,2)       -3.00000E-11
 Nucleus-field energy     =     0.0000000445 hartrees
 Requested basis set is cc-pVTZ
 There are 348 shells and 996 basis functions
 A cutoff of  1.0D-11 yielded  28555 shell pairs
 There are    225947 function pairs (    295183 Cartesian)
 Smallest overlap matrix eigenvalue = 3.11E-05
 Guess MOs from SCF MO coefficient file
 Reading MOs from coefficient file
 Reading MOs from coefficient file
 Long-range K will be added via erf
 Coulomb attenuation parameter = 0.2 bohr**(-1)
 A restricted hybrid HF-DFT SCF calculation will be
 performed using Pulay DIIS extrapolation
 Exchange:     0.2220 Hartree-Fock + 1.0000 wB97X-D + LR-HF
 Correlation:  1.0000 wB97X-D
 Using SG-2 standard quadrature grid
 Dispersion:   Grimme D
 SCF converges when DIIS error is below 1.0E-08
 Geometry optimization detected.  Setting ReadMinima to 0
 Setting SaveMinima to 0
 using 16 threads for integral computing 
 using 16 threads for integral computing 
 K construction time:  CPU 900.14 s  wall 59.07 s
 -------------------------------------------------------
 OpenMP BLAS3 based DFT computing Module                
 Release: version 1.0, May 2013, Q-Chem Inc. Pittsburgh 
 -------------------------------------------------------
 ---------------------------------------
  Cycle       Energy         DIIS Error
 ---------------------------------------
    1   -2579.8437682905      4.04E-04
 K construction time:  CPU 901.72 s  wall 59.22 s
    2   -2579.8544732627      4.34E-05
 K construction time:  CPU 693.49 s  wall 45.62 s
    3   -2579.8549080150      3.29E-05
 K construction time:  CPU 655.70 s  wall 43.20 s
    4   -2579.8550271956      1.52E-05
 K construction time:  CPU 620.12 s  wall 40.70 s
    5   -2579.8550603220      6.82E-06
 K construction time:  CPU 573.10 s  wall 37.64 s
    6   -2579.8550662292      2.82E-06
 K construction time:  CPU 524.34 s  wall 34.47 s
    7   -2579.8550672746      8.43E-07
 K construction time:  CPU 478.59 s  wall 31.46 s
    8   -2579.8550674023      3.37E-07
 K construction time:  CPU 439.61 s  wall 28.84 s
    9   -2579.8550674285      1.57E-07
 K construction time:  CPU 381.92 s  wall 24.92 s
   10   -2579.8550674338      5.51E-08
 K construction time:  CPU 345.88 s  wall 22.64 s
   11   -2579.8550674340      2.61E-08
 K construction time:  CPU 296.65 s  wall 19.33 s
   12   -2579.8550674347      8.65E-09 Convergence criterion met
 ---------------------------------------
 SCF time:  CPU 9313.85 s  wall 628.01 s
 SCF   energy in the final basis set = -2579.8550674347
 Total energy in the final basis set = -2579.8550674347
 
 --------------------------------------------------------------
 
                    Orbital Energies (a.u.)
 --------------------------------------------------------------
 
 Alpha MOs
 -- Occupied --
-89.155 -89.090 -89.089 -89.078 -14.492 -14.487 -14.453 -14.443
-10.364 -10.364 -10.360 -10.358 -10.343 -10.342 -10.335 -10.332
-10.330 -10.327 -10.326 -10.322 -10.313 -10.313 -10.305 -10.298
-10.297 -10.297 -10.296 -10.296  -8.165  -8.105  -8.104  -8.092
 -6.115  -6.110  -6.109  -6.054  -6.053  -6.050  -6.050  -6.048
 -6.047  -6.042  -6.038  -6.034  -1.151  -1.086  -1.063  -1.023
 -1.015  -0.976  -0.958  -0.926  -0.919  -0.903  -0.876  -0.860
 -0.857  -0.834  -0.828  -0.802  -0.777  -0.745  -0.737  -0.713
 -0.708  -0.694  -0.691  -0.660  -0.652  -0.637  -0.632  -0.617
 -0.607  -0.598  -0.576  -0.566  -0.562  -0.548  -0.544  -0.530
 -0.528  -0.523  -0.516  -0.515  -0.512  -0.501  -0.494  -0.487
 -0.480  -0.477  -0.470  -0.455  -0.451  -0.439  -0.437  -0.434
 -0.432  -0.424  -0.423  -0.405  -0.392  -0.373  -0.367  -0.362
 -0.358  -0.356  -0.340  -0.336  -0.324  -0.313  -0.275
 -- Virtual --
 -0.047   0.000   0.029   0.041   0.050   0.052   0.065   0.073
  0.077   0.088   0.090   0.105   0.117   0.121   0.128   0.134
  0.141   0.143   0.149   0.155   0.158   0.164   0.169   0.178
  0.188   0.190   0.194   0.200   0.216   0.220   0.229   0.242
  0.246   0.249   0.261   0.265   0.270   0.282   0.287   0.291
  0.293   0.298   0.301   0.304   0.308   0.318   0.321   0.325
  0.330   0.332   0.333   0.336   0.344   0.345   0.348   0.353
  0.356   0.362   0.366   0.371   0.375   0.379   0.384   0.386
  0.390   0.392   0.397   0.399   0.400   0.404   0.404   0.408
  0.414   0.416   0.421   0.424   0.430   0.433   0.433   0.438
  0.441   0.443   0.445   0.452   0.457   0.461   0.464   0.468
  0.469   0.471   0.471   0.473   0.477   0.479   0.482   0.484
  0.485   0.495   0.499   0.504   0.504   0.509   0.510   0.515
  0.521   0.523   0.526   0.532   0.536   0.543   0.546   0.548
  0.557   0.559   0.562   0.563   0.564   0.570   0.574   0.581
  0.583   0.589   0.598   0.601   0.610   0.617   0.619   0.624
  0.627   0.631   0.633   0.638   0.645   0.654   0.658   0.664
  0.667   0.675   0.677   0.679   0.683   0.687   0.692   0.702
  0.711   0.715   0.723   0.727   0.731   0.736   0.739   0.743
  0.751   0.757   0.760   0.765   0.768   0.769   0.775   0.783
  0.786   0.791   0.795   0.798   0.802   0.807   0.809   0.815
  0.825   0.831   0.835   0.840   0.845   0.851   0.851   0.854
  0.863   0.869   0.869   0.874   0.878   0.883   0.886   0.890
  0.901   0.902   0.916   0.921   0.924   0.925   0.932   0.942
  0.944   0.947   0.948   0.954   0.957   0.963   0.968   0.971
  0.976   0.983   0.985   0.992   0.994   1.002   1.011   1.023
  1.027   1.032   1.035   1.039   1.041   1.045   1.058   1.060
  1.065   1.070   1.080   1.084   1.088   1.092   1.096   1.103
  1.107   1.111   1.118   1.127   1.133   1.139   1.141   1.151
  1.160   1.166   1.172   1.175   1.179   1.191   1.200   1.205
  1.211   1.216   1.221   1.227   1.236   1.238   1.244   1.247
  1.252   1.259   1.265   1.274   1.277   1.282   1.287   1.301
  1.306   1.318   1.323   1.338   1.348   1.352   1.357   1.361
  1.364   1.374   1.375   1.380   1.383   1.393   1.404   1.413
  1.417   1.425   1.430   1.435   1.437   1.445   1.451   1.456
  1.458   1.461   1.463   1.478   1.483   1.484   1.485   1.490
  1.496   1.504   1.514   1.518   1.521   1.532   1.543   1.546
  1.550   1.560   1.571   1.573   1.579   1.587   1.598   1.605
  1.609   1.612   1.619   1.625   1.633   1.638   1.642   1.650
  1.654   1.655   1.667   1.676   1.679   1.684   1.688   1.698
  1.703   1.706   1.708   1.716   1.720   1.727   1.738   1.748
  1.753   1.756   1.763   1.768   1.772   1.783   1.794   1.799
  1.804   1.825   1.829   1.840   1.843   1.866   1.874   1.882
  1.888   1.896   1.903   1.910   1.920   1.925   1.933   1.936
  1.947   1.954   1.963   1.974   1.979   1.989   1.994   2.005
  2.011   2.014   2.026   2.031   2.034   2.040   2.044   2.059
  2.064   2.073   2.081   2.087   2.093   2.097   2.106   2.112
  2.132   2.138   2.150   2.157   2.164   2.168   2.177   2.182
  2.193   2.198   2.207   2.217   2.221   2.238   2.241   2.243
  2.251   2.257   2.259   2.265   2.271   2.279   2.289   2.294
  2.311   2.320   2.327   2.331   2.344   2.347   2.353   2.356
  2.361   2.365   2.377   2.384   2.398   2.409   2.411   2.419
  2.428   2.439   2.444   2.451   2.455   2.462   2.470   2.477
  2.480   2.483   2.491   2.495   2.498   2.500   2.505   2.526
  2.530   2.533   2.543   2.548   2.557   2.567   2.575   2.581
  2.586   2.591   2.598   2.604   2.612   2.613   2.622   2.638
  2.644   2.655   2.663   2.671   2.676   2.682   2.692   2.702
  2.708   2.717   2.722   2.733   2.744   2.746   2.761   2.763
  2.768   2.774   2.781   2.781   2.785   2.786   2.798   2.808
  2.816   2.821   2.825   2.830   2.832   2.837   2.841   2.852
  2.858   2.862   2.879   2.892   2.901   2.905   2.910   2.914
  2.921   2.923   2.939   2.940   2.960   2.963   2.965   2.971
  2.975   2.977   2.995   2.998   3.001   3.004   3.009   3.011
  3.019   3.022   3.029   3.035   3.043   3.046   3.053   3.057
  3.067   3.072   3.076   3.080   3.082   3.085   3.092   3.095
  3.102   3.107   3.108   3.117   3.118   3.125   3.126   3.132
  3.140   3.144   3.147   3.153   3.154   3.161   3.167   3.169
  3.178   3.180   3.184   3.186   3.190   3.193   3.202   3.208
  3.211   3.217   3.220   3.223   3.228   3.231   3.236   3.242
  3.247   3.258   3.261   3.267   3.273   3.276   3.279   3.284
  3.288   3.293   3.297   3.297   3.304   3.306   3.309   3.317
  3.320   3.322   3.332   3.339   3.342   3.351   3.354   3.364
  3.367   3.369   3.375   3.384   3.393   3.404   3.409   3.413
  3.420   3.425   3.430   3.436   3.438   3.443   3.453   3.458
  3.460   3.462   3.466   3.468   3.471   3.480   3.485   3.488
  3.491   3.499   3.509   3.519   3.528   3.532   3.538   3.545
  3.552   3.556   3.564   3.567   3.573   3.585   3.590   3.594
  3.602   3.610   3.613   3.619   3.627   3.641   3.662   3.667
  3.684   3.687   3.700   3.702   3.711   3.723   3.731   3.737
  3.746   3.756   3.760   3.770   3.772   3.780   3.785   3.788
  3.794   3.807   3.816   3.828   3.838   3.842   3.849   3.854
  3.859   3.861   3.861   3.870   3.873   3.878   3.882   3.886
  3.894   3.900   3.904   3.920   3.930   3.934   3.939   3.947
  3.953   3.963   3.965   3.969   3.974   3.977   3.983   3.987
  3.995   3.998   4.007   4.025   4.031   4.040   4.045   4.056
  4.077   4.082   4.086   4.089   4.112   4.119   4.128   4.138
  4.146   4.152   4.155   4.159   4.165   4.175   4.178   4.188
  4.192   4.198   4.218   4.227   4.231   4.239   4.243   4.251
  4.265   4.268   4.274   4.287   4.297   4.316   4.319   4.327
  4.332   4.340   4.341   4.356   4.358   4.368   4.369   4.382
  4.387   4.398   4.400   4.411   4.422   4.428   4.431   4.437
  4.443   4.447   4.452   4.459   4.482   4.489   4.507   4.520
  4.521   4.541   4.551   4.568   4.572   4.580   4.588   4.590
  4.592   4.607   4.624   4.630   4.641   4.657   4.668   4.679
  4.686   4.703   4.715   4.733   4.748   4.768   4.777   4.777
  4.793   4.802   4.810   4.824   4.834   4.844   4.846   4.853
  4.857   4.865   4.883   4.889   4.901   4.915   4.924   4.933
  4.947   4.953   4.962   4.974   4.982   4.991   5.002   5.015
  5.022   5.032   5.043   5.055   5.059   5.068   5.075   5.085
  5.089   5.107   5.111   5.114   5.119   5.134   5.140   5.169
  5.182   5.194   5.218   5.243   5.247   5.254   5.265   5.272
  5.276   5.293   5.308   5.328   5.339   5.346   5.362   5.386
  5.407   5.421   5.440   5.458   5.474   5.499   5.513   5.539
  5.551   5.585   5.605   5.620   5.663   5.667   5.695   5.698
  5.705   5.717   5.746   5.775   5.797   5.821   5.830   5.844
  5.884   5.911   5.972   6.004   6.028   6.035   6.044   6.057
  6.120   6.146   6.156   6.176   6.201   6.237   6.247   6.278
  6.347   6.426   6.515   6.838   6.973   7.995   8.506   9.394
  9.919  10.492  11.078  11.139  11.669  11.983  12.234  12.697
 12.740  12.819  12.886  12.949  13.163  13.310  13.408  13.509
 13.819  13.942  14.118  14.632  15.707
 --------------------------------------------------------------
 
          Ground-State Mulliken Net Atomic Charges

     Atom                 Charge (a.u.)
  ----------------------------------------
      1 C                    -0.123229
      2 C                    -0.107548
      3 C                    -0.107519
      4 C                    -0.152709
      5 C                    -0.121974
      6 C                     0.119222
      7 C                     0.016035
      8 C                    -0.105501
      9 C                     0.029869
     10 N                    -0.126431
     11 N                    -0.278348
     12 C                     0.004450
     13 C                     0.050060
     14 S                     0.416924
     15 N                    -0.258236
     16 C                     0.030497
     17 N                    -0.143464
     18 S                     0.109449
     19 C                    -0.148643
     20 C                    -0.014018
     21 C                     0.001465
     22 S                     0.130738
     23 C                    -0.050280
     24 C                    -0.220733
     25 S                     0.057489
     26 C                     0.043136
     27 C                    -0.145290
     28 C                    -0.173254
     29 H                     0.117832
     30 H                     0.115776
     31 H                     0.114988
     32 H                     0.130971
     33 H                     0.114022
     34 H                     0.137439
     35 H                     0.145982
     36 H                     0.130019
     37 H                     0.132961
     38 H                     0.127854
  ----------------------------------------
  Sum of atomic charges =     0.000000

 -----------------------------------------------------------------
                    Cartesian Multipole Moments
 -----------------------------------------------------------------
    Charge (ESU x 10^10)
                 0.0000
    Dipole Moment (Debye)
         X      -0.4647      Y      -1.5399      Z      -1.1272
       Tot       1.9641
    Quadrupole Moments (Debye-Ang)
        XX    -138.1008     XY       2.5780     YY    -178.1279
        XZ       0.8679     YZ       3.7296     ZZ    -188.3259
    Octopole Moments (Debye-Ang^2)
       XXX    -131.8646    XXY      50.8904    XYY      -2.7396
       YYY     -27.7926    XXZ     -54.9534    XYZ      -0.5861
       YYZ       8.0147    XZZ      13.4245    YZZ     -15.5188
       ZZZ      14.7503
    Hexadecapole Moments (Debye-Ang^3)
      XXXX  -21131.6802   XXXY     164.6794   XXYY   -4176.5193
      XYYY     -83.9853   YYYY   -2517.2125   XXXZ      13.5470
      XXYZ     237.8026   XYYZ      70.5946   YYYZ      -1.7154
      XXZZ   -4407.1236   XYZZ     -40.6585   YYZZ    -550.1877
      XZZZ      24.5069   YZZZ     -11.7702   ZZZZ    -677.6979
 -----------------------------------------------------------------
 Calculating analytic gradient of the SCF energy
 K construction time:  CPU 2045.13 s  wall 129.64 s
 Gradient of SCF Energy
            1           2           3           4           5           6
    1   0.0001571  -0.0000778  -0.0000006   0.0001639  -0.0000235  -0.0000686
    2  -0.0000526  -0.0000258   0.0001089  -0.0002240   0.0002853  -0.0003714
    3  -0.0001370  -0.0000783   0.0000144   0.0002049  -0.0003166  -0.0001645
            7           8           9          10          11          12
    1   0.0005478  -0.0018876   0.0000056   0.0031446  -0.0002995  -0.0005283
    2  -0.0009048   0.0009523   0.0017273   0.0009084   0.0008392   0.0003344
    3   0.0010282  -0.0013604  -0.0001353  -0.0021796  -0.0002058   0.0010420
           13          14          15          16          17          18
    1  -0.0030856  -0.0010489   0.0018514   0.0036118  -0.0009248  -0.0010034
    2  -0.0040844  -0.0013655  -0.0000274   0.0047715  -0.0022974   0.0007111
    3   0.0015840   0.0004133  -0.0003081   0.0020609  -0.0002934  -0.0010242
           19          20          21          22          23          24
    1   0.0008831  -0.0007644  -0.0001678  -0.0000072  -0.0000395  -0.0000613
    2   0.0000947  -0.0013535   0.0007259  -0.0000798  -0.0006954  -0.0001122
    3  -0.0001001  -0.0003278   0.0002117   0.0000587  -0.0000622   0.0000048
           25          26          27          28          29          30
    1   0.0003392  -0.0000266  -0.0007858   0.0001017  -0.0000802  -0.0000649
    2   0.0002943   0.0000680  -0.0003953  -0.0000005   0.0001536  -0.0000046
    3   0.0000720   0.0000896   0.0000992   0.0002100  -0.0001055   0.0000921
           31          32          33          34          35          36
    1  -0.0000446   0.0001285   0.0000419   0.0001621  -0.0001972  -0.0001632
    2   0.0000002  -0.0001821  -0.0001659  -0.0000339  -0.0001298   0.0001900
    3  -0.0000819   0.0002910   0.0001318   0.0000769  -0.0002472  -0.0001389
           37          38
    1   0.0002437  -0.0000311
    2   0.0002463   0.0000948
    3  -0.0003005  -0.0001184
 Max gradient component =       4.772E-03
 RMS gradient           =       1.027E-03
 Gradient time:  CPU 2428.80 s  wall 155.74 s
 Geometry Optimization Parameters
   NAtoms,    NIC,     NZ,  NCons,   NDum,   NFix, NCnnct, MaxDiis
       38     289       0       3       0       0       0       0

 Cartesian Hessian Update
 Hessian Updated using BFGS Update


** CONSTRAINED OPTIMIZATION IN DELOCALIZED INTERNAL COORDINATES **
   Searching for a Minimum

   Optimization Cycle:   2

                       Coordinates (Angstroms)
     ATOM                X               Y               Z
      1  C         8.1540866260    1.1526087787   -0.7123401437
      2  C         7.4277814833    2.0230032778    0.0844386381
      3  C         7.5240173892    0.0584368085   -1.2866917767
      4  C         6.0759918372    1.8077032674    0.2931100382
      5  C         6.1739620507   -0.1620317384   -1.0744355744
      6  C         5.4315296511    0.7204267459   -0.2927070375
      7  C         3.9777224958    0.5473910532   -0.1071967594
      8  C         3.1035636950    1.5873310519   -0.2776939992
      9  C         3.3750725541   -0.6894450031    0.2512711218
     10  N         1.7556854015    1.5318649028   -0.1198803757
     11  N         3.9850938968   -1.8560004989    0.4770974646
     12  C         1.9587989408   -0.7602838023    0.4258672898
     13  C         1.1770255954    0.4170023554    0.2270506474
     14  S         2.8276471397   -2.9057631284    0.8673778926
     15  N         1.5249378301   -1.9713455964    0.7796640025
     16  C        -0.2895430796    0.4220371775    0.3906189595
     17  N        -0.9388139443    1.1861673594    1.2065961841
     18  S        -1.2981637775   -0.6124684185   -0.5740367900
     19  C        -2.2797388666    0.9773977025    1.1129194810
     20  C        -2.6907685929    0.0408669199    0.2072967451
     21  C        -4.0477384941   -0.3438033714   -0.1192918975
     22  S        -4.4599994940   -1.9413036192   -0.6416080668
     23  C        -5.1869373156    0.4131516996   -0.0708630924
     24  C        -6.1209303890   -1.5766673991   -0.8052193349
     25  S        -5.5252326339    2.0756391612    0.3270226938
     26  C        -6.3723811591   -0.2783185974   -0.4611008848
     27  C        -7.2205418889    1.8242930671   -0.0337833246
     28  C        -7.5303701674    0.5779305360   -0.4240777967
     29  H         9.2079325992    1.3243509792   -0.8834924077
     30  H         7.9126218018    2.8708157121    0.5485913231
     31  H         8.0878185090   -0.6252225568   -1.9064424451
     32  H         5.5131034649    2.4772612372    0.9297626226
     33  H         5.6915321110   -1.0194816732   -1.5217913254
     34  H         3.4844731449    2.5543617563   -0.5814008908
     35  H        -2.9467940766    1.5337250898    1.7540615435
     36  H        -6.8132844462   -2.3269992066   -1.1460013448
     37  H        -7.8939029547    2.6594093830    0.0706863130
     38  H        -8.5291784725    0.2664626635   -0.6873259309
   Point Group: c1    Number of degrees of freedom:   108


   Energy is  -2579.855067435

              Constraints and their Current Values
                                        Value     Constraint
   Dihedral:        4   6   7   8       47.062       47.062
   Dihedral:       10  13  16  18      120.000      120.000
   Dihedral:       18  20  21  22       32.716       32.716
 Hessian Updated using BFGS Update

   Using Lagrange Multiplier Algorithm


107 Hessian modes will be used to form the next step
  Hessian Eigenvalues:
    -0.977739    0.036260    0.045000    0.045000    0.045000    0.045000
     0.045000    0.045000    0.045000    0.045000    0.045000    0.045000
     0.045000    0.045001    0.045001    0.045001    0.045001    0.045002
     0.045002    0.045003    0.045003    0.045004    0.045005    0.045005
     0.045006    0.045007    0.045008    0.045012    0.045021    0.045030
     0.045038    0.045047    0.045396    0.158045    0.159967    0.159978
     0.159982    0.159986    0.159991    0.159994    0.159996    0.159999
     0.160031    0.196564    0.219998    0.220039    0.225222    0.233862
     0.234675    0.236359    0.237066    0.247538    0.249694    0.249753
     0.249781    0.249987    0.249988    0.249993    0.249994    0.249996
     0.249999    0.249999    0.287900    0.296285    0.304471    0.308888
     0.315690    0.324301    0.337584    0.350479    0.356842    0.357302
     0.357329    0.357404    0.358116    0.358488    0.359864    0.361584
     0.362490    0.365126    0.367023    0.376209    0.381601    0.388509
     0.389579    0.395041    0.417054    0.429805    0.432328    0.470787
     0.472853    0.474105    0.479426    0.480421    0.482825    0.483604
     0.486641    0.496560    0.509551    0.522901    0.526401    0.543233
     0.556212    0.579852    0.635989    0.668832    1.022779

 Minimum Search - Taking P-RFO Step
 Searching for Lamda that Maximizes Along the Constraint modes Only
 Value Taken    Lamda =   0.00000003
 Searching for Lamda that Minimizes Along All other modes
 Value Taken    Lamda =  -0.00046360
 Step Taken.  Stepsize is  0.089130

                             Maximum     Tolerance    Cnvgd?
         Gradient            0.002109       0.000300      NO
         Displacement        0.030058       0.001200      NO
         Energy change     -0.001248       0.000001      NO


 New Cartesian Coordinates Obtained by Inverse Iteration

 Displacement from previous Coordinates is:  0.509858
 ----------------------------------------------------------------
             Standard Nuclear Orientation (Angstroms)
    I     Atom           X                Y                Z
 ----------------------------------------------------------------
    1      C       8.1649593658     1.1455573408    -0.6506679226
    2      C       7.4225086829     2.0269208523     0.1185956414
    3      C       7.5442868939     0.0527121432    -1.2376404169
    4      C       6.0640927370     1.8205603156     0.2921092072
    5      C       6.1873669411    -0.1573488208    -1.0626478593
    6      C       5.4301208668     0.7330430003    -0.3047031407
    7      C       3.9749426497     0.5543441233    -0.1377850059
    8      C       3.0960178495     1.5886119132    -0.3148992318
    9      C       3.3779742864    -0.6889352526     0.2116020378
   10      N       1.7447128925     1.5299681983    -0.1668232658
   11      N       3.9906694716    -1.8533891336     0.4415724942
   12      C       1.9613142014    -0.7624618631     0.3748145459
   13      C       1.1769267779     0.4125078580     0.1780696903
   14      S       2.8304916374    -2.9016537415     0.8227891382
   15      N       1.5232823274    -1.9726047601     0.7274072275
   16      C      -0.2925804371     0.3961742513     0.3488202007
   17      N      -0.9264151038     1.1818706328     1.1571932089
   18      S      -1.3107212020    -0.6371917938    -0.5994961246
   19      C      -2.2695866108     0.9821399159     1.0784049420
   20      C      -2.6912497565     0.0385247951     0.1861615414
   21      C      -4.0518098976    -0.3439778847    -0.1247374537
   22      S      -4.4740630651    -1.9466640307    -0.6201202589
   23      C      -5.1878582258     0.4176140302    -0.0705082189
   24      C      -6.1358095337    -1.5802460397    -0.7646962568
   25      S      -5.5179510728     2.0836764693     0.3165183168
   26      C      -6.3800638190    -0.2770529217    -0.4337658742
   27      C      -7.2185476076     1.8304191991    -0.0119246068
   28      C      -7.5362712638     0.5808909534    -0.3861871848
   29      H       9.2251818876     1.3067253091    -0.7904609395
   30      H       7.9008598671     2.8740797002     0.5902503233
   31      H       8.1217229440    -0.6392928577    -1.8348831446
   32      H       5.4873958971     2.4970181616     0.9087158485
   33      H       5.7121043479    -1.0153349455    -1.5160942061
   34      H       3.4732596931     2.5581979790    -0.6150935521
   35      H      -2.9253495825     1.5516304593     1.7198142847
   36      H      -6.8332456460    -2.3362951731    -1.0818167168
   37      H      -7.8924750014     2.6636539024     0.1032472762
   38      H      -8.5401159281     0.2661117913    -0.6250827825
 ----------------------------------------------------------------
 Molecular Point Group                 C1    NOp =  1
 Largest Abelian Subgroup              C1    NOp =  1
 Nuclear Repulsion Energy =  2874.5087779691 hartrees
 There are      111 alpha and      111 beta electrons
 Applying Cartesian multipole field
    Component          Value
    ---------          -----
     (2,0,0)        1.00000E-12
     (0,2,0)        2.00000E-11
     (0,0,2)       -3.00000E-11
 Nucleus-field energy     =     0.0000000453 hartrees
 Requested basis set is cc-pVTZ
 There are 348 shells and 996 basis functions
 A cutoff of  1.0D-11 yielded  28573 shell pairs
 There are    226093 function pairs (    295373 Cartesian)
 Smallest overlap matrix eigenvalue = 3.11E-05
 Guess MOs from SCF MO coefficient file
 Reading MOs from coefficient file
 Reading MOs from coefficient file
 Long-range K will be added via erf
 Coulomb attenuation parameter = 0.2 bohr**(-1)
 A restricted hybrid HF-DFT SCF calculation will be
 performed using Pulay DIIS extrapolation
 Exchange:     0.2220 Hartree-Fock + 1.0000 wB97X-D + LR-HF
 Correlation:  1.0000 wB97X-D
 Using SG-2 standard quadrature grid
 Dispersion:   Grimme D
 SCF converges when DIIS error is below 1.0E-08
 Geometry optimization detected.  Setting ReadMinima to 0
 Setting SaveMinima to 0
 using 16 threads for integral computing 
 using 16 threads for integral computing 
 K construction time:  CPU 900.78 s  wall 59.15 s
 -------------------------------------------------------
 OpenMP BLAS3 based DFT computing Module                
 Release: version 1.0, May 2013, Q-Chem Inc. Pittsburgh 
 -------------------------------------------------------
 ---------------------------------------
  Cycle       Energy         DIIS Error
 ---------------------------------------
    1   -2579.8494976213      2.65E-04
 K construction time:  CPU 899.97 s  wall 59.14 s
    2   -2579.8550518364      2.86E-05
 K construction time:  CPU 676.07 s  wall 44.29 s
    3   -2579.8552335313      2.17E-05
 K construction time:  CPU 636.41 s  wall 41.76 s
    4   -2579.8552896598      8.93E-06
 K construction time:  CPU 595.83 s  wall 39.19 s
    5   -2579.8553031299      3.44E-06
 K construction time:  CPU 542.65 s  wall 35.67 s
    6   -2579.8553049271      1.46E-06
 K construction time:  CPU 488.54 s  wall 32.15 s
    7   -2579.8553052303      4.79E-07
 K construction time:  CPU 449.49 s  wall 29.40 s
    8   -2579.8553052732      2.38E-07
 K construction time:  CPU 408.26 s  wall 26.68 s
    9   -2579.8553052844      1.01E-07
 K construction time:  CPU 350.35 s  wall 22.94 s
   10   -2579.8553052866      3.87E-08
 K construction time:  CPU 319.67 s  wall 20.78 s
   11   -2579.8553052870      2.00E-08
 K construction time:  CPU 273.55 s  wall 17.79 s
   12   -2579.8553052882      6.12E-09 Convergence criterion met
 ---------------------------------------
 SCF time:  CPU 8993.18 s  wall 606.21 s
 SCF   energy in the final basis set = -2579.8553052882
 Total energy in the final basis set = -2579.8553052882
 
 --------------------------------------------------------------
 
                    Orbital Energies (a.u.)
 --------------------------------------------------------------
 
 Alpha MOs
 -- Occupied --
-89.155 -89.090 -89.090 -89.078 -14.492 -14.487 -14.453 -14.442
-10.364 -10.363 -10.360 -10.358 -10.343 -10.342 -10.335 -10.332
-10.330 -10.327 -10.326 -10.322 -10.313 -10.313 -10.305 -10.298
-10.297 -10.297 -10.296 -10.295  -8.165  -8.105  -8.105  -8.092
 -6.115  -6.109  -6.109  -6.054  -6.054  -6.051  -6.050  -6.048
 -6.048  -6.042  -6.038  -6.034  -1.151  -1.086  -1.063  -1.023
 -1.015  -0.976  -0.958  -0.926  -0.919  -0.903  -0.876  -0.860
 -0.857  -0.834  -0.828  -0.802  -0.776  -0.746  -0.737  -0.713
 -0.708  -0.694  -0.691  -0.660  -0.652  -0.636  -0.631  -0.617
 -0.607  -0.598  -0.576  -0.566  -0.562  -0.547  -0.543  -0.530
 -0.528  -0.522  -0.516  -0.515  -0.512  -0.501  -0.494  -0.487
 -0.480  -0.477  -0.470  -0.456  -0.451  -0.439  -0.437  -0.434
 -0.432  -0.424  -0.423  -0.406  -0.392  -0.373  -0.367  -0.363
 -0.358  -0.356  -0.340  -0.336  -0.324  -0.313  -0.275
 -- Virtual --
 -0.046   0.000   0.029   0.041   0.050   0.052   0.064   0.073
  0.078   0.088   0.090   0.105   0.117   0.121   0.128   0.134
  0.142   0.143   0.149   0.155   0.158   0.164   0.169   0.178
  0.188   0.191   0.195   0.200   0.216   0.220   0.230   0.241
  0.246   0.248   0.261   0.265   0.270   0.283   0.287   0.291
  0.293   0.298   0.302   0.304   0.308   0.318   0.321   0.325
  0.330   0.332   0.333   0.336   0.344   0.345   0.348   0.354
  0.356   0.362   0.367   0.371   0.375   0.379   0.384   0.386
  0.390   0.393   0.397   0.399   0.399   0.404   0.405   0.407
  0.415   0.416   0.421   0.425   0.430   0.432   0.433   0.438
  0.442   0.443   0.445   0.452   0.457   0.461   0.464   0.468
  0.469   0.471   0.471   0.473   0.476   0.480   0.483   0.484
  0.486   0.496   0.499   0.503   0.504   0.509   0.510   0.515
  0.521   0.523   0.526   0.532   0.535   0.543   0.546   0.548
  0.557   0.559   0.562   0.563   0.564   0.570   0.574   0.581
  0.583   0.589   0.598   0.602   0.610   0.617   0.620   0.624
  0.628   0.631   0.633   0.639   0.646   0.654   0.658   0.664
  0.667   0.675   0.678   0.680   0.684   0.687   0.692   0.703
  0.711   0.715   0.723   0.727   0.732   0.736   0.739   0.742
  0.751   0.758   0.760   0.765   0.769   0.769   0.775   0.783
  0.787   0.792   0.795   0.798   0.802   0.807   0.809   0.814
  0.825   0.831   0.835   0.840   0.845   0.851   0.851   0.854
  0.864   0.869   0.870   0.873   0.878   0.883   0.886   0.890
  0.900   0.902   0.916   0.921   0.924   0.926   0.932   0.942
  0.945   0.947   0.948   0.954   0.957   0.963   0.968   0.973
  0.977   0.983   0.986   0.994   0.994   1.004   1.011   1.023
  1.027   1.032   1.036   1.039   1.041   1.045   1.059   1.060
  1.065   1.071   1.080   1.085   1.088   1.091   1.096   1.103
  1.107   1.110   1.118   1.128   1.134   1.140   1.142   1.152
  1.160   1.166   1.172   1.174   1.179   1.192   1.201   1.206
  1.210   1.217   1.221   1.227   1.233   1.239   1.244   1.246
  1.253   1.259   1.265   1.274   1.278   1.282   1.287   1.301
  1.307   1.318   1.324   1.338   1.348   1.353   1.357   1.361
  1.364   1.374   1.375   1.381   1.383   1.393   1.405   1.413
  1.417   1.425   1.430   1.436   1.438   1.445   1.452   1.456
  1.459   1.460   1.464   1.477   1.483   1.484   1.485   1.489
  1.496   1.504   1.514   1.518   1.521   1.531   1.543   1.546
  1.550   1.559   1.571   1.574   1.579   1.588   1.598   1.605
  1.609   1.612   1.619   1.625   1.633   1.638   1.642   1.651
  1.654   1.655   1.667   1.676   1.680   1.684   1.689   1.699
  1.703   1.706   1.708   1.717   1.720   1.726   1.738   1.747
  1.752   1.756   1.765   1.768   1.773   1.784   1.793   1.798
  1.805   1.823   1.830   1.840   1.844   1.865   1.874   1.882
  1.888   1.897   1.904   1.910   1.920   1.926   1.933   1.936
  1.947   1.954   1.963   1.974   1.978   1.988   1.996   2.005
  2.011   2.014   2.027   2.031   2.035   2.040   2.044   2.059
  2.065   2.072   2.081   2.087   2.094   2.098   2.106   2.112
  2.133   2.139   2.150   2.158   2.163   2.168   2.178   2.182
  2.194   2.198   2.207   2.216   2.222   2.238   2.240   2.244
  2.252   2.257   2.260   2.266   2.271   2.278   2.289   2.294
  2.310   2.319   2.327   2.331   2.346   2.348   2.352   2.356
  2.362   2.366   2.379   2.385   2.399   2.408   2.413   2.419
  2.428   2.439   2.443   2.451   2.455   2.462   2.470   2.477
  2.480   2.483   2.490   2.495   2.499   2.500   2.505   2.527
  2.531   2.533   2.543   2.547   2.558   2.567   2.576   2.581
  2.587   2.592   2.598   2.604   2.612   2.614   2.623   2.638
  2.645   2.655   2.663   2.671   2.676   2.682   2.692   2.702
  2.708   2.717   2.724   2.733   2.744   2.748   2.761   2.764
  2.769   2.776   2.781   2.782   2.784   2.786   2.798   2.808
  2.816   2.820   2.826   2.831   2.832   2.838   2.843   2.852
  2.858   2.864   2.879   2.892   2.901   2.906   2.909   2.914
  2.922   2.925   2.938   2.940   2.961   2.963   2.965   2.970
  2.975   2.977   2.995   2.998   3.002   3.004   3.009   3.012
  3.019   3.022   3.030   3.035   3.043   3.047   3.053   3.056
  3.068   3.073   3.077   3.080   3.083   3.085   3.092   3.096
  3.103   3.108   3.108   3.117   3.118   3.125   3.126   3.132
  3.141   3.144   3.148   3.153   3.154   3.162   3.168   3.170
  3.179   3.180   3.185   3.187   3.190   3.193   3.202   3.207
  3.211   3.216   3.221   3.222   3.228   3.230   3.236   3.243
  3.247   3.258   3.261   3.267   3.273   3.277   3.279   3.284
  3.288   3.293   3.297   3.297   3.305   3.306   3.310   3.318
  3.320   3.321   3.332   3.339   3.342   3.351   3.354   3.363
  3.366   3.371   3.375   3.384   3.394   3.406   3.410   3.414
  3.420   3.427   3.430   3.436   3.438   3.442   3.453   3.459
  3.462   3.462   3.466   3.469   3.471   3.481   3.485   3.490
  3.491   3.501   3.509   3.518   3.528   3.533   3.539   3.545
  3.552   3.556   3.564   3.567   3.573   3.585   3.590   3.594
  3.603   3.611   3.613   3.619   3.627   3.643   3.661   3.667
  3.685   3.690   3.699   3.703   3.712   3.723   3.732   3.738
  3.747   3.757   3.760   3.769   3.771   3.781   3.786   3.789
  3.796   3.808   3.817   3.828   3.837   3.842   3.851   3.855
  3.859   3.861   3.862   3.870   3.873   3.878   3.882   3.887
  3.895   3.901   3.904   3.918   3.931   3.935   3.939   3.947
  3.953   3.963   3.966   3.970   3.973   3.977   3.983   3.987
  3.994   3.998   4.006   4.027   4.032   4.040   4.045   4.057
  4.077   4.082   4.086   4.090   4.112   4.120   4.128   4.137
  4.145   4.152   4.155   4.160   4.165   4.175   4.178   4.188
  4.192   4.198   4.219   4.228   4.231   4.239   4.244   4.252
  4.265   4.268   4.274   4.287   4.298   4.314   4.319   4.327
  4.333   4.339   4.342   4.355   4.359   4.369   4.370   4.383
  4.388   4.398   4.400   4.411   4.421   4.428   4.432   4.437
  4.444   4.447   4.451   4.459   4.482   4.489   4.508   4.518
  4.521   4.541   4.551   4.567   4.573   4.581   4.587   4.591
  4.594   4.608   4.623   4.631   4.642   4.658   4.669   4.680
  4.687   4.703   4.716   4.733   4.748   4.769   4.776   4.778
  4.793   4.802   4.809   4.823   4.834   4.844   4.846   4.853
  4.858   4.866   4.884   4.890   4.901   4.915   4.923   4.931
  4.947   4.952   4.962   4.972   4.983   4.992   5.001   5.014
  5.023   5.034   5.044   5.055   5.060   5.069   5.075   5.084
  5.089   5.106   5.112   5.116   5.120   5.135   5.139   5.169
  5.183   5.194   5.218   5.242   5.247   5.254   5.264   5.271
  5.276   5.294   5.308   5.328   5.341   5.346   5.364   5.385
  5.406   5.419   5.443   5.459   5.476   5.498   5.513   5.539
  5.550   5.586   5.604   5.621   5.664   5.668   5.696   5.700
  5.706   5.718   5.745   5.776   5.799   5.821   5.833   5.842
  5.884   5.915   5.974   6.003   6.029   6.035   6.044   6.058
  6.119   6.146   6.155   6.178   6.202   6.235   6.247   6.278
  6.346   6.424   6.515   6.839   6.975   7.984   8.517   9.398
  9.914  10.489  11.085  11.144  11.675  11.979  12.234  12.696
 12.741  12.821  12.887  12.951  13.162  13.303  13.408  13.518
 13.820  13.941  14.125  14.646  15.708
 --------------------------------------------------------------
 
          Ground-State Mulliken Net Atomic Charges

     Atom                 Charge (a.u.)
  ----------------------------------------
      1 C                    -0.123380
      2 C                    -0.107996
      3 C                    -0.107377
      4 C                    -0.151002
      5 C                    -0.122924
      6 C                     0.119433
      7 C                     0.015050
      8 C                    -0.104886
      9 C                     0.029971
     10 N                    -0.126173
     11 N                    -0.277840
     12 C                     0.004385
     13 C                     0.056007
     14 S                     0.415146
     15 N                    -0.258730
     16 C                     0.023449
     17 N                    -0.142542
     18 S                     0.113289
     19 C                    -0.149757
     20 C                    -0.012131
     21 C                    -0.000126
     22 S                     0.130922
     23 C                    -0.051019
     24 C                    -0.221028
     25 S                     0.058032
     26 C                     0.043135
     27 C                    -0.145596
     28 C                    -0.173077
     29 H                     0.117898
     30 H                     0.115813
     31 H                     0.114944
     32 H                     0.130564
     33 H                     0.113908
     34 H                     0.137382
     35 H                     0.145693
     36 H                     0.129754
     37 H                     0.132953
     38 H                     0.127854
  ----------------------------------------
  Sum of atomic charges =     0.000000

 -----------------------------------------------------------------
                    Cartesian Multipole Moments
 -----------------------------------------------------------------
    Charge (ESU x 10^10)
                 0.0000
    Dipole Moment (Debye)
         X      -0.5007      Y      -1.5487      Z      -1.0298
       Tot       1.9260
    Quadrupole Moments (Debye-Ang)
        XX    -138.0783     XY       2.4826     YY    -178.1087
        XZ       0.6476     YZ       3.8910     ZZ    -188.4607
    Octopole Moments (Debye-Ang^2)
       XXX    -131.3434    XXY      48.2929    XYY      -3.3226
       YYY     -26.5131    XXZ     -46.5510    XYZ       0.1680
       YYZ      10.2055    XZZ      13.2302    YZZ     -14.7437
       ZZZ      20.4034
    Hexadecapole Moments (Debye-Ang^3)
      XXXX  -21125.9432   XXXY     150.4392   XXYY   -4183.0189
      XYYY     -84.6174   YYYY   -2525.8384   XXXZ      20.1283
      XXYZ     240.3076   XYYZ      70.8916   YYYZ      -4.7732
      XXZZ   -4425.5885   XYZZ     -42.6616   YYZZ    -546.9021
      XZZZ      34.6509   YZZZ     -16.9883   ZZZZ    -645.6259
 -----------------------------------------------------------------
 Calculating analytic gradient of the SCF energy
 K construction time:  CPU 2058.79 s  wall 130.55 s
 Gradient of SCF Energy
            1           2           3           4           5           6
    1  -0.0000680   0.0001407   0.0000687  -0.0000206  -0.0002906  -0.0000395
    2  -0.0000366   0.0001642  -0.0000082  -0.0003917   0.0001734  -0.0001214
    3   0.0000516  -0.0000555  -0.0001580   0.0007197  -0.0003700  -0.0009418
            7           8           9          10          11          12
    1   0.0006850  -0.0010209   0.0001907   0.0003309   0.0008132  -0.0006562
    2  -0.0004257  -0.0002398   0.0000370  -0.0001710  -0.0000174  -0.0000935
    3   0.0015268  -0.0010398   0.0000950  -0.0019754  -0.0001227   0.0003336
           13          14          15          16          17          18
    1   0.0013532  -0.0003501  -0.0005420  -0.0011240   0.0001963  -0.0005025
    2   0.0007103   0.0014952   0.0000567  -0.0004022  -0.0011950   0.0006375
    3   0.0017478  -0.0003214   0.0001757   0.0018037  -0.0004657  -0.0017471
           19          20          21          22          23          24
    1   0.0001984   0.0003363   0.0000340  -0.0000312  -0.0000762   0.0002347
    2   0.0000093  -0.0007120   0.0003775  -0.0000774   0.0000850   0.0001893
    3  -0.0000228   0.0002379  -0.0000437   0.0000933  -0.0000828  -0.0000217
           25          26          27          28          29          30
    1   0.0000718   0.0000196  -0.0001086   0.0000179  -0.0000157  -0.0000301
    2   0.0000428  -0.0000339  -0.0000493   0.0001195   0.0000449  -0.0001124
    3  -0.0000231   0.0003028   0.0000711  -0.0000946  -0.0000533   0.0000176
           31          32          33          34          35          36
    1   0.0000024   0.0000159   0.0000834  -0.0000643   0.0001155  -0.0000293
    2   0.0000123  -0.0001042  -0.0000657   0.0000617   0.0001229  -0.0000606
    3   0.0001335   0.0000743   0.0001827   0.0000485   0.0000514  -0.0000245
           37          38
    1   0.0000535   0.0000077
    2   0.0000465  -0.0000678
    3  -0.0000917  -0.0000113
 Max gradient component =       1.975E-03
 RMS gradient           =       5.293E-04
 Gradient time:  CPU 2443.01 s  wall 156.70 s
 Geometry Optimization Parameters
   NAtoms,    NIC,     NZ,  NCons,   NDum,   NFix, NCnnct, MaxDiis
       38     289       0       3       0       0       0       0

 Cartesian Hessian Update
 Hessian Updated using BFGS Update


** CONSTRAINED OPTIMIZATION IN DELOCALIZED INTERNAL COORDINATES **
   Searching for a Minimum

   Optimization Cycle:   3

                       Coordinates (Angstroms)
     ATOM                X               Y               Z
      1  C         8.1649593658    1.1455573408   -0.6506679226
      2  C         7.4225086829    2.0269208523    0.1185956414
      3  C         7.5442868939    0.0527121432   -1.2376404169
      4  C         6.0640927370    1.8205603156    0.2921092072
      5  C         6.1873669411   -0.1573488208   -1.0626478593
      6  C         5.4301208668    0.7330430003   -0.3047031407
      7  C         3.9749426497    0.5543441233   -0.1377850059
      8  C         3.0960178495    1.5886119132   -0.3148992318
      9  C         3.3779742864   -0.6889352526    0.2116020378
     10  N         1.7447128925    1.5299681983   -0.1668232658
     11  N         3.9906694716   -1.8533891336    0.4415724942
     12  C         1.9613142014   -0.7624618631    0.3748145459
     13  C         1.1769267779    0.4125078580    0.1780696903
     14  S         2.8304916374   -2.9016537415    0.8227891382
     15  N         1.5232823274   -1.9726047601    0.7274072275
     16  C        -0.2925804371    0.3961742513    0.3488202007
     17  N        -0.9264151038    1.1818706328    1.1571932089
     18  S        -1.3107212020   -0.6371917938   -0.5994961246
     19  C        -2.2695866108    0.9821399159    1.0784049420
     20  C        -2.6912497565    0.0385247951    0.1861615414
     21  C        -4.0518098976   -0.3439778847   -0.1247374537
     22  S        -4.4740630651   -1.9466640307   -0.6201202589
     23  C        -5.1878582258    0.4176140302   -0.0705082189
     24  C        -6.1358095337   -1.5802460397   -0.7646962568
     25  S        -5.5179510728    2.0836764693    0.3165183168
     26  C        -6.3800638190   -0.2770529217   -0.4337658742
     27  C        -7.2185476076    1.8304191991   -0.0119246068
     28  C        -7.5362712638    0.5808909534   -0.3861871848
     29  H         9.2251818876    1.3067253091   -0.7904609395
     30  H         7.9008598671    2.8740797002    0.5902503233
     31  H         8.1217229440   -0.6392928577   -1.8348831446
     32  H         5.4873958971    2.4970181616    0.9087158485
     33  H         5.7121043479   -1.0153349455   -1.5160942061
     34  H         3.4732596931    2.5581979790   -0.6150935521
     35  H        -2.9253495825    1.5516304593    1.7198142847
     36  H        -6.8332456460   -2.3362951731   -1.0818167168
     37  H        -7.8924750014    2.6636539024    0.1032472762
     38  H        -8.5401159281    0.2661117913   -0.6250827825
   Point Group: c1    Number of degrees of freedom:   108


   Energy is  -2579.855305288

              Constraints and their Current Values
                                        Value     Constraint
   Dihedral:        4   6   7   8       47.062       47.062
   Dihedral:       10  13  16  18      120.000      120.000
   Dihedral:       18  20  21  22       32.716       32.716
 Hessian Updated using BFGS Update

[...]
     31  H         8.1038872237   -0.6332067807   -1.8601821519
     32  H         5.4926214854    2.5038938714    0.9047607590
     33  H         5.6956981554   -1.0043289536   -1.5281810090
     34  H         3.4573824110    2.5611646144   -0.5758023574
     35  H        -2.9326862540    1.5660644311    1.7224934599
     36  H        -6.8286397909   -2.3380042953   -1.0773703068
     37  H        -7.8868849035    2.6728291583    0.0625325013
     38  H        -8.5337610129    0.2729425385   -0.6548868057
   Point Group: c1    Number of degrees of freedom:   108


   Energy is  -2579.855363898

              Constraints and their Current Values
                                        Value     Constraint
   Dihedral:        4   6   7   8       47.062       47.062
   Dihedral:       10  13  16  18      120.000      120.000
   Dihedral:       18  20  21  22       32.716       32.716
 Hessian Updated using BFGS Update

101 Hessian modes will be used to form the next step
  Hessian Eigenvalues:
     0.012005    0.034048    0.043703    0.045000    0.045000    0.045000
     0.045000    0.045001    0.045001    0.045001    0.045001    0.045002
     0.045002    0.045003    0.045004    0.045004    0.045005    0.045006
     0.045007    0.045007    0.045008    0.045021    0.045029    0.045035
     0.045045    0.045099    0.045327    0.045638    0.157114    0.159427
     0.159977    0.159979    0.159993    0.159993    0.159996    0.160010
     0.160161    0.161639    0.190309    0.219827    0.220109    0.225171
     0.230127    0.234167    0.235190    0.238000    0.242531    0.247614
     0.249254    0.249776    0.249949    0.249953    0.249994    0.249999
     0.252687    0.257160    0.292124    0.296959    0.304284    0.304659
     0.315688    0.326980    0.337567    0.344880    0.350471    0.356833
     0.357317    0.357329    0.357456    0.358196    0.358496    0.360289
     0.361593    0.362491    0.365221    0.369262    0.382330    0.389613
     0.391385    0.396282    0.408772    0.429716    0.432623    0.433500
     0.469701    0.474004    0.474286    0.479302    0.480474    0.480776
     0.483762    0.486045    0.496595    0.509779    0.518994    0.541472
     0.545130    0.558526    0.632794    0.642944    0.665634

 Minimum Search - Taking Simple RFO Step
 Searching for Lamda that Minimizes Along All modes
 Value Taken    Lamda =   0.00000000
 Step Taken.  Stepsize is  0.003052

                             Maximum     Tolerance    Cnvgd?
         Gradient           0.000076      0.000300     YES
         Displacement       0.001073      0.001200     YES
         Energy change     -0.000001      0.000001      NO

 Final energy is   -2579.85536389757     


 ******************************
 **  OPTIMIZATION CONVERGED  **
 ******************************

                       Coordinates (Angstroms)
     ATOM                X               Y               Z
      1  C         8.1585554866    1.1482283617   -0.6708061001
      2  C         7.4217726831    2.0301524058    0.1032751169
      3  C         7.5319322739    0.0583275669   -1.2569227702
      4  C         6.0640596203    1.8262239977    0.2845166624
      5  C         6.1758089060   -0.1492704078   -1.0741424555
      6  C         5.4240661875    0.7413170719   -0.3105068228
      7  C         3.9719830951    0.5555138741   -0.1235759140
      8  C         3.0877904492    1.5874035949   -0.2799249267
      9  C         3.3833879731   -0.6956207229    0.2170155672
     10  N         1.7376115497    1.5211571977   -0.1181534892
     11  N         4.0015399630   -1.8611376923    0.4239167396
     12  C         1.9690136690   -0.7771645818    0.3931035507
     13  C         1.1769880212    0.3987807147    0.2217407056
     14  S         2.8509262910   -2.9222326383    0.7994052853
     15  N         1.5399002747   -1.9949175730    0.7298131734
     16  C        -0.2908408925    0.3781399495    0.3934583500
     17  N        -0.9292090835    1.1796673613    1.1856944116
     18  S        -1.3054337088   -0.6519000136   -0.5581299935
     19  C        -2.2727990010    0.9879779512    1.0930874466
     20  C        -2.6912340768    0.0399284888    0.2036226844
     21  C        -4.0493975939   -0.3418456861   -0.1199629433
     22  S        -4.4718545973   -1.9488183519   -0.6013566367
     23  C        -5.1843246467    0.4222794486   -0.0817238125
     24  C        -6.1318156647   -1.5802374856   -0.7634053037
     25  S        -5.5141072839    2.0916006071    0.2913569383
     26  C        -6.3753611109   -0.2730090909   -0.4482163360
     27  C        -7.2128931597    1.8386499579   -0.0454316419
     28  C        -7.5304164866    0.5870856528   -0.4131937975
     29  H         9.2186953966    1.3063870209   -0.8145174286
     30  H         7.9041166169    2.8764825130    0.5726514124
     31  H         8.1038872237   -0.6332067807   -1.8601821519
     32  H         5.4926214854    2.5038938714    0.9047607590
     33  H         5.6956981554   -1.0043289536   -1.5281810090
     34  H         3.4573824110    2.5611646144   -0.5758023574
     35  H        -2.9326862540    1.5660644311    1.7224934599
     36  H        -6.8286397909   -2.3380042953   -1.0773703068
     37  H        -7.8868849035    2.6728291583    0.0625325013
     38  H        -8.5337610129    0.2729425385   -0.6548868057

Z-matrix Print:
$molecule
0 1
S 
C  1 1.726075
C  2 1.365662 1 108.643859
H  3 1.079716 2 124.339254 1 178.796939 0
N  3 1.360351 2 116.409384 1 -0.113251 0
C  5 1.295221 3 110.974428 2 0.968848 0
C  2 1.447435 1 123.296173 3 -178.481375 0
C  7 1.368725 2 128.649105 1 148.900099 0
C  8 1.426994 7 114.386399 2 179.161860 0
C  9 1.366567 8 112.121428 7 -0.151875 0
H  10 1.076266 9 128.711187 8 179.669261 0
C  9 1.440535 8 111.844041 7 178.924335 0
H  12 1.078796 9 124.501810 8 -179.872759 0
C  12 1.342566 9 111.939064 8 -0.055202 0
H  14 1.077857 12 126.942654 9 179.792959 0
C  6 1.477983 5 123.497508 3 -176.743872 0
N  16 1.299829 6 118.085088 5 55.031613 0
C  17 1.361448 16 120.054430 6 -179.633269 0
H  18 1.082752 17 114.503589 16 -179.239155 0
C  18 1.367859 17 126.211426 16 -0.278242 0
C  20 1.424003 18 115.021483 17 -1.204488 0
N  21 1.335421 20 127.773894 18 -179.773296 0
C  21 1.427624 20 119.287218 18 1.284609 0
N  23 1.334329 21 113.694717 20 179.030828 0
C  20 1.475809 18 121.773343 17 179.338392 0
C  25 1.393078 20 119.733773 18 -47.061913 0
H  26 1.081888 25 119.342600 20 -1.964006 0
C  26 1.384854 25 120.609662 20 178.946691 0
H  28 1.081316 26 119.720841 25 179.940996 0
C  28 1.385583 26 120.047279 25 0.283881 0
H  30 1.081464 28 120.160145 26 -179.927336 0
C  30 1.387110 28 119.733529 26 0.314052 0
H  32 1.081330 30 119.952484 28 179.884646 0
C  32 1.384043 30 120.310605 28 -0.143538 0
H  34 1.080640 32 119.901950 30 179.576040 0
S  24 1.607341 23 105.970230 21 0.191140 0
S  10 1.708093 9 110.960792 8 -0.388011 0
S  8 1.742004 7 134.261955 2 -2.202539 0
$end

 
 --------------------------------------------------------------
 
                    Orbital Energies (a.u.)
 --------------------------------------------------------------
 
 Alpha MOs
 -- Occupied --
-89.155 -89.090 -89.090 -89.078 -14.492 -14.487 -14.453 -14.442
-10.364 -10.363 -10.360 -10.358 -10.343 -10.342 -10.335 -10.332
-10.330 -10.327 -10.326 -10.322 -10.313 -10.313 -10.305 -10.298
-10.297 -10.296 -10.296 -10.295  -8.165  -8.105  -8.105  -8.093
 -6.115  -6.109  -6.109  -6.054  -6.054  -6.051  -6.050  -6.048
 -6.048  -6.042  -6.039  -6.034  -1.151  -1.086  -1.063  -1.023
 -1.015  -0.976  -0.958  -0.926  -0.919  -0.903  -0.876  -0.860
 -0.856  -0.834  -0.828  -0.802  -0.776  -0.745  -0.737  -0.713
 -0.708  -0.694  -0.691  -0.660  -0.652  -0.636  -0.631  -0.617
 -0.607  -0.598  -0.576  -0.566  -0.562  -0.547  -0.543  -0.530
 -0.528  -0.522  -0.516  -0.515  -0.512  -0.501  -0.494  -0.488
 -0.480  -0.477  -0.469  -0.456  -0.451  -0.439  -0.437  -0.434
 -0.432  -0.424  -0.423  -0.405  -0.392  -0.373  -0.366  -0.363
 -0.359  -0.356  -0.340  -0.336  -0.324  -0.312  -0.275
 -- Virtual --
 -0.046   0.000   0.029   0.041   0.050   0.052   0.064   0.073
  0.078   0.089   0.090   0.105   0.117   0.121   0.128   0.134
  0.142   0.143   0.149   0.155   0.158   0.164   0.169   0.178
  0.188   0.191   0.195   0.200   0.216   0.220   0.230   0.241
  0.246   0.248   0.262   0.265   0.270   0.283   0.287   0.291
  0.293   0.298   0.301   0.304   0.308   0.318   0.321   0.325
  0.330   0.331   0.334   0.336   0.344   0.345   0.348   0.354
  0.356   0.362   0.367   0.371   0.375   0.379   0.383   0.385
  0.390   0.393   0.397   0.399   0.399   0.404   0.405   0.408
  0.415   0.416   0.421   0.425   0.430   0.432   0.433   0.438
  0.442   0.443   0.445   0.452   0.457   0.461   0.464   0.468
  0.469   0.471   0.471   0.473   0.476   0.479   0.483   0.484
  0.486   0.495   0.499   0.503   0.504   0.509   0.510   0.514
  0.521   0.522   0.526   0.532   0.535   0.542   0.546   0.548
  0.556   0.560   0.562   0.563   0.565   0.570   0.574   0.581
  0.584   0.590   0.598   0.602   0.610   0.617   0.621   0.623
  0.628   0.631   0.633   0.639   0.646   0.654   0.659   0.664
  0.667   0.675   0.678   0.680   0.684   0.687   0.692   0.703
  0.711   0.715   0.723   0.728   0.732   0.736   0.739   0.741
  0.752   0.758   0.761   0.766   0.769   0.770   0.775   0.783
  0.786   0.792   0.795   0.799   0.802   0.807   0.809   0.814
  0.825   0.830   0.835   0.840   0.844   0.850   0.852   0.855
  0.864   0.869   0.871   0.873   0.878   0.883   0.886   0.890
  0.900   0.902   0.916   0.920   0.924   0.926   0.932   0.942
  0.946   0.947   0.948   0.954   0.957   0.963   0.967   0.974
  0.977   0.982   0.987   0.994   0.994   1.003   1.011   1.023
  1.027   1.031   1.036   1.039   1.041   1.046   1.059   1.060
  1.065   1.071   1.079   1.084   1.087   1.092   1.095   1.103
  1.108   1.110   1.118   1.128   1.135   1.140   1.143   1.152
  1.159   1.166   1.172   1.173   1.179   1.192   1.201   1.206
  1.210   1.216   1.221   1.225   1.232   1.239   1.244   1.247
  1.252   1.258   1.264   1.274   1.278   1.282   1.287   1.300
  1.307   1.318   1.323   1.338   1.348   1.353   1.357   1.360
  1.365   1.373   1.375   1.380   1.383   1.393   1.404   1.413
  1.416   1.424   1.430   1.436   1.438   1.445   1.451   1.456
  1.458   1.461   1.464   1.478   1.483   1.484   1.485   1.489
  1.495   1.504   1.514   1.518   1.519   1.529   1.543   1.546
  1.549   1.559   1.571   1.575   1.579   1.588   1.598   1.605
  1.608   1.612   1.619   1.625   1.633   1.637   1.641   1.651
  1.654   1.655   1.667   1.676   1.680   1.684   1.690   1.699
  1.703   1.706   1.708   1.717   1.719   1.726   1.739   1.747
  1.751   1.757   1.765   1.768   1.773   1.784   1.793   1.798
  1.806   1.821   1.831   1.840   1.844   1.863   1.873   1.882
  1.887   1.897   1.903   1.910   1.921   1.926   1.933   1.937
  1.948   1.955   1.963   1.974   1.978   1.988   1.995   2.005
  2.011   2.014   2.027   2.030   2.034   2.039   2.044   2.059
  2.065   2.071   2.081   2.087   2.093   2.098   2.105   2.112
  2.133   2.139   2.150   2.159   2.163   2.168   2.178   2.182
  2.194   2.198   2.207   2.215   2.222   2.239   2.240   2.245
  2.252   2.257   2.260   2.266   2.271   2.278   2.289   2.293
  2.310   2.319   2.327   2.331   2.346   2.349   2.352   2.356
  2.362   2.367   2.380   2.384   2.399   2.409   2.414   2.419
  2.427   2.439   2.443   2.451   2.455   2.462   2.470   2.477
  2.480   2.483   2.490   2.494   2.499   2.499   2.504   2.526
  2.530   2.533   2.544   2.547   2.558   2.567   2.575   2.581
  2.587   2.592   2.598   2.604   2.611   2.614   2.622   2.638
  2.645   2.654   2.662   2.671   2.677   2.682   2.690   2.701
  2.708   2.716   2.724   2.733   2.744   2.748   2.760   2.765
  2.769   2.777   2.782   2.782   2.783   2.786   2.798   2.807
  2.816   2.820   2.826   2.831   2.832   2.838   2.843   2.852
  2.857   2.864   2.879   2.892   2.901   2.906   2.909   2.913
  2.922   2.925   2.938   2.940   2.961   2.963   2.965   2.969
  2.974   2.976   2.995   2.998   3.002   3.004   3.009   3.012
  3.018   3.022   3.030   3.035   3.043   3.048   3.053   3.056
  3.068   3.072   3.077   3.079   3.083   3.084   3.092   3.097
  3.103   3.107   3.108   3.116   3.118   3.126   3.127   3.132
  3.141   3.144   3.148   3.153   3.154   3.163   3.168   3.170
  3.179   3.179   3.184   3.186   3.191   3.193   3.203   3.207
  3.210   3.216   3.221   3.222   3.229   3.230   3.236   3.244
  3.247   3.257   3.261   3.267   3.273   3.277   3.278   3.284
  3.288   3.293   3.296   3.297   3.305   3.306   3.310   3.318
  3.320   3.321   3.331   3.339   3.343   3.351   3.355   3.361
  3.366   3.372   3.374   3.384   3.393   3.405   3.410   3.414
  3.419   3.427   3.429   3.436   3.438   3.442   3.453   3.460
  3.461   3.463   3.466   3.469   3.471   3.482   3.484   3.489
  3.491   3.501   3.509   3.519   3.527   3.533   3.539   3.545
  3.551   3.556   3.564   3.567   3.572   3.584   3.589   3.595
  3.603   3.611   3.613   3.619   3.628   3.643   3.660   3.667
  3.685   3.691   3.699   3.704   3.712   3.722   3.731   3.736
  3.747   3.757   3.760   3.769   3.771   3.780   3.786   3.789
  3.796   3.807   3.816   3.828   3.838   3.841   3.851   3.855
  3.860   3.861   3.862   3.871   3.872   3.878   3.881   3.887
  3.895   3.901   3.904   3.918   3.931   3.935   3.938   3.947
  3.953   3.963   3.965   3.971   3.972   3.976   3.982   3.986
  3.993   3.998   4.004   4.028   4.031   4.040   4.045   4.057
  4.077   4.082   4.086   4.091   4.110   4.120   4.128   4.136
  4.145   4.152   4.156   4.161   4.166   4.176   4.177   4.188
  4.192   4.198   4.218   4.228   4.229   4.238   4.245   4.251
  4.265   4.267   4.275   4.286   4.299   4.314   4.320   4.328
  4.334   4.338   4.343   4.355   4.359   4.369   4.371   4.382
  4.389   4.398   4.400   4.410   4.421   4.428   4.432   4.437
  4.444   4.447   4.450   4.459   4.482   4.487   4.507   4.519
  4.520   4.541   4.552   4.566   4.573   4.581   4.586   4.591
  4.593   4.608   4.623   4.631   4.643   4.658   4.668   4.679
  4.687   4.702   4.717   4.733   4.747   4.767   4.776   4.778
  4.793   4.801   4.808   4.823   4.833   4.844   4.846   4.853
  4.858   4.866   4.883   4.890   4.901   4.915   4.923   4.931
  4.946   4.952   4.962   4.970   4.983   4.993   5.000   5.014
  5.023   5.034   5.044   5.055   5.060   5.069   5.075   5.084
  5.089   5.106   5.112   5.116   5.120   5.135   5.139   5.169
  5.183   5.194   5.218   5.242   5.246   5.253   5.264   5.271
  5.276   5.294   5.308   5.328   5.341   5.346   5.364   5.384
  5.406   5.418   5.443   5.461   5.477   5.496   5.512   5.537
  5.550   5.587   5.603   5.621   5.663   5.668   5.695   5.700
  5.706   5.717   5.744   5.776   5.799   5.821   5.832   5.840
  5.884   5.916   5.974   6.003   6.027   6.034   6.044   6.059
  6.119   6.146   6.155   6.178   6.202   6.234   6.247   6.278
  6.345   6.426   6.515   6.837   6.976   7.984   8.518   9.400
  9.920  10.487  11.078  11.143  11.670  11.972  12.240  12.684
 12.734  12.817  12.888  12.951  13.159  13.294  13.407  13.517
 13.824  13.940  14.124  14.646  15.707
 --------------------------------------------------------------
 
          Ground-State Mulliken Net Atomic Charges

     Atom                 Charge (a.u.)
  ----------------------------------------
      1 C                    -0.123358
      2 C                    -0.108228
      3 C                    -0.107771
      4 C                    -0.150070
      5 C                    -0.122525
      6 C                     0.119014
      7 C                     0.015855
      8 C                    -0.105431
      9 C                     0.031320
     10 N                    -0.125882
     11 N                    -0.278373
     12 C                     0.003351
     13 C                     0.058965
     14 S                     0.415203
     15 N                    -0.259634
     16 C                     0.020179
     17 N                    -0.142377
     18 S                     0.114219
     19 C                    -0.148891
     20 C                    -0.012415
     21 C                    -0.000500
     22 S                     0.130966
     23 C                    -0.051073
     24 C                    -0.220957
     25 S                     0.058126
     26 C                     0.043121
     27 C                    -0.145672
     28 C                    -0.173073
     29 H                     0.117897
     30 H                     0.115693
     31 H                     0.114921
     32 H                     0.130240
     33 H                     0.113632
     34 H                     0.137419
     35 H                     0.145437
     36 H                     0.129790
     37 H                     0.133019
     38 H                     0.127864
  ----------------------------------------
  Sum of atomic charges =     0.000000

 -----------------------------------------------------------------
                    Cartesian Multipole Moments
 -----------------------------------------------------------------
    Charge (ESU x 10^10)
                 0.0000
    Dipole Moment (Debye)
         X      -0.5123      Y      -1.5456      Z      -1.0692
       Tot       1.9479
    Quadrupole Moments (Debye-Ang)
        XX    -138.1367     XY       2.4210     YY    -177.9904
        XZ       0.7375     YZ       3.7737     ZZ    -188.5402
    Octopole Moments (Debye-Ang^2)
       XXX    -133.3777    XXY      48.8798    XYY      -3.6889
       YYY     -25.1684    XXZ     -48.1149    XYZ       0.5209
       YYZ       9.2439    XZZ      13.0470    YZZ     -14.3432
       ZZZ      18.3832
    Hexadecapole Moments (Debye-Ang^3)
      XXXX  -21121.0523   XXXY     158.2367   XXYY   -4179.7300
      XYYY     -78.6451   YYYY   -2542.1765   XXXZ      25.5983
      XXYZ     235.8649   XYYZ      71.5077   YYYZ      -3.6068
      XXZZ   -4419.2571   XYZZ     -40.4483   YYZZ    -551.2627
      XZZZ      31.6885   YZZZ     -14.9495   ZZZZ    -645.3078
 -----------------------------------------------------------------
Archival summary:
1\1\mn361\OPT\ProcedureUnspecified\BasisUnspecified\442010\afmv_a\MonJun521:08:262017MonJun521:08:262017\0\\#,OPT,ProcedureUnspecified,BasisUnspecified,\\0,1\S\C,1,1.72608\C,2,1.36566,1,108.644\H,3,1.07972,2,124.339,1,178.797,0\N,3,1.36035,2,116.409,1,-0.113251,0\C,5,1.29522,3,110.974,2,0.968848,0\C,2,1.44743,1,123.296,3,-178.481,0\C,7,1.36873,2,128.649,1,148.9,0\C,8,1.42699,7,114.386,2,179.162,0\C,9,1.36657,8,112.121,7,-0.151875,0\H,10,1.07627,9,128.711,8,179.669,0\C,9,1.44054,8,111.844,7,178.924,0\H,12,1.0788,9,124.502,8,-179.873,0\C,12,1.34257,9,111.939,8,-0.0552021,0\H,14,1.07786,12,126.943,9,179.793,0\C,6,1.47798,5,123.498,3,-176.744,0\N,16,1.29983,6,118.085,5,55.0316,0\C,17,1.36145,16,120.054,6,-179.633,0\H,18,1.08275,17,114.504,16,-179.239,0\C,18,1.36786,17,126.211,16,-0.278242,0\C,20,1.424,18,115.021,17,-1.20449,0\N,21,1.33542,20,127.774,18,-179.773,0\C,21,1.42762,20,119.287,18,1.28461,0\N,23,1.33433,21,113.695,20,179.031,0\C,20,1.47581,18,121.773,17,179.338,0\C,25,1.39308,20,119.734,18,-47.0619,0\H,26,1.08189,25,119.343,20,-1.96401,0\C,26,1.38485,25,120.61,20,178.947,0\H,28,1.08132,26,119.721,25,179.941,0\C,28,1.38558,26,120.047,25,0.283881,0\H,30,1.08146,28,120.16,26,-179.927,0\C,30,1.38711,28,119.734,26,0.314052,0\H,32,1.08133,30,119.952,28,179.885,0\C,32,1.38404,30,120.311,28,-0.143538,0\H,34,1.08064,32,119.902,30,179.576,0\S,24,1.60734,23,105.97,21,0.19114,0\S,10,1.70809,9,110.961,8,-0.388011,0\S,8,1.742,7,134.262,2,-2.20254,0\\\@

 Total job time:  5219.63s(wall), 77992.48s(cpu) 
 Mon Jun  5 21:08:26 2017

        *************************************************************
        *                                                           *
        *  Thank you very much for using Q-Chem.  Have a nice day.  *
        *                                                           *
        *************************************************************


