
Running Job 1 of 1 ./7/2.qcin
qchem ./7/2.qcin_17763.0 /tmpu/cab_g/afmv_a/scratch_qchem/qchem17763/ 1
/tmpu/appuserlic/qchem4.4/serial-multicore/exe/qcprog.exe_s ./7/2.qcin_17763.0 /tmpu/cab_g/afmv_a/scratch_qchem/qchem17763/
Check license passed

                  Welcome to Q-Chem
     A Quantum Leap Into The Future Of Chemistry


 Q-Chem 4.4, Q-Chem, Inc., Pleasanton, CA (2016)

 Y. Shao,  Z. Gan,  E. Epifanovsky,  A. T. B. Gilbert,  M. Wormit,  
 J. Kussmann,  A. W. Lange,  A. Behn,  J. Deng,  X. Feng,  D. Ghosh,  
 M. Goldey,  P. R. Horn,  L. D. Jacobson,  I. Kaliman,  F. Rob,  
 R. Z. Khaliullin,  T. Kus,  A. Landau,  J. Liu,  E. I. Proynov,  Y. M. Rhee,  
 R. M. Richard,  M. A. Rohrdanz,  R. P. Steele,  E. J. Sundstrom,  
 H. L. Woodcock III,  P. M. Zimmerman,  D. Zuev,  B. Albrecht,  E. Alguire,  
 B. Austin,  S. A. Baeppler,  G. J. O. Beran,  Y. A. Bernard,  E. Berquist,  
 K. Brandhorst,  K. B. Bravaya,  S. T. Brown,  D. Casanova,  C.-M. Chang,  
 Y. Chen,  S. H. Chien,  K. D. Closser,  M. P. Coons,  D. L. Crittenden,  
 S. Dasgupta,  M. Diedenhofen,  R. A. DiStasio Jr.,  H. Do,  A. D. Dutoi,  
 R. G. Edgar,  P.-T. Fang,  S. Fatehi,  Q. Feng,  L. Fusti-Molnar,  
 A. Ghysels,  A. Golubeva-Zadorozhnaya,  J. Gomes,  A. Gunina,  
 M. W. D. Hanson-Heine,  P. H. P. Harbach,  A. W. Hauser,  J. E. Herr,  
 E. G. Hohenstein,  Z. C. Holden,  K. Hui,  T.-C. Jagau,  H. Ji,  B. Kaduk,  
 K. Khistyaev,  Jaehoon Kim,  Jihan Kim,  R. A. King,  P. Klunzinger,  
 K. Koh,  D. Kosenkov,  T. Kowalczyk,  C. M. Krauter,  A. Kunitsa,  
 K. U. Lao,  A. Laurent,  K. V. Lawler,  J. Lee,  D. Lefrancois,  S. Lehtola,  
 S. V. Levchenko,  C. Y. Lin,  Y.-S. Lin,  F. Liu,  E. Livshits,  
 R. C. Lochan,  A. Luenser,  P. Manohar,  S. F. Manzer,  S.-P. Mao,  Y. Mao,  
 N. Mardirossian,  A. V. Marenich,  L. A. Martinez-Martinez,  S. A. Maurer,  
 N. J. Mayhall,  J.-M. Mewes,  A. F. Morrison,  K. Nanda,  T. S. Nguyen-Beck,  
 C. M. Oana,  R. Olivares-Amaya,  D. P. O'Neill,  J. A. Parkhill,  
 T. M. Perrine,  R. Peverati,  P. A. Pieniazek,  F. Plasser,  A. Prociuk,  
 D. R. Rehn,  E. Rosta,  N. J. Russ,  N. Sergueev,  S. M. Sharada,  
 S. Sharma,  D. W. Small,  A. Sodt,  T. Stauch,  T. Stein,  D. Stuck,  
 Y.-C. Su,  A. J. W. Thom,  T. Tsuchimochi,  L. Vogt,  O. Vydrov,  T. Wang,  
 M. A. Watson,  J. Wenzel,  A. White,  C. F. Williams,  V. Vanovschi,  
 K. Yao,  S. Yeganeh,  S. R. Yost,  Z.-Q. You,  I. Y. Zhang,  X. Zhang,  
 Y. Zhao,  B. R. Brooks,  G. K. L. Chan,  D. M. Chipman,  C. J. Cramer,  
 W. A. Goddard III,  M. S. Gordon,  W. J. Hehre,  A. Klamt,  
 H. F. Schaefer III,  M. W. Schmidt,  C. D. Sherrill,  D. G. Truhlar,  
 A. Warshel,  X. Xu,  A. Aspuru-Guzik,  R. Baer,  A. T. Bell,  N. A. Besley,  
 J.-D. Chai,  A. Dreuw,  B. D. Dunietz,  T. R. Furlani,  S. R. Gwaltney,  
 C.-P. Hsu,  Y. Jung,  J. Kong,  D. S. Lambrecht,  W. Liang,  C. Ochsenfeld,  
 V. A. Rassolov,  L. V. Slipchenko,  J. E. Subotnik,  T. Van Voorhis,  
 J. M. Herbert,  A. I. Krylov,  P. M. W. Gill,  M. Head-Gordon

 Contributors to earlier versions of Q-Chem not listed above: 
 R. D. Adamson,  J. Baker,  E. F. C. Byrd,  A. K. Chakraborty,  C.-L. Cheng,  
 H. Dachsel,  R. J. Doerksen,  G. Hawkins,  A. Heyden,  S. Hirata,  
 G. Kedziora,  F. J. Keil,  C. Kelley,  P. P. Korambath,  W. Kurlancheek,  
 A. M. Lee,  M. S. Lee,  D. Liotard,  I. Lotan,  P. E. Maslen,  N. Nair,  
 D. Neuhauser,  R. Olson,  B. Peters,  J. Ritchie,  N. E. Schultz,  
 N. Shenvi,  A. C. Simmonett,  K. S. Thanthiriwatte,  Q. Wu,  W. Zhang

 Please cite Q-Chem as follows:
 Y. Shao et al., Mol. Phys. 113, 184-215 (2015)
 DOI: 10.1080/00268976.2014.952696

 Q-Chem 4.4.2 for Intel X86 Linux

 Parts of Q-Chem use Armadillo 5.200.1 (Boston Tea Smuggler).
 http://arma.sourceforge.net/

 Q-Chem begins on Fri Oct  5 22:10:27 2018  

Host: 
0

     Scratch files written to /tmpu/cab_g/afmv_a/scratch_qchem/qchem17763//
 Dec716 11556_ 22328  22283 4050   
Processing $rem in /tmpu/appuserlic/qchem4.4/serial-multicore/config/preferences.
 MEM_TOTAL  2000 
FILE_GEOM_ORG=        593

Checking the input file for inconsistencies... 	...done.

--------------------------------------------------------------
User input:
--------------------------------------------------------------
$comment
SP
$end

$rem
MEM_STATIC 5000
MEM_TOTAL 20000
JOBTYPE SP
EXCHANGE B3LYP
BASIS 6-31g(d,p)
$end

$molecule
0 1
C           8.643000     18.493000     -6.994000
C           7.331000     18.106000     -6.943000
N           9.607000     17.570000     -6.936000
C           6.987000     16.849000     -6.563000
C           9.333000     16.266000     -6.707000
C           7.968000     15.816000     -6.454000
C           7.544000     14.406000     -6.205000
C           6.416000     14.161000     -5.473000
C           8.211000     13.240000     -6.709000
N           5.828000     12.961000     -5.267000
N           9.352000     13.250000     -7.466000
C           7.649000     11.981000     -6.509000
C           6.455000     11.864000     -5.737000
S           9.617000     11.699000     -7.782000
N           8.353000     11.019000     -7.152000
C           5.748000     10.613000     -5.444000
S           6.288000      8.973000     -5.848000
C           4.439000     10.508000     -4.812000
C           4.932000      8.230000     -4.956000
S           3.181000     11.713000     -4.381000
C           4.037000      9.192000     -4.649000
C           4.673000      6.870000     -4.717000
C           2.038000     10.409000     -4.145000
C           2.688000      9.181000     -4.288000
N           5.346000      6.058000     -5.483000
S           3.604000      6.116000     -3.644000
C           4.946000      4.701000     -5.269000
C           4.121000      4.540000     -4.194000
C           9.065000     19.878000     -7.183000
H           6.524000     18.804000     -7.148000
H           5.939000     16.585000     -6.452000
H          10.142000     15.553000     -6.559000
H           5.855000     14.927000     -4.940000
H           0.999000     10.605000     -3.917000
H           2.273000      8.191000     -4.134000
H           5.442000      3.970000     -5.893000
H           3.705000      3.607000     -3.837000
H           9.971000     19.931000     -7.800000
C           9.387000     20.601000     -5.870000
H           8.260000     20.419000     -7.696000
H          10.038000     19.963000     -5.259000
H           8.477000     20.789000     -5.286000
C           9.972000     22.066000     -6.196000
H          10.984000     22.008000     -6.617000
C           9.875000     23.090000     -5.055000
H           9.325000     22.437000     -7.000000
H          10.485000     22.611000     -4.279000
H           8.835000     23.152000     -4.714000
C          10.413000     24.502000     -5.327000
H          11.464000     24.448000     -5.637000
C          10.090000     25.453000     -4.232000
H           9.855000     24.915000     -6.176000
H          10.348000     25.117000     -3.220000
H           9.118000     25.897000     -3.984000
H          10.628000     26.405000     -4.315000
C           5.007000      6.112000     -9.671000
C           4.780000      4.860000     -9.242000
N           4.282000      6.592000    -10.775000
C           3.785000      4.074000     -9.798000
C           3.374000      5.819000    -11.374000
C           3.044000      4.533000    -10.883000
C           1.995000      3.719000    -11.481000
C           0.785000      4.256000    -12.097000
C           2.257000      2.355000    -11.794000
N          -0.115000      3.495000    -12.812000
N           3.353000      1.695000    -11.407000
C           1.408000      1.591000    -12.583000
C           0.162000      2.208000    -13.115000
S           3.219000      0.171000    -12.053000
N           1.852000      0.400000    -12.913000
C          -0.803000      1.515000    -14.048000
S          -0.223000      0.464000    -15.404000
C          -2.164000      1.414000    -13.854000
C          -1.912000     -0.106000    -15.572000
S          -3.218000      1.989000    -12.549000
C          -2.760000      0.511000    -14.712000
C          -2.209000     -1.016000    -16.688000
C          -4.486000      1.086000    -13.217000
C          -4.113000      0.325000    -14.364000
N          -1.120000     -1.361000    -17.417000
S          -3.669000     -1.978000    -16.975000
C          -1.454000     -2.374000    -18.312000
C          -2.754000     -2.750000    -18.235000
C           6.029000      6.959000     -9.020000
H           5.369000      4.497000     -8.405000
H           3.582000      3.105000     -9.353000
H           2.692000      6.247000    -12.108000
H           0.558000      5.305000    -11.912000
H          -5.429000      1.228000    -12.706000
H          -4.762000     -0.291000    -14.976000
H          -0.710000     -2.626000    -19.056000
H          -3.263000     -3.328000    -18.995000
H           5.769000      7.993000     -9.278000
C           7.525000      6.614000     -9.446000
H           5.815000      6.992000     -7.945000
H           7.560000      7.017000    -10.465000
H           7.683000      5.534000     -9.560000
C           8.688000      7.221000     -8.575000
H           9.661000      6.997000     -9.030000
C           8.610000      6.613000     -7.176000
H           8.600000      8.313000     -8.509000
H           8.618000      5.523000     -7.299000
H           7.637000      6.897000     -6.756000
C           9.652000      7.175000     -6.184000
H           9.652000      8.271000     -6.136000
C          11.092000      6.742000     -6.549000
H           9.465000      6.961000     -5.125000
H          11.804000      6.941000     -5.738000
H          11.419000      7.264000     -7.457000
H          11.084000      5.659000     -6.725000
$end

--------------------------------------------------------------
 ----------------------------------------------------------------
             Standard Nuclear Orientation (Angstroms)
    I     Atom           X                Y                Z
 ----------------------------------------------------------------
    1      C     -11.2557156139     2.9784283890     0.6989929430
    2      C     -10.3800446015     3.2388979711    -0.3203548263
    3      N     -10.9771608853     2.0126798417     1.5789509001
    4      C      -9.3800526213     2.3717858584    -0.6218803205
    5      C      -9.9097245908     1.1967146482     1.4282407139
    6      C      -9.0423355838     1.2988514078     0.2590793081
    7      C      -7.8314054990     0.4665035086    -0.0068573469
    8      C      -7.4283441992     0.2561109832    -1.2958529148
    9      C      -6.9976016221    -0.1264640408     0.9989366580
   10      N      -6.2934796302    -0.3575337938    -1.7004545678
   11      N      -7.2093097544    -0.0412170224     2.3491005786
   12      C      -5.8250051926    -0.7807881985     0.6277190533
   13      C      -5.5104788340    -0.9181472351    -0.7570244842
   14      S      -5.9653145150    -0.8320456844     2.9837247758
   15      N      -5.1135833025    -1.1709450456     1.7122307079
   16      C      -4.3170536132    -1.5756169778    -1.2993977687
   17      S      -3.0897687103    -2.4660893149    -0.3800247302
   18      C      -3.9035356587    -1.5612872851    -2.6967980554
   19      C      -2.2532398802    -2.9901209874    -1.8673240688
   20      S      -4.4736028986    -0.6583340522    -4.1390354843
   21      C      -2.7422865936    -2.2866639673    -2.9097728843
   22      C      -1.1520354388    -3.8519161848    -2.0031909740
   23      C      -3.0192572488    -1.1327796548    -4.9889420091
   24      C      -2.2753704054    -2.0100703375    -4.1965239236
   25      N      -0.4960336697    -4.0550648998    -0.8953005107
   26      S      -0.5091199562    -4.6245634590    -3.3641765992
   27      C       0.6761954839    -4.8412431967    -1.1299225405
   28      C       0.7369532375    -5.3653422040    -2.3884135917
   29      C     -12.4702661477     3.7545862114     0.9323939619
   30      H     -10.4901514538     4.1140538117    -0.9547496053
   31      H      -8.7450841914     2.5566778176    -1.4838264073
   32      H      -9.7653860762     0.3522088807     2.0996052958
   33      H      -8.0031714086     0.5521233292    -2.1719330312
   34      H      -2.8019956162    -0.7646953989    -5.9825376832
   35      H      -1.3640582490    -2.5330177367    -4.4649958427
   36      H       1.2893485871    -5.0266177215    -0.2584682631
   37      H       1.5207583645    -5.9977922681    -2.7842044954
   38      H     -12.6677552283     3.8598915015     2.0067509132
   39      C     -13.7242715772     3.1228490298     0.3169587369
   40      H     -12.3310132583     4.7543991507     0.5024431285
   41      H     -13.7571348678     2.0584653825     0.5818614653
   42      H     -13.7033484290     3.1835511646    -0.7786586565
   43      C     -15.0198517551     3.9775611838     0.7478475117
   44      H     -15.2562969125     3.8372699233     1.8104674108
   45      C     -16.2554828064     3.8105279788    -0.1494717255
   46      H     -14.6977785849     5.0202247934     0.6392773950
   47      H     -16.4636226254     2.7391374131    -0.0375920073
   48      H     -15.9771126535     4.0207892227    -1.1887143667
   49      C     -17.5097768464     4.6148300575     0.2206858456
   50      H     -17.8120600618     4.3829877845     1.2495157723
   51      C     -18.5672348037     4.5276212708    -0.8194738999
   52      H     -17.2427354457     5.6783653673     0.2029225374
   53      H     -18.8273189642     3.5137346493    -1.1480985311
   54      H     -18.5855183292     5.0000973295    -1.8093507037
   55      H     -19.5323617420     4.9291663391    -0.4879191518
   56      C       1.3170224938    -0.9323751248     1.2538427876
   57      C       2.2406227507    -1.8777904334     1.0167215954
   58      N       1.7093997521     0.4169544144     1.2400267885
   59      C       3.5386095842    -1.5489213745     0.6645393669
   60      C       2.9755161738     0.7490995636     0.9803677684
   61      C       3.9471441725    -0.2189199855     0.6301475739
   62      C       5.3087216280     0.1447262725     0.2634471077
   63      C       5.6747132110     1.3763637383    -0.4301264746
   64      C       6.4040279737    -0.5375231474     0.8650688642
   65      N       6.9748892290     1.7942196074    -0.6179689481
   66      N       6.2802235867    -1.6341051033     1.6192342889
   67      C       7.7138258241    -0.0895274659     0.7613989044
   68      C       7.9981228814     1.1440202849    -0.0220320943
   69      S       7.8159569040    -2.0171309902     2.1218895863
   70      N       8.5967470393    -0.7310367930     1.4917638206
   71      C       9.3620363799     1.7814749224    -0.1459455875
   72      S      10.4899999788     1.8918795852     1.2665861573
   73      C       9.9739041013     2.1280215301    -1.3315599177
   74      C      11.7694960251     2.3500677930     0.1009110594
   75      S       9.4580847938     1.9638624769    -3.0202127084
   76      C      11.3089180988     2.4424561413    -1.1713803250
   77      C      13.0809485072     2.7232934647     0.6509655888
   78      C      11.0171934353     2.4121126343    -3.5077668496
   79      C      11.9221819477     2.6273461801    -2.4267815060
   80      N      13.1636780982     2.6016342646     1.9980891369
   81      S      14.6181049796     2.9446315426    -0.2020129776
   82      C      14.4837736210     2.7733152055     2.4062845129
   83      C      15.3347300351     3.0170907921     1.3797604534
   84      C      -0.0802706413    -1.3033408590     1.5631166442
   85      H       1.9247701430    -2.9159371830     1.0585241858
   86      H       4.2197253641    -2.3494832926     0.3936576405
   87      H       3.2394458283     1.7896880609     0.7944088572
   88      H       4.8664643186     1.9505493105    -0.8809032004
   89      H      11.1192258219     2.5105593216    -4.5803486142
   90      H      12.9524830086     2.9573401570    -2.4959530250
   91      H      14.6533341489     2.8542481063     3.4717774002
   92      H      16.3322162664     3.4179790798     1.5025399273
   93      H      -0.6815370224    -0.4121101523     1.3451566333
   94      C      -0.3033681495    -1.8011253438     3.0600986443
   95      H      -0.4479384808    -1.9574389396     0.7634379207
   96      H      -0.2251683943    -0.8598809547     3.6168201171
   97      H       0.5316098131    -2.4160661191     3.4192916912
   98      C      -1.6624225936    -2.5241189006     3.3916259204
   99      H      -1.7354399817    -2.7220676578     4.4683871523
  100      C      -1.7128098394    -3.8364665791     2.6117838235
  101      H      -2.5188160937    -1.8961808687     3.1144112003
  102      H      -0.7989351709    -4.3911074888     2.8577503894
  103      H      -1.6732996503    -3.5786807451     1.5460585264
  104      C      -3.0310150570    -4.6229717276     2.7832966677
  105      H      -3.9227371400    -4.0150715162     2.5862965160
  106      C      -3.1837850708    -5.1930134949     4.2136909163
  107      H      -3.2077212116    -5.4211759795     2.0526182794
  108      H      -3.9914632721    -5.9327606274     4.2822190353
  109      H      -3.3764135820    -4.3768483493     4.9212541372
  110      H      -2.2467405116    -5.6997687398     4.4765133201
 ----------------------------------------------------------------
 Molecular Point Group                 C1    NOp =  1
 Largest Abelian Subgroup              C1    NOp =  1
 Nuclear Repulsion Energy = 10703.7264922564 hartrees
 There are      270 alpha and      270 beta electrons
 Requested basis set is 6-31G(d,p)
 There are 406 shells and 1262 basis functions

 Total QAlloc Memory Limit  20000 MB
 Mega-Array Size      4888 MB
 MEM_STATIC part      5000 MB
 A cutoff of  1.0D-08 yielded  13541 shell pairs
 There are    139204 function pairs
 
 -------------------------------------------------------
 OpenMP Integral Computing Module                       
 Release: version 1.0, May 2013, Q-Chem Inc. Pittsburgh 
 -------------------------------------------------------
 Integral Job Info:
 Integral job number is                      11
 Integral operator is                         1
 short-range coefficients                     0
 long-range coefficients              100000000
 Omega coefficients                           0
 if combine SR and LR in K                    0
 Integral screening is                        0
 Integral computing path is                   2
 max size of driver memory is            800000
 size of driver memory is                593474
 size of scratch memory is             15166112
 max col of scratch BK array               1296
 max len of scratch array in speh3          155
 max len of scratch index in speh4           18
 max int batch size is                      520
 min int batch size is                       52
 fixed nKL is                                52
 max L of basis functions is                  2
 order of int derivative is                   0
 number of shells is                        406
 number of basis is                        1262
 number of cartesian basis is              1262
 number of contracted shell pairs         13541
 number of primitive shell pairs          43503
 maxK2 (contraction) of shell pair           36
 max number of K2 of shell pair               1
 max number of CS2 of shell pair           1336
 max number of PS2 of shell pair           7992
 mem total for path MDJ                  284120
 -------------------------------------------------------
 Smallest overlap matrix eigenvalue = 3.85E-04

 Scale SEOQF with 1.000000e-03/1.000000e-02/1.000000e-02

 Standard Electronic Orientation quadrupole field applied
 Nucleus-field energy     =     0.0000000161 hartrees
 Guess from superposition of atomic densities
 Warning:  Energy on first SCF cycle will be non-variational
 A restricted hybrid HF-DFT SCF calculation will be
 performed using Pulay DIIS extrapolation
 Exchange:     0.2000 Hartree-Fock + 0.0800 Slater + 0.7200 B88
 Correlation:  0.1900 VWN1RPA + 0.8100 LYP
 Using SG-1 standard quadrature grid
 SCF converges when DIIS error is below 1.0E-05
 using 16 threads for integral computing 
 -------------------------------------------------------
 OpenMP BLAS3 based DFT computing Module                
 Release: version 1.0, May 2013, Q-Chem Inc. Pittsburgh 
 -------------------------------------------------------
 ---------------------------------------
  Cycle       Energy         DIIS Error
 ---------------------------------------
    1   -5680.1962913834      2.15E-02
    2   -5662.4639723159      2.17E-03
    3   -5661.2691382793      3.19E-03
    4   -5663.3492375909      8.34E-04
    5   -5663.4603667309      4.01E-04
    6   -5663.4841700004      2.09E-04
    7   -5663.4926840751      5.65E-05
    8   -5663.4932280913      2.38E-05
    9   -5663.4933331758      8.62E-06 Convergence criterion met
 ---------------------------------------
 SCF time:  CPU 960.68 s  wall 84.63 s
 SCF   energy in the final basis set = -5663.4933331758
 Total energy in the final basis set = -5663.4933331758
 
 --------------------------------------------------------------
 
                    Orbital Energies (a.u.)
 --------------------------------------------------------------
 
 Alpha MOs
 -- Occupied --
-88.993 -88.983 -88.934 -88.932 -88.930 -88.921 -88.916 -88.913
-14.387 -14.383 -14.382 -14.377 -14.353 -14.350 -14.343 -14.340
-14.324 -14.323 -10.269 -10.268 -10.267 -10.266 -10.259 -10.258
-10.254 -10.251 -10.251 -10.245 -10.241 -10.240 -10.239 -10.238
-10.237 -10.235 -10.234 -10.234 -10.233 -10.229 -10.227 -10.226
-10.225 -10.225 -10.223 -10.222 -10.222 -10.219 -10.218 -10.208
-10.207 -10.204 -10.203 -10.203 -10.202 -10.199 -10.191 -10.186
-10.183 -10.182 -10.181 -10.181 -10.181 -10.176 -10.173 -10.172
-10.169 -10.169 -10.165 -10.164  -8.050  -8.039  -7.996  -7.990
 -7.989  -7.978  -7.975  -7.975  -6.015  -6.009  -6.008  -6.004
 -5.999  -5.997  -5.961  -5.957  -5.954  -5.954  -5.953  -5.951
 -5.950  -5.947  -5.946  -5.943  -5.940  -5.939  -5.939  -5.936
 -5.936  -5.935  -5.931  -5.931  -1.055  -1.039  -0.978  -0.961
 -0.955  -0.943  -0.938  -0.926  -0.915  -0.913  -0.909  -0.906
 -0.848  -0.845  -0.835  -0.828  -0.815  -0.813  -0.806  -0.802
 -0.801  -0.800  -0.797  -0.791  -0.789  -0.782  -0.776  -0.757
 -0.755  -0.751  -0.745  -0.735  -0.725  -0.722  -0.715  -0.704
 -0.700  -0.685  -0.680  -0.668  -0.655  -0.650  -0.649  -0.641
 -0.638  -0.629  -0.624  -0.618  -0.613  -0.609  -0.607  -0.600
 -0.599  -0.594  -0.587  -0.582  -0.578  -0.575  -0.572  -0.554
 -0.550  -0.546  -0.545  -0.531  -0.525  -0.524  -0.523  -0.517
 -0.509  -0.501  -0.499  -0.495  -0.491  -0.485  -0.484  -0.480
 -0.472  -0.470  -0.469  -0.468  -0.463  -0.455  -0.449  -0.448
 -0.446  -0.442  -0.440  -0.439  -0.438  -0.437  -0.433  -0.429
 -0.428  -0.424  -0.424  -0.421  -0.419  -0.418  -0.417  -0.416
 -0.407  -0.405  -0.402  -0.401  -0.400  -0.399  -0.397  -0.394
 -0.392  -0.392  -0.389  -0.387  -0.387  -0.386  -0.383  -0.382
 -0.379  -0.375  -0.372  -0.368  -0.368  -0.363  -0.355  -0.352
 -0.352  -0.350  -0.350  -0.349  -0.347  -0.344  -0.343  -0.342
 -0.339  -0.338  -0.335  -0.334  -0.330  -0.326  -0.322  -0.319
 -0.313  -0.310  -0.310  -0.306  -0.303  -0.302  -0.300  -0.298
 -0.295  -0.293  -0.290  -0.287  -0.287  -0.282  -0.282  -0.281
 -0.275  -0.273  -0.269  -0.265  -0.263  -0.257  -0.248  -0.244
 -0.243  -0.240  -0.233  -0.227  -0.196  -0.190
 -- Virtual --
 -0.112  -0.109  -0.075  -0.074  -0.039  -0.036  -0.024  -0.018
 -0.017  -0.016  -0.014  -0.009  -0.005  -0.004  -0.001   0.004
  0.006   0.008   0.012   0.016   0.022   0.024   0.027   0.035
  0.044   0.046   0.054   0.065   0.071   0.072   0.082   0.090
  0.091   0.096   0.100   0.102   0.108   0.108   0.113   0.115
  0.116   0.118   0.119   0.120   0.121   0.122   0.125   0.127
  0.127   0.132   0.134   0.136   0.139   0.142   0.143   0.144
  0.148   0.150   0.157   0.161   0.161   0.163   0.164   0.167
  0.170   0.173   0.177   0.179   0.181   0.182   0.184   0.185
  0.185   0.187   0.192   0.195   0.196   0.197   0.199   0.201
  0.204   0.209   0.210   0.210   0.218   0.218   0.219   0.220
  0.221   0.225   0.231   0.234   0.236   0.239   0.241   0.242
  0.245   0.247   0.248   0.249   0.253   0.254   0.257   0.262
  0.265   0.268   0.268   0.272   0.278   0.278   0.279   0.282
  0.285   0.289   0.292   0.294   0.298   0.300   0.301   0.308
  0.309   0.313   0.316   0.320   0.320   0.322   0.329   0.330
  0.331   0.333   0.335   0.337   0.345   0.349   0.349   0.350
  0.353   0.356   0.359   0.362   0.365   0.367   0.370   0.374
  0.376   0.377   0.379   0.381   0.389   0.391   0.397   0.397
  0.403   0.409   0.412   0.422   0.424   0.426   0.431   0.435
  0.441   0.443   0.449   0.451   0.458   0.461   0.465   0.470
  0.472   0.476   0.479   0.482   0.489   0.494   0.496   0.498
  0.501   0.503   0.505   0.508   0.511   0.511   0.515   0.516
  0.518   0.522   0.524   0.525   0.528   0.532   0.532   0.535
  0.536   0.538   0.539   0.540   0.541   0.544   0.550   0.552
  0.555   0.557   0.558   0.560   0.562   0.564   0.565   0.566
  0.568   0.572   0.574   0.576   0.578   0.580   0.581   0.582
  0.584   0.585   0.589   0.591   0.594   0.594   0.596   0.600
  0.602   0.604   0.605   0.607   0.611   0.614   0.615   0.617
  0.619   0.623   0.625   0.625   0.626   0.629   0.629   0.631
  0.635   0.638   0.640   0.642   0.644   0.644   0.647   0.647
  0.649   0.651   0.656   0.658   0.661   0.665   0.668   0.670
  0.672   0.674   0.683   0.689   0.692   0.693   0.694   0.698
  0.702   0.704   0.709   0.710   0.714   0.716   0.719   0.721
  0.726   0.728   0.731   0.735   0.736   0.740   0.746   0.752
  0.754   0.755   0.757   0.759   0.762   0.764   0.769   0.770
  0.772   0.775   0.776   0.779   0.783   0.784   0.789   0.791
  0.792   0.796   0.797   0.798   0.801   0.802   0.805   0.808
  0.810   0.813   0.817   0.817   0.821   0.822   0.823   0.825
  0.825   0.828   0.830   0.831   0.833   0.835   0.837   0.839
  0.839   0.840   0.841   0.845   0.846   0.850   0.854   0.858
  0.859   0.861   0.862   0.866   0.867   0.871   0.872   0.876
  0.878   0.880   0.884   0.888   0.890   0.891   0.891   0.892
  0.896   0.899   0.900   0.902   0.905   0.906   0.907   0.913
  0.914   0.916   0.920   0.924   0.925   0.927   0.928   0.930
  0.933   0.935   0.939   0.941   0.943   0.944   0.945   0.947
  0.949   0.951   0.956   0.958   0.961   0.962   0.963   0.970
  0.972   0.973   0.978   0.979   0.980   0.982   0.983   0.988
  0.990   0.994   0.995   1.000   1.002   1.003   1.006   1.008
  1.011   1.014   1.016   1.018   1.021   1.022   1.024   1.025
  1.027   1.028   1.033   1.036   1.040   1.043   1.045   1.047
  1.053   1.054   1.060   1.066   1.073   1.078   1.079   1.085
  1.088   1.090   1.095   1.100   1.100   1.102   1.106   1.117
  1.118   1.124   1.125   1.134   1.137   1.146   1.157   1.160
  1.164   1.169   1.171   1.175   1.176   1.182   1.187   1.195
  1.202   1.203   1.208   1.213   1.220   1.227   1.230   1.233
  1.242   1.248   1.252   1.256   1.261   1.267   1.270   1.276
  1.278   1.285   1.287   1.294   1.299   1.303   1.306   1.309
  1.314   1.317   1.319   1.322   1.326   1.330   1.334   1.335
  1.339   1.346   1.350   1.354   1.359   1.359   1.365   1.370
  1.373   1.376   1.381   1.382   1.383   1.387   1.394   1.396
  1.402   1.407   1.407   1.417   1.423   1.424   1.426   1.428
  1.437   1.438   1.445   1.448   1.456   1.458   1.469   1.472
  1.476   1.481   1.490   1.492   1.497   1.504   1.509   1.515
  1.519   1.522   1.530   1.537   1.541   1.546   1.549   1.567
  1.569   1.576   1.578   1.580   1.584   1.591   1.602   1.606
  1.615   1.618   1.623   1.626   1.630   1.643   1.645   1.655
  1.662   1.664   1.665   1.676   1.684   1.685   1.686   1.688
  1.692   1.699   1.706   1.707   1.709   1.713   1.714   1.720
  1.721   1.724   1.727   1.729   1.732   1.742   1.747   1.749
  1.754   1.754   1.763   1.766   1.768   1.775   1.780   1.782
  1.785   1.794   1.796   1.800   1.805   1.809   1.812   1.813
  1.817   1.819   1.838   1.839   1.844   1.846   1.851   1.851
  1.853   1.858   1.858   1.861   1.863   1.871   1.872   1.875
  1.880   1.880   1.888   1.889   1.890   1.890   1.895   1.896
  1.901   1.905   1.908   1.913   1.920   1.922   1.924   1.929
  1.930   1.936   1.937   1.940   1.945   1.946   1.949   1.956
  1.958   1.963   1.970   1.972   1.980   1.981   1.989   1.994
  1.998   2.002   2.008   2.009   2.010   2.015   2.019   2.025
  2.031   2.035   2.036   2.042   2.050   2.057   2.060   2.064
  2.077   2.079   2.080   2.088   2.091   2.092   2.096   2.105
  2.106   2.106   2.113   2.115   2.118   2.121   2.124   2.126
  2.136   2.137   2.145   2.147   2.154   2.155   2.162   2.164
  2.166   2.172   2.175   2.180   2.187   2.188   2.189   2.196
  2.199   2.203   2.205   2.207   2.209   2.219   2.221   2.226
  2.229   2.230   2.236   2.238   2.244   2.250   2.252   2.261
  2.265   2.266   2.270   2.271   2.274   2.278   2.284   2.285
  2.290   2.292   2.296   2.298   2.305   2.307   2.309   2.313
  2.319   2.320   2.323   2.331   2.334   2.334   2.337   2.338
  2.341   2.342   2.344   2.352   2.354   2.355   2.360   2.364
  2.367   2.371   2.372   2.372   2.374   2.378   2.383   2.384
  2.391   2.393   2.397   2.401   2.406   2.408   2.410   2.414
  2.420   2.422   2.424   2.428   2.432   2.437   2.442   2.443
  2.443   2.445   2.451   2.458   2.464   2.465   2.467   2.470
  2.474   2.478   2.484   2.488   2.488   2.494   2.497   2.501
  2.507   2.507   2.511   2.515   2.518   2.526   2.528   2.531
  2.532   2.536   2.540   2.541   2.550   2.554   2.562   2.564
  2.566   2.569   2.578   2.586   2.589   2.593   2.594   2.595
  2.599   2.609   2.612   2.617   2.636   2.641   2.641   2.654
  2.657   2.661   2.666   2.668   2.670   2.674   2.680   2.684
  2.687   2.689   2.692   2.697   2.702   2.703   2.707   2.710
  2.716   2.719   2.719   2.720   2.729   2.736   2.736   2.738
  2.743   2.756   2.767   2.769   2.774   2.778   2.781   2.787
  2.793   2.803   2.814   2.817   2.818   2.822   2.831   2.835
  2.848   2.849   2.850   2.853   2.857   2.873   2.878   2.879
  2.882   2.887   2.893   2.896   2.900   2.903   2.910   2.910
  2.914   2.916   2.932   2.935   2.941   2.942   2.950   2.959
  2.961   2.964   2.968   2.982   2.991   2.997   3.016   3.030
  3.047   3.051   3.057   3.061   3.065   3.096   3.099   3.122
  3.159   3.160   3.176   3.199   3.205   3.216   3.219   3.231
  3.236   3.242   3.247   3.249   3.257   3.266   3.275   3.276
  3.294   3.303   3.307   3.322   3.332   3.332   3.342   3.347
  3.350   3.355   3.376   3.388   3.403   3.428   3.431   3.436
  3.442   3.446   3.467   3.482   3.502   3.512   3.531   3.563
  3.566   3.573   3.580   3.581   3.590   3.592   3.596   3.623
  3.626   3.629   3.762   3.781   3.845   3.868   3.926   3.931
  3.931   3.941   3.944   3.946   3.972   3.975   3.978   3.989
  3.999   4.019   4.073   4.074   4.083   4.106   4.108   4.117
  4.119   4.122   4.133   4.136   4.157   4.160   4.181   4.190
  4.202   4.208   4.236   4.247   4.256   4.261   4.270   4.278
  4.286   4.302   4.335   4.353   4.377   4.378   4.382   4.392
  4.423   4.426   4.461   4.462   4.468   4.475   4.483   4.500
  4.501   4.506   4.536   4.540   4.582   4.624   4.665   4.671
  4.697   4.708   4.709   4.713   4.755   4.765   4.801   4.809
 --------------------------------------------------------------
 
          Ground-State Mulliken Net Atomic Charges

     Atom                 Charge (a.u.)
  ----------------------------------------
      1 C                     0.290382
      2 C                    -0.116107
      3 N                    -0.496330
      4 C                    -0.068387
      5 C                     0.094206
      6 C                     0.006827
      7 C                     0.079047
      8 C                     0.027189
      9 C                     0.195813
     10 N                    -0.530192
     11 N                    -0.548395
     12 C                     0.209785
     13 C                     0.327777
     14 S                     0.626906
     15 N                    -0.550955
     16 C                    -0.261131
     17 S                     0.393473
     18 C                    -0.142384
     19 C                    -0.206879
     20 S                     0.289804
     21 C                     0.168310
     22 C                     0.064299
     23 C                    -0.317401
     24 C                    -0.072581
     25 N                    -0.447806
     26 S                     0.282796
     27 C                     0.111504
     28 C                    -0.307689
     29 C                    -0.221015
     30 H                     0.085267
     31 H                     0.097040
     32 H                     0.119028
     33 H                     0.113313
     34 H                     0.141404
     35 H                     0.086520
     36 H                     0.118319
     37 H                     0.141560
     38 H                     0.121288
     39 C                    -0.182815
     40 H                     0.094226
     41 H                     0.112278
     42 H                     0.092289
     43 C                    -0.186501
     44 H                     0.094212
     45 C                    -0.172557
     46 H                     0.088999
     47 H                     0.094214
     48 H                     0.090241
     49 C                    -0.166421
     50 H                     0.100468
     51 C                    -0.330160
     52 H                     0.096884
     53 H                     0.097894
     54 H                     0.105290
     55 H                     0.096420
     56 C                     0.261338
     57 C                    -0.097347
     58 N                    -0.493549
     59 C                    -0.049243
     60 C                     0.087638
     61 C                     0.032737
     62 C                     0.010062
     63 C                     0.045555
     64 C                     0.257020
     65 N                    -0.488121
     66 N                    -0.565725
     67 C                     0.213623
     68 C                     0.232929
     69 S                     0.584401
     70 N                    -0.540893
     71 C                    -0.215010
     72 S                     0.358899
     73 C                    -0.103286
     74 C                    -0.252767
     75 S                     0.285258
     76 C                     0.184546
     77 C                     0.065491
     78 C                    -0.304056
     79 C                    -0.095019
     80 N                    -0.441613
     81 S                     0.276406
     82 C                     0.128410
     83 C                    -0.315999
     84 C                    -0.253956
     85 H                     0.082549
     86 H                     0.103003
     87 H                     0.097287
     88 H                     0.119756
     89 H                     0.141345
     90 H                     0.101646
     91 H                     0.119108
     92 H                     0.129632
     93 H                     0.114375
     94 C                    -0.187603
     95 H                     0.136370
     96 H                     0.104443
     97 H                     0.093774
     98 C                    -0.188810
     99 H                     0.090292
    100 C                    -0.170433
    101 H                     0.103849
    102 H                     0.077741
    103 H                     0.121099
    104 C                    -0.187193
    105 H                     0.096306
    106 C                    -0.316398
    107 H                     0.088078
    108 H                     0.093319
    109 H                     0.100559
    110 H                     0.098610
  ----------------------------------------
  Sum of atomic charges =     0.000000

 -----------------------------------------------------------------
                    Cartesian Multipole Moments
 -----------------------------------------------------------------
    Charge (ESU x 10^10)
                 0.0000
    Dipole Moment (Debye)
         X       2.2106      Y      -1.9911      Z      -4.1751
       Tot       5.1267
    Quadrupole Moments (Debye-Ang)
        XX    -392.3615     XY     -17.0445     YY    -430.2793
        XZ       1.0073     YZ      -4.0871     ZZ    -427.3790
    Octopole Moments (Debye-Ang^2)
       XXX     939.3209    XXY     393.9411    XYY      10.3823
       YYY     -66.4969    XXZ    -212.3864    XYZ      54.3778
       YYZ     -45.3696    XZZ     117.9063    YZZ      -2.2238
       ZZZ     -92.6756
    Hexadecapole Moments (Debye-Ang^3)
      XXXX -179280.7931   XXXY    2328.2448   XXYY  -34892.9772
      XYYY    -981.1790   YYYY  -18591.2170   XXXZ    2018.3273
      XXYZ    -875.3704   XYYZ     124.6123   YYYZ     204.7943
      XXZZ  -34297.5292   XYZZ     195.7953   YYZZ   -5040.1574
      XZZZ    -113.8807   YZZZ     -41.5258   ZZZZ  -11097.4640
 -----------------------------------------------------------------
Archival summary:
1\1\mn426\SP\ProcedureUnspecified\6-31G**\8105042\afmv_a\FriOct522:11:562018FriOct522:11:562018\0\\#,ProcedureUnspecified,6-31G**,\\0,1\S\C,1,1.77325\C,2,1.45737,1,107.8\C,3,1.38565,2,112.335,1,-3.13131,0\C,4,1.34934,3,117.252,2,-6.46578,0\C,4,1.39651,3,108.55,2,168.529,0\H,6,1.08445,4,114.429,3,179.928,0\C,6,1.39676,4,117.974,3,0.94722,0\H,8,1.08163,6,128.897,4,-177.046,0\C,5,1.40492,4,121.949,3,-174.262,0\N,10,1.30347,5,114.072,4,-155.409,0\C,11,1.43082,10,111.013,5,174.797,0\H,12,1.08155,11,115.246,10,-178.247,0\C,12,1.36461,11,113.499,10,9.40785,0\H,14,1.08212,12,126.443,11,179.242,0\C,2,1.46653,1,126.627,3,177.675,0\N,16,1.34812,2,113.595,1,177.677,0\C,17,1.3521,16,117.828,2,-179.072,0\H,18,1.08884,17,109.009,16,173.464,0\C,18,1.36683,17,126.839,16,-5.46322,0\C,16,1.42664,2,125.56,1,-6.02771,0\N,21,1.35444,16,129.32,2,-2.02351,0\C,21,1.39317,16,119.302,2,-179.85,0\N,23,1.36932,21,114.967,16,179.791,0\C,20,1.49328,18,119.53,17,-173.145,0\C,25,1.42875,20,120.03,18,31.4197,0\H,26,1.08643,25,118.61,20,-0.551882,0\C,26,1.35749,25,121.121,20,172.201,0\H,28,1.0865,26,117.353,25,-171.188,0\C,28,1.36884,26,121.005,25,12.2404,0\N,30,1.33589,28,119.65,26,-13.6388,0\C,31,1.35201,30,121.837,28,6.05868,0\H,32,1.08846,31,120.278,30,173.449,0\C,30,1.46015,28,123.367,26,169.778,0\H,34,1.09721,30,108.431,28,24.6205,0\H,34,1.09742,30,110.927,28,143.795,0\C,34,1.5331,30,113.401,28,-96.3135,0\H,37,1.09734,34,109.104,30,-47.839,0\H,37,1.0975,34,111.245,30,70.1856,0\S,22,1.56748,21,107.567,16,177.285,0\C,37,1.61082,34,109.381,30,-174.692,0\H,41,1.09666,37,103.992,34,-42.7186,0\H,41,1.09761,37,111.371,34,71.3655,0\C,41,1.53619,37,115.658,34,-158.941,0\H,44,1.09623,41,109.187,37,54.1693,0\H,44,1.09714,41,101.491,37,-61.2739,0\C,44,1.53531,41,117.344,37,179.613,0\H,47,1.09669,44,107.77,41,-59.2867,0\H,47,1.09709,44,109.907,41,56.615,0\C,47,1.48585,44,112.451,41,-171.69,0\H,50,1.09665,47,113.153,44,-168.785,0\H,50,1.09701,47,128.189,44,72.8316,0\H,50,1.09709,47,115.636,44,-50.6857,0\S,10,1.69192,5,130.977,4,22.309,0\S,8,1.75002,6,109.716,4,3.44009,0\H,13,2.56772,12,114.373,11,51.8405,0\C,56,1.08594,13,146.936,12,40.8647,0\C,57,1.34279,56,117.79,13,-102.977,0\C,57,1.38454,56,120.633,13,73.8914,0\H,59,1.08545,57,118.461,56,-2.39538,0\C,59,1.39176,57,120.562,56,179.069,0\N,58,1.40529,57,118.832,56,-178.349,0\C,62,1.33446,58,120.385,57,-0.751166,0\H,63,1.08952,62,120.051,58,-169.042,0\C,61,1.45623,59,121.287,57,-179.931,0\C,65,1.42377,61,119.553,59,47.8691,0\N,66,1.33663,65,124.076,61,-9.85148,0\C,66,1.38817,65,122.661,61,167.66,0\N,68,1.31321,66,115.798,65,-172.489,0\C,65,1.46011,61,124.376,59,-148.006,0\H,70,1.08911,65,117.084,61,13.3168,0\N,70,1.37853,65,123.837,61,-171.189,0\C,72,1.35089,70,120.557,65,7.73352,0\C,58,1.47841,57,120.688,56,-0.110628,0\H,74,1.09659,58,108.301,57,54.1321,0\H,74,1.09696,58,105.82,57,159.465,0\C,73,1.51062,72,116.398,70,172.435,0\C,77,1.37846,73,125.269,72,54.8602,0\C,78,1.38087,77,112.744,73,167.902,0\C,79,1.35624,78,114.938,77,-0.231371,0\C,79,1.40936,78,110.318,77,-172.79,0\H,81,1.08407,79,120.685,78,-175.127,0\C,81,1.42613,79,112.287,78,1.33725,0\H,83,1.08191,81,132.677,79,-176.463,0\C,80,1.47029,79,129.537,78,173.744,0\N,85,1.35513,80,113.801,79,-174.609,0\C,86,1.39239,85,109.77,80,-170.875,0\H,87,1.08193,86,116.52,85,-170.632,0\C,87,1.35547,86,113.288,85,-0.175606,0\H,89,1.08202,87,124.017,86,-163.982,0\C,74,1.59327,58,114.035,57,-77.8275,0\H,91,1.09636,74,101.472,58,-73.2725,0\H,91,1.09743,74,112.089,58,38.4022,0\C,91,1.57469,74,117.523,58,166.256,0\H,94,1.09724,91,110.296,74,174.143,0\H,94,1.09753,91,110.951,74,55.2516,0\C,94,1.5274,91,108.389,74,-65.2415,0\H,97,1.09695,94,107.006,91,-54.1134,0\H,97,1.09717,94,107.03,91,61.2908,0\C,97,1.54456,94,114.14,91,176.964,0\H,100,1.09647,97,115.737,94,-164.848,0\H,100,1.09705,97,113.055,94,-51.9293,0\C,100,1.54736,97,111.993,94,68.8459,0\H,103,1.09721,100,109.842,97,-70.9654,0\H,103,1.09724,100,107.894,97,48.7197,0\H,103,1.09739,100,112.255,97,167.099,0\S,69,1.63117,68,106.152,66,-8.17767,0\S,83,1.69395,81,113.943,79,1.12069,0\S,89,1.73805,87,115.016,86,4.27842,0\S,80,1.79049,79,112.674,78,2.02113,0\\\@

 Total job time:  88.27s(wall), 971.02s(cpu) 
 Fri Oct  5 22:11:56 2018

        *************************************************************
        *                                                           *
        *  Thank you very much for using Q-Chem.  Have a nice day.  *
        *                                                           *
        *************************************************************


