
Running Job 1 of 1 ./7/50.qcin
qchem ./7/50.qcin_18862.0 /tmpu/cab_g/afmv_a/scratch_qchem/qchem18862/ 1
/tmpu/appuserlic/qchem4.4/serial-multicore/exe/qcprog.exe_s ./7/50.qcin_18862.0 /tmpu/cab_g/afmv_a/scratch_qchem/qchem18862/
Check license passed

                  Welcome to Q-Chem
     A Quantum Leap Into The Future Of Chemistry


 Q-Chem 4.4, Q-Chem, Inc., Pleasanton, CA (2016)

 Y. Shao,  Z. Gan,  E. Epifanovsky,  A. T. B. Gilbert,  M. Wormit,  
 J. Kussmann,  A. W. Lange,  A. Behn,  J. Deng,  X. Feng,  D. Ghosh,  
 M. Goldey,  P. R. Horn,  L. D. Jacobson,  I. Kaliman,  F. Rob,  
 R. Z. Khaliullin,  T. Kus,  A. Landau,  J. Liu,  E. I. Proynov,  Y. M. Rhee,  
 R. M. Richard,  M. A. Rohrdanz,  R. P. Steele,  E. J. Sundstrom,  
 H. L. Woodcock III,  P. M. Zimmerman,  D. Zuev,  B. Albrecht,  E. Alguire,  
 B. Austin,  S. A. Baeppler,  G. J. O. Beran,  Y. A. Bernard,  E. Berquist,  
 K. Brandhorst,  K. B. Bravaya,  S. T. Brown,  D. Casanova,  C.-M. Chang,  
 Y. Chen,  S. H. Chien,  K. D. Closser,  M. P. Coons,  D. L. Crittenden,  
 S. Dasgupta,  M. Diedenhofen,  R. A. DiStasio Jr.,  H. Do,  A. D. Dutoi,  
 R. G. Edgar,  P.-T. Fang,  S. Fatehi,  Q. Feng,  L. Fusti-Molnar,  
 A. Ghysels,  A. Golubeva-Zadorozhnaya,  J. Gomes,  A. Gunina,  
 M. W. D. Hanson-Heine,  P. H. P. Harbach,  A. W. Hauser,  J. E. Herr,  
 E. G. Hohenstein,  Z. C. Holden,  K. Hui,  T.-C. Jagau,  H. Ji,  B. Kaduk,  
 K. Khistyaev,  Jaehoon Kim,  Jihan Kim,  R. A. King,  P. Klunzinger,  
 K. Koh,  D. Kosenkov,  T. Kowalczyk,  C. M. Krauter,  A. Kunitsa,  
 K. U. Lao,  A. Laurent,  K. V. Lawler,  J. Lee,  D. Lefrancois,  S. Lehtola,  
 S. V. Levchenko,  C. Y. Lin,  Y.-S. Lin,  F. Liu,  E. Livshits,  
 R. C. Lochan,  A. Luenser,  P. Manohar,  S. F. Manzer,  S.-P. Mao,  Y. Mao,  
 N. Mardirossian,  A. V. Marenich,  L. A. Martinez-Martinez,  S. A. Maurer,  
 N. J. Mayhall,  J.-M. Mewes,  A. F. Morrison,  K. Nanda,  T. S. Nguyen-Beck,  
 C. M. Oana,  R. Olivares-Amaya,  D. P. O'Neill,  J. A. Parkhill,  
 T. M. Perrine,  R. Peverati,  P. A. Pieniazek,  F. Plasser,  A. Prociuk,  
 D. R. Rehn,  E. Rosta,  N. J. Russ,  N. Sergueev,  S. M. Sharada,  
 S. Sharma,  D. W. Small,  A. Sodt,  T. Stauch,  T. Stein,  D. Stuck,  
 Y.-C. Su,  A. J. W. Thom,  T. Tsuchimochi,  L. Vogt,  O. Vydrov,  T. Wang,  
 M. A. Watson,  J. Wenzel,  A. White,  C. F. Williams,  V. Vanovschi,  
 K. Yao,  S. Yeganeh,  S. R. Yost,  Z.-Q. You,  I. Y. Zhang,  X. Zhang,  
 Y. Zhao,  B. R. Brooks,  G. K. L. Chan,  D. M. Chipman,  C. J. Cramer,  
 W. A. Goddard III,  M. S. Gordon,  W. J. Hehre,  A. Klamt,  
 H. F. Schaefer III,  M. W. Schmidt,  C. D. Sherrill,  D. G. Truhlar,  
 A. Warshel,  X. Xu,  A. Aspuru-Guzik,  R. Baer,  A. T. Bell,  N. A. Besley,  
 J.-D. Chai,  A. Dreuw,  B. D. Dunietz,  T. R. Furlani,  S. R. Gwaltney,  
 C.-P. Hsu,  Y. Jung,  J. Kong,  D. S. Lambrecht,  W. Liang,  C. Ochsenfeld,  
 V. A. Rassolov,  L. V. Slipchenko,  J. E. Subotnik,  T. Van Voorhis,  
 J. M. Herbert,  A. I. Krylov,  P. M. W. Gill,  M. Head-Gordon

 Contributors to earlier versions of Q-Chem not listed above: 
 R. D. Adamson,  J. Baker,  E. F. C. Byrd,  A. K. Chakraborty,  C.-L. Cheng,  
 H. Dachsel,  R. J. Doerksen,  G. Hawkins,  A. Heyden,  S. Hirata,  
 G. Kedziora,  F. J. Keil,  C. Kelley,  P. P. Korambath,  W. Kurlancheek,  
 A. M. Lee,  M. S. Lee,  D. Liotard,  I. Lotan,  P. E. Maslen,  N. Nair,  
 D. Neuhauser,  R. Olson,  B. Peters,  J. Ritchie,  N. E. Schultz,  
 N. Shenvi,  A. C. Simmonett,  K. S. Thanthiriwatte,  Q. Wu,  W. Zhang

 Please cite Q-Chem as follows:
 Y. Shao et al., Mol. Phys. 113, 184-215 (2015)
 DOI: 10.1080/00268976.2014.952696

 Q-Chem 4.4.2 for Intel X86 Linux

 Parts of Q-Chem use Armadillo 5.200.1 (Boston Tea Smuggler).
 http://arma.sourceforge.net/

 Q-Chem begins on Fri Oct  5 22:48:50 2018  

Host: 
0

     Scratch files written to /tmpu/cab_g/afmv_a/scratch_qchem/qchem18862//
 Dec716 11556_ 22328  22283 4050   
Processing $rem in /tmpu/appuserlic/qchem4.4/serial-multicore/config/preferences.
 MEM_TOTAL  2000 
FILE_GEOM_ORG=        593

Checking the input file for inconsistencies... 	...done.

--------------------------------------------------------------
User input:
--------------------------------------------------------------
$comment
SP
$end

$rem
MEM_STATIC 5000
MEM_TOTAL 20000
JOBTYPE SP
EXCHANGE B3LYP
BASIS 6-31g(d,p)
$end

$molecule
0 1
C          20.705000      7.050000     -1.900000
C          21.028000      8.399000     -1.650000
N          19.953000      6.294000     -1.095000
C          20.636000      9.008000     -0.437000
C          19.476000      6.888000     -0.008000
C          19.820000      8.252000      0.375000
C          19.248000      8.832000      1.593000
C          17.972000      9.452000      1.684000
C          20.029000      8.660000      2.804000
N          17.438000      9.923000      2.847000
N          21.056000      7.830000      2.996000
C          19.409000      9.140000      3.975000
C          18.153000      9.821000      3.998000
S          21.472000      8.052000      4.558000
N          20.189000      8.910000      5.071000
C          17.498000     10.376000      5.140000
S          18.218000     10.407000      6.748000
C          16.157000     10.663000      5.258000
C          16.764000     11.136000      7.488000
S          14.797000     10.440000      4.134000
C          15.767000     11.073000      6.528000
C          16.539000     11.606000      8.813000
C          13.801000     11.206000      5.391000
C          14.364000     11.454000      6.633000
N          17.669000     11.826000      9.452000
S          15.276000     10.976000      9.769000
C          17.506000     11.804000     10.790000
C          16.278000     11.369000     11.145000
C          21.231000      6.275000     -3.125000
H          21.654000      8.918000     -2.370000
H          20.927000     10.047000     -0.309000
H          18.883000      6.255000      0.650000
H          17.306000      9.641000      0.844000
H          12.761000     11.392000      5.157000
H          13.770000     11.888000      7.429000
H          18.348000     12.024000     11.432000
H          15.745000     11.307000     12.085000
H          22.319000      6.397000     -3.196000
C          20.442000      6.653000     -4.432000
H          21.169000      5.194000     -2.950000
H          19.405000      6.295000     -4.406000
H          20.865000      6.100000     -5.280000
C          20.346000      8.167000     -4.798000
H          19.819000      8.662000     -3.973000
C          19.456000      8.401000     -5.953000
H          21.292000      8.685000     -5.000000
H          19.429000      9.491000     -6.075000
H          18.406000      8.174000     -5.732000
C          19.770000      7.609000     -7.211000
H          20.626000      8.036000     -7.748000
C          18.550000      7.821000     -8.110000
H          20.026000      6.581000     -6.926000
H          17.697000      7.131000     -8.106000
H          18.833000      7.850000     -9.170000
H          18.251000      8.877000     -8.092000
C           7.158000     21.813000     12.981000
C           6.933000     20.577000     12.396000
N           8.396000     22.297000     13.118000
C           7.965000     19.771000     11.879000
C           9.389000     21.613000     12.421000
C           9.280000     20.336000     11.842000
C          10.446000     19.717000     11.104000
C          11.774000     20.298000     11.197000
C          10.301000     18.691000     10.101000
N          12.837000     19.849000     10.577000
N           9.106000     18.312000      9.616000
C          11.435000     18.276000      9.334000
C          12.711000     18.725000      9.737000
S           9.473000     17.251000      8.365000
N          11.091000     17.311000      8.418000
C          13.909000     18.102000      9.130000
S          13.990000     16.740000      8.021000
C          15.202000     18.581000      9.204000
C          15.752000     16.733000      8.025000
S          15.676000     20.072000     10.139000
C          16.231000     17.853000      8.620000
C          16.486000     15.771000      7.291000
C          17.345000     19.600000      9.600000
C          17.446000     18.425000      8.900000
N          17.816000     15.771000      7.370000
S          15.840000     14.515000      6.295000
C          18.375000     14.691000      6.660000
C          17.424000     13.932000      5.951000
C           6.017000     22.703000     13.408000
H           5.891000     20.287000     12.297000
H           7.704000     18.789000     11.496000
H          10.312000     22.184000     12.325000
H          11.907000     21.228000     11.748000
H          18.060000     20.306000     10.002000
H          18.385000     18.024000      8.535000
H          19.446000     14.536000      6.630000
H          17.473000     13.115000      5.242000
H           6.292000     23.024000     14.420000
C           4.570000     22.106000     13.467000
H           6.019000     23.593000     12.767000
H           4.679000     21.267000     14.165000
H           4.302000     21.830000     12.440000
C           3.477000     23.092000     14.042000
H           3.822000     23.583000     14.961000
C           2.123000     22.352000     14.357000
H           3.404000     23.904000     13.307000
H           2.246000     21.395000     14.880000
H           1.628000     22.194000     13.391000
C           1.091000     23.230000     15.151000
H           1.593000     23.707000     16.001000
C          -0.002000     22.281000     15.715000
H           0.711000     24.047000     14.525000
H          -0.688000     22.768000     16.419000
H           0.495000     21.531000     16.342000
H          -0.640000     21.857000     14.930000
$end

--------------------------------------------------------------
 ----------------------------------------------------------------
             Standard Nuclear Orientation (Angstroms)
    I     Atom           X                Y                Z
 ----------------------------------------------------------------
    1      C     -12.4443701725     1.5314795233     0.0213208590
    2      C     -11.6974099247     1.2290089451    -1.1350492969
    3      N     -11.9844290108     1.4053475037     1.2693632627
    4      C     -10.4089428587     0.6615954125    -1.0175397110
    5      C     -10.7310613367     0.9864109856     1.3938448560
    6      C      -9.9088418743     0.5741439765     0.2626896637
    7      C      -8.5328818955     0.1240345803     0.4890603070
    8      C      -7.4016594550     0.9763820452     0.6102897967
    9      C      -8.3584522217    -1.3018232795     0.6953844518
   10      N      -6.1426555557     0.5321449536     0.8880101381
   11      N      -9.3043242421    -2.2048918232     0.9605001367
   12      C      -7.0410988275    -1.6923962086     1.0085518539
   13      C      -5.9258811362    -0.7998456934     1.0468804222
   14      S      -8.4892606583    -3.6067984722     1.1408140354
   15      N      -6.9674887815    -3.0383832950     1.2216629145
   16      C      -4.5624682798    -1.1398820330     1.3051335359
   17      S      -4.0020963787    -2.7971911100     1.5156922117
   18      C      -3.5716381235    -0.2873417893     1.7364161974
   19      C      -2.3249756098    -2.2861836865     1.8610823381
   20      S      -3.5976137346     1.4420273179     2.1503156525
   21      C      -2.3659786585    -0.9122330635     2.0347384223
   22      C      -1.1450401537    -3.0593826026     2.0536070265
   23      C      -1.8521939647     1.2673006913     2.4363251503
   24      C      -1.2934499528    -0.0009022250     2.4138865177
   25      N      -1.2771766839    -4.2796322359     1.5770026101
   26      S      -0.2353975426    -2.9363880241     3.4900706194
   27      C      -0.4094972659    -5.1410870884     2.1447393137
   28      C       0.2391567440    -4.5913097047     3.1936562808
   29      C     -13.9115183769     2.0036877914    -0.0278878600
   30      H     -12.1736001245     1.3620482197    -2.1020965786
   31      H      -9.8954554378     0.4466178425    -1.9506534838
   32      H     -10.3760344947     0.8673742050     2.4161404034
   33      H      -7.4123130019     2.0555468159     0.4682795871
   34      H      -1.2968212718     2.1620694992     2.6851261801
   35      H      -0.2384168759    -0.1404385788     2.6194170815
   36      H      -0.3777131946    -6.1665853423     1.8028751533
   37      H       1.0573942710    -4.9138100220     3.8245397048
   38      H     -14.4952695816     1.3203057445    -0.6570877559
   39      C     -14.0186948035     3.5199552439    -0.4317445498
   40      H     -14.3996739589     1.8390158158     0.9404185317
   41      H     -13.6268946603     4.1836589637     0.3494078171
   42      H     -15.0770355445     3.8053561887    -0.4797359741
   43      C     -13.3033281030     3.9633721960    -1.7458982281
   44      H     -12.2335879502     3.7614867958    -1.6107046981
   45      C     -13.3474638578     5.4277007584    -1.9321101951
   46      H     -13.6549449135     3.5015001065    -2.6770715694
   47      H     -12.7727455879     5.6154217885    -2.8476279312
   48      H     -12.7575195329     5.9684374019    -1.1821504789
   49      C     -14.7245488760     6.0675675858    -1.8808140387
   50      H     -15.2756657242     5.9036823986    -2.8150762424
   51      C     -14.4447367797     7.5700795648    -1.8052631044
   52      H     -15.2962085703     5.6095254616    -1.0641454362
   53      H     -14.3618256350     8.0993585798    -0.8478110344
   54      H     -15.2120646032     8.1481927542    -2.3358506577
   55      H     -13.6540510694     7.8396431250    -2.5173112730
   56      C      12.5062705477     1.0851946406    -0.4004568703
   57      C      11.5721360212     1.5722039912     0.4999655744
   58      N      12.1703683607     0.1750538612    -1.3194141502
   59      C      10.2194497929     1.1821714603     0.4919910732
   60      C      10.8042172367    -0.0486132794    -1.4721168569
   61      C       9.7845570064     0.3516864871    -0.5901281315
   62      C       8.3344893333     0.0443000517    -0.8904251893
   63      C       7.9781710090    -0.8882593014    -1.9454912085
   64      C       7.2305839551     0.7955889556    -0.3457529036
   65      N       6.7541267441    -1.1982892175    -2.2941559309
   66      N       7.3979816129     1.9367212107     0.3446717488
   67      C       5.8996150897     0.5462380889    -0.8070727759
   68      C       5.6788295862    -0.5855726043    -1.6209795987
   69      S       5.8393529778     2.5153511399     0.5922099941
   70      N       4.9943691049     1.3749604625    -0.1887153272
   71      C       4.2856424472    -1.0102318643    -1.8864529656
   72      S       2.7973720306    -0.3614052534    -1.2115002295
   73      C       3.8787434704    -1.9126177731    -2.8492088507
   74      C       1.8036177477    -1.5696506104    -2.0222434580
   75      S       5.0267013939    -2.8050826437    -3.9481542818
   76      C       2.5334395154    -2.2461876249    -2.9428540464
   77      C       0.4004397356    -1.6099405140    -1.8421762765
   78      C       3.4958813229    -3.5899866849    -4.5307189190
   79      C       2.3457522436    -3.2378932031    -3.8718871643
   80      N      -0.3018241808    -2.5767180103    -2.4315044230
   81      S      -0.5504989233    -0.5381861133    -0.8757777191
   82      C      -1.6606821831    -2.5235041721    -2.0659169273
   83      C      -1.9828249523    -1.4147410571    -1.2596716848
   84      C      13.9159390901     1.6213111040    -0.4419747984
   85      H      11.9324649682     2.3351010467     1.1839364309
   86      H       9.5717877764     1.5659653898     1.2745318914
   87      H      10.5587314760    -0.5677822571    -2.3980684290
   88      H       8.7668009673    -1.3103336688    -2.5668655057
   89      H       3.7392431910    -4.3184432819    -5.2932089107
   90      H       1.3696327605    -3.6446904746    -4.1115822512
   91      H      -2.3711588662    -3.2455319833    -2.4478393312
   92      H      -2.9015954675    -0.9940536331    -0.8705009875
   93      H      14.5435559589     0.7224036494    -0.4715121316
   94      C      14.4195817488     2.5237159291     0.7351864497
   95      H      14.0525601297     2.1511488519    -1.3925491786
   96      H      14.2836054995     1.8803766097     1.6130423488
   97      H      13.8052503667     3.4320572377     0.7196294568
   98      C      15.9450715977     2.9266817520     0.6459157007
   99      H      16.5769392857     2.0600059437     0.4129280012
  100      C      16.4644067652     3.5690722588     1.9867238229
  101      H      16.0233292620     3.5702651072    -0.2398462329
  102      H      16.1490425691     3.0344602460     2.8918439362
  103      H      16.0821940867     4.5970867875     2.0023634293
  104      C      18.0220724946     3.7633550362     2.0344278863
  105      H      18.5167642844     2.8383775858     1.7154768722
  106      C      18.4201521895     4.0310511271     3.5119993260
  107      H      18.3403237663     4.5381041465     1.3257354677
  108      H      19.5034592444     4.0251312193     3.6846022794
  109      H      18.0754284009     3.1805338772     4.1123524864
  110      H      18.0710473093     5.0057617949     3.8740903318
 ----------------------------------------------------------------
 Molecular Point Group                 C1    NOp =  1
 Largest Abelian Subgroup              C1    NOp =  1
 Nuclear Repulsion Energy = 10771.7138914513 hartrees
 There are      270 alpha and      270 beta electrons
 Requested basis set is 6-31G(d,p)
 There are 406 shells and 1262 basis functions

 Total QAlloc Memory Limit  20000 MB
 Mega-Array Size      4888 MB
 MEM_STATIC part      5000 MB
 A cutoff of  1.0D-08 yielded  13049 shell pairs
 There are    137877 function pairs
 
 -------------------------------------------------------
 OpenMP Integral Computing Module                       
 Release: version 1.0, May 2013, Q-Chem Inc. Pittsburgh 
 -------------------------------------------------------
 Integral Job Info:
 Integral job number is                      11
 Integral operator is                         1
 short-range coefficients                     0
 long-range coefficients              100000000
 Omega coefficients                           0
 if combine SR and LR in K                    0
 Integral screening is                        0
 Integral computing path is                   2
 max size of driver memory is            800000
 size of driver memory is                593474
 size of scratch memory is             15166112
 max col of scratch BK array               1296
 max len of scratch array in speh3          155
 max len of scratch index in speh4           18
 max int batch size is                      520
 min int batch size is                       52
 fixed nKL is                                52
 max L of basis functions is                  2
 order of int derivative is                   0
 number of shells is                        406
 number of basis is                        1262
 number of cartesian basis is              1262
 number of contracted shell pairs         13049
 number of primitive shell pairs          42597
 maxK2 (contraction) of shell pair           36
 max number of K2 of shell pair               1
 max number of CS2 of shell pair           1355
 max number of PS2 of shell pair           7992
 mem total for path MDJ                  288072
 -------------------------------------------------------
 Smallest overlap matrix eigenvalue = 5.41E-04

 Scale SEOQF with 1.000000e-03/1.000000e-02/1.000000e-02

 Standard Electronic Orientation quadrupole field applied
 Nucleus-field energy     =     0.0000000210 hartrees
 Guess from superposition of atomic densities
 Warning:  Energy on first SCF cycle will be non-variational
 A restricted hybrid HF-DFT SCF calculation will be
 performed using Pulay DIIS extrapolation
 Exchange:     0.2000 Hartree-Fock + 0.0800 Slater + 0.7200 B88
 Correlation:  0.1900 VWN1RPA + 0.8100 LYP
 Using SG-1 standard quadrature grid
 SCF converges when DIIS error is below 1.0E-05
 using 16 threads for integral computing 
 -------------------------------------------------------
 OpenMP BLAS3 based DFT computing Module                
 Release: version 1.0, May 2013, Q-Chem Inc. Pittsburgh 
 -------------------------------------------------------
 ---------------------------------------
  Cycle       Energy         DIIS Error
 ---------------------------------------
    1   -5679.9854928286      2.14E-02
    2   -5662.4683544325      2.15E-03
    3   -5660.6415073950      3.53E-03
    4   -5663.2017462032      1.10E-03
    5   -5663.4479351975      3.85E-04
    6   -5663.4627555809      2.71E-04
    7   -5663.4769708668      1.02E-04
    8   -5663.4788407880      3.77E-05
    9   -5663.4791098799      1.68E-05
   10   -5663.4791665257      4.69E-06 Convergence criterion met
 ---------------------------------------
 SCF time:  CPU 1046.78 s  wall 96.00 s
 SCF   energy in the final basis set = -5663.4791665257
 Total energy in the final basis set = -5663.4791665257
 
 --------------------------------------------------------------
 
                    Orbital Energies (a.u.)
 --------------------------------------------------------------
 
 Alpha MOs
 -- Occupied --
-88.990 -88.989 -88.932 -88.923 -88.919 -88.918 -88.917 -88.903
-14.391 -14.389 -14.383 -14.382 -14.355 -14.351 -14.343 -14.338
-14.328 -14.328 -10.267 -10.265 -10.263 -10.259 -10.259 -10.258
-10.258 -10.257 -10.245 -10.241 -10.239 -10.239 -10.239 -10.237
-10.236 -10.234 -10.233 -10.230 -10.229 -10.229 -10.228 -10.227
-10.227 -10.226 -10.226 -10.224 -10.223 -10.221 -10.218 -10.212
-10.212 -10.211 -10.210 -10.209 -10.201 -10.199 -10.190 -10.189
-10.188 -10.186 -10.185 -10.184 -10.184 -10.183 -10.182 -10.177
-10.175 -10.173 -10.170 -10.168  -8.046  -8.044  -7.995  -7.982
 -7.979  -7.979  -7.976  -7.961  -6.011  -6.009  -6.005  -6.004
 -6.003  -6.002  -5.959  -5.955  -5.952  -5.946  -5.943  -5.943
 -5.942  -5.941  -5.940  -5.939  -5.938  -5.937  -5.936  -5.935
 -5.933  -5.926  -5.922  -5.917  -1.041  -1.028  -0.988  -0.957
 -0.956  -0.951  -0.944  -0.930  -0.914  -0.914  -0.905  -0.900
 -0.844  -0.839  -0.836  -0.821  -0.817  -0.813  -0.810  -0.810
 -0.802  -0.801  -0.798  -0.790  -0.784  -0.780  -0.770  -0.762
 -0.752  -0.745  -0.740  -0.737  -0.724  -0.716  -0.716  -0.708
 -0.696  -0.690  -0.676  -0.675  -0.652  -0.650  -0.643  -0.639
 -0.635  -0.631  -0.630  -0.620  -0.619  -0.610  -0.604  -0.600
 -0.593  -0.589  -0.588  -0.581  -0.577  -0.576  -0.571  -0.556
 -0.550  -0.548  -0.545  -0.535  -0.528  -0.524  -0.517  -0.509
 -0.509  -0.504  -0.500  -0.493  -0.493  -0.483  -0.481  -0.479
 -0.471  -0.470  -0.466  -0.464  -0.462  -0.458  -0.455  -0.453
 -0.452  -0.448  -0.442  -0.438  -0.437  -0.432  -0.432  -0.429
 -0.427  -0.426  -0.425  -0.419  -0.417  -0.416  -0.414  -0.414
 -0.412  -0.412  -0.403  -0.402  -0.401  -0.399  -0.397  -0.396
 -0.394  -0.392  -0.392  -0.390  -0.389  -0.385  -0.385  -0.384
 -0.382  -0.380  -0.367  -0.365  -0.362  -0.361  -0.361  -0.357
 -0.353  -0.351  -0.351  -0.348  -0.347  -0.345  -0.342  -0.340
 -0.336  -0.336  -0.330  -0.329  -0.326  -0.325  -0.324  -0.322
 -0.314  -0.314  -0.310  -0.307  -0.306  -0.305  -0.302  -0.299
 -0.297  -0.296  -0.295  -0.289  -0.284  -0.283  -0.280  -0.278
 -0.274  -0.271  -0.265  -0.263  -0.257  -0.252  -0.250  -0.250
 -0.244  -0.241  -0.241  -0.224  -0.202  -0.189
 -- Virtual --
 -0.119  -0.115  -0.075  -0.070  -0.037  -0.036  -0.030  -0.028
 -0.026  -0.017  -0.014  -0.013  -0.007  -0.003   0.000   0.003
  0.005   0.009   0.011   0.017   0.025   0.029   0.042   0.044
  0.047   0.051   0.063   0.065   0.074   0.082   0.086   0.094
  0.097   0.099   0.100   0.101   0.103   0.106   0.107   0.110
  0.113   0.116   0.119   0.120   0.122   0.123   0.125   0.128
  0.131   0.133   0.135   0.135   0.137   0.138   0.138   0.141
  0.143   0.145   0.147   0.151   0.154   0.155   0.156   0.158
  0.165   0.167   0.169   0.170   0.172   0.180   0.181   0.181
  0.185   0.187   0.190   0.191   0.191   0.193   0.198   0.201
  0.202   0.204   0.207   0.209   0.211   0.216   0.217   0.221
  0.222   0.223   0.224   0.227   0.229   0.232   0.235   0.238
  0.242   0.243   0.245   0.246   0.249   0.252   0.254   0.257
  0.264   0.265   0.266   0.269   0.272   0.275   0.278   0.282
  0.282   0.284   0.287   0.292   0.293   0.297   0.299   0.306
  0.308   0.314   0.315   0.318   0.319   0.323   0.324   0.326
  0.332   0.336   0.337   0.339   0.341   0.342   0.347   0.350
  0.352   0.357   0.360   0.363   0.364   0.369   0.372   0.375
  0.377   0.377   0.379   0.384   0.388   0.389   0.394   0.397
  0.403   0.406   0.410   0.415   0.423   0.425   0.430   0.435
  0.436   0.437   0.445   0.448   0.454   0.456   0.461   0.464
  0.469   0.477   0.482   0.484   0.488   0.492   0.497   0.498
  0.498   0.502   0.504   0.506   0.509   0.515   0.517   0.518
  0.522   0.522   0.524   0.525   0.526   0.527   0.531   0.536
  0.538   0.540   0.540   0.543   0.544   0.546   0.548   0.549
  0.550   0.552   0.554   0.557   0.558   0.559   0.560   0.563
  0.564   0.566   0.569   0.570   0.572   0.574   0.576   0.580
  0.583   0.587   0.590   0.593   0.594   0.595   0.597   0.597
  0.598   0.604   0.606   0.607   0.609   0.611   0.614   0.615
  0.618   0.620   0.624   0.624   0.625   0.627   0.629   0.630
  0.633   0.634   0.637   0.637   0.641   0.643   0.645   0.651
  0.651   0.653   0.654   0.659   0.662   0.668   0.669   0.674
  0.678   0.683   0.683   0.685   0.688   0.691   0.694   0.698
  0.699   0.701   0.709   0.710   0.712   0.717   0.718   0.721
  0.723   0.725   0.730   0.730   0.736   0.744   0.747   0.747
  0.749   0.751   0.755   0.756   0.763   0.766   0.773   0.775
  0.778   0.780   0.784   0.786   0.787   0.788   0.795   0.796
  0.797   0.799   0.800   0.805   0.806   0.807   0.812   0.814
  0.814   0.816   0.818   0.820   0.823   0.824   0.825   0.828
  0.829   0.829   0.831   0.832   0.832   0.835   0.836   0.839
  0.844   0.845   0.845   0.846   0.847   0.852   0.853   0.856
  0.858   0.860   0.861   0.863   0.864   0.867   0.869   0.872
  0.873   0.876   0.877   0.878   0.881   0.882   0.886   0.887
  0.888   0.893   0.896   0.898   0.901   0.904   0.904   0.909
  0.911   0.914   0.916   0.917   0.919   0.920   0.923   0.926
  0.928   0.932   0.932   0.934   0.935   0.937   0.940   0.941
  0.943   0.946   0.948   0.952   0.956   0.959   0.961   0.963
  0.964   0.966   0.969   0.972   0.973   0.977   0.979   0.981
  0.984   0.986   0.990   0.993   0.996   0.998   1.000   1.002
  1.003   1.007   1.011   1.013   1.015   1.021   1.023   1.024
  1.030   1.032   1.037   1.039   1.041   1.045   1.053   1.059
  1.062   1.063   1.065   1.073   1.075   1.080   1.081   1.083
  1.086   1.092   1.098   1.100   1.102   1.112   1.114   1.118
  1.122   1.126   1.128   1.136   1.139   1.140   1.144   1.150
  1.153   1.156   1.165   1.165   1.176   1.181   1.190   1.193
  1.193   1.199   1.203   1.204   1.217   1.220   1.228   1.234
  1.241   1.242   1.250   1.254   1.257   1.259   1.265   1.272
  1.272   1.273   1.277   1.280   1.295   1.301   1.302   1.304
  1.305   1.311   1.315   1.317   1.326   1.331   1.334   1.339
  1.345   1.347   1.349   1.351   1.355   1.359   1.364   1.366
  1.368   1.378   1.378   1.385   1.391   1.392   1.396   1.404
  1.407   1.408   1.412   1.418   1.420   1.424   1.428   1.434
  1.440   1.444   1.446   1.447   1.453   1.457   1.466   1.468
  1.473   1.476   1.486   1.489   1.495   1.500   1.501   1.513
  1.516   1.521   1.535   1.539   1.556   1.559   1.560   1.566
  1.574   1.575   1.583   1.585   1.588   1.611   1.612   1.621
  1.626   1.632   1.634   1.636   1.640   1.640   1.650   1.652
  1.654   1.659   1.659   1.665   1.670   1.672   1.678   1.681
  1.687   1.688   1.691   1.700   1.702   1.702   1.707   1.710
  1.717   1.720   1.725   1.730   1.734   1.735   1.737   1.749
  1.750   1.755   1.760   1.762   1.763   1.774   1.776   1.777
  1.783   1.785   1.791   1.792   1.801   1.805   1.807   1.814
  1.815   1.816   1.819   1.824   1.831   1.832   1.835   1.839
  1.841   1.846   1.847   1.853   1.862   1.865   1.869   1.872
  1.875   1.879   1.881   1.882   1.889   1.891   1.894   1.898
  1.899   1.901   1.905   1.908   1.910   1.914   1.917   1.919
  1.923   1.928   1.930   1.939   1.939   1.943   1.950   1.956
  1.960   1.966   1.973   1.977   1.980   1.987   1.992   1.997
  1.999   2.001   2.002   2.007   2.011   2.017   2.021   2.031
  2.032   2.036   2.038   2.042   2.044   2.050   2.052   2.064
  2.067   2.074   2.081   2.086   2.088   2.092   2.100   2.101
  2.106   2.112   2.113   2.118   2.119   2.129   2.132   2.134
  2.135   2.137   2.137   2.142   2.149   2.155   2.161   2.162
  2.165   2.166   2.171   2.177   2.179   2.184   2.185   2.186
  2.194   2.198   2.200   2.202   2.207   2.210   2.213   2.219
  2.224   2.226   2.233   2.233   2.233   2.247   2.249   2.251
  2.256   2.258   2.259   2.260   2.264   2.265   2.274   2.277
  2.282   2.282   2.285   2.287   2.291   2.297   2.299   2.304
  2.311   2.318   2.320   2.323   2.325   2.325   2.328   2.330
  2.334   2.334   2.337   2.341   2.343   2.349   2.352   2.362
  2.363   2.369   2.371   2.377   2.379   2.388   2.394   2.399
  2.402   2.404   2.406   2.409   2.415   2.417   2.420   2.422
  2.425   2.432   2.435   2.439   2.442   2.444   2.448   2.450
  2.450   2.459   2.460   2.463   2.465   2.467   2.472   2.477
  2.479   2.481   2.483   2.485   2.486   2.487   2.494   2.496
  2.501   2.507   2.519   2.521   2.525   2.526   2.531   2.532
  2.535   2.537   2.539   2.542   2.555   2.560   2.565   2.570
  2.576   2.579   2.584   2.588   2.593   2.597   2.601   2.611
  2.615   2.618   2.619   2.625   2.628   2.631   2.633   2.635
  2.648   2.648   2.654   2.662   2.663   2.668   2.669   2.670
  2.675   2.677   2.681   2.684   2.686   2.694   2.699   2.701
  2.707   2.715   2.719   2.724   2.731   2.741   2.743   2.745
  2.747   2.751   2.755   2.758   2.763   2.775   2.783   2.784
  2.789   2.794   2.809   2.815   2.818   2.825   2.828   2.831
  2.834   2.837   2.851   2.854   2.861   2.862   2.864   2.869
  2.871   2.878   2.884   2.889   2.891   2.896   2.899   2.900
  2.905   2.908   2.910   2.915   2.921   2.926   2.928   2.957
  2.966   2.969   2.975   2.977   2.986   2.987   2.991   3.009
  3.013   3.024   3.050   3.057   3.072   3.085   3.112   3.118
  3.153   3.172   3.175   3.179   3.185   3.195   3.219   3.224
  3.228   3.243   3.244   3.260   3.262   3.269   3.282   3.286
  3.294   3.302   3.310   3.315   3.320   3.324   3.331   3.336
  3.336   3.352   3.353   3.359   3.382   3.425   3.425   3.430
  3.432   3.446   3.460   3.487   3.493   3.513   3.515   3.520
  3.534   3.539   3.543   3.559   3.572   3.595   3.595   3.613
  3.635   3.678   3.721   3.737   3.860   3.864   3.883   3.903
  3.918   3.934   3.938   3.947   3.949   3.963   3.988   3.994
  4.029   4.061   4.077   4.081   4.083   4.090   4.116   4.121
  4.144   4.151   4.160   4.166   4.175   4.181   4.189   4.200
  4.204   4.219   4.232   4.240   4.249   4.250   4.256   4.269
  4.276   4.301   4.307   4.344   4.361   4.368   4.376   4.388
  4.389   4.424   4.442   4.459   4.464   4.469   4.493   4.508
  4.516   4.531   4.551   4.555   4.571   4.590   4.628   4.678
  4.686   4.704   4.717   4.740   4.761   4.780   4.790   4.796
 --------------------------------------------------------------
 
          Ground-State Mulliken Net Atomic Charges

     Atom                 Charge (a.u.)
  ----------------------------------------
      1 C                     0.260766
      2 C                    -0.106482
      3 N                    -0.454946
      4 C                    -0.053917
      5 C                     0.094536
      6 C                    -0.000999
      7 C                    -0.066869
      8 C                     0.076279
      9 C                     0.251023
     10 N                    -0.531468
     11 N                    -0.522171
     12 C                     0.183891
     13 C                     0.329905
     14 S                     0.608412
     15 N                    -0.543877
     16 C                    -0.258321
     17 S                     0.336717
     18 C                    -0.088429
     19 C                    -0.191405
     20 S                     0.284360
     21 C                     0.096504
     22 C                     0.037726
     23 C                    -0.302484
     24 C                    -0.067593
     25 N                    -0.409363
     26 S                     0.292017
     27 C                     0.140860
     28 C                    -0.317947
     29 C                    -0.234649
     30 H                     0.094162
     31 H                     0.105207
     32 H                     0.104701
     33 H                     0.120636
     34 H                     0.120893
     35 H                     0.128790
     36 H                     0.123874
     37 H                     0.140884
     38 H                     0.099072
     39 C                    -0.184306
     40 H                     0.118148
     41 H                     0.106092
     42 H                     0.095105
     43 C                    -0.175606
     44 H                     0.096934
     45 C                    -0.179795
     46 H                     0.085333
     47 H                     0.084440
     48 H                     0.094797
     49 C                    -0.162565
     50 H                     0.093513
     51 C                    -0.332681
     52 H                     0.099617
     53 H                     0.109460
     54 H                     0.088657
     55 H                     0.104771
     56 C                     0.276819
     57 C                    -0.121242
     58 N                    -0.498567
     59 C                    -0.072807
     60 C                     0.043215
     61 C                     0.059573
     62 C                     0.025803
     63 C                     0.086213
     64 C                     0.204529
     65 N                    -0.509542
     66 N                    -0.556316
     67 C                     0.205349
     68 C                     0.275247
     69 S                     0.604613
     70 N                    -0.544854
     71 C                    -0.214920
     72 S                     0.311567
     73 C                    -0.157678
     74 C                    -0.255227
     75 S                     0.270607
     76 C                     0.239382
     77 C                     0.062316
     78 C                    -0.306178
     79 C                    -0.066797
     80 N                    -0.456053
     81 S                     0.278530
     82 C                     0.120963
     83 C                    -0.310581
     84 C                    -0.226477
     85 H                     0.085422
     86 H                     0.122418
     87 H                     0.098925
     88 H                     0.113135
     89 H                     0.125819
     90 H                     0.126692
     91 H                     0.119890
     92 H                     0.153921
     93 H                     0.120196
     94 C                    -0.193045
     95 H                     0.119125
     96 H                     0.100786
     97 H                     0.101417
     98 C                    -0.188638
     99 H                     0.093847
    100 C                    -0.168445
    101 H                     0.094764
    102 H                     0.094333
    103 H                     0.096588
    104 C                    -0.182764
    105 H                     0.093363
    106 C                    -0.320673
    107 H                     0.095767
    108 H                     0.097112
    109 H                     0.104587
    110 H                     0.105759
  ----------------------------------------
  Sum of atomic charges =     0.000000

 -----------------------------------------------------------------
                    Cartesian Multipole Moments
 -----------------------------------------------------------------
    Charge (ESU x 10^10)
                 0.0000
    Dipole Moment (Debye)
         X      -0.6211      Y       0.6664      Z       1.9829
       Tot       2.1821
    Quadrupole Moments (Debye-Ang)
        XX    -448.4616     XY      17.6224     YY    -426.0998
        XZ      45.6863     YZ      -4.1666     ZZ    -438.2791
    Octopole Moments (Debye-Ang^2)
       XXX      74.5172    XXY     222.2499    XYY      27.1330
       YYY     -78.7081    XXZ     -86.2961    XYZ      39.5657
       YYZ      29.8490    XZZ     -10.1982    YZZ     -55.3124
       ZZZ      10.7776
    Hexadecapole Moments (Debye-Ang^3)
      XXXX -204662.5842   XXXY    3354.9519   XXYY  -36726.0933
      XYYY     445.4888   YYYY  -18424.0970   XXXZ    6003.7668
      XXYZ    -371.3698   XYYZ      36.8812   YYYZ    -125.4789
      XXZZ  -36205.8308   XYZZ    -182.3862   YYZZ   -4530.3967
      XZZZ     136.0367   YZZZ      48.0597   ZZZZ  -10070.1364
 -----------------------------------------------------------------
Archival summary:
1\1\mn426\SP\ProcedureUnspecified\6-31G**\8105042\afmv_a\FriOct522:50:302018FriOct522:50:302018\0\\#,ProcedureUnspecified,6-31G**,\\0,1\S\C,1,1.72258\H,2,1.08285,1,115.323\C,2,1.40825,1,109.757,3,-178.253,0\H,4,1.08257,2,125.238,1,-179.744,0\N,4,1.40818,2,113.524,1,4.55032,0\C,6,1.33234,4,111.492,2,-4.75936,0\C,7,1.41526,6,119.142,4,-175.587,0\C,8,1.35568,7,127.297,6,-14.1247,0\C,9,1.37179,8,138.332,7,8.74645,0\H,10,1.08432,9,122.963,8,-6.91729,0\C,10,1.37143,9,113.341,8,177.562,0\H,12,1.08225,10,134.415,9,-178.809,0\C,9,1.3892,8,110.838,7,-177.639,0\C,14,1.38086,9,119.293,8,-0.825151,0\C,15,1.48047,14,126.141,9,-177.648,0\N,16,1.40885,15,120.519,14,5.9496,0\C,17,1.30995,16,118.887,15,173.637,0\H,18,1.08912,17,115.66,16,173.811,0\C,16,1.41145,15,118.726,14,-166.534,0\N,20,1.37427,16,129.79,15,0.442914,0\C,20,1.43055,16,118.116,15,-168.115,0\N,22,1.34421,20,115.434,16,-175.455,0\C,22,1.44212,20,119.973,16,-10.5022,0\C,24,1.5124,22,123.576,20,-172.291,0\C,25,1.40636,24,120.849,22,156.621,0\H,26,1.08958,25,120.347,24,-1.39453,0\N,26,1.39274,25,126.636,24,-179.666,0\C,28,1.33629,26,115.553,25,14.6897,0\C,29,1.38584,28,121.113,26,-11.6805,0\H,30,1.08612,29,115.618,28,177.852,0\C,30,1.40782,29,123.136,28,1.79238,0\H,32,1.08588,30,118.105,29,-176.139,0\C,29,1.50874,28,117.255,26,164.542,0\H,34,1.09673,29,104.133,28,50.8094,0\H,34,1.09681,29,108.173,28,-63.376,0\C,34,1.56643,29,118.976,28,171.008,0\H,37,1.09669,34,106.642,29,64.0015,0\H,37,1.09682,34,102.927,29,-57.7768,0\C,37,1.58034,34,114.507,29,-175.112,0\H,40,1.09757,37,111.491,34,46.6398,0\H,40,1.09768,37,105.302,34,-66.1274,0\C,40,1.57485,37,111.977,34,168.081,0\H,43,1.09688,40,106.232,37,76.8342,0\H,43,1.0975,40,114.123,37,-44.7447,0\C,43,1.57046,40,113.791,37,-170.256,0\H,46,1.09637,43,109.531,40,47.9233,0\H,46,1.09716,43,110.82,40,-68.7751,0\C,46,1.55349,43,107.72,40,164.97,0\H,49,1.09665,46,107.848,43,-57.7087,0\H,49,1.09683,46,112.679,43,69.132,0\H,49,1.09699,46,113.689,43,-170.899,0\S,21,1.61998,20,107.327,16,179.217,0\S,15,1.75826,14,105.033,9,8.91096,0\S,12,1.81628,10,116.218,9,-5.43688,0\C,3,2.74101,2,141.143,1,92.1168,0\C,56,1.37644,3,77.2656,2,-81.9324,0\C,57,1.39036,56,114.398,3,74.3139,0\C,58,1.38549,57,116.39,56,0.0214286,0\C,59,1.42378,58,123.101,57,-176.481,0\N,60,1.31667,59,111.788,58,167.27,0\C,61,1.34807,60,112.036,59,158.013,0\H,62,1.08145,61,119.456,60,176.715,0\C,62,1.35027,61,112.096,60,-9.17366,0\H,64,1.08237,62,133.997,61,172.715,0\C,56,1.42871,3,114.967,2,153.388,0\N,66,1.35883,56,113.996,3,74.5991,0\C,67,1.36366,66,119.369,56,-178.71,0\H,68,1.08852,67,111.013,66,177.541,0\C,68,1.42157,67,123.83,66,-0.836167,0\C,66,1.42892,56,126.94,3,-108.605,0\N,71,1.36474,66,124.734,56,-0.153677,0\C,71,1.40927,66,124.222,56,177.379,0\N,73,1.33435,71,115.525,66,167.441,0\C,58,1.4576,57,114.386,56,-176.485,0\H,75,1.08389,58,133.241,57,173.931,0\C,75,1.38601,58,106.24,57,-3.50187,0\H,77,1.08211,75,123.602,58,179.945,0\C,70,1.4653,68,125.186,67,-176.556,0\C,79,1.37722,70,120.271,68,-93.2227,0\H,80,1.08655,79,127.889,70,1.11706,0\C,80,1.41277,79,115.721,70,174.032,0\H,82,1.08611,80,121.541,79,-178.726,0\C,82,1.40948,80,120.084,79,6.75895,0\N,84,1.33606,82,124.31,80,-4.87842,0\C,85,1.32738,84,116.261,82,-1.1449,0\H,86,1.08872,85,115.498,84,178.728,0\C,84,1.54205,82,122.939,80,173.007,0\H,88,1.09683,84,110.444,82,-159.797,0\H,88,1.09712,84,109.499,82,-50.4536,0\C,88,1.57279,84,111.607,82,77.5739,0\H,91,1.0972,88,109.131,84,-178.539,0\H,91,1.09736,88,112.084,84,68.5069,0\C,91,1.56057,88,117.318,84,-53.5085,0\H,94,1.09699,91,106.914,88,61.2361,0\H,94,1.09729,91,116.624,88,-62.0962,0\C,94,1.47678,91,111.976,88,173.493,0\H,97,1.09675,94,112.742,91,-67.0247,0\H,97,1.09714,94,105.024,91,-177.027,0\C,97,1.51935,94,116.131,91,54.0253,0\H,100,1.09701,97,111.326,94,77.1566,0\H,100,1.09706,97,108.759,94,-41.7801,0\C,100,1.53021,97,104.445,94,-168.536,0\H,103,1.09714,100,122.045,97,92.2188,0\H,103,1.09751,100,111.438,97,-146.085,0\H,103,1.09766,100,109.927,97,-43.8646,0\S,72,1.62648,71,106.645,66,-177.526,0\S,60,1.7047,59,121.13,58,-51.7736,0\S,56,1.76211,3,87.2596,2,27.6611,0\S,77,1.77731,75,118.898,58,-4.32656,0\\\@

 Total job time:  99.88s(wall), 1057.37s(cpu) 
 Fri Oct  5 22:50:30 2018

        *************************************************************
        *                                                           *
        *  Thank you very much for using Q-Chem.  Have a nice day.  *
        *                                                           *
        *************************************************************


