
Running Job 1 of 1 ./7/70.qcin
qchem ./7/70.qcin_19935.0 /tmpu/cab_g/afmv_a/scratch_qchem/qchem19935/ 1
/tmpu/appuserlic/qchem4.4/serial-multicore/exe/qcprog.exe_s ./7/70.qcin_19935.0 /tmpu/cab_g/afmv_a/scratch_qchem/qchem19935/
Check license passed

                  Welcome to Q-Chem
     A Quantum Leap Into The Future Of Chemistry


 Q-Chem 4.4, Q-Chem, Inc., Pleasanton, CA (2016)

 Y. Shao,  Z. Gan,  E. Epifanovsky,  A. T. B. Gilbert,  M. Wormit,  
 J. Kussmann,  A. W. Lange,  A. Behn,  J. Deng,  X. Feng,  D. Ghosh,  
 M. Goldey,  P. R. Horn,  L. D. Jacobson,  I. Kaliman,  F. Rob,  
 R. Z. Khaliullin,  T. Kus,  A. Landau,  J. Liu,  E. I. Proynov,  Y. M. Rhee,  
 R. M. Richard,  M. A. Rohrdanz,  R. P. Steele,  E. J. Sundstrom,  
 H. L. Woodcock III,  P. M. Zimmerman,  D. Zuev,  B. Albrecht,  E. Alguire,  
 B. Austin,  S. A. Baeppler,  G. J. O. Beran,  Y. A. Bernard,  E. Berquist,  
 K. Brandhorst,  K. B. Bravaya,  S. T. Brown,  D. Casanova,  C.-M. Chang,  
 Y. Chen,  S. H. Chien,  K. D. Closser,  M. P. Coons,  D. L. Crittenden,  
 S. Dasgupta,  M. Diedenhofen,  R. A. DiStasio Jr.,  H. Do,  A. D. Dutoi,  
 R. G. Edgar,  P.-T. Fang,  S. Fatehi,  Q. Feng,  L. Fusti-Molnar,  
 A. Ghysels,  A. Golubeva-Zadorozhnaya,  J. Gomes,  A. Gunina,  
 M. W. D. Hanson-Heine,  P. H. P. Harbach,  A. W. Hauser,  J. E. Herr,  
 E. G. Hohenstein,  Z. C. Holden,  K. Hui,  T.-C. Jagau,  H. Ji,  B. Kaduk,  
 K. Khistyaev,  Jaehoon Kim,  Jihan Kim,  R. A. King,  P. Klunzinger,  
 K. Koh,  D. Kosenkov,  T. Kowalczyk,  C. M. Krauter,  A. Kunitsa,  
 K. U. Lao,  A. Laurent,  K. V. Lawler,  J. Lee,  D. Lefrancois,  S. Lehtola,  
 S. V. Levchenko,  C. Y. Lin,  Y.-S. Lin,  F. Liu,  E. Livshits,  
 R. C. Lochan,  A. Luenser,  P. Manohar,  S. F. Manzer,  S.-P. Mao,  Y. Mao,  
 N. Mardirossian,  A. V. Marenich,  L. A. Martinez-Martinez,  S. A. Maurer,  
 N. J. Mayhall,  J.-M. Mewes,  A. F. Morrison,  K. Nanda,  T. S. Nguyen-Beck,  
 C. M. Oana,  R. Olivares-Amaya,  D. P. O'Neill,  J. A. Parkhill,  
 T. M. Perrine,  R. Peverati,  P. A. Pieniazek,  F. Plasser,  A. Prociuk,  
 D. R. Rehn,  E. Rosta,  N. J. Russ,  N. Sergueev,  S. M. Sharada,  
 S. Sharma,  D. W. Small,  A. Sodt,  T. Stauch,  T. Stein,  D. Stuck,  
 Y.-C. Su,  A. J. W. Thom,  T. Tsuchimochi,  L. Vogt,  O. Vydrov,  T. Wang,  
 M. A. Watson,  J. Wenzel,  A. White,  C. F. Williams,  V. Vanovschi,  
 K. Yao,  S. Yeganeh,  S. R. Yost,  Z.-Q. You,  I. Y. Zhang,  X. Zhang,  
 Y. Zhao,  B. R. Brooks,  G. K. L. Chan,  D. M. Chipman,  C. J. Cramer,  
 W. A. Goddard III,  M. S. Gordon,  W. J. Hehre,  A. Klamt,  
 H. F. Schaefer III,  M. W. Schmidt,  C. D. Sherrill,  D. G. Truhlar,  
 A. Warshel,  X. Xu,  A. Aspuru-Guzik,  R. Baer,  A. T. Bell,  N. A. Besley,  
 J.-D. Chai,  A. Dreuw,  B. D. Dunietz,  T. R. Furlani,  S. R. Gwaltney,  
 C.-P. Hsu,  Y. Jung,  J. Kong,  D. S. Lambrecht,  W. Liang,  C. Ochsenfeld,  
 V. A. Rassolov,  L. V. Slipchenko,  J. E. Subotnik,  T. Van Voorhis,  
 J. M. Herbert,  A. I. Krylov,  P. M. W. Gill,  M. Head-Gordon

 Contributors to earlier versions of Q-Chem not listed above: 
 R. D. Adamson,  J. Baker,  E. F. C. Byrd,  A. K. Chakraborty,  C.-L. Cheng,  
 H. Dachsel,  R. J. Doerksen,  G. Hawkins,  A. Heyden,  S. Hirata,  
 G. Kedziora,  F. J. Keil,  C. Kelley,  P. P. Korambath,  W. Kurlancheek,  
 A. M. Lee,  M. S. Lee,  D. Liotard,  I. Lotan,  P. E. Maslen,  N. Nair,  
 D. Neuhauser,  R. Olson,  B. Peters,  J. Ritchie,  N. E. Schultz,  
 N. Shenvi,  A. C. Simmonett,  K. S. Thanthiriwatte,  Q. Wu,  W. Zhang

 Please cite Q-Chem as follows:
 Y. Shao et al., Mol. Phys. 113, 184-215 (2015)
 DOI: 10.1080/00268976.2014.952696

 Q-Chem 4.4.2 for Intel X86 Linux

 Parts of Q-Chem use Armadillo 5.200.1 (Boston Tea Smuggler).
 http://arma.sourceforge.net/

 Q-Chem begins on Fri Oct  5 23:26:25 2018  

Host: 
0

     Scratch files written to /tmpu/cab_g/afmv_a/scratch_qchem/qchem19935//
 Dec716 11556_ 22328  22283 4050   
Processing $rem in /tmpu/appuserlic/qchem4.4/serial-multicore/config/preferences.
 MEM_TOTAL  2000 
FILE_GEOM_ORG=        593

Checking the input file for inconsistencies... 	...done.

--------------------------------------------------------------
User input:
--------------------------------------------------------------
$comment
SP
$end

$rem
MEM_STATIC 5000
MEM_TOTAL 20000
JOBTYPE SP
EXCHANGE B3LYP
BASIS 6-31g(d,p)
$end

$molecule
0 1
C          19.566000    -26.998000     13.556000
C          20.702000    -26.231000     13.362000
N          18.657000    -27.047000     12.542000
C          20.899000    -25.375000     12.283000
C          18.807000    -26.286000     11.463000
C          19.891000    -25.394000     11.282000
C          19.948000    -24.413000     10.138000
C          18.884000    -23.590000      9.771000
C          21.150000    -24.180000      9.520000
N          18.985000    -22.653000      8.884000
N          22.284000    -24.835000      9.683000
C          21.280000    -23.131000      8.618000
C          20.199000    -22.269000      8.412000
S          23.442000    -24.097000      8.678000
N          22.467000    -23.010000      7.993000
C          20.249000    -21.079000      7.492000
S          21.375000    -21.009000      6.134000
C          19.655000    -19.871000      7.668000
C          20.670000    -19.489000      5.629000
S          18.523000    -19.417000      8.908000
C          19.794000    -19.048000      6.573000
C          20.825000    -18.763000      4.415000
C          18.302000    -17.898000      7.948000
C          18.981000    -17.906000      6.719000
N          21.910000    -19.005000      3.675000
S          19.584000    -17.787000      3.613000
C          21.865000    -18.171000      2.556000
C          20.710000    -17.470000      2.400000
C          19.448000    -27.778000     14.886000
H          21.503000    -26.239000     14.095000
H          21.809000    -24.790000     12.188000
H          18.016000    -26.372000     10.720000
H          17.867000    -23.670000     10.151000
H          17.529000    -17.216000      8.276000
H          18.829000    -17.151000      5.956000
H          22.692000    -18.186000      1.858000
H          20.486000    -16.993000      1.455000
H          18.654000    -28.516000     14.715000
C          19.097000    -26.840000     16.075000
H          20.338000    -28.408000     15.007000
H          19.846000    -26.102000     16.385000
H          18.967000    -27.450000     16.977000
C          17.871000    -25.977000     15.794000
H          17.644000    -25.457000     16.732000
C          16.642000    -26.716000     15.283000
H          18.128000    -25.233000     15.030000
H          16.445000    -27.555000     15.962000
H          16.874000    -27.150000     14.303000
C          15.323000    -25.918000     15.080000
H          14.553000    -26.694000     15.166000
C          15.193000    -25.205000     13.703000
H          15.100000    -25.179000     15.860000
H          15.124000    -25.945000     12.896000
H          15.972000    -24.448000     13.553000
H          14.247000    -24.651000     13.736000
C           6.002000    -22.134000     -3.686000
C           7.049000    -22.989000     -4.075000
N           6.267000    -20.956000     -3.041000
C           8.395000    -22.704000     -3.706000
C           7.577000    -20.606000     -2.747000
C           8.634000    -21.498000     -3.039000
C          10.123000    -21.055000     -2.845000
C          11.157000    -21.868000     -2.322000
C          10.518000    -19.740000     -3.114000
N          12.430000    -21.467000     -2.137000
N           9.749000    -18.718000     -3.499000
C          11.819000    -19.350000     -2.941000
C          12.819000    -20.254000     -2.458000
S          10.696000    -17.411000     -3.632000
N          12.129000    -18.074000     -3.195000
C          14.198000    -19.989000     -2.116000
S          15.044000    -20.741000     -0.781000
C          15.070000    -19.460000     -3.031000
C          16.631000    -20.223000     -1.437000
S          14.787000    -18.805000     -4.658000
C          16.400000    -19.460000     -2.571000
C          17.941000    -20.424000     -0.926000
C          16.511000    -18.295000     -4.639000
C          17.250000    -18.854000     -3.553000
N          17.894000    -21.405000     -0.053000
S          19.475000    -19.566000     -1.062000
C          19.111000    -21.551000      0.564000
C          20.048000    -20.599000      0.250000
C           4.554000    -22.491000     -4.128000
H           6.815000    -23.902000     -4.615000
H           9.121000    -23.465000     -3.977000
H           7.691000    -19.628000     -2.282000
H          10.893000    -22.870000     -1.985000
H          17.023000    -17.652000     -5.342000
H          18.311000    -18.738000     -3.366000
H          19.194000    -22.325000      1.315000
H          21.055000    -20.360000      0.566000
H           4.367000    -23.571000     -4.096000
C           4.291000    -22.115000     -5.628000
H           3.753000    -21.955000     -3.604000
H           5.149000    -22.477000     -6.209000
H           4.279000    -21.026000     -5.763000
C           2.905000    -22.766000     -6.159000
H           2.723000    -22.538000     -7.217000
C           1.590000    -22.161000     -5.439000
H           2.855000    -23.848000     -5.987000
H           1.748000    -21.076000     -5.483000
H           1.575000    -22.414000     -4.372000
C           0.202000    -22.477000     -6.155000
H          -0.569000    -22.111000     -5.467000
C          -0.043000    -23.929000     -6.442000
H           0.123000    -21.940000     -7.109000
H           0.032000    -24.534000     -5.530000
H           0.606000    -24.284000     -7.253000
H          -1.027000    -23.923000     -6.926000
$end

--------------------------------------------------------------
 ----------------------------------------------------------------
             Standard Nuclear Orientation (Angstroms)
    I     Atom           X                Y                Z
 ----------------------------------------------------------------
    1      C      11.3521084277    -4.8836025990    -1.3740740820
    2      C      11.7864149026    -3.5808781530    -1.1988373744
    3      N      10.0152005281    -5.0856020690    -1.5436367020
    4      C      10.9446695425    -2.4889264147    -1.0120429684
    5      C       9.1586996821    -4.0770826052    -1.4205237784
    6      C       9.5524577299    -2.7517207204    -1.1174536970
    7      C       8.5556434696    -1.6635658430    -0.8066059960
    8      C       7.4943689664    -1.8182289264     0.0843989195
    9      C       8.7818537495    -0.3975158087    -1.2830125659
   10      N       6.7301496430    -0.8413211824     0.4539379370
   11      N       9.7032148571    -0.0098307675    -2.1446064483
   12      C       8.0071711343     0.6659119699    -0.8359183866
   13      C       7.0542761620     0.4448091975     0.1626534615
   14      S       9.5274893493     1.6702822714    -2.3494813428
   15      N       8.2354239287     1.8656412517    -1.4040603691
   16      C       6.1954366000     1.5337495668     0.7471220054
   17      S       5.8262679463     3.0039166645    -0.1580095928
   18      C       5.7863044709     1.6639428415     2.0350414952
   19      C       4.7751263041     3.5356206861     1.1361473071
   20      S       5.9823444302     0.5198644326     3.3303379588
   21      C       4.9014111677     2.7046622018     2.2069195194
   22      C       3.8223977879     4.5920492365     1.1702661023
   23      C       4.8768106710     1.6073268392     4.2646947544
   24      C       4.3441726382     2.6580855458     3.5006601566
   25      N       3.9529626983     5.5817065057     0.2831808225
   26      S       2.2926635449     4.5939344191     2.0623258492
   27      C       2.9346642967     6.5082864649     0.5161184635
   28      C       1.9989504103     6.1265740897     1.4263366711
   29      C      12.4254520824    -5.9959841228    -1.4160829440
   30      H      12.8478280372    -3.3551735678    -1.1612395300
   31      H      11.3437221324    -1.4889114446    -0.8703493195
   32      H       8.1097026424    -4.3404396484    -1.5445168367
   33      H       7.1748977714    -2.7614160527     0.5242002386
   34      H       4.5536284391     1.2627851366     5.2378757551
   35      H       3.5474460850     3.3014290986     3.8565166901
   36      H       2.9052161220     7.4139812470    -0.0756650836
   37      H       1.0584520222     6.6570519929     1.4955174214
   38      H      11.9146131103    -6.8701682031    -1.8393638652
   39      C      12.9903074478    -6.3055018848    -0.0011966690
   40      H      13.1604780203    -5.7494537822    -2.1923565180
   41      H      13.5810808486    -5.5279842208     0.4969981433
   42      H      13.6995750221    -7.1381070268    -0.0806459343
   43      C      11.8900029164    -6.5945134920     1.0149766573
   44      H      12.3990936071    -6.9188083510     1.9300900454
   45      C      10.8484968819    -7.6210736402     0.5917480639
   46      H      11.3457316016    -5.6651238008     1.2230260214
   47      H      11.3780241400    -8.5181613378     0.2473565053
   48      H      10.2971501569    -7.2284765737    -0.2710754014
   49      C       9.7610589276    -8.0467689148     1.6184107294
   50      H       9.4696181307    -9.0432930562     1.2656021447
   51      C       8.5087573470    -7.1244404110     1.6678969126
   52      H      10.1176515903    -8.1796252120     2.6477021737
   53      H       7.9517904436    -7.1875760421     0.7248106171
   54      H       8.7590159455    -6.1017467672     1.9742600058
   55      H       7.8698372342    -7.5224057836     2.4655971393
   56      C     -11.0653375201    -3.9746046950    -0.1254764725
   57      C     -10.5950565698    -3.4974781354    -1.3623034911
   58      N     -10.5784925269    -3.4662451056     1.0486131666
   59      C      -9.5238676783    -2.5602749998    -1.4198068941
   60      C      -9.5972000329    -2.4856502738     1.0254870588
   61      C      -9.0401557895    -2.0659411272    -0.2040343697
   62      C      -8.0400331640    -0.8624495287    -0.2527037264
   63      C      -6.8779256840    -0.7964110207    -1.0581844031
   64      C      -8.2012649395     0.2353934091     0.5995616069
   65      N      -6.0113818142     0.2353057113    -1.0729257294
   66      N      -9.1246631750     0.4038828265     1.5498336810
   67      C      -7.3251487276     1.2868509483     0.5609944375
   68      C      -6.2013645057     1.2994138986    -0.3263928482
   69      S      -8.8398552938     1.8275406724     2.2673500981
   70      N      -7.5212424616     2.2966631579     1.4157567137
   71      C      -5.1277996981     2.2621598434    -0.4233920728
   72      S      -3.4617667822     1.8489145493    -0.7654558830
   73      C      -5.3786318734     3.5868073142    -0.6680189275
   74      C      -3.0706170939     3.5567460207    -1.1495686097
   75      S      -6.9099597163     4.4858486312    -0.7228162611
   76      C      -4.2043641986     4.3204635508    -0.9197011768
   77      C      -1.8392164450     4.1467648985    -1.5409152153
   78      C      -5.9107510689     5.9733209545    -0.8699392241
   79      C      -4.5320752883     5.7010670841    -1.1211939199
   80      N      -1.0460623819     3.1916984401    -1.9715585622
   81      S      -1.1287416298     5.7539060086    -1.3990033091
   82      C       0.2020016857     3.6951138859    -2.2398922577
   83      C       0.3934240435     5.0091230981    -1.8940508615
   84      C     -12.2450590549    -4.9883965909    -0.1251729570
   85      H     -11.0210275088    -3.8932244377    -2.2798320319
   86      H      -9.1736949749    -2.3172472965    -2.4187836772
   87      H      -9.3127968589    -2.1063525270     2.0057691886
   88      H      -6.6301046208    -1.6679661502    -1.6633665054
   89      H      -6.2358859909     7.0029099217    -0.8064109535
   90      H      -3.7519240601     6.4309781043    -1.3021357992
   91      H       0.9498245277     2.9982035622    -2.5935064509
   92      H       1.2219032266     5.7052767876    -1.8983268093
   93      H     -12.1743846243    -5.7043416695    -0.9527119405
   94      C     -13.6241856528    -4.2808349015    -0.3658205885
   95      H     -12.4119641087    -5.5207541925     0.8193963030
   96      H     -13.4922755916    -3.5898892322    -1.2084135019
   97      H     -13.8983569701    -3.6540462653     0.4922330778
   98      C     -14.7908649913    -5.3636733650    -0.6709077615
   99      H     -15.7559104006    -4.8816735389    -0.8729857802
  100      C     -15.1324856161    -6.3170202100     0.5892807728
  101      H     -14.5272292713    -6.0481473789    -1.4862601586
  102      H     -15.2310345657    -5.6135275391     1.4256486145
  103      H     -14.2779287253    -6.9566877966     0.8408377223
  104      C     -16.4935425962    -7.1391525804     0.4859450941
  105      H     -16.4896911978    -7.8157527710     1.3484637019
  106      C     -16.6500883344    -7.9437348596    -0.7705734246
  107      H     -17.3607548252    -6.4696481660     0.5525242886
  108      H     -15.8077209401    -8.6323204721    -0.9107912100
  109      H     -16.8258534650    -7.2910896847    -1.6355057309
  110      H     -17.6309943373    -8.4165959639    -0.6410597589
 ----------------------------------------------------------------
 Molecular Point Group                 C1    NOp =  1
 Largest Abelian Subgroup              C1    NOp =  1
 Nuclear Repulsion Energy = 10377.0268824483 hartrees
 There are      270 alpha and      270 beta electrons
 Requested basis set is 6-31G(d,p)
 There are 406 shells and 1262 basis functions

 Total QAlloc Memory Limit  20000 MB
 Mega-Array Size      4888 MB
 MEM_STATIC part      5000 MB
 A cutoff of  1.0D-08 yielded  13015 shell pairs
 There are    135522 function pairs
 
 -------------------------------------------------------
 OpenMP Integral Computing Module                       
 Release: version 1.0, May 2013, Q-Chem Inc. Pittsburgh 
 -------------------------------------------------------
 Integral Job Info:
 Integral job number is                      11
 Integral operator is                         1
 short-range coefficients                     0
 long-range coefficients              100000000
 Omega coefficients                           0
 if combine SR and LR in K                    0
 Integral screening is                        0
 Integral computing path is                   2
 max size of driver memory is            800000
 size of driver memory is                593474
 size of scratch memory is             15166112
 max col of scratch BK array               1296
 max len of scratch array in speh3          155
 max len of scratch index in speh4           18
 max int batch size is                      520
 min int batch size is                       52
 fixed nKL is                                52
 max L of basis functions is                  2
 order of int derivative is                   0
 number of shells is                        406
 number of basis is                        1262
 number of cartesian basis is              1262
 number of contracted shell pairs         13015
 number of primitive shell pairs          42264
 maxK2 (contraction) of shell pair           36
 max number of K2 of shell pair               1
 max number of CS2 of shell pair           1310
 max number of PS2 of shell pair           7788
 mem total for path MDJ                  278712
 -------------------------------------------------------
 Smallest overlap matrix eigenvalue = 3.84E-04

 Scale SEOQF with 1.000000e-03/1.000000e-02/1.000000e-01

 Standard Electronic Orientation quadrupole field applied
 Nucleus-field energy     =    -0.0000000550 hartrees
 Guess from superposition of atomic densities
 Warning:  Energy on first SCF cycle will be non-variational
 A restricted hybrid HF-DFT SCF calculation will be
 performed using Pulay DIIS extrapolation
 Exchange:     0.2000 Hartree-Fock + 0.0800 Slater + 0.7200 B88
 Correlation:  0.1900 VWN1RPA + 0.8100 LYP
 Using SG-1 standard quadrature grid
 SCF converges when DIIS error is below 1.0E-05
 using 16 threads for integral computing 
 -------------------------------------------------------
 OpenMP BLAS3 based DFT computing Module                
 Release: version 1.0, May 2013, Q-Chem Inc. Pittsburgh 
 -------------------------------------------------------
 ---------------------------------------
  Cycle       Energy         DIIS Error
 ---------------------------------------
    1   -5680.0403065239      2.15E-02
    2   -5662.4228343251      2.19E-03
    3   -5661.0555238399      3.31E-03
    4   -5663.3584631063      7.34E-04
    5   -5663.4444129447      3.93E-04
    6   -5663.4642770722      2.33E-04
    7   -5663.4740699295      7.32E-05
    8   -5663.4750550567      2.52E-05
    9   -5663.4751858996      6.55E-06 Convergence criterion met
 ---------------------------------------
 SCF time:  CPU 918.75 s  wall 82.33 s
 SCF   energy in the final basis set = -5663.4751858996
 Total energy in the final basis set = -5663.4751858996
 
 --------------------------------------------------------------
 
                    Orbital Energies (a.u.)
 --------------------------------------------------------------
 
 Alpha MOs
 -- Occupied --
-88.993 -88.987 -88.930 -88.930 -88.924 -88.922 -88.916 -88.913
-14.390 -14.383 -14.380 -14.377 -14.345 -14.343 -14.341 -14.336
-14.332 -14.331 -10.267 -10.263 -10.263 -10.255 -10.252 -10.250
-10.249 -10.249 -10.239 -10.238 -10.237 -10.236 -10.236 -10.235
-10.235 -10.232 -10.232 -10.231 -10.230 -10.229 -10.227 -10.227
-10.227 -10.226 -10.226 -10.226 -10.223 -10.223 -10.221 -10.216
-10.216 -10.210 -10.208 -10.208 -10.204 -10.203 -10.201 -10.192
-10.192 -10.191 -10.189 -10.188 -10.185 -10.181 -10.180 -10.172
-10.171 -10.170 -10.167 -10.162  -8.048  -8.043  -7.991  -7.990
 -7.983  -7.980  -7.975  -7.973  -6.013  -6.008  -6.008  -6.006
 -6.002  -6.000  -5.955  -5.954  -5.952  -5.951  -5.948  -5.947
 -5.947  -5.944  -5.943  -5.941  -5.940  -5.939  -5.937  -5.937
 -5.936  -5.934  -5.931  -5.929  -1.045  -1.041  -0.971  -0.970
 -0.966  -0.964  -0.939  -0.923  -0.922  -0.910  -0.909  -0.903
 -0.845  -0.837  -0.831  -0.828  -0.816  -0.814  -0.807  -0.807
 -0.804  -0.798  -0.797  -0.794  -0.782  -0.779  -0.766  -0.765
 -0.748  -0.746  -0.742  -0.739  -0.727  -0.719  -0.710  -0.705
 -0.694  -0.692  -0.685  -0.672  -0.658  -0.651  -0.646  -0.643
 -0.639  -0.635  -0.628  -0.623  -0.615  -0.611  -0.602  -0.600
 -0.595  -0.593  -0.587  -0.584  -0.582  -0.576  -0.553  -0.547
 -0.547  -0.544  -0.542  -0.538  -0.529  -0.522  -0.519  -0.515
 -0.507  -0.505  -0.503  -0.502  -0.492  -0.482  -0.481  -0.477
 -0.473  -0.472  -0.470  -0.467  -0.462  -0.459  -0.450  -0.445
 -0.441  -0.440  -0.439  -0.437  -0.436  -0.435  -0.433  -0.430
 -0.429  -0.429  -0.424  -0.424  -0.420  -0.415  -0.414  -0.412
 -0.409  -0.408  -0.407  -0.406  -0.401  -0.399  -0.398  -0.398
 -0.396  -0.393  -0.393  -0.390  -0.389  -0.383  -0.381  -0.379
 -0.379  -0.378  -0.373  -0.372  -0.366  -0.363  -0.360  -0.359
 -0.355  -0.352  -0.351  -0.348  -0.345  -0.344  -0.342  -0.341
 -0.340  -0.339  -0.338  -0.335  -0.333  -0.328  -0.320  -0.312
 -0.311  -0.310  -0.307  -0.305  -0.305  -0.301  -0.300  -0.298
 -0.296  -0.296  -0.295  -0.290  -0.284  -0.283  -0.282  -0.282
 -0.271  -0.269  -0.265  -0.263  -0.255  -0.252  -0.248  -0.246
 -0.246  -0.241  -0.235  -0.233  -0.196  -0.193
 -- Virtual --
 -0.118  -0.106  -0.073  -0.072  -0.037  -0.033  -0.030  -0.023
 -0.022  -0.019  -0.016  -0.014  -0.011  -0.001  -0.001   0.002
  0.003   0.008   0.012   0.012   0.020   0.022   0.026   0.029
  0.047   0.053   0.060   0.061   0.068   0.076   0.083   0.092
  0.094   0.095   0.096   0.103   0.106   0.107   0.108   0.111
  0.111   0.118   0.120   0.121   0.123   0.125   0.126   0.129
  0.130   0.132   0.133   0.136   0.138   0.144   0.145   0.150
  0.151   0.152   0.157   0.158   0.159   0.160   0.161   0.164
  0.165   0.167   0.168   0.169   0.170   0.174   0.176   0.177
  0.179   0.179   0.181   0.191   0.193   0.193   0.199   0.200
  0.202   0.203   0.206   0.207   0.210   0.212   0.216   0.216
  0.218   0.221   0.224   0.227   0.229   0.229   0.235   0.239
  0.240   0.241   0.245   0.249   0.253   0.254   0.256   0.260
  0.261   0.264   0.265   0.269   0.271   0.275   0.275   0.278
  0.281   0.283   0.287   0.290   0.291   0.293   0.298   0.300
  0.303   0.307   0.308   0.317   0.319   0.320   0.323   0.324
  0.326   0.328   0.337   0.338   0.341   0.345   0.346   0.349
  0.352   0.356   0.357   0.359   0.361   0.363   0.363   0.369
  0.373   0.374   0.376   0.380   0.383   0.389   0.394   0.396
  0.402   0.404   0.412   0.413   0.415   0.425   0.427   0.435
  0.436   0.438   0.442   0.446   0.453   0.454   0.459   0.462
  0.470   0.475   0.481   0.485   0.486   0.490   0.495   0.497
  0.501   0.503   0.506   0.506   0.509   0.512   0.513   0.518
  0.520   0.521   0.521   0.526   0.528   0.529   0.531   0.532
  0.535   0.536   0.537   0.538   0.541   0.544   0.545   0.546
  0.549   0.551   0.554   0.557   0.558   0.560   0.561   0.566
  0.567   0.568   0.569   0.571   0.572   0.577   0.578   0.579
  0.583   0.584   0.585   0.589   0.591   0.593   0.594   0.596
  0.599   0.600   0.602   0.604   0.606   0.609   0.611   0.612
  0.613   0.620   0.623   0.626   0.626   0.627   0.628   0.631
  0.635   0.635   0.636   0.638   0.641   0.641   0.644   0.646
  0.649   0.653   0.654   0.657   0.660   0.660   0.662   0.666
  0.667   0.672   0.672   0.674   0.684   0.685   0.689   0.694
  0.696   0.697   0.697   0.698   0.701   0.707   0.713   0.714
  0.718   0.721   0.725   0.731   0.733   0.738   0.739   0.746
  0.753   0.757   0.758   0.759   0.761   0.764   0.766   0.770
  0.771   0.778   0.782   0.784   0.787   0.788   0.791   0.793
  0.797   0.799   0.801   0.802   0.803   0.803   0.807   0.808
  0.808   0.809   0.814   0.816   0.818   0.820   0.822   0.824
  0.825   0.827   0.829   0.831   0.831   0.834   0.836   0.836
  0.839   0.841   0.844   0.847   0.849   0.850   0.853   0.855
  0.857   0.858   0.859   0.861   0.864   0.868   0.869   0.870
  0.872   0.874   0.875   0.875   0.879   0.882   0.888   0.888
  0.890   0.890   0.897   0.900   0.901   0.904   0.906   0.906
  0.907   0.908   0.912   0.913   0.914   0.916   0.918   0.921
  0.925   0.926   0.928   0.930   0.931   0.933   0.937   0.945
  0.948   0.951   0.953   0.956   0.960   0.961   0.962   0.964
  0.966   0.967   0.968   0.970   0.973   0.975   0.977   0.980
  0.983   0.984   0.987   0.988   0.990   0.995   0.996   0.997
  1.001   1.003   1.005   1.007   1.009   1.011   1.014   1.018
  1.021   1.022   1.024   1.026   1.030   1.035   1.036   1.038
  1.041   1.045   1.050   1.053   1.056   1.058   1.064   1.066
  1.067   1.071   1.079   1.082   1.088   1.088   1.097   1.101
  1.108   1.116   1.121   1.125   1.132   1.134   1.135   1.138
  1.142   1.148   1.152   1.155   1.159   1.162   1.165   1.177
  1.179   1.183   1.186   1.191   1.195   1.201   1.204   1.210
  1.218   1.223   1.233   1.238   1.246   1.249   1.254   1.255
  1.257   1.268   1.272   1.281   1.285   1.287   1.298   1.302
  1.302   1.310   1.317   1.324   1.324   1.330   1.331   1.332
  1.335   1.338   1.341   1.352   1.359   1.361   1.364   1.367
  1.370   1.372   1.377   1.378   1.385   1.387   1.392   1.397
  1.398   1.400   1.406   1.413   1.417   1.418   1.419   1.423
  1.425   1.429   1.431   1.440   1.445   1.448   1.458   1.459
  1.474   1.482   1.487   1.487   1.496   1.501   1.510   1.513
  1.516   1.518   1.519   1.531   1.532   1.543   1.549   1.551
  1.573   1.573   1.578   1.580   1.593   1.596   1.602   1.606
  1.608   1.618   1.620   1.631   1.642   1.649   1.651   1.655
  1.659   1.665   1.670   1.676   1.679   1.685   1.687   1.690
  1.698   1.699   1.700   1.702   1.705   1.707   1.710   1.710
  1.715   1.718   1.722   1.728   1.738   1.738   1.742   1.747
  1.753   1.754   1.764   1.768   1.768   1.772   1.776   1.777
  1.779   1.785   1.785   1.790   1.798   1.802   1.805   1.813
  1.813   1.824   1.826   1.830   1.833   1.840   1.841   1.842
  1.847   1.852   1.859   1.862   1.863   1.865   1.866   1.870
  1.873   1.875   1.879   1.884   1.886   1.890   1.891   1.893
  1.905   1.907   1.910   1.912   1.916   1.925   1.930   1.931
  1.931   1.935   1.937   1.941   1.943   1.946   1.947   1.948
  1.953   1.956   1.965   1.965   1.978   1.981   1.989   2.000
  2.002   2.006   2.010   2.010   2.015   2.016   2.017   2.019
  2.034   2.037   2.038   2.042   2.045   2.048   2.053   2.057
  2.062   2.071   2.079   2.082   2.086   2.088   2.096   2.098
  2.102   2.113   2.116   2.118   2.120   2.123   2.125   2.129
  2.136   2.136   2.140   2.145   2.148   2.150   2.156   2.157
  2.161   2.164   2.167   2.174   2.182   2.187   2.188   2.190
  2.193   2.197   2.200   2.210   2.211   2.217   2.223   2.224
  2.225   2.228   2.231   2.236   2.240   2.245   2.245   2.253
  2.257   2.257   2.260   2.262   2.270   2.271   2.275   2.277
  2.286   2.286   2.286   2.290   2.293   2.300   2.305   2.308
  2.311   2.312   2.318   2.321   2.321   2.324   2.327   2.330
  2.331   2.335   2.343   2.346   2.347   2.347   2.354   2.357
  2.359   2.366   2.367   2.373   2.375   2.377   2.379   2.385
  2.386   2.397   2.402   2.402   2.409   2.410   2.417   2.418
  2.424   2.426   2.429   2.430   2.433   2.438   2.439   2.442
  2.449   2.451   2.455   2.457   2.466   2.470   2.471   2.473
  2.479   2.489   2.490   2.492   2.495   2.496   2.499   2.503
  2.504   2.510   2.517   2.524   2.526   2.529   2.529   2.534
  2.536   2.539   2.545   2.546   2.547   2.550   2.554   2.558
  2.565   2.566   2.572   2.576   2.578   2.582   2.585   2.590
  2.597   2.599   2.615   2.620   2.623   2.626   2.633   2.637
  2.642   2.650   2.652   2.656   2.659   2.663   2.668   2.674
  2.674   2.676   2.681   2.683   2.685   2.688   2.689   2.692
  2.697   2.703   2.714   2.719   2.719   2.727   2.732   2.734
  2.739   2.745   2.746   2.750   2.762   2.764   2.772   2.794
  2.795   2.797   2.800   2.804   2.810   2.812   2.820   2.821
  2.835   2.836   2.839   2.844   2.853   2.861   2.861   2.869
  2.874   2.877   2.880   2.881   2.886   2.897   2.901   2.906
  2.912   2.919   2.925   2.926   2.927   2.928   2.936   2.947
  2.951   2.958   2.962   2.968   2.980   2.988   2.993   3.013
  3.026   3.047   3.057   3.062   3.079   3.082   3.104   3.122
  3.155   3.178   3.187   3.197   3.198   3.218   3.221   3.235
  3.241   3.255   3.260   3.265   3.267   3.275   3.279   3.285
  3.287   3.296   3.297   3.307   3.313   3.328   3.331   3.334
  3.342   3.356   3.361   3.372   3.397   3.400   3.420   3.424
  3.430   3.439   3.449   3.475   3.475   3.499   3.536   3.538
  3.551   3.554   3.557   3.558   3.565   3.571   3.598   3.602
  3.625   3.634   3.711   3.749   3.844   3.851   3.923   3.924
  3.926   3.938   3.944   3.947   3.979   3.981   3.989   3.994
  4.012   4.022   4.079   4.093   4.094   4.111   4.115   4.119
  4.127   4.130   4.142   4.143   4.154   4.158   4.175   4.179
  4.215   4.220   4.223   4.232   4.237   4.253   4.274   4.282
  4.284   4.295   4.320   4.344   4.374   4.376   4.387   4.412
  4.430   4.437   4.448   4.450   4.463   4.472   4.491   4.492
  4.526   4.535   4.541   4.542   4.595   4.630   4.651   4.659
  4.678   4.685   4.694   4.713   4.714   4.764   4.775   4.811
 --------------------------------------------------------------
 
          Ground-State Mulliken Net Atomic Charges

     Atom                 Charge (a.u.)
  ----------------------------------------
      1 C                     0.274793
      2 C                    -0.115935
      3 N                    -0.486338
      4 C                    -0.036107
      5 C                     0.076521
      6 C                     0.014951
      7 C                     0.022891
      8 C                     0.058597
      9 C                     0.299177
     10 N                    -0.460672
     11 N                    -0.596449
     12 C                     0.182472
     13 C                     0.233027
     14 S                     0.598905
     15 N                    -0.548869
     16 C                    -0.203735
     17 S                     0.353356
     18 C                    -0.123800
     19 C                    -0.196812
     20 S                     0.265846
     21 C                     0.157716
     22 C                     0.038888
     23 C                    -0.302313
     24 C                    -0.083580
     25 N                    -0.436805
     26 S                     0.288979
     27 C                     0.096342
     28 C                    -0.291421
     29 C                    -0.237312
     30 H                     0.081900
     31 H                     0.113865
     32 H                     0.104956
     33 H                     0.117254
     34 H                     0.130146
     35 H                     0.116611
     36 H                     0.108202
     37 H                     0.135748
     38 H                     0.123200
     39 C                    -0.178841
     40 H                     0.107397
     41 H                     0.095318
     42 H                     0.096111
     43 C                    -0.176934
     44 H                     0.084514
     45 C                    -0.182860
     46 H                     0.097382
     47 H                     0.075693
     48 H                     0.126604
     49 C                    -0.182068
     50 H                     0.091066
     51 C                    -0.316845
     52 H                     0.085170
     53 H                     0.109981
     54 H                     0.103024
     55 H                     0.095866
     56 C                     0.282137
     57 C                    -0.115472
     58 N                    -0.500866
     59 C                    -0.070444
     60 C                     0.097069
     61 C                     0.020163
     62 C                     0.012579
     63 C                     0.052114
     64 C                     0.283368
     65 N                    -0.501538
     66 N                    -0.562257
     67 C                     0.165826
     68 C                     0.263903
     69 S                     0.597003
     70 N                    -0.538989
     71 C                    -0.194835
     72 S                     0.356817
     73 C                    -0.129321
     74 C                    -0.203882
     75 S                     0.272010
     76 C                     0.147966
     77 C                     0.061235
     78 C                    -0.293590
     79 C                    -0.096861
     80 N                    -0.427319
     81 S                     0.251452
     82 C                     0.128312
     83 C                    -0.314557
     84 C                    -0.222436
     85 H                     0.088280
     86 H                     0.109638
     87 H                     0.127482
     88 H                     0.111710
     89 H                     0.128872
     90 H                     0.101577
     91 H                     0.119631
     92 H                     0.145000
     93 H                     0.102402
     94 C                    -0.187759
     95 H                     0.122435
     96 H                     0.092469
     97 H                     0.109595
     98 C                    -0.189392
     99 H                     0.093683
    100 C                    -0.190442
    101 H                     0.095777
    102 H                     0.093387
    103 H                     0.092798
    104 C                    -0.182085
    105 H                     0.096429
    106 C                    -0.306871
    107 H                     0.092667
    108 H                     0.103923
    109 H                     0.104501
    110 H                     0.099930
  ----------------------------------------
  Sum of atomic charges =     0.000000

 -----------------------------------------------------------------
                    Cartesian Multipole Moments
 -----------------------------------------------------------------
    Charge (ESU x 10^10)
                 0.0000
    Dipole Moment (Debye)
         X       0.3448      Y       3.1567      Z       0.4325
       Tot       3.2048
    Quadrupole Moments (Debye-Ang)
        XX    -390.6843     XY      -0.3384     YY    -423.7391
        XZ      11.8494     YZ       5.4155     ZZ    -440.4636
    Octopole Moments (Debye-Ang^2)
       XXX     224.8692    XXY    -102.2450    XYY    -189.8916
       YYY     284.2595    XXZ    -191.8374    XYZ    -139.8170
       YYZ     -31.8521    XZZ       5.6635    YZZ      19.8029
       ZZZ      67.3672
    Hexadecapole Moments (Debye-Ang^3)
      XXXX -177310.3823   XXXY     430.0197   XXYY  -38875.2227
      XYYY    -292.3714   YYYY  -44887.7971   XXXZ     981.5087
      XXYZ     468.2993   XYYZ     115.1402   YYYZ    -210.8363
      XXZZ  -33380.4539   XYZZ     167.4500   YYZZ   -8985.8116
      XZZZ     -21.2434   YZZZ      71.9825   ZZZZ   -6348.3920
 -----------------------------------------------------------------
Archival summary:
1\1\mn426\SP\ProcedureUnspecified\6-31G**\8105042\afmv_a\FriOct523:27:512018FriOct523:27:512018\0\\#,ProcedureUnspecified,6-31G**,\\0,1\S\C,1,1.74999\C,2,1.36125,1,109.909\C,3,1.37684,2,115.014,1,0.505037,0\C,4,1.3576,3,112.619,2,10.5467,0\C,3,1.40941,2,134.874,1,-178.294,0\H,6,1.08411,3,124.908,2,-7.65107,0\C,6,1.40412,3,111.977,2,176.578,0\H,8,1.08177,6,127.918,3,171.999,0\C,2,1.42299,1,130.2,3,175.812,0\N,10,1.33544,2,117.956,1,21.5791,0\C,11,1.39633,10,108.038,2,178.919,0\H,12,1.08229,11,118.943,10,-176.873,0\C,12,1.36006,11,115.286,10,7.65947,0\H,14,1.082,12,120.213,11,165.061,0\C,5,1.50499,4,127.574,3,174.03,0\N,16,1.35795,5,117.76,4,-48.074,0\C,17,1.29419,16,120.845,5,173.745,0\H,18,1.08862,17,111.429,16,-171.28,0\C,18,1.39431,17,123.243,16,10.995,0\C,20,1.3715,18,116.738,17,-0.779758,0\N,21,1.31968,20,127.816,18,178.771,0\C,21,1.38957,20,120.181,18,-2.55943,0\N,23,1.34694,21,116.838,20,176.304,0\C,20,1.50809,18,123.695,17,-172.37,0\C,25,1.41544,20,122.404,18,-47.3333,0\H,26,1.08863,25,121.263,20,-6.55214,0\N,26,1.32886,25,123.447,20,171.855,0\C,28,1.36267,26,120.552,25,-0.221029,0\C,29,1.38435,28,117.584,26,6.0147,0\H,30,1.0858,29,120.443,28,173.729,0\C,30,1.39133,29,124.454,28,-8.68561,0\H,32,1.08598,30,121.192,29,-179.43,0\C,29,1.54636,28,124.818,26,-176.413,0\H,34,1.09711,29,108.821,28,-122.574,0\H,34,1.09742,29,105.094,28,-13.2797,0\C,34,1.5546,29,111.759,28,107.443,0\H,37,1.09624,34,117.918,29,66.8936,0\H,37,1.09663,34,108.677,29,-176.66,0\C,37,1.52539,34,112.454,29,-52.3701,0\H,40,1.09625,37,106.091,34,-173.083,0\H,40,1.09694,37,108.888,34,69.9356,0\C,40,1.52239,37,115.851,34,-50.0656,0\H,43,1.09662,40,108.74,37,64.3122,0\H,43,1.09716,40,107.964,37,-51.1653,0\C,43,1.55492,40,118.652,37,-175.333,0\H,46,1.09657,43,102.84,40,155.328,0\H,46,1.09738,43,115.163,40,40.352,0\C,46,1.55608,43,114.932,40,-85.6699,0\H,49,1.09654,46,112.211,43,62.3318,0\H,49,1.09678,46,106.074,43,177.109,0\H,49,1.09709,46,110.311,43,-66.2055,0\S,24,1.61289,23,105.969,21,6.6407,0\S,14,1.68515,12,112.825,11,0.301965,0\S,4,1.73929,3,118.469,2,178.23,0\H,13,3.01253,12,82.6099,11,-89.4998,0\C,56,1.08214,13,142.212,12,-46.533,0\C,57,1.37218,56,136.207,13,118.622,0\H,58,1.08165,57,127.081,56,-3.01655,0\N,58,1.37226,57,115.397,56,-175.79,0\C,60,1.31404,58,110.269,57,-5.8662,0\C,61,1.42043,60,108.159,58,174.174,0\C,62,1.38618,61,121.728,60,166.113,0\C,63,1.4073,62,115.144,61,-174,0\C,64,1.3702,63,112.53,62,-12.7419,0\C,63,1.4332,62,133.982,61,-8.15218,0\H,66,1.08358,63,120.513,62,15.2688,0\C,66,1.42758,63,112.321,62,-172.801,0\H,68,1.08157,66,118.829,63,-168.569,0\C,65,1.44528,64,121.331,63,171.267,0\N,70,1.31367,65,113.205,64,-129.866,0\C,71,1.34743,70,121.4,65,-176.711,0\H,72,1.08962,71,117.394,70,176.883,0\C,72,1.4155,71,124.745,70,0.973326,0\C,74,1.39915,72,113.867,71,2.62292,0\N,75,1.33569,74,127.735,72,173.729,0\C,75,1.36917,74,120.776,72,-3.50898,0\N,77,1.33746,75,117.905,74,178.961,0\C,74,1.56557,72,125.311,71,178.717,0\C,79,1.39873,74,117.748,72,50.0925,0\H,80,1.08611,79,127.509,74,-10.6027,0\C,79,1.41357,74,120.466,72,-140.058,0\H,82,1.0889,79,125.218,74,6.925,0\N,82,1.38746,79,120.202,74,-173.801,0\C,84,1.36892,82,119.98,79,3.80043,0\C,85,1.40661,84,120.616,82,0.996839,0\H,86,1.08624,85,119.211,84,177.962,0\C,85,1.55548,84,120.77,82,174.973,0\H,88,1.09654,85,112.118,84,147.885,0\H,88,1.09703,85,115.584,84,20.6709,0\C,88,1.56861,85,111.888,84,-96.1946,0\H,91,1.0974,88,110.937,85,68.6276,0\H,91,1.09762,88,107.221,85,-46.3357,0\S,76,1.61949,75,107.729,74,-178.445,0\C,91,1.62073,88,111.125,85,-168.119,0\H,95,1.09673,91,112.574,88,53.0998,0\H,95,1.09748,91,111.976,88,178.189,0\C,95,1.61668,91,113.538,88,-66.3007,0\H,98,1.09669,95,110.983,91,65.3206,0\H,98,1.09733,95,103.594,91,-47.5871,0\C,98,1.59344,95,115.734,91,-165.179,0\H,101,1.09624,98,105.332,95,-172.698,0\H,101,1.0976,98,110.869,95,69.1107,0\C,101,1.50023,98,114.844,95,-52.5574,0\H,104,1.09661,101,103.043,98,179.863,0\H,104,1.09699,101,111.32,98,-55.6899,0\H,104,1.0977,101,110.965,98,71.4758,0\S,65,1.75027,64,111.569,63,9.59802,0\S,61,1.7629,60,116.47,58,0.862459,0\S,64,1.77658,63,116.737,62,166.934,0\\\@

 Total job time:  86.16s(wall), 930.53s(cpu) 
 Fri Oct  5 23:27:51 2018

        *************************************************************
        *                                                           *
        *  Thank you very much for using Q-Chem.  Have a nice day.  *
        *                                                           *
        *************************************************************


