
Running Job 1 of 1 ./7/84.qcin
qchem ./7/84.qcin_20652.0 /tmpu/cab_g/afmv_a/scratch_qchem/qchem20652/ 1
/tmpu/appuserlic/qchem4.4/serial-multicore/exe/qcprog.exe_s ./7/84.qcin_20652.0 /tmpu/cab_g/afmv_a/scratch_qchem/qchem20652/
Check license passed

                  Welcome to Q-Chem
     A Quantum Leap Into The Future Of Chemistry


 Q-Chem 4.4, Q-Chem, Inc., Pleasanton, CA (2016)

 Y. Shao,  Z. Gan,  E. Epifanovsky,  A. T. B. Gilbert,  M. Wormit,  
 J. Kussmann,  A. W. Lange,  A. Behn,  J. Deng,  X. Feng,  D. Ghosh,  
 M. Goldey,  P. R. Horn,  L. D. Jacobson,  I. Kaliman,  F. Rob,  
 R. Z. Khaliullin,  T. Kus,  A. Landau,  J. Liu,  E. I. Proynov,  Y. M. Rhee,  
 R. M. Richard,  M. A. Rohrdanz,  R. P. Steele,  E. J. Sundstrom,  
 H. L. Woodcock III,  P. M. Zimmerman,  D. Zuev,  B. Albrecht,  E. Alguire,  
 B. Austin,  S. A. Baeppler,  G. J. O. Beran,  Y. A. Bernard,  E. Berquist,  
 K. Brandhorst,  K. B. Bravaya,  S. T. Brown,  D. Casanova,  C.-M. Chang,  
 Y. Chen,  S. H. Chien,  K. D. Closser,  M. P. Coons,  D. L. Crittenden,  
 S. Dasgupta,  M. Diedenhofen,  R. A. DiStasio Jr.,  H. Do,  A. D. Dutoi,  
 R. G. Edgar,  P.-T. Fang,  S. Fatehi,  Q. Feng,  L. Fusti-Molnar,  
 A. Ghysels,  A. Golubeva-Zadorozhnaya,  J. Gomes,  A. Gunina,  
 M. W. D. Hanson-Heine,  P. H. P. Harbach,  A. W. Hauser,  J. E. Herr,  
 E. G. Hohenstein,  Z. C. Holden,  K. Hui,  T.-C. Jagau,  H. Ji,  B. Kaduk,  
 K. Khistyaev,  Jaehoon Kim,  Jihan Kim,  R. A. King,  P. Klunzinger,  
 K. Koh,  D. Kosenkov,  T. Kowalczyk,  C. M. Krauter,  A. Kunitsa,  
 K. U. Lao,  A. Laurent,  K. V. Lawler,  J. Lee,  D. Lefrancois,  S. Lehtola,  
 S. V. Levchenko,  C. Y. Lin,  Y.-S. Lin,  F. Liu,  E. Livshits,  
 R. C. Lochan,  A. Luenser,  P. Manohar,  S. F. Manzer,  S.-P. Mao,  Y. Mao,  
 N. Mardirossian,  A. V. Marenich,  L. A. Martinez-Martinez,  S. A. Maurer,  
 N. J. Mayhall,  J.-M. Mewes,  A. F. Morrison,  K. Nanda,  T. S. Nguyen-Beck,  
 C. M. Oana,  R. Olivares-Amaya,  D. P. O'Neill,  J. A. Parkhill,  
 T. M. Perrine,  R. Peverati,  P. A. Pieniazek,  F. Plasser,  A. Prociuk,  
 D. R. Rehn,  E. Rosta,  N. J. Russ,  N. Sergueev,  S. M. Sharada,  
 S. Sharma,  D. W. Small,  A. Sodt,  T. Stauch,  T. Stein,  D. Stuck,  
 Y.-C. Su,  A. J. W. Thom,  T. Tsuchimochi,  L. Vogt,  O. Vydrov,  T. Wang,  
 M. A. Watson,  J. Wenzel,  A. White,  C. F. Williams,  V. Vanovschi,  
 K. Yao,  S. Yeganeh,  S. R. Yost,  Z.-Q. You,  I. Y. Zhang,  X. Zhang,  
 Y. Zhao,  B. R. Brooks,  G. K. L. Chan,  D. M. Chipman,  C. J. Cramer,  
 W. A. Goddard III,  M. S. Gordon,  W. J. Hehre,  A. Klamt,  
 H. F. Schaefer III,  M. W. Schmidt,  C. D. Sherrill,  D. G. Truhlar,  
 A. Warshel,  X. Xu,  A. Aspuru-Guzik,  R. Baer,  A. T. Bell,  N. A. Besley,  
 J.-D. Chai,  A. Dreuw,  B. D. Dunietz,  T. R. Furlani,  S. R. Gwaltney,  
 C.-P. Hsu,  Y. Jung,  J. Kong,  D. S. Lambrecht,  W. Liang,  C. Ochsenfeld,  
 V. A. Rassolov,  L. V. Slipchenko,  J. E. Subotnik,  T. Van Voorhis,  
 J. M. Herbert,  A. I. Krylov,  P. M. W. Gill,  M. Head-Gordon

 Contributors to earlier versions of Q-Chem not listed above: 
 R. D. Adamson,  J. Baker,  E. F. C. Byrd,  A. K. Chakraborty,  C.-L. Cheng,  
 H. Dachsel,  R. J. Doerksen,  G. Hawkins,  A. Heyden,  S. Hirata,  
 G. Kedziora,  F. J. Keil,  C. Kelley,  P. P. Korambath,  W. Kurlancheek,  
 A. M. Lee,  M. S. Lee,  D. Liotard,  I. Lotan,  P. E. Maslen,  N. Nair,  
 D. Neuhauser,  R. Olson,  B. Peters,  J. Ritchie,  N. E. Schultz,  
 N. Shenvi,  A. C. Simmonett,  K. S. Thanthiriwatte,  Q. Wu,  W. Zhang

 Please cite Q-Chem as follows:
 Y. Shao et al., Mol. Phys. 113, 184-215 (2015)
 DOI: 10.1080/00268976.2014.952696

 Q-Chem 4.4.2 for Intel X86 Linux

 Parts of Q-Chem use Armadillo 5.200.1 (Boston Tea Smuggler).
 http://arma.sourceforge.net/

 Q-Chem begins on Fri Oct  5 23:51:46 2018  

Host: 
0

     Scratch files written to /tmpu/cab_g/afmv_a/scratch_qchem/qchem20652//
 Dec716 11556_ 22328  22283 4050   
Processing $rem in /tmpu/appuserlic/qchem4.4/serial-multicore/config/preferences.
 MEM_TOTAL  2000 
FILE_GEOM_ORG=        593

Checking the input file for inconsistencies... 	...done.

--------------------------------------------------------------
User input:
--------------------------------------------------------------
$comment
SP
$end

$rem
MEM_STATIC 5000
MEM_TOTAL 20000
JOBTYPE SP
EXCHANGE B3LYP
BASIS 6-31g(d,p)
$end

$molecule
0 1
C          11.543000     11.175000      1.142000
C          10.419000     11.428000      0.352000
N          11.504000     11.482000      2.480000
C           9.239000     11.872000      0.926000
C          10.393000     11.826000      3.032000
C           9.203000     12.102000      2.347000
C           7.943000     12.547000      3.004000
C           7.068000     13.538000      2.438000
C           7.370000     11.847000      4.088000
N           5.884000     13.910000      2.885000
N           8.023000     10.961000      4.804000
C           6.150000     12.283000      4.644000
C           5.456000     13.333000      4.048000
S           6.952000     10.483000      5.979000
N           5.775000     11.545000      5.731000
C           4.235000     13.886000      4.567000
S           2.808000     14.371000      3.642000
C           3.995000     14.096000      5.869000
C           1.970000     14.942000      5.097000
S           5.048000     14.047000      7.237000
C           2.798000     14.769000      6.181000
C           0.557000     15.448000      5.185000
C           3.780000     14.614000      8.254000
C           2.631000     14.930000      7.545000
N          -0.243000     15.164000      4.169000
S          -0.063000     16.580000      6.370000
C          -1.431000     15.792000      4.293000
C          -1.557000     16.618000      5.425000
C          12.796000     10.612000      0.562000
H          10.441000     11.223000     -0.714000
H           8.386000     12.056000      0.279000
H          10.430000     11.950000      4.114000
H           7.450000     14.006000      1.532000
H           3.909000     14.550000      9.326000
H           1.734000     15.334000      8.001000
H          -2.195000     15.828000      3.528000
H          -2.394000     17.272000      5.636000
H          12.750000     10.476000     -0.526000
C          13.031000      9.126000      0.869000
H          13.666000     11.224000      0.828000
H          12.321000      8.518000      0.295000
H          12.765000      8.929000      1.915000
C          14.422000      8.635000      0.499000
H          14.522000      8.883000     -0.565000
C          14.401000      7.076000      0.595000
H          15.127000      9.230000      1.092000
H          13.687000      6.801000     -0.191000
H          14.068000      6.725000      1.579000
C          15.755000      6.484000      0.222000
H          16.249000      6.986000     -0.619000
C          15.739000      5.053000      0.000000
H          16.438000      6.791000      1.024000
H          15.416000      4.514000      0.899000
H          16.760000      4.748000     -0.259000
H          15.170000      4.756000     -0.890000
C          15.276000      8.453000     -3.146000
C          14.006000      9.084000     -3.257000
N          16.464000      9.031000     -3.022000
C          14.049000     10.520000     -3.144000
C          16.358000     10.352000     -2.907000
C          15.236000     11.203000     -2.972000
C          15.362000     12.634000     -2.726000
C          16.407000     13.421000     -3.280000
C          14.291000     13.429000     -2.104000
N          16.465000     14.752000     -3.160000
N          13.142000     12.986000     -1.626000
C          14.338000     14.829000     -2.091000
C          15.468000     15.440000     -2.605000
S          12.290000     14.187000     -0.995000
N          13.289000     15.365000     -1.568000
C          15.669000     16.923000     -2.728000
S          14.400000     18.157000     -2.410000
C          16.798000     17.584000     -3.233000
C          15.343000     19.488000     -2.946000
S          18.359000     17.064000     -3.656000
C          16.563000     18.978000     -3.320000
C          14.839000     20.760000     -3.300000
C          18.730000     18.745000     -4.166000
C          17.655000     19.595000     -4.013000
N          15.635000     21.737000     -3.690000
S          13.086000     21.198000     -3.222000
C          14.923000     22.903000     -3.925000
C          13.549000     22.797000     -3.698000
C          15.266000      7.019000     -3.254000
H          13.067000      8.616000     -3.536000
H          13.071000     10.993000     -3.162000
H          17.298000     10.865000     -2.707000
H          17.222000     12.900000     -3.780000
H          19.661000     18.966000     -4.672000
H          17.782000     20.651000     -4.222000
H          15.513000     23.737000     -4.284000
H          12.825000     23.601000     -3.677000
H          16.217000      6.514000     -3.040000
C          14.820000      6.619000     -4.671000
H          14.523000      6.634000     -2.545000
H          15.223000      7.221000     -5.496000
H          13.743000      6.781000     -4.800000
C          15.102000      5.108000     -5.031000
H          16.158000      4.812000     -5.010000
C          14.495000      4.661000     -6.349000
H          14.770000      4.463000     -4.209000
H          13.398000      4.673000     -6.351000
H          14.945000      3.671000     -6.490000
C          14.888000      5.402000     -7.600000
H          14.549000      6.446000     -7.612000
C          14.341000      4.771000     -8.915000
H          15.983000      5.443000     -7.648000
H          13.255000      4.919000     -8.963000
H          14.634000      3.726000     -9.074000
H          14.708000      5.373000     -9.755000
$end

--------------------------------------------------------------
 ----------------------------------------------------------------
             Standard Nuclear Orientation (Angstroms)
    I     Atom           X                Y                Z
 ----------------------------------------------------------------
    1      C       0.2052814262     2.1733993228    -1.1009955802
    2      C      -0.2735308416     1.9362592847     0.1897361559
    3      N      -0.6348767449     1.9883166714    -2.1714593393
    4      C      -1.6083848872     1.6328053244     0.4020857990
    5      C      -1.8901367978     1.7771677248    -1.9788474966
    6      C      -2.4856023962     1.5312511310    -0.7352853751
    7      C      -3.9332377248     1.2399890416    -0.5434720530
    8      C      -4.4226376736     0.2708523469     0.3995675841
    9      C      -4.9457544750     2.0726223754    -1.0677969161
   10      N      -5.6792011725     0.0281144388     0.7192165810
   11      N      -4.7341933573     2.9670159375    -2.0055405109
   12      C      -6.3016117814     1.7785052093    -0.8172414186
   13      C      -6.6339934684     0.7347237433     0.0426391926
   14      S      -6.2263621838     3.6239663696    -2.3185873494
   15      N      -7.1516932399     2.6344808077    -1.4587281984
   16      C      -7.9822514739     0.3212161209     0.3205290928
   17      S      -8.6534827811    -0.1357514562     1.8914549872
   18      C      -8.9531536399     0.2442380741    -0.6005177922
   19      C     -10.2361643872    -0.5136657479     1.1860404126
   20      S      -8.8889621068     0.3345274438    -2.3239914000
   21      C     -10.1755445608    -0.3083585441    -0.1721728213
   22      C     -11.4848066115    -0.9039478472     1.9269327655
   23      C     -10.5650161550    -0.0458568618    -2.4227466913
   24      C     -11.1179170545    -0.3366462596    -1.1848128799
   25      N     -11.5113506699    -0.6513946803     3.2263265899
   26      S     -12.7974783709    -1.8789275099     1.2973642552
   27      C     -12.6126415493    -1.1763947789     3.8030737577
   28      C     -13.4615481233    -1.8886257248     2.9360900738
   29      C       1.6158117926     2.5891358931    -1.3478663755
   30      H       0.3841020445     2.0450593437     1.0467930585
   31      H      -1.9433849031     1.4566374063     1.4203263669
   32      H      -2.5003633028     1.7458617847    -2.8811293543
   33      H      -3.6416504784    -0.3015931348     0.8977133171
   34      H     -11.0742295511     0.1019076232    -3.3655024254
   35      H     -12.1514076053    -0.6316498680    -1.0411773951
   36      H     -12.7909831272    -1.2224507425     4.8690428613
   37      H     -14.3325501313    -2.4578518654     3.2363284841
   38      H       2.2235756070     2.6325048727    -0.4351242008
   39      C       1.7931839856     4.0747787964    -1.6929377726
   40      H       2.0965728855     1.9399723118    -2.0892538695
   41      H       1.6195163363     4.6811806268    -0.7955212764
   42      H       0.9947263531     4.3816584332    -2.3799394448
   43      C       3.1856248406     4.4271295049    -2.1927571835
   44      H       3.8547343314     4.0803107041    -1.3955061511
   45      C       3.2864551510     5.9858067594    -2.2150386740
   46      H       3.3457007425     3.8356739554    -3.1022928005
   47      H       3.1952440827     6.2431604931    -1.1526514580
   48      H       2.4868888260     6.4452137895    -2.8083218043
   49      C       4.6619751159     6.4409708509    -2.6879863199
   50      H       5.4920301380     5.8321355216    -2.3089754994
   51      C       4.9366879591     7.8443128486    -2.4589337245
   52      H       4.7153238668     6.1555239184    -3.7461053867
   53      H       4.2153088947     8.4823070548    -2.9839352848
   54      H       5.9453023807     8.0490089522    -2.8375409795
   55      H       5.0252570662     8.1036841278    -1.3964121704
   56      C       6.0056765666     4.2259117488     0.2679916207
   57      C       4.9738438009     3.6834565673     1.0831268975
   58      N       6.8292998876     3.5745461957    -0.5432861008
   59      C       4.7834815058     2.2636153303     0.9265157276
   60      C       6.5302046371     2.2801613129    -0.6111963824
   61      C       5.5668354748     1.5122132821     0.0739938680
   62      C       5.3670889810     0.1028202120    -0.2388407720
   63      C       6.4444212317    -0.8048627248    -0.4226257224
   64      C       4.0534687307    -0.5531989527    -0.1388873150
   65      N       6.2738003243    -2.1208951018    -0.5907693773
   66      N       2.8978640031     0.0138101597     0.1577814904
   67      C       3.9282269458    -1.9463185334    -0.2157659805
   68      C       5.0706402211    -2.6819609662    -0.4768006897
   69      S       1.7107959229    -1.0609720338     0.1111059124
   70      N       2.7184870848    -2.3553317373    -0.0412275380
   71      C       5.1392961340    -4.1808361904    -0.5357788897
   72      S       3.7928851558    -5.2848767927    -0.0857646385
   73      C       6.2701317324    -4.9652880137    -0.8049130312
   74      C       4.7169072069    -6.7238436946    -0.2395941033
   75      S       7.8338045545    -4.6013582952    -1.3603700194
   76      C       5.9756410196    -6.3402987286    -0.6356476955
   77      C       4.3732381714    -7.9810768626     0.3068236447
   78      C       8.2417886228    -6.3433660851    -1.2105038792
   79      C       7.1903062452    -7.0947393388    -0.7295079922
   80      N       5.1333644916    -9.0447181205     0.1304143143
   81      S       2.8632912777    -8.2794912160     1.2565321535
   82      C       4.5645743513   -10.1708330023     0.7049298053
   83      C       3.3350311485    -9.9438823653     1.3273106540
   84      C       6.2195798529     5.6417584591     0.4011962639
   85      H       4.4288558946     4.1935444251     1.8714063906
   86      H       3.9512650012     1.8646175224     1.4998859734
   87      H       7.1167261607     1.7183875550    -1.3372623210
   88      H       7.4501519832    -0.3914025051    -0.4793910468
   89      H       9.2621860488    -6.6761352278    -1.3508313201
   90      H       7.2964497459    -8.1714663156    -0.6636401348
   91      H       5.1562493438   -11.0744433588     0.6278193209
   92      H       2.6486145274   -10.6871071377     1.7113447149
   93      H       6.9200874758     6.0916855148    -0.3143990930
   94      C       6.7240224481     5.9482531666     1.8219016036
   95      H       5.2517791934     6.1412699415     0.2715615366
   96      H       7.4601848395     5.2482181010     2.2383795029
   97      H       5.9106703022     5.8558340711     2.5517858393
   98      C       7.3282412203     7.3969216335     1.9907931323
   99      H       8.2020473850     7.6145692296     1.3644662924
  100      C       7.6505459748     7.7706922852     3.4266890704
  101      H       6.6559515554     8.1341506589     1.5364221708
  102      H       6.7642028426     7.8398723313     4.0694697275
  103      H       8.2057698022     8.7084980857     3.3053309970
  104      C       8.6097673956     6.8960614569     4.1905255582
  105      H       8.2267709729     5.8830081354     4.3695163620
  106      C       8.9992653846     7.4484365657     5.5940098138
  107      H       9.5175441630     6.7700064754     3.5879797241
  108      H       8.1333121497     7.3776752645     6.2638768403
  109      H       9.4441988257     8.4509378748     5.5805800584
  110      H       9.7150295508     6.7497569989     6.0437002865
 ----------------------------------------------------------------
 Molecular Point Group                 C1    NOp =  1
 Largest Abelian Subgroup              C1    NOp =  1
 Nuclear Repulsion Energy = 10905.8481974243 hartrees
 There are      270 alpha and      270 beta electrons
 Requested basis set is 6-31G(d,p)
 There are 406 shells and 1262 basis functions

 Total QAlloc Memory Limit  20000 MB
 Mega-Array Size      4888 MB
 MEM_STATIC part      5000 MB
 A cutoff of  1.0D-08 yielded  14352 shell pairs
 There are    144227 function pairs
 
 -------------------------------------------------------
 OpenMP Integral Computing Module                       
 Release: version 1.0, May 2013, Q-Chem Inc. Pittsburgh 
 -------------------------------------------------------
 Integral Job Info:
 Integral job number is                      11
 Integral operator is                         1
 short-range coefficients                     0
 long-range coefficients              100000000
 Omega coefficients                           0
 if combine SR and LR in K                    0
 Integral screening is                        0
 Integral computing path is                   2
 max size of driver memory is            800000
 size of driver memory is                593474
 size of scratch memory is             15166112
 max col of scratch BK array               1296
 max len of scratch array in speh3          155
 max len of scratch index in speh4           18
 max int batch size is                      520
 min int batch size is                       52
 fixed nKL is                                52
 max L of basis functions is                  2
 order of int derivative is                   0
 number of shells is                        406
 number of basis is                        1262
 number of cartesian basis is              1262
 number of contracted shell pairs         14352
 number of primitive shell pairs          45159
 maxK2 (contraction) of shell pair           36
 max number of K2 of shell pair               1
 max number of CS2 of shell pair           1393
 max number of PS2 of shell pair           8094
 mem total for path MDJ                  295976
 -------------------------------------------------------
 Smallest overlap matrix eigenvalue = 3.78E-04

 Scale SEOQF with 1.000000e-02/1.000000e-02/1.000000e-02

 Standard Electronic Orientation quadrupole field applied
 Nucleus-field energy     =     0.0000001478 hartrees
 Guess from superposition of atomic densities
 Warning:  Energy on first SCF cycle will be non-variational
 A restricted hybrid HF-DFT SCF calculation will be
 performed using Pulay DIIS extrapolation
 Exchange:     0.2000 Hartree-Fock + 0.0800 Slater + 0.7200 B88
 Correlation:  0.1900 VWN1RPA + 0.8100 LYP
 Using SG-1 standard quadrature grid
 SCF converges when DIIS error is below 1.0E-05
 using 16 threads for integral computing 
 -------------------------------------------------------
 OpenMP BLAS3 based DFT computing Module                
 Release: version 1.0, May 2013, Q-Chem Inc. Pittsburgh 
 -------------------------------------------------------
 ---------------------------------------
  Cycle       Energy         DIIS Error
 ---------------------------------------
    1   -5680.9490170285      2.18E-02
    2   -5662.4459561823      2.21E-03
    3   -5660.8455791634      3.49E-03
    4   -5663.3045000146      9.82E-04
    5   -5663.4742187953      4.12E-04
    6   -5663.4931979705      2.72E-04
    7   -5663.5070619633      8.12E-05
    8   -5663.5082314548      3.05E-05
    9   -5663.5084018769      1.23E-05
   10   -5663.5084330330      3.72E-06 Convergence criterion met
 ---------------------------------------
 SCF time:  CPU 1091.68 s  wall 96.62 s
 SCF   energy in the final basis set = -5663.5084330330
 Total energy in the final basis set = -5663.5084330330
 
 --------------------------------------------------------------
 
                    Orbital Energies (a.u.)
 --------------------------------------------------------------
 
 Alpha MOs
 -- Occupied --
-88.991 -88.991 -88.932 -88.924 -88.923 -88.920 -88.909 -88.907
-14.389 -14.379 -14.376 -14.374 -14.352 -14.349 -14.343 -14.342
-14.337 -14.326 -10.273 -10.270 -10.263 -10.260 -10.256 -10.256
-10.252 -10.248 -10.246 -10.242 -10.241 -10.239 -10.235 -10.233
-10.232 -10.232 -10.232 -10.231 -10.230 -10.230 -10.229 -10.229
-10.228 -10.227 -10.225 -10.222 -10.222 -10.220 -10.217 -10.216
-10.214 -10.213 -10.207 -10.206 -10.203 -10.199 -10.199 -10.191
-10.187 -10.181 -10.180 -10.178 -10.177 -10.176 -10.175 -10.175
-10.171 -10.170 -10.164 -10.164  -8.047  -8.046  -7.993  -7.985
 -7.982  -7.980  -7.969  -7.969  -6.012  -6.012  -6.006  -6.006
 -6.005  -6.004  -5.956  -5.953  -5.950  -5.949  -5.946  -5.946
 -5.944  -5.942  -5.942  -5.940  -5.938  -5.937  -5.933  -5.933
 -5.930  -5.929  -5.925  -5.925  -1.051  -1.044  -0.969  -0.965
 -0.963  -0.963  -0.958  -0.947  -0.922  -0.913  -0.910  -0.908
 -0.851  -0.845  -0.841  -0.830  -0.816  -0.816  -0.812  -0.811
 -0.804  -0.804  -0.799  -0.797  -0.794  -0.791  -0.771  -0.769
 -0.752  -0.746  -0.745  -0.739  -0.725  -0.719  -0.717  -0.715
 -0.696  -0.695  -0.681  -0.676  -0.660  -0.656  -0.651  -0.644
 -0.635  -0.634  -0.632  -0.625  -0.614  -0.609  -0.602  -0.600
 -0.598  -0.590  -0.588  -0.578  -0.577  -0.571  -0.570  -0.560
 -0.553  -0.550  -0.543  -0.541  -0.529  -0.527  -0.517  -0.513
 -0.510  -0.509  -0.503  -0.502  -0.495  -0.492  -0.482  -0.480
 -0.479  -0.476  -0.473  -0.471  -0.471  -0.469  -0.451  -0.449
 -0.445  -0.443  -0.441  -0.439  -0.437  -0.434  -0.433  -0.432
 -0.432  -0.429  -0.428  -0.428  -0.422  -0.418  -0.415  -0.414
 -0.414  -0.412  -0.409  -0.409  -0.406  -0.406  -0.401  -0.398
 -0.397  -0.395  -0.392  -0.390  -0.388  -0.388  -0.387  -0.386
 -0.378  -0.375  -0.373  -0.372  -0.367  -0.367  -0.359  -0.356
 -0.352  -0.350  -0.350  -0.348  -0.348  -0.346  -0.340  -0.339
 -0.336  -0.336  -0.331  -0.330  -0.329  -0.328  -0.325  -0.317
 -0.315  -0.315  -0.312  -0.307  -0.302  -0.301  -0.300  -0.298
 -0.297  -0.293  -0.293  -0.291  -0.289  -0.287  -0.284  -0.283
 -0.282  -0.272  -0.269  -0.267  -0.265  -0.251  -0.249  -0.248
 -0.245  -0.242  -0.232  -0.231  -0.195  -0.193
 -- Virtual --
 -0.115  -0.114  -0.072  -0.071  -0.041  -0.034  -0.032  -0.026
 -0.018  -0.016  -0.014  -0.012  -0.007  -0.002   0.000   0.000
  0.007   0.008   0.015   0.025   0.028   0.038   0.038   0.046
  0.050   0.054   0.057   0.064   0.066   0.070   0.081   0.084
  0.086   0.098   0.100   0.103   0.104   0.112   0.113   0.113
  0.114   0.114   0.117   0.119   0.120   0.123   0.125   0.126
  0.127   0.128   0.129   0.134   0.134   0.135   0.142   0.143
  0.148   0.153   0.156   0.159   0.159   0.162   0.162   0.165
  0.169   0.169   0.173   0.176   0.179   0.180   0.181   0.188
  0.189   0.193   0.194   0.195   0.199   0.199   0.200   0.202
  0.203   0.206   0.208   0.210   0.212   0.215   0.221   0.225
  0.225   0.227   0.230   0.232   0.233   0.240   0.240   0.242
  0.243   0.246   0.247   0.250   0.253   0.257   0.259   0.264
  0.267   0.269   0.271   0.274   0.275   0.277   0.280   0.283
  0.286   0.289   0.294   0.296   0.299   0.299   0.305   0.309
  0.311   0.314   0.318   0.321   0.323   0.325   0.327   0.330
  0.332   0.334   0.337   0.340   0.343   0.344   0.349   0.351
  0.353   0.355   0.360   0.360   0.363   0.367   0.367   0.369
  0.374   0.376   0.383   0.384   0.386   0.387   0.388   0.394
  0.402   0.406   0.407   0.410   0.421   0.426   0.433   0.439
  0.443   0.445   0.450   0.456   0.456   0.459   0.470   0.470
  0.473   0.474   0.477   0.484   0.487   0.490   0.492   0.500
  0.503   0.504   0.506   0.508   0.510   0.514   0.515   0.520
  0.522   0.525   0.526   0.528   0.528   0.531   0.532   0.535
  0.537   0.541   0.543   0.544   0.545   0.546   0.548   0.548
  0.550   0.553   0.557   0.558   0.559   0.560   0.564   0.565
  0.567   0.572   0.572   0.574   0.578   0.581   0.582   0.584
  0.585   0.589   0.590   0.591   0.594   0.595   0.597   0.600
  0.603   0.607   0.609   0.612   0.612   0.613   0.615   0.617
  0.618   0.619   0.622   0.624   0.627   0.630   0.634   0.634
  0.635   0.639   0.640   0.641   0.644   0.646   0.652   0.654
  0.657   0.660   0.662   0.665   0.669   0.671   0.677   0.682
  0.683   0.686   0.689   0.692   0.694   0.696   0.700   0.701
  0.705   0.705   0.710   0.715   0.717   0.718   0.721   0.722
  0.726   0.732   0.733   0.736   0.741   0.743   0.744   0.748
  0.753   0.754   0.758   0.762   0.763   0.766   0.768   0.773
  0.774   0.777   0.779   0.780   0.782   0.786   0.791   0.793
  0.796   0.796   0.798   0.801   0.803   0.805   0.808   0.810
  0.813   0.815   0.819   0.820   0.821   0.822   0.824   0.826
  0.827   0.828   0.830   0.832   0.834   0.836   0.838   0.840
  0.844   0.845   0.846   0.848   0.850   0.853   0.855   0.857
  0.859   0.861   0.861   0.864   0.865   0.868   0.869   0.871
  0.872   0.875   0.880   0.881   0.883   0.885   0.887   0.889
  0.890   0.894   0.898   0.899   0.904   0.906   0.907   0.912
  0.915   0.916   0.918   0.920   0.922   0.924   0.926   0.930
  0.931   0.933   0.935   0.937   0.942   0.946   0.948   0.949
  0.952   0.954   0.957   0.960   0.961   0.967   0.970   0.973
  0.975   0.977   0.979   0.984   0.985   0.985   0.988   0.990
  0.993   0.994   0.996   1.004   1.006   1.008   1.009   1.012
  1.014   1.017   1.019   1.020   1.023   1.027   1.029   1.032
  1.033   1.035   1.041   1.041   1.043   1.046   1.051   1.052
  1.060   1.063   1.068   1.071   1.074   1.076   1.079   1.082
  1.083   1.086   1.093   1.101   1.104   1.107   1.109   1.116
  1.119   1.125   1.128   1.130   1.138   1.143   1.144   1.155
  1.159   1.164   1.168   1.172   1.177   1.181   1.187   1.193
  1.195   1.197   1.202   1.213   1.217   1.225   1.228   1.232
  1.235   1.238   1.241   1.248   1.250   1.258   1.259   1.267
  1.271   1.278   1.282   1.285   1.288   1.290   1.293   1.298
  1.305   1.318   1.326   1.329   1.333   1.334   1.338   1.340
  1.348   1.352   1.353   1.355   1.363   1.364   1.368   1.369
  1.371   1.375   1.384   1.390   1.392   1.397   1.401   1.404
  1.405   1.410   1.413   1.419   1.421   1.426   1.428   1.430
  1.431   1.437   1.445   1.451   1.460   1.463   1.467   1.468
  1.473   1.475   1.485   1.489   1.494   1.503   1.504   1.517
  1.522   1.524   1.529   1.541   1.545   1.551   1.560   1.562
  1.569   1.578   1.579   1.593   1.602   1.613   1.613   1.620
  1.624   1.629   1.636   1.642   1.644   1.648   1.653   1.657
  1.662   1.665   1.668   1.675   1.678   1.688   1.689   1.693
  1.694   1.699   1.700   1.703   1.706   1.708   1.714   1.717
  1.718   1.727   1.729   1.734   1.740   1.744   1.745   1.749
  1.753   1.759   1.763   1.767   1.772   1.776   1.781   1.786
  1.790   1.792   1.796   1.797   1.806   1.812   1.814   1.819
  1.825   1.833   1.835   1.838   1.847   1.849   1.854   1.856
  1.860   1.862   1.864   1.870   1.872   1.874   1.877   1.878
  1.882   1.883   1.886   1.890   1.892   1.895   1.900   1.902
  1.909   1.911   1.914   1.915   1.923   1.925   1.927   1.931
  1.931   1.934   1.943   1.945   1.946   1.955   1.962   1.970
  1.975   1.976   1.982   1.984   1.990   1.991   1.994   2.002
  2.007   2.010   2.016   2.020   2.021   2.025   2.026   2.031
  2.037   2.041   2.045   2.052   2.060   2.063   2.066   2.068
  2.071   2.073   2.084   2.090   2.093   2.094   2.096   2.105
  2.109   2.111   2.116   2.117   2.120   2.124   2.127   2.131
  2.134   2.135   2.143   2.145   2.147   2.147   2.149   2.155
  2.159   2.159   2.163   2.168   2.174   2.178   2.181   2.190
  2.195   2.199   2.204   2.205   2.207   2.215   2.223   2.227
  2.231   2.237   2.241   2.248   2.250   2.255   2.262   2.263
  2.269   2.271   2.275   2.276   2.277   2.279   2.281   2.283
  2.287   2.292   2.294   2.297   2.300   2.307   2.308   2.316
  2.318   2.324   2.329   2.330   2.333   2.340   2.346   2.349
  2.352   2.356   2.357   2.361   2.362   2.366   2.368   2.370
  2.376   2.380   2.384   2.389   2.390   2.395   2.399   2.403
  2.412   2.414   2.419   2.420   2.423   2.425   2.425   2.426
  2.430   2.433   2.440   2.443   2.445   2.447   2.451   2.451
  2.452   2.457   2.462   2.471   2.473   2.478   2.478   2.481
  2.486   2.492   2.495   2.501   2.505   2.507   2.512   2.514
  2.517   2.521   2.522   2.523   2.527   2.529   2.534   2.541
  2.545   2.551   2.554   2.556   2.564   2.565   2.570   2.575
  2.576   2.579   2.588   2.591   2.593   2.601   2.603   2.606
  2.608   2.609   2.628   2.634   2.637   2.638   2.643   2.646
  2.653   2.659   2.665   2.666   2.675   2.677   2.678   2.679
  2.688   2.688   2.695   2.699   2.702   2.707   2.710   2.712
  2.717   2.723   2.726   2.732   2.737   2.740   2.748   2.753
  2.762   2.773   2.779   2.789   2.794   2.795   2.802   2.808
  2.810   2.811   2.815   2.820   2.829   2.831   2.837   2.846
  2.849   2.851   2.853   2.859   2.861   2.862   2.866   2.868
  2.878   2.892   2.893   2.896   2.899   2.902   2.911   2.919
  2.923   2.927   2.932   2.934   2.945   2.949   2.952   2.959
  2.964   2.967   2.979   2.984   3.008   3.011   3.033   3.039
  3.047   3.057   3.060   3.076   3.081   3.088   3.106   3.113
  3.174   3.183   3.197   3.209   3.217   3.220   3.233   3.246
  3.249   3.254   3.256   3.263   3.278   3.279   3.283   3.286
  3.299   3.307   3.308   3.323   3.327   3.330   3.334   3.343
  3.347   3.353   3.360   3.374   3.391   3.401   3.440   3.443
  3.446   3.452   3.477   3.487   3.501   3.513   3.539   3.547
  3.557   3.558   3.559   3.582   3.584   3.597   3.603   3.607
  3.627   3.637   3.704   3.747   3.857   3.867   3.911   3.919
  3.930   3.944   3.952   3.960   3.965   3.992   4.010   4.032
  4.037   4.056   4.077   4.080   4.103   4.112   4.115   4.119
  4.142   4.146   4.149   4.159   4.160   4.181   4.192   4.201
  4.218   4.222   4.249   4.254   4.265   4.267   4.285   4.289
  4.293   4.313   4.347   4.363   4.374   4.388   4.401   4.420
  4.429   4.447   4.461   4.461   4.465   4.469   4.484   4.500
  4.506   4.508   4.529   4.544   4.584   4.619   4.653   4.684
  4.700   4.704   4.711   4.721   4.770   4.786   4.813   4.830
 --------------------------------------------------------------
 
          Ground-State Mulliken Net Atomic Charges

     Atom                 Charge (a.u.)
  ----------------------------------------
      1 C                     0.268315
      2 C                    -0.134215
      3 N                    -0.475650
      4 C                    -0.070503
      5 C                     0.105272
      6 C                     0.014347
      7 C                    -0.003472
      8 C                     0.073263
      9 C                     0.250725
     10 N                    -0.493680
     11 N                    -0.545878
     12 C                     0.213649
     13 C                     0.232972
     14 S                     0.611393
     15 N                    -0.526455
     16 C                    -0.205515
     17 S                     0.340846
     18 C                    -0.105801
     19 C                    -0.222966
     20 S                     0.268981
     21 C                     0.137255
     22 C                     0.042814
     23 C                    -0.304408
     24 C                    -0.072563
     25 N                    -0.416557
     26 S                     0.275424
     27 C                     0.125832
     28 C                    -0.315045
     29 C                    -0.215057
     30 H                     0.091927
     31 H                     0.101918
     32 H                     0.107607
     33 H                     0.101343
     34 H                     0.134335
     35 H                     0.105876
     36 H                     0.117326
     37 H                     0.133326
     38 H                     0.116833
     39 C                    -0.189433
     40 H                     0.109769
     41 H                     0.080323
     42 H                     0.101976
     43 C                    -0.183852
     44 H                     0.102836
     45 C                    -0.168176
     46 H                     0.095611
     47 H                     0.084020
     48 H                     0.095870
     49 C                    -0.181163
     50 H                     0.105497
     51 C                    -0.310446
     52 H                     0.089706
     53 H                     0.099561
     54 H                     0.096011
     55 H                     0.096121
     56 C                     0.287432
     57 C                    -0.122609
     58 N                    -0.464476
     59 C                    -0.095436
     60 C                     0.054537
     61 C                     0.085438
     62 C                     0.026747
     63 C                     0.065034
     64 C                     0.229707
     65 N                    -0.528599
     66 N                    -0.566868
     67 C                     0.257348
     68 C                     0.331743
     69 S                     0.601774
     70 N                    -0.600647
     71 C                    -0.239302
     72 S                     0.308340
     73 C                    -0.080101
     74 C                    -0.196136
     75 S                     0.279348
     76 C                     0.106296
     77 C                     0.065590
     78 C                    -0.307523
     79 C                    -0.052259
     80 N                    -0.436559
     81 S                     0.263414
     82 C                     0.121815
     83 C                    -0.313760
     84 C                    -0.243490
     85 H                     0.104736
     86 H                     0.108268
     87 H                     0.088797
     88 H                     0.118011
     89 H                     0.125925
     90 H                     0.130084
     91 H                     0.115515
     92 H                     0.137401
     93 H                     0.117832
     94 C                    -0.188017
     95 H                     0.115231
     96 H                     0.110139
     97 H                     0.090666
     98 C                    -0.190443
     99 H                     0.093137
    100 C                    -0.160317
    101 H                     0.090038
    102 H                     0.087265
    103 H                     0.089742
    104 C                    -0.176602
    105 H                     0.090393
    106 C                    -0.320759
    107 H                     0.090478
    108 H                     0.101819
    109 H                     0.104538
    110 H                     0.101277
  ----------------------------------------
  Sum of atomic charges =     0.000000

 -----------------------------------------------------------------
                    Cartesian Multipole Moments
 -----------------------------------------------------------------
    Charge (ESU x 10^10)
                 0.0000
    Dipole Moment (Debye)
         X      -2.6630      Y      -0.6004      Z       2.1361
       Tot       3.4662
    Quadrupole Moments (Debye-Ang)
        XX    -402.2450     XY      10.4739     YY    -415.4250
        XZ      16.2483     YZ      -4.5548     ZZ    -443.4220
    Octopole Moments (Debye-Ang^2)
       XXX    -905.4054    XXY    -268.1205    XYY      73.3058
       YYY    -373.7328    XXZ       7.7491    XYZ     106.3252
       YYZ     110.7824    XZZ    -121.8016    YZZ       1.7734
       ZZZ      10.0223
    Hexadecapole Moments (Debye-Ang^3)
      XXXX -108117.6435   XXXY    2695.7509   XXYY  -28257.1579
      XYYY   -1407.5302   YYYY  -48101.0304   XXXZ   -1202.8811
      XXYZ    -666.3323   XYYZ     246.2070   YYYZ   -1048.7122
      XXZZ  -20723.9365   XYZZ     222.7120   YYZZ  -10466.7269
      XZZZ     -68.5473   YZZZ    -185.9729   ZZZZ   -8539.4466
 -----------------------------------------------------------------
Archival summary:
1\1\mn426\SP\ProcedureUnspecified\6-31G**\8105042\afmv_a\FriOct523:53:272018FriOct523:53:272018\0\\#,ProcedureUnspecified,6-31G**,\\0,1\S\N,1,1.60202\C,2,1.32096,1,110.714\C,3,1.40085,2,111.161,1,8.49296,0\N,4,1.28889,3,113.083,2,-2.86659,0\C,4,1.38362,3,117.728,2,177.932,0\N,6,1.33243,4,122.535,3,-3.27153,0\C,7,1.33766,6,121.245,4,-1.7382,0\H,8,1.08888,7,119.001,6,-177.251,0\C,8,1.42067,7,123.238,6,6.0579,0\C,10,1.45745,8,122.798,7,-173.8,0\C,11,1.38023,10,125.538,8,142.584,0\H,12,1.08653,11,124.107,10,-3.13348,0\C,11,1.40972,10,121.072,8,-44.6016,0\H,14,1.08939,11,114.265,10,2.59239,0\N,14,1.33023,11,131.217,10,-175.937,0\C,16,1.32695,14,111.672,11,4.09546,0\C,17,1.42246,16,127.836,14,-4.72767,0\H,18,1.08563,17,126.946,16,-168.03,0\C,17,1.4381,16,116.589,14,178.924,0\H,20,1.09679,17,107.83,16,-131.308,0\H,20,1.09783,17,115.978,16,-10.8758,0\C,6,1.50161,4,125.161,3,-177.212,0\C,23,1.40235,6,127.069,4,-179.546,0\C,24,1.41634,23,110.638,6,-173.842,0\C,25,1.37418,24,119.727,23,0.810095,0\C,26,1.41326,25,125.624,24,162.064,0\N,27,1.31918,26,121.698,25,20.604,0\C,28,1.38626,27,111.293,26,177.283,0\H,29,1.08284,28,115.098,27,177.856,0\C,29,1.39665,28,114.45,27,-0.264001,0\H,31,1.08214,29,127.226,28,-170.48,0\C,25,1.43297,24,109.09,23,171.811,0\H,33,1.08395,25,127.014,24,178.629,0\C,33,1.37896,25,112.478,24,11.962,0\H,35,1.08242,33,126.622,25,-178.509,0\C,20,1.53844,17,109.296,16,111.619,0\H,37,1.09673,20,110.77,17,73.6236,0\H,37,1.09792,20,116.304,17,-40.9235,0\C,37,1.57868,20,114.023,17,-165.807,0\H,40,1.09633,37,109.757,20,-46.8913,0\H,40,1.0969,37,115.207,20,61.0558,0\C,40,1.51835,37,114.099,20,-172.041,0\H,43,1.09658,40,102.319,37,-170.508,0\H,43,1.09707,40,113.46,37,65.2011,0\C,43,1.50616,40,118.154,37,-57.9136,0\H,46,1.09682,43,108.375,40,-51.5006,0\H,46,1.09773,43,113.353,40,65.6242,0\C,46,1.55775,43,114.22,40,-173.458,0\H,49,1.09667,46,107.862,43,178.552,0\H,49,1.09688,46,114.486,43,57.2777,0\H,49,1.09709,46,109.262,43,-70.2504,0\S,24,1.69884,23,133.247,6,10.2697,0\S,26,1.717,25,106.55,24,-1.14506,0\S,31,1.7314,29,112.201,28,1.76933,0\H,22,2.46679,20,96.5767,17,-69.3623,0\C,56,1.09696,22,131.226,20,-81.8726,0\H,57,1.09724,56,98.7435,22,-155.939,0\C,57,1.44821,56,109.855,22,-37.1972,0\H,59,1.09661,57,107.502,56,-50.1135,0\H,59,1.09684,57,111.296,56,-169.818,0\H,59,1.0973,57,113.423,56,62.4294,0\C,57,1.52411,56,114.202,22,92.7423,0\H,63,1.09652,57,111.412,56,165.36,0\H,63,1.09691,57,107.79,56,-72.1133,0\C,63,1.56209,57,111.141,56,39.3608,0\H,66,1.09668,63,121.124,57,58.7292,0\H,66,1.09709,63,106.645,57,-68.0636,0\C,66,1.52081,63,107.156,57,-179.248,0\H,69,1.09692,66,106.604,63,47.8894,0\H,69,1.09712,66,113.312,63,-65.9375,0\C,69,1.53547,66,113.816,63,168.629,0\H,72,1.09645,69,111.73,66,41.5485,0\H,72,1.09743,69,94.8589,66,-72.3047,0\C,72,1.4911,69,114.598,66,169.184,0\N,75,1.37332,72,119.159,69,-77.1257,0\C,76,1.28739,75,120.132,72,172.196,0\H,77,1.08971,76,115.268,75,-173.824,0\C,75,1.39696,72,121.637,69,104.448,0\H,79,1.08576,75,120.313,72,0.451276,0\C,79,1.38528,75,120.604,72,-175.924,0\H,81,1.08631,79,118.448,75,179.888,0\C,77,1.40054,76,125.184,75,9.29563,0\C,83,1.48905,77,124.199,76,177.644,0\C,84,1.41187,83,122.277,77,52.2068,0\N,85,1.31304,84,123.462,83,-16.4939,0\C,85,1.40983,84,120.044,83,177.727,0\N,87,1.36632,85,112.595,84,176.418,0\C,87,1.39261,85,119.712,84,-5.55937,0\N,89,1.367,87,121.758,85,-3.89457,0\C,90,1.31911,89,116.762,87,7.94908,0\H,91,1.08894,90,118.399,89,177.938,0\C,89,1.43736,87,123.978,85,177.373,0\C,93,1.34049,89,124.269,87,-40.2508,0\C,94,1.40822,93,116.247,89,-173.832,0\C,95,1.37498,94,113.411,93,-8.53948,0\C,95,1.38358,94,112.125,93,-179.496,0\H,97,1.08433,95,123.903,94,173.765,0\C,97,1.38663,95,112.181,94,-10.9598,0\H,99,1.08163,97,128.248,95,173.177,0\C,96,1.50345,95,124.206,94,-170.868,0\N,101,1.32398,96,116.794,95,158.839,0\C,102,1.34948,101,111.198,96,173.198,0\H,103,1.08177,102,124.907,101,-171.089,0\C,103,1.40697,102,115.212,101,-1.41404,0\H,105,1.08296,103,125.486,102,-173.57,0\S,88,1.60458,87,106.208,85,-2.4613,0\S,99,1.72151,97,112.54,95,2.6381,0\S,101,1.75216,96,126.128,95,-31.3848,0\S,93,1.76838,89,127.023,87,138.554,0\\\@

 Total job time:  100.41s(wall), 1103.29s(cpu) 
 Fri Oct  5 23:53:27 2018

        *************************************************************
        *                                                           *
        *  Thank you very much for using Q-Chem.  Have a nice day.  *
        *                                                           *
        *************************************************************


