
Running Job 1 of 1 ./7/87.qcin
qchem ./7/87.qcin_20794.0 /tmpu/cab_g/afmv_a/scratch_qchem/qchem20794/ 1
/tmpu/appuserlic/qchem4.4/serial-multicore/exe/qcprog.exe_s ./7/87.qcin_20794.0 /tmpu/cab_g/afmv_a/scratch_qchem/qchem20794/
Check license passed

                  Welcome to Q-Chem
     A Quantum Leap Into The Future Of Chemistry


 Q-Chem 4.4, Q-Chem, Inc., Pleasanton, CA (2016)

 Y. Shao,  Z. Gan,  E. Epifanovsky,  A. T. B. Gilbert,  M. Wormit,  
 J. Kussmann,  A. W. Lange,  A. Behn,  J. Deng,  X. Feng,  D. Ghosh,  
 M. Goldey,  P. R. Horn,  L. D. Jacobson,  I. Kaliman,  F. Rob,  
 R. Z. Khaliullin,  T. Kus,  A. Landau,  J. Liu,  E. I. Proynov,  Y. M. Rhee,  
 R. M. Richard,  M. A. Rohrdanz,  R. P. Steele,  E. J. Sundstrom,  
 H. L. Woodcock III,  P. M. Zimmerman,  D. Zuev,  B. Albrecht,  E. Alguire,  
 B. Austin,  S. A. Baeppler,  G. J. O. Beran,  Y. A. Bernard,  E. Berquist,  
 K. Brandhorst,  K. B. Bravaya,  S. T. Brown,  D. Casanova,  C.-M. Chang,  
 Y. Chen,  S. H. Chien,  K. D. Closser,  M. P. Coons,  D. L. Crittenden,  
 S. Dasgupta,  M. Diedenhofen,  R. A. DiStasio Jr.,  H. Do,  A. D. Dutoi,  
 R. G. Edgar,  P.-T. Fang,  S. Fatehi,  Q. Feng,  L. Fusti-Molnar,  
 A. Ghysels,  A. Golubeva-Zadorozhnaya,  J. Gomes,  A. Gunina,  
 M. W. D. Hanson-Heine,  P. H. P. Harbach,  A. W. Hauser,  J. E. Herr,  
 E. G. Hohenstein,  Z. C. Holden,  K. Hui,  T.-C. Jagau,  H. Ji,  B. Kaduk,  
 K. Khistyaev,  Jaehoon Kim,  Jihan Kim,  R. A. King,  P. Klunzinger,  
 K. Koh,  D. Kosenkov,  T. Kowalczyk,  C. M. Krauter,  A. Kunitsa,  
 K. U. Lao,  A. Laurent,  K. V. Lawler,  J. Lee,  D. Lefrancois,  S. Lehtola,  
 S. V. Levchenko,  C. Y. Lin,  Y.-S. Lin,  F. Liu,  E. Livshits,  
 R. C. Lochan,  A. Luenser,  P. Manohar,  S. F. Manzer,  S.-P. Mao,  Y. Mao,  
 N. Mardirossian,  A. V. Marenich,  L. A. Martinez-Martinez,  S. A. Maurer,  
 N. J. Mayhall,  J.-M. Mewes,  A. F. Morrison,  K. Nanda,  T. S. Nguyen-Beck,  
 C. M. Oana,  R. Olivares-Amaya,  D. P. O'Neill,  J. A. Parkhill,  
 T. M. Perrine,  R. Peverati,  P. A. Pieniazek,  F. Plasser,  A. Prociuk,  
 D. R. Rehn,  E. Rosta,  N. J. Russ,  N. Sergueev,  S. M. Sharada,  
 S. Sharma,  D. W. Small,  A. Sodt,  T. Stauch,  T. Stein,  D. Stuck,  
 Y.-C. Su,  A. J. W. Thom,  T. Tsuchimochi,  L. Vogt,  O. Vydrov,  T. Wang,  
 M. A. Watson,  J. Wenzel,  A. White,  C. F. Williams,  V. Vanovschi,  
 K. Yao,  S. Yeganeh,  S. R. Yost,  Z.-Q. You,  I. Y. Zhang,  X. Zhang,  
 Y. Zhao,  B. R. Brooks,  G. K. L. Chan,  D. M. Chipman,  C. J. Cramer,  
 W. A. Goddard III,  M. S. Gordon,  W. J. Hehre,  A. Klamt,  
 H. F. Schaefer III,  M. W. Schmidt,  C. D. Sherrill,  D. G. Truhlar,  
 A. Warshel,  X. Xu,  A. Aspuru-Guzik,  R. Baer,  A. T. Bell,  N. A. Besley,  
 J.-D. Chai,  A. Dreuw,  B. D. Dunietz,  T. R. Furlani,  S. R. Gwaltney,  
 C.-P. Hsu,  Y. Jung,  J. Kong,  D. S. Lambrecht,  W. Liang,  C. Ochsenfeld,  
 V. A. Rassolov,  L. V. Slipchenko,  J. E. Subotnik,  T. Van Voorhis,  
 J. M. Herbert,  A. I. Krylov,  P. M. W. Gill,  M. Head-Gordon

 Contributors to earlier versions of Q-Chem not listed above: 
 R. D. Adamson,  J. Baker,  E. F. C. Byrd,  A. K. Chakraborty,  C.-L. Cheng,  
 H. Dachsel,  R. J. Doerksen,  G. Hawkins,  A. Heyden,  S. Hirata,  
 G. Kedziora,  F. J. Keil,  C. Kelley,  P. P. Korambath,  W. Kurlancheek,  
 A. M. Lee,  M. S. Lee,  D. Liotard,  I. Lotan,  P. E. Maslen,  N. Nair,  
 D. Neuhauser,  R. Olson,  B. Peters,  J. Ritchie,  N. E. Schultz,  
 N. Shenvi,  A. C. Simmonett,  K. S. Thanthiriwatte,  Q. Wu,  W. Zhang

 Please cite Q-Chem as follows:
 Y. Shao et al., Mol. Phys. 113, 184-215 (2015)
 DOI: 10.1080/00268976.2014.952696

 Q-Chem 4.4.2 for Intel X86 Linux

 Parts of Q-Chem use Armadillo 5.200.1 (Boston Tea Smuggler).
 http://arma.sourceforge.net/

 Q-Chem begins on Fri Oct  5 23:57:01 2018  

Host: 
0

     Scratch files written to /tmpu/cab_g/afmv_a/scratch_qchem/qchem20794//
 Dec716 11556_ 22328  22283 4050   
Processing $rem in /tmpu/appuserlic/qchem4.4/serial-multicore/config/preferences.
 MEM_TOTAL  2000 
FILE_GEOM_ORG=        593

Checking the input file for inconsistencies... 	...done.

--------------------------------------------------------------
User input:
--------------------------------------------------------------
$comment
SP
$end

$rem
MEM_STATIC 5000
MEM_TOTAL 20000
JOBTYPE SP
EXCHANGE B3LYP
BASIS 6-31g(d,p)
$end

$molecule
0 1
C          19.566000    -26.998000     13.556000
C          20.702000    -26.231000     13.362000
N          18.657000    -27.047000     12.542000
C          20.899000    -25.375000     12.283000
C          18.807000    -26.286000     11.463000
C          19.891000    -25.394000     11.282000
C          19.948000    -24.413000     10.138000
C          18.884000    -23.590000      9.771000
C          21.150000    -24.180000      9.520000
N          18.985000    -22.653000      8.884000
N          22.284000    -24.835000      9.683000
C          21.280000    -23.131000      8.618000
C          20.199000    -22.269000      8.412000
S          23.442000    -24.097000      8.678000
N          22.467000    -23.010000      7.993000
C          20.249000    -21.079000      7.492000
S          21.375000    -21.009000      6.134000
C          19.655000    -19.871000      7.668000
C          20.670000    -19.489000      5.629000
S          18.523000    -19.417000      8.908000
C          19.794000    -19.048000      6.573000
C          20.825000    -18.763000      4.415000
C          18.302000    -17.898000      7.948000
C          18.981000    -17.906000      6.719000
N          21.910000    -19.005000      3.675000
S          19.584000    -17.787000      3.613000
C          21.865000    -18.171000      2.556000
C          20.710000    -17.470000      2.400000
C          19.448000    -27.778000     14.886000
H          21.503000    -26.239000     14.095000
H          21.809000    -24.790000     12.188000
H          18.016000    -26.372000     10.720000
H          17.867000    -23.670000     10.151000
H          17.529000    -17.216000      8.276000
H          18.829000    -17.151000      5.956000
H          22.692000    -18.186000      1.858000
H          20.486000    -16.993000      1.455000
H          18.654000    -28.516000     14.715000
C          19.097000    -26.840000     16.075000
H          20.338000    -28.408000     15.007000
H          19.846000    -26.102000     16.385000
H          18.967000    -27.450000     16.977000
C          17.871000    -25.977000     15.794000
H          17.644000    -25.457000     16.732000
C          16.642000    -26.716000     15.283000
H          18.128000    -25.233000     15.030000
H          16.445000    -27.555000     15.962000
H          16.874000    -27.150000     14.303000
C          15.323000    -25.918000     15.080000
H          14.553000    -26.694000     15.166000
C          15.193000    -25.205000     13.703000
H          15.100000    -25.179000     15.860000
H          15.124000    -25.945000     12.896000
H          15.972000    -24.448000     13.553000
H          14.247000    -24.651000     13.736000
C          14.861000    -16.327000      8.515000
C          14.177000    -16.735000      9.660000
N          15.806000    -15.368000      8.602000
C          14.362000    -16.040000     10.863000
C          16.039000    -14.699000      9.746000
C          15.248000    -14.955000     10.911000
C          15.229000    -13.989000     12.058000
C          13.954000    -13.719000     12.666000
C          16.302000    -13.281000     12.619000
N          13.814000    -12.767000     13.627000
N          17.566000    -13.470000     12.237000
C          16.140000    -12.283000     13.597000
C          14.824000    -11.999000     14.103000
S          18.457000    -12.657000     13.364000
N          17.272000    -11.841000     14.179000
C          14.397000    -11.057000     15.108000
S          12.796000    -11.083000     15.861000
C          15.051000     -9.864000     15.373000
C          13.109000     -9.446000     16.554000
S          16.396000     -9.131000     14.562000
C          14.328000     -8.976000     16.186000
C          12.079000     -8.676000     17.097000
C          16.025000     -7.712000     15.506000
C          14.877000     -7.702000     16.241000
N          12.300000     -7.576000     17.829000
S          10.380000     -8.872000     16.632000
C          11.103000     -6.993000     18.215000
C           9.954000     -7.518000     17.630000
C          14.568000    -16.969000      7.129000
H          13.534000    -17.598000      9.510000
H          13.739000    -16.271000     11.722000
H          16.671000    -13.835000      9.543000
H          13.035000    -14.256000     12.436000
H          16.704000     -6.871000     15.444000
H          14.595000     -6.798000     16.769000
H          11.089000     -6.044000     18.734000
H           8.919000     -7.207000     17.687000
H          15.357000    -16.664000      6.430000
C          13.217000    -16.461000      6.439000
H          14.613000    -18.057000      7.261000
H          12.483000    -16.778000      7.191000
H          12.992000    -16.989000      5.504000
C          13.125000    -14.992000      6.257000
H          13.219000    -14.448000      7.205000
C          11.979000    -14.571000      5.401000
H          14.006000    -14.751000      5.649000
H          12.060000    -15.156000      4.477000
H          12.044000    -13.506000      5.145000
C          10.587000    -14.625000      6.017000
H          10.367000    -15.638000      6.375000
C           9.543000    -14.020000      5.142000
H          10.467000    -14.068000      6.954000
H           9.424000    -14.609000      4.224000
H           9.870000    -12.992000      4.946000
H           8.574000    -13.913000      5.646000
$end

--------------------------------------------------------------
 ----------------------------------------------------------------
             Standard Nuclear Orientation (Angstroms)
    I     Atom           X                Y                Z
 ----------------------------------------------------------------
    1      C      -8.4386123770    -5.9460510342     0.4967332818
    2      C      -8.3308735945    -5.3733553745    -0.7589868447
    3      N      -8.4250784524    -5.1117025469     1.5740249946
    4      C      -8.0383035737    -4.0329573997    -0.9903351791
    5      C      -8.1931487104    -3.8124258291     1.4192651633
    6      C      -7.9534025279    -3.2070048535     0.1624962067
    7      C      -7.5169684135    -1.7697281293     0.0279343927
    8      C      -6.4900459903    -1.1995690837     0.7792419192
    9      C      -8.0266145411    -1.0121906581    -0.9954984602
   10      N      -6.0262246918    -0.0113626548     0.5602115895
   11      N      -9.0068171303    -1.3237908737    -1.8223347134
   12      C      -7.4850204420     0.2360436012    -1.2774418336
   13      C      -6.3657709213     0.6725368370    -0.5627424804
   14      S      -9.1954940482    -0.0174858447    -2.8963929949
   15      N      -8.0854662458     0.9548768914    -2.2454183507
   16      C      -5.6768470345     1.9858406667    -0.8189004963
   17      S      -6.5320855145     3.3512886403    -1.5407446440
   18      C      -4.3462451151     2.2483360669    -0.7583142195
   19      C      -5.1109099995     4.3507791040    -1.3316299181
   20      S      -3.0828765739     1.1957676833    -0.1916223042
   21      C      -4.0623456224     3.5856445824    -0.9216605158
   22      C      -4.9544410082     5.7604658587    -1.4465111981
   23      C      -2.0139712774     2.6520530142    -0.3119406405
   24      C      -2.7050008991     3.8315608734    -0.6325420628
   25      N      -5.8565503012     6.4340038203    -2.1647969614
   26      S      -3.8641307933     6.7744335761    -0.4878902598
   27      C      -5.4935097639     7.7823077231    -2.1603076342
   28      C      -4.4632249093     8.1037652333    -1.3326965011
   29      C      -8.6188631260    -7.4801056854     0.5702859480
   30      H      -8.4381180575    -5.9815273257    -1.6520599117
   31      H      -7.9573506484    -3.6410664724    -1.9998985129
   32      H      -8.1729728340    -3.2310789303     2.3394579242
   33      H      -6.0058893537    -1.6637025518     1.6367158110
   34      H      -1.0041685001     2.5543420966     0.0635429512
   35      H      -2.2484850220     4.8138086082    -0.5869280139
   36      H      -6.0809602984     8.4848162367    -2.7371452697
   37      H      -4.2707251886     9.1379015160    -1.0792482690
   38      H      -8.9644412123    -7.6785361114     1.5927937241
   39      C      -7.2914374766    -8.2313936373     0.2698303624
   40      H      -9.4885924213    -7.7637236386    -0.0353317610
   41      H      -6.8818785195    -8.1640753542    -0.7447999690
   42      H      -7.4612182757    -9.3076702283     0.3939560237
   43      C      -6.1344754246    -7.7378454983     1.1327643371
   44      H      -5.2946352104    -8.4125536953     0.9297612248
   45      C      -6.4075371274    -7.6613007622     2.6285120464
   46      H      -5.8600799789    -6.7249695448     0.8132796861
   47      H      -6.8152163540    -8.6285101668     2.9480032292
   48      H      -7.1902460416    -6.9140045872     2.8059808675
   49      C      -5.2411540028    -7.2724223432     3.5804038376
   50      H      -5.5458289369    -7.7192364463     4.5343442664
   51      C      -5.0282818271    -5.7421732162     3.7659329355
   52      H      -4.2686729037    -7.7162356387     3.3322904149
   53      H      -5.8872117665    -5.2982994411     4.2844167161
   54      H      -4.7642156381    -5.2434081134     2.8257774058
   55      H      -4.1494448908    -5.6340966838     4.4131470443
   56      C       0.9512825832     2.4616404225     2.0965907766
   57      C       1.2648908692     1.1957393864     2.5910494802
   58      N       1.3931626963     2.8361686403     0.8780894103
   59      C       2.1650016191     0.3810235323     1.8906940597
   60      C       2.2319080952     2.0693242648     0.1576438123
   61      C       2.7258521029     0.8357353591     0.6893577665
   62      C       3.9233858721     0.1615164717     0.0889680902
   63      C       4.8865977084    -0.3959032331     0.9998441690
   64      C       4.2521674487     0.0140366534    -1.2665636793
   65      N       6.0630802817    -0.9152344748     0.5575673142
   66      N       3.4353695133     0.3951800966    -2.2498804179
   67      C       5.4823916852    -0.5046837142    -1.7095191038
   68      C       6.4417266822    -0.9665649038    -0.7426219375
   69      S       4.1130859708    -0.2449490670    -3.6121997847
   70      N       5.5678013386    -0.7706917451    -3.0276453947
   71      C       7.7450168308    -1.5540041009    -0.9325376518
   72      S       8.6419544690    -2.3873516016     0.3449289099
   73      C       8.5654334106    -1.2751284199    -2.0143578726
   74      C      10.1207958374    -2.3551108149    -0.6894674062
   75      S       8.3564727064    -0.1329941069    -3.3011755112
   76      C       9.8856511245    -1.7324066554    -1.8723585651
   77      C      11.3831208679    -2.6367387932    -0.1642339349
   78      C      10.0203946998    -0.4730370695    -3.6987586896
   79      C      10.7509594087    -1.2381088753    -2.8390091110
   80      N      12.4585718021    -2.8582317798    -0.9317045500
   81      S      11.7830537348    -2.4287447810     1.5498355481
   82      C      13.5821104357    -3.0831364297    -0.1514655884
   83      C      13.4326013029    -2.8483048457     1.2125549929
   84      C       0.0823556822     3.4558203993     2.9185282526
   85      H       0.7565640400     0.9416634492     3.5172067308
   86      H       2.5101987163    -0.5484033945     2.3338368718
   87      H       2.6314303918     2.6463393122    -0.6757615930
   88      H       4.7448692387    -0.4719357169     2.0768595367
   89      H      10.4262679441    -0.0303234228    -4.5995569671
   90      H      11.8064794151    -1.3912851189    -3.0337873298
   91      H      14.5598107230    -3.1881468709    -0.6022792477
   92      H      14.1509309470    -2.8648069696     2.0218294842
   93      H      -0.2183679296     4.2814293935     2.2611987324
   94      C       0.8589412886     4.1746929629     4.1183207485
   95      H      -0.8153710723     2.9124357357     3.2379226508
   96      H       1.1434670221     3.3003932583     4.7178156472
   97      H       0.2039105063     4.8059211930     4.7316066491
   98      C       2.0829899736     4.9092232551     3.7161776562
   99      H       2.8110252853     4.2614534795     3.2123573482
  100      C       2.6456939612     5.7631793432     4.8012657733
  101      H       1.7187266846     5.6340303238     2.9773454902
  102      H       1.8169043580     6.3874540178     5.1561614260
  103      H       3.4374051344     6.4203288189     4.4200388267
  104      C       3.3864227751     5.0617851737     5.9323727724
  105      H       2.7371430068     4.3186463043     6.4108217281
  106      C       4.0558002910     6.0137091544     6.8636946696
  107      H       4.2121533897     4.4113865785     5.6196930333
  108      H       3.3099078537     6.6142830679     7.3991957868
  109      H       4.7251117300     6.6231793379     6.2450693444
  110      H       4.7182426733     5.5131926288     7.5813849215
 ----------------------------------------------------------------
 Molecular Point Group                 C1    NOp =  1
 Largest Abelian Subgroup              C1    NOp =  1
 Nuclear Repulsion Energy = 10780.9160153012 hartrees
 There are      270 alpha and      270 beta electrons
 Requested basis set is 6-31G(d,p)
 There are 406 shells and 1262 basis functions

 Total QAlloc Memory Limit  20000 MB
 Mega-Array Size      4888 MB
 MEM_STATIC part      5000 MB
 A cutoff of  1.0D-08 yielded  13288 shell pairs
 There are    136720 function pairs
 
 -------------------------------------------------------
 OpenMP Integral Computing Module                       
 Release: version 1.0, May 2013, Q-Chem Inc. Pittsburgh 
 -------------------------------------------------------
 Integral Job Info:
 Integral job number is                      11
 Integral operator is                         1
 short-range coefficients                     0
 long-range coefficients              100000000
 Omega coefficients                           0
 if combine SR and LR in K                    0
 Integral screening is                        0
 Integral computing path is                   2
 max size of driver memory is            800000
 size of driver memory is                593474
 size of scratch memory is             15166112
 max col of scratch BK array               1296
 max len of scratch array in speh3          155
 max len of scratch index in speh4           18
 max int batch size is                      520
 min int batch size is                       52
 fixed nKL is                                52
 max L of basis functions is                  2
 order of int derivative is                   0
 number of shells is                        406
 number of basis is                        1262
 number of cartesian basis is              1262
 number of contracted shell pairs         13288
 number of primitive shell pairs          42886
 maxK2 (contraction) of shell pair           36
 max number of K2 of shell pair               1
 max number of CS2 of shell pair           1303
 max number of PS2 of shell pair           7788
 mem total for path MDJ                  280792
 -------------------------------------------------------
 Smallest overlap matrix eigenvalue = 3.84E-04

 Scale SEOQF with 1.000000e-02/1.000000e-02/1.000000e-02

 Standard Electronic Orientation quadrupole field applied
 Nucleus-field energy     =     0.0000001216 hartrees
 Guess from superposition of atomic densities
 Warning:  Energy on first SCF cycle will be non-variational
 A restricted hybrid HF-DFT SCF calculation will be
 performed using Pulay DIIS extrapolation
 Exchange:     0.2000 Hartree-Fock + 0.0800 Slater + 0.7200 B88
 Correlation:  0.1900 VWN1RPA + 0.8100 LYP
 Using SG-1 standard quadrature grid
 SCF converges when DIIS error is below 1.0E-05
 using 16 threads for integral computing 
 -------------------------------------------------------
 OpenMP BLAS3 based DFT computing Module                
 Release: version 1.0, May 2013, Q-Chem Inc. Pittsburgh 
 -------------------------------------------------------
 ---------------------------------------
  Cycle       Energy         DIIS Error
 ---------------------------------------
    1   -5680.5261317578      2.17E-02
    2   -5662.4145235766      2.23E-03
    3   -5660.7100426392      3.55E-03
    4   -5663.3101668873      9.45E-04
    5   -5663.4569239017      4.65E-04
    6   -5663.4842948589      2.76E-04
    7   -5663.4986497648      7.57E-05
    8   -5663.4996474802      3.11E-05
    9   -5663.4998353033      1.13E-05
   10   -5663.4998633376      4.13E-06 Convergence criterion met
 ---------------------------------------
 SCF time:  CPU 1028.41 s  wall 92.45 s
 SCF   energy in the final basis set = -5663.4998633376
 Total energy in the final basis set = -5663.4998633376
 
 --------------------------------------------------------------
 
                    Orbital Energies (a.u.)
 --------------------------------------------------------------
 
 Alpha MOs
 -- Occupied --
-88.989 -88.988 -88.926 -88.925 -88.923 -88.918 -88.915 -88.906
-14.394 -14.387 -14.386 -14.377 -14.347 -14.344 -14.342 -14.337
-14.334 -14.329 -10.267 -10.265 -10.262 -10.261 -10.260 -10.260
-10.249 -10.246 -10.246 -10.241 -10.238 -10.236 -10.235 -10.234
-10.233 -10.233 -10.232 -10.231 -10.231 -10.229 -10.227 -10.227
-10.225 -10.225 -10.223 -10.220 -10.220 -10.220 -10.218 -10.217
-10.214 -10.209 -10.208 -10.207 -10.200 -10.198 -10.196 -10.195
-10.191 -10.191 -10.187 -10.184 -10.176 -10.173 -10.172 -10.172
-10.171 -10.169 -10.167 -10.162  -8.045  -8.043  -7.986  -7.985
 -7.984  -7.977  -7.976  -7.967  -6.010  -6.008  -6.004  -6.003
 -6.002  -6.001  -5.950  -5.949  -5.948  -5.947  -5.946  -5.945
 -5.943  -5.941  -5.941  -5.941  -5.940  -5.938  -5.937  -5.934
 -5.932  -5.931  -5.928  -5.923  -1.041  -1.038  -0.966  -0.962
 -0.960  -0.952  -0.943  -0.937  -0.921  -0.917  -0.912  -0.907
 -0.852  -0.839  -0.833  -0.828  -0.818  -0.812  -0.811  -0.808
 -0.806  -0.804  -0.801  -0.795  -0.790  -0.780  -0.771  -0.764
 -0.756  -0.752  -0.744  -0.738  -0.728  -0.720  -0.717  -0.706
 -0.699  -0.691  -0.680  -0.676  -0.657  -0.656  -0.650  -0.644
 -0.640  -0.636  -0.633  -0.621  -0.615  -0.612  -0.600  -0.597
 -0.591  -0.591  -0.588  -0.585  -0.585  -0.577  -0.563  -0.558
 -0.547  -0.546  -0.540  -0.537  -0.524  -0.524  -0.516  -0.513
 -0.509  -0.505  -0.502  -0.499  -0.489  -0.489  -0.478  -0.477
 -0.477  -0.471  -0.470  -0.469  -0.469  -0.457  -0.453  -0.451
 -0.447  -0.446  -0.440  -0.440  -0.435  -0.433  -0.432  -0.431
 -0.430  -0.430  -0.425  -0.425  -0.420  -0.416  -0.415  -0.414
 -0.412  -0.409  -0.406  -0.404  -0.402  -0.399  -0.398  -0.397
 -0.397  -0.395  -0.394  -0.393  -0.390  -0.390  -0.385  -0.384
 -0.379  -0.377  -0.373  -0.373  -0.368  -0.365  -0.361  -0.359
 -0.355  -0.353  -0.351  -0.350  -0.349  -0.347  -0.345  -0.341
 -0.340  -0.339  -0.336  -0.334  -0.332  -0.329  -0.326  -0.322
 -0.320  -0.311  -0.307  -0.306  -0.305  -0.301  -0.297  -0.297
 -0.295  -0.294  -0.291  -0.290  -0.290  -0.282  -0.279  -0.276
 -0.275  -0.268  -0.268  -0.261  -0.255  -0.252  -0.249  -0.247
 -0.246  -0.241  -0.236  -0.231  -0.195  -0.190
 -- Virtual --
 -0.117  -0.115  -0.077  -0.066  -0.043  -0.034  -0.033  -0.024
 -0.021  -0.017  -0.016  -0.013  -0.007  -0.006   0.000   0.002
  0.003   0.014   0.014   0.018   0.027   0.031   0.031   0.035
  0.049   0.054   0.054   0.064   0.070   0.080   0.084   0.094
  0.095   0.097   0.104   0.105   0.109   0.110   0.113   0.113
  0.114   0.119   0.119   0.122   0.123   0.123   0.125   0.127
  0.128   0.129   0.131   0.135   0.138   0.142   0.145   0.145
  0.150   0.152   0.153   0.156   0.158   0.160   0.162   0.164
  0.168   0.170   0.171   0.173   0.174   0.175   0.176   0.180
  0.182   0.185   0.186   0.192   0.194   0.198   0.199   0.200
  0.203   0.204   0.207   0.209   0.214   0.215   0.218   0.222
  0.225   0.228   0.229   0.231   0.233   0.240   0.243   0.244
  0.246   0.247   0.249   0.254   0.255   0.258   0.262   0.263
  0.266   0.268   0.270   0.271   0.275   0.276   0.277   0.278
  0.283   0.285   0.289   0.290   0.293   0.295   0.299   0.305
  0.306   0.308   0.313   0.317   0.318   0.321   0.322   0.326
  0.328   0.333   0.334   0.341   0.341   0.345   0.347   0.349
  0.349   0.351   0.356   0.363   0.365   0.368   0.372   0.373
  0.377   0.377   0.383   0.384   0.388   0.393   0.397   0.404
  0.407   0.408   0.410   0.416   0.425   0.429   0.431   0.437
  0.439   0.444   0.448   0.449   0.456   0.458   0.463   0.469
  0.475   0.479   0.484   0.487   0.491   0.494   0.495   0.498
  0.499   0.501   0.502   0.507   0.509   0.512   0.513   0.514
  0.515   0.522   0.522   0.523   0.526   0.528   0.529   0.531
  0.532   0.533   0.535   0.537   0.539   0.540   0.545   0.549
  0.550   0.551   0.554   0.555   0.559   0.559   0.561   0.563
  0.565   0.566   0.570   0.573   0.575   0.577   0.580   0.581
  0.582   0.585   0.585   0.586   0.588   0.591   0.593   0.596
  0.597   0.601   0.602   0.604   0.606   0.608   0.611   0.612
  0.614   0.617   0.618   0.623   0.624   0.629   0.630   0.631
  0.636   0.638   0.640   0.642   0.642   0.643   0.644   0.646
  0.648   0.651   0.655   0.658   0.658   0.664   0.669   0.671
  0.674   0.678   0.682   0.687   0.690   0.691   0.695   0.697
  0.699   0.702   0.703   0.708   0.712   0.716   0.719   0.722
  0.722   0.723   0.725   0.731   0.733   0.741   0.745   0.748
  0.753   0.759   0.759   0.761   0.763   0.766   0.769   0.771
  0.773   0.779   0.781   0.783   0.788   0.789   0.791   0.794
  0.796   0.796   0.798   0.802   0.804   0.809   0.810   0.813
  0.814   0.816   0.817   0.820   0.821   0.822   0.825   0.826
  0.828   0.829   0.830   0.831   0.831   0.835   0.837   0.838
  0.841   0.843   0.846   0.850   0.850   0.851   0.852   0.853
  0.854   0.858   0.859   0.861   0.863   0.864   0.866   0.868
  0.870   0.875   0.876   0.878   0.880   0.883   0.885   0.887
  0.891   0.892   0.895   0.898   0.904   0.906   0.907   0.910
  0.910   0.912   0.913   0.915   0.917   0.919   0.923   0.924
  0.928   0.930   0.932   0.933   0.937   0.939   0.944   0.947
  0.951   0.954   0.956   0.960   0.962   0.964   0.965   0.966
  0.970   0.971   0.974   0.975   0.976   0.979   0.979   0.982
  0.983   0.987   0.990   0.992   0.998   0.998   1.001   1.003
  1.006   1.009   1.009   1.012   1.017   1.019   1.023   1.024
  1.028   1.028   1.033   1.037   1.037   1.039   1.039   1.047
  1.050   1.051   1.058   1.062   1.067   1.068   1.074   1.076
  1.080   1.086   1.089   1.091   1.092   1.100   1.105   1.107
  1.111   1.117   1.121   1.126   1.127   1.133   1.135   1.140
  1.143   1.147   1.150   1.155   1.155   1.161   1.162   1.170
  1.171   1.180   1.186   1.188   1.194   1.207   1.209   1.216
  1.225   1.231   1.236   1.241   1.250   1.252   1.257   1.259
  1.263   1.269   1.273   1.276   1.279   1.290   1.292   1.301
  1.304   1.305   1.308   1.314   1.318   1.327   1.329   1.336
  1.338   1.340   1.342   1.350   1.356   1.358   1.365   1.368
  1.370   1.375   1.381   1.382   1.386   1.392   1.396   1.398
  1.403   1.404   1.416   1.420   1.422   1.422   1.425   1.429
  1.433   1.436   1.441   1.447   1.449   1.459   1.462   1.469
  1.479   1.484   1.486   1.490   1.492   1.505   1.512   1.512
  1.515   1.519   1.522   1.534   1.547   1.552   1.559   1.560
  1.569   1.578   1.581   1.584   1.591   1.592   1.598   1.601
  1.607   1.615   1.624   1.634   1.635   1.653   1.656   1.658
  1.661   1.667   1.671   1.674   1.678   1.685   1.691   1.692
  1.698   1.704   1.705   1.708   1.709   1.714   1.716   1.719
  1.721   1.728   1.738   1.740   1.743   1.748   1.750   1.755
  1.756   1.763   1.769   1.771   1.772   1.777   1.779   1.781
  1.787   1.791   1.799   1.800   1.807   1.814   1.817   1.822
  1.827   1.827   1.832   1.833   1.837   1.841   1.847   1.852
  1.854   1.858   1.862   1.866   1.867   1.868   1.869   1.877
  1.882   1.885   1.888   1.891   1.898   1.904   1.906   1.907
  1.910   1.912   1.913   1.915   1.920   1.923   1.932   1.933
  1.936   1.939   1.939   1.945   1.945   1.948   1.949   1.954
  1.961   1.968   1.978   1.984   1.992   1.999   2.000   2.001
  2.009   2.010   2.013   2.016   2.016   2.020   2.023   2.031
  2.039   2.045   2.049   2.053   2.053   2.055   2.061   2.065
  2.070   2.071   2.084   2.084   2.089   2.094   2.102   2.108
  2.113   2.115   2.120   2.120   2.123   2.125   2.132   2.134
  2.136   2.142   2.144   2.151   2.152   2.155   2.158   2.161
  2.163   2.165   2.168   2.169   2.175   2.176   2.185   2.191
  2.192   2.198   2.202   2.207   2.212   2.215   2.218   2.220
  2.223   2.227   2.229   2.231   2.232   2.242   2.243   2.244
  2.258   2.262   2.265   2.267   2.270   2.273   2.278   2.282
  2.288   2.288   2.290   2.292   2.292   2.298   2.304   2.309
  2.314   2.315   2.318   2.319   2.320   2.327   2.330   2.332
  2.335   2.343   2.346   2.347   2.349   2.358   2.359   2.360
  2.361   2.369   2.374   2.378   2.379   2.383   2.387   2.389
  2.396   2.398   2.402   2.404   2.406   2.410   2.420   2.421
  2.426   2.427   2.430   2.432   2.434   2.437   2.438   2.441
  2.446   2.454   2.458   2.458   2.462   2.469   2.472   2.475
  2.480   2.485   2.485   2.493   2.495   2.501   2.505   2.507
  2.512   2.513   2.519   2.526   2.529   2.533   2.535   2.542
  2.551   2.553   2.553   2.555   2.557   2.564   2.568   2.571
  2.574   2.579   2.586   2.586   2.588   2.594   2.594   2.600
  2.601   2.615   2.617   2.618   2.625   2.627   2.636   2.637
  2.642   2.647   2.648   2.655   2.663   2.665   2.672   2.673
  2.676   2.678   2.681   2.684   2.690   2.698   2.699   2.702
  2.706   2.716   2.722   2.726   2.726   2.735   2.740   2.741
  2.746   2.748   2.753   2.762   2.763   2.771   2.778   2.793
  2.797   2.800   2.807   2.809   2.812   2.818   2.825   2.837
  2.838   2.841   2.842   2.851   2.854   2.862   2.862   2.863
  2.872   2.881   2.887   2.896   2.898   2.903   2.912   2.916
  2.925   2.927   2.931   2.934   2.936   2.937   2.952   2.963
  2.964   2.970   2.973   2.983   2.987   2.996   3.004   3.022
  3.029   3.038   3.049   3.064   3.067   3.086   3.095   3.110
  3.140   3.179   3.195   3.199   3.221   3.225   3.233   3.248
  3.255   3.263   3.263   3.269   3.280   3.282   3.284   3.299
  3.301   3.308   3.313   3.320   3.325   3.331   3.333   3.339
  3.344   3.346   3.364   3.373   3.385   3.400   3.418   3.431
  3.440   3.441   3.475   3.477   3.490   3.499   3.534   3.537
  3.539   3.555   3.564   3.569   3.585   3.602   3.603   3.604
  3.645   3.651   3.736   3.751   3.839   3.847   3.906   3.926
  3.931   3.943   3.945   3.949   3.958   3.982   3.983   3.992
  4.016   4.051   4.068   4.079   4.098   4.106   4.113   4.116
  4.121   4.132   4.132   4.149   4.161   4.162   4.181   4.192
  4.212   4.221   4.225   4.235   4.239   4.254   4.266   4.279
  4.285   4.287   4.330   4.346   4.362   4.380   4.395   4.414
  4.428   4.440   4.450   4.456   4.458   4.471   4.487   4.491
  4.516   4.528   4.542   4.545   4.601   4.631   4.652   4.679
  4.687   4.688   4.721   4.742   4.760   4.766   4.794   4.813
 --------------------------------------------------------------
 
          Ground-State Mulliken Net Atomic Charges

     Atom                 Charge (a.u.)
  ----------------------------------------
      1 C                     0.274563
      2 C                    -0.116202
      3 N                    -0.487353
      4 C                    -0.036160
      5 C                     0.076363
      6 C                     0.015083
      7 C                     0.022669
      8 C                     0.058374
      9 C                     0.298297
     10 N                    -0.461280
     11 N                    -0.598012
     12 C                     0.181891
     13 C                     0.234455
     14 S                     0.597083
     15 N                    -0.548071
     16 C                    -0.206713
     17 S                     0.352000
     18 C                    -0.120826
     19 C                    -0.197591
     20 S                     0.254294
     21 C                     0.156014
     22 C                     0.039233
     23 C                    -0.306531
     24 C                    -0.089581
     25 N                    -0.433992
     26 S                     0.277835
     27 C                     0.106793
     28 C                    -0.294768
     29 C                    -0.237480
     30 H                     0.081296
     31 H                     0.114059
     32 H                     0.103710
     33 H                     0.114506
     34 H                     0.146414
     35 H                     0.117656
     36 H                     0.110386
     37 H                     0.130821
     38 H                     0.122662
     39 C                    -0.178135
     40 H                     0.107135
     41 H                     0.095327
     42 H                     0.095527
     43 C                    -0.176762
     44 H                     0.084078
     45 C                    -0.182954
     46 H                     0.097729
     47 H                     0.075437
     48 H                     0.126923
     49 C                    -0.181854
     50 H                     0.090617
     51 C                    -0.316178
     52 H                     0.084848
     53 H                     0.109820
     54 H                     0.103579
     55 H                     0.094354
     56 C                     0.261864
     57 C                    -0.109412
     58 N                    -0.479496
     59 C                    -0.083849
     60 C                     0.081292
     61 C                     0.034569
     62 C                     0.020907
     63 C                     0.062032
     64 C                     0.229163
     65 N                    -0.525823
     66 N                    -0.546298
     67 C                     0.181481
     68 C                     0.300667
     69 S                     0.596546
     70 N                    -0.533203
     71 C                    -0.199872
     72 S                     0.311515
     73 C                    -0.122412
     74 C                    -0.215048
     75 S                     0.294346
     76 C                     0.154565
     77 C                     0.036551
     78 C                    -0.300823
     79 C                    -0.046306
     80 N                    -0.439880
     81 S                     0.267755
     82 C                     0.114745
     83 C                    -0.305142
     84 C                    -0.239938
     85 H                     0.095995
     86 H                     0.105917
     87 H                     0.123321
     88 H                     0.117989
     89 H                     0.120955
     90 H                     0.135163
     91 H                     0.112673
     92 H                     0.140417
     93 H                     0.115734
     94 C                    -0.176262
     95 H                     0.109932
     96 H                     0.091655
     97 H                     0.095631
     98 C                    -0.163917
     99 H                     0.099259
    100 C                    -0.163214
    101 H                     0.093900
    102 H                     0.087714
    103 H                     0.085873
    104 C                    -0.176681
    105 H                     0.087307
    106 C                    -0.309805
    107 H                     0.089254
    108 H                     0.101174
    109 H                     0.100863
    110 H                     0.097269
  ----------------------------------------
  Sum of atomic charges =     0.000000

 -----------------------------------------------------------------
                    Cartesian Multipole Moments
 -----------------------------------------------------------------
    Charge (ESU x 10^10)
                 0.0000
    Dipole Moment (Debye)
         X       3.7066      Y       0.8166      Z      -0.0306
       Tot       3.7956
    Quadrupole Moments (Debye-Ang)
        XX    -419.8094     XY       8.3104     YY    -429.5674
        XZ      17.5649     YZ       7.8999     ZZ    -432.7218
    Octopole Moments (Debye-Ang^2)
       XXX     912.4634    XXY     -61.3795    XYY    -148.5058
       YYY     230.3920    XXZ     -79.8651    XYZ    -158.3945
       YYZ     -42.4308    XZZ      71.9356    YZZ       2.5125
       ZZZ     -56.1565
    Hexadecapole Moments (Debye-Ang^3)
      XXXX -116155.7602   XXXY   -1339.5457   XXYY  -28494.7277
      XYYY    -374.3480   YYYY  -37838.6505   XXXZ    2771.5926
      XXYZ    -190.1660   XYYZ     596.8047   YYYZ     -61.5861
      XXZZ  -22873.9242   XYZZ      39.5851   YYZZ   -9497.4250
      XZZZ     -79.0382   YZZZ     -26.8852   ZZZZ  -14330.0660
 -----------------------------------------------------------------
Archival summary:
1\1\mn426\SP\ProcedureUnspecified\6-31G**\8105042\afmv_a\FriOct523:58:382018FriOct523:58:382018\0\\#,ProcedureUnspecified,6-31G**,\\0,1\S\C,1,1.73929\C,2,1.3576,1,127.55\C,2,1.37684,1,118.469,3,-165.62,0\C,4,1.36125,2,115.014,1,178.23,0\C,4,1.40941,2,110.103,1,-2.67636,0\H,6,1.08411,4,124.908,2,173.508,0\C,6,1.40412,4,111.977,2,-2.26318,0\H,8,1.08177,6,127.918,4,171.999,0\C,5,1.42299,4,119.765,2,-175.811,0\N,10,1.33544,5,117.956,4,-162.957,0\C,11,1.39633,10,108.038,5,178.919,0\H,12,1.08229,11,118.943,10,-176.873,0\C,12,1.36006,11,115.286,10,7.65947,0\H,14,1.082,12,120.213,11,165.061,0\C,3,1.50499,2,127.574,1,7.71152,0\N,16,1.35795,3,117.76,2,-48.074,0\C,17,1.29419,16,120.845,3,173.745,0\H,18,1.08862,17,111.429,16,-171.28,0\C,18,1.39431,17,123.243,16,10.995,0\C,20,1.3715,18,116.738,17,-0.779758,0\N,21,1.31968,20,127.816,18,178.771,0\C,21,1.38957,20,120.181,18,-2.55943,0\N,23,1.34694,21,116.838,20,176.304,0\C,20,1.50809,18,123.695,17,-172.37,0\C,25,1.41544,20,122.404,18,-47.3333,0\H,26,1.08863,25,121.263,20,-6.55214,0\N,26,1.32886,25,123.447,20,171.855,0\C,28,1.36267,26,120.552,25,-0.221029,0\C,29,1.38435,28,117.584,26,6.0147,0\H,30,1.0858,29,120.443,28,173.729,0\C,30,1.39133,29,124.454,28,-8.68561,0\H,32,1.08598,30,121.192,29,-179.43,0\C,29,1.54636,28,124.818,26,-176.413,0\H,34,1.09711,29,108.821,28,-122.574,0\H,34,1.09742,29,105.094,28,-13.2797,0\C,34,1.5546,29,111.759,28,107.443,0\H,37,1.09624,34,117.918,29,66.8936,0\H,37,1.09663,34,108.677,29,-176.66,0\C,37,1.52539,34,112.454,29,-52.3701,0\H,40,1.09625,37,106.091,34,-173.083,0\H,40,1.09694,37,108.888,34,69.9356,0\C,40,1.52239,37,115.851,34,-50.0656,0\H,43,1.09662,40,108.74,37,64.3122,0\H,43,1.09716,40,107.964,37,-51.1653,0\C,43,1.55492,40,118.652,37,-175.333,0\H,46,1.09657,43,102.84,40,155.328,0\H,46,1.09738,43,115.163,40,40.352,0\C,46,1.55608,43,114.932,40,-85.6699,0\H,49,1.09654,46,112.211,43,62.3318,0\H,49,1.09678,46,106.074,43,177.109,0\H,49,1.09709,46,110.311,43,-66.2055,0\S,24,1.61289,23,105.969,21,6.6407,0\S,14,1.68515,12,112.825,11,0.301965,0\S,5,1.74999,4,109.909,2,0.505037,0\N,9,2.54757,8,168.352,6,4.96551,0\C,56,1.34558,9,110.63,8,122.821,0\H,57,1.08955,56,109.651,9,-92.6395,0\C,56,1.34918,9,87.1256,8,-113.977,0\C,59,1.39476,56,119.9,9,-106.751,0\H,60,1.08661,59,114.155,56,172.336,0\C,60,1.40159,59,119.659,56,-7.47187,0\H,62,1.08599,60,119.849,59,-172.133,0\C,62,1.40162,60,119.781,59,1.01195,0\C,64,1.49971,62,121.118,60,-164.93,0\C,65,1.40261,64,128.415,62,-147.687,0\N,66,1.33392,65,122.605,64,5.42207,0\C,66,1.40667,65,123.237,64,-172.42,0\N,68,1.34741,66,115.867,65,-170.331,0\C,65,1.43812,64,117.098,62,33.4326,0\H,70,1.08896,65,124.494,64,-8.06866,0\N,70,1.35994,65,121.43,64,173.78,0\C,72,1.35518,70,124.625,65,0.205554,0\C,73,1.44212,72,113.221,70,-179.306,0\C,74,1.38607,73,123.762,72,154.134,0\C,75,1.40437,74,114.331,73,-167.631,0\C,76,1.35731,75,113.601,74,0.633303,0\C,76,1.38835,75,113.553,74,168.791,0\H,78,1.08422,76,132.965,75,178.949,0\C,78,1.36317,76,107.754,75,2.53219,0\H,80,1.08267,78,123.597,76,174.636,0\C,77,1.39594,76,125.249,75,164.978,0\N,82,1.33965,77,122.939,76,29.222,0\C,83,1.38625,82,110.795,77,-178.682,0\H,84,1.08174,83,120.912,82,174.222,0\C,84,1.39214,83,115.917,82,8.95485,0\H,86,1.08222,84,131.211,83,174.377,0\C,59,1.55532,56,118.87,9,72.5799,0\H,88,1.0969,59,107.125,56,-128.973,0\H,88,1.09734,59,108.51,56,-11.624,0\C,88,1.5998,59,114.354,56,104.111,0\H,91,1.0971,88,112.827,59,175.248,0\H,91,1.09761,88,100.225,59,60.715,0\C,91,1.48309,88,114.824,59,-56.1189,0\H,94,1.09703,91,112.322,88,57.8265,0\H,94,1.09723,91,103.636,88,-57.9312,0\C,94,1.49107,91,113.44,88,-169.707,0\H,97,1.09661,94,106.041,91,52.277,0\H,97,1.09726,94,111.251,91,170.021,0\C,97,1.52317,94,117.401,91,-74.978,0\H,100,1.09664,97,115.312,94,-55.0502,0\H,100,1.09669,97,110.371,94,56.9242,0\C,100,1.4905,97,112.85,94,-172.561,0\H,103,1.09642,100,106.058,97,56.7531,0\H,103,1.09718,100,110.441,97,-65.6638,0\H,103,1.09746,100,112.856,97,170.844,0\S,67,1.65075,66,104.251,65,169.168,0\S,75,1.73322,74,129.844,73,-5.2053,0\S,86,1.73516,84,109.471,83,-3.91735,0\S,74,1.76943,73,123.702,72,-10.3985,0\\\@

 Total job time:  96.30s(wall), 1039.89s(cpu) 
 Fri Oct  5 23:58:38 2018

        *************************************************************
        *                                                           *
        *  Thank you very much for using Q-Chem.  Have a nice day.  *
        *                                                           *
        *************************************************************


