
Running Job 1 of 1 C169_2/C169_255.qcin
qchem C169_2/C169_255.qcin_26569.0 /tmpu/cab_g/afmv_a/scratch_qchem/qchem26569/ 1
/tmpu/appuserlic/qchem4.4/serial-multicore/exe/qcprog.exe_s C169_2/C169_255.qcin_26569.0 /tmpu/cab_g/afmv_a/scratch_qchem/qchem26569/
Check license passed

                  Welcome to Q-Chem
     A Quantum Leap Into The Future Of Chemistry


 Q-Chem 4.4, Q-Chem, Inc., Pleasanton, CA (2016)

 Y. Shao,  Z. Gan,  E. Epifanovsky,  A. T. B. Gilbert,  M. Wormit,  
 J. Kussmann,  A. W. Lange,  A. Behn,  J. Deng,  X. Feng,  D. Ghosh,  
 M. Goldey,  P. R. Horn,  L. D. Jacobson,  I. Kaliman,  F. Rob,  
 R. Z. Khaliullin,  T. Kus,  A. Landau,  J. Liu,  E. I. Proynov,  Y. M. Rhee,  
 R. M. Richard,  M. A. Rohrdanz,  R. P. Steele,  E. J. Sundstrom,  
 H. L. Woodcock III,  P. M. Zimmerman,  D. Zuev,  B. Albrecht,  E. Alguire,  
 B. Austin,  S. A. Baeppler,  G. J. O. Beran,  Y. A. Bernard,  E. Berquist,  
 K. Brandhorst,  K. B. Bravaya,  S. T. Brown,  D. Casanova,  C.-M. Chang,  
 Y. Chen,  S. H. Chien,  K. D. Closser,  M. P. Coons,  D. L. Crittenden,  
 S. Dasgupta,  M. Diedenhofen,  R. A. DiStasio Jr.,  H. Do,  A. D. Dutoi,  
 R. G. Edgar,  P.-T. Fang,  S. Fatehi,  Q. Feng,  L. Fusti-Molnar,  
 A. Ghysels,  A. Golubeva-Zadorozhnaya,  J. Gomes,  A. Gunina,  
 M. W. D. Hanson-Heine,  P. H. P. Harbach,  A. W. Hauser,  J. E. Herr,  
 E. G. Hohenstein,  Z. C. Holden,  K. Hui,  T.-C. Jagau,  H. Ji,  B. Kaduk,  
 K. Khistyaev,  Jaehoon Kim,  Jihan Kim,  R. A. King,  P. Klunzinger,  
 K. Koh,  D. Kosenkov,  T. Kowalczyk,  C. M. Krauter,  A. Kunitsa,  
 K. U. Lao,  A. Laurent,  K. V. Lawler,  J. Lee,  D. Lefrancois,  S. Lehtola,  
 S. V. Levchenko,  C. Y. Lin,  Y.-S. Lin,  F. Liu,  E. Livshits,  
 R. C. Lochan,  A. Luenser,  P. Manohar,  S. F. Manzer,  S.-P. Mao,  Y. Mao,  
 N. Mardirossian,  A. V. Marenich,  L. A. Martinez-Martinez,  S. A. Maurer,  
 N. J. Mayhall,  J.-M. Mewes,  A. F. Morrison,  K. Nanda,  T. S. Nguyen-Beck,  
 C. M. Oana,  R. Olivares-Amaya,  D. P. O'Neill,  J. A. Parkhill,  
 T. M. Perrine,  R. Peverati,  P. A. Pieniazek,  F. Plasser,  A. Prociuk,  
 D. R. Rehn,  E. Rosta,  N. J. Russ,  N. Sergueev,  S. M. Sharada,  
 S. Sharma,  D. W. Small,  A. Sodt,  T. Stauch,  T. Stein,  D. Stuck,  
 Y.-C. Su,  A. J. W. Thom,  T. Tsuchimochi,  L. Vogt,  O. Vydrov,  T. Wang,  
 M. A. Watson,  J. Wenzel,  A. White,  C. F. Williams,  V. Vanovschi,  
 K. Yao,  S. Yeganeh,  S. R. Yost,  Z.-Q. You,  I. Y. Zhang,  X. Zhang,  
 Y. Zhao,  B. R. Brooks,  G. K. L. Chan,  D. M. Chipman,  C. J. Cramer,  
 W. A. Goddard III,  M. S. Gordon,  W. J. Hehre,  A. Klamt,  
 H. F. Schaefer III,  M. W. Schmidt,  C. D. Sherrill,  D. G. Truhlar,  
 A. Warshel,  X. Xu,  A. Aspuru-Guzik,  R. Baer,  A. T. Bell,  N. A. Besley,  
 J.-D. Chai,  A. Dreuw,  B. D. Dunietz,  T. R. Furlani,  S. R. Gwaltney,  
 C.-P. Hsu,  Y. Jung,  J. Kong,  D. S. Lambrecht,  W. Liang,  C. Ochsenfeld,  
 V. A. Rassolov,  L. V. Slipchenko,  J. E. Subotnik,  T. Van Voorhis,  
 J. M. Herbert,  A. I. Krylov,  P. M. W. Gill,  M. Head-Gordon

 Contributors to earlier versions of Q-Chem not listed above: 
 R. D. Adamson,  J. Baker,  E. F. C. Byrd,  A. K. Chakraborty,  C.-L. Cheng,  
 H. Dachsel,  R. J. Doerksen,  G. Hawkins,  A. Heyden,  S. Hirata,  
 G. Kedziora,  F. J. Keil,  C. Kelley,  P. P. Korambath,  W. Kurlancheek,  
 A. M. Lee,  M. S. Lee,  D. Liotard,  I. Lotan,  P. E. Maslen,  N. Nair,  
 D. Neuhauser,  R. Olson,  B. Peters,  J. Ritchie,  N. E. Schultz,  
 N. Shenvi,  A. C. Simmonett,  K. S. Thanthiriwatte,  Q. Wu,  W. Zhang

 Please cite Q-Chem as follows:
 Y. Shao et al., Mol. Phys. 113, 184-215 (2015)
 DOI: 10.1080/00268976.2014.952696

 Q-Chem 4.4.2 for Intel X86 Linux

 Parts of Q-Chem use Armadillo 5.200.1 (Boston Tea Smuggler).
 http://arma.sourceforge.net/

 Q-Chem begins on Sat Jun 17 02:22:25 2017  

Host: 
0

     Scratch files written to /tmpu/cab_g/afmv_a/scratch_qchem/qchem26569//
 Dec716 11556_ 22328  22283 4050   
Processing $rem in /tmpu/appuserlic/qchem4.4/serial-multicore/config/preferences.
 MEM_TOTAL  2000 
FILE_GEOM_ORG=        593

Checking the input file for inconsistencies... 	...done.

--------------------------------------------------------------
User input:
--------------------------------------------------------------
$comment
OPTIMIZATION
$end

$rem
JOBTYPE OPT
EXCHANGE omegaB97X-D
BASIS cc-pVTZ
$end

$molecule
0 1
C          0.00000        0.00000        0.00000
C         -0.65396       -1.22126       -0.00000
C          1.38563        0.00000        0.00000
C          0.09526       -2.37957        0.00866
N          2.11912       -1.10562        0.01199
C          1.48546       -2.27640        0.02149
C          2.30642       -3.51253        0.03449
N          1.74513       -4.60745       -0.39909
C          3.65824       -3.56714        0.50995
C          2.40434       -5.79109       -0.42442
N          4.38617       -2.58332        1.04242
C          4.35289       -4.81920        0.47143
C          3.70163       -5.99343       -0.01477
S          5.80914       -3.21778        1.41887
N          5.59255       -4.74484        0.95148
C          4.33823       -7.30129       -0.04468
S          4.61024       -8.23534        1.37319
C          4.80916       -8.01780       -1.14524
C          5.35850       -9.53799        0.56577
N          4.75924       -7.61172       -2.44484
C          5.38193       -9.28263       -0.80012
C          5.84807      -10.70421        1.26551
C          5.26101       -8.43212       -3.31523
N          5.89955      -10.11792       -1.74063
C          6.04963      -11.96101        0.76454
S          6.28023      -10.64441        2.94437
C          5.83601       -9.69195       -2.96473
C          6.53670      -12.87191        1.73216
C          6.70362      -12.30348        2.95566
H         -0.54853        0.93120        0.00000
H         -1.73532       -1.26909       -0.00410
H          1.93662        0.93286       -0.01167
H         -0.36319       -3.35650        0.00329
H          1.82722       -6.62671       -0.78554
H          5.23698       -8.12729       -4.35613
H          5.85815      -12.20415       -0.26697
H          6.23980      -10.33397       -3.74001
H          6.74710      -13.90928        1.52085
H          7.05844      -12.76869        3.85935
$end

$opt
CONSTRAINT
tors 4 6 7 8 21.82164
tors 10 13 16 17 -105.00000
tors 17 19 22 25 156.39459
ENDCONSTRAINT
$end
--------------------------------------------------------------
 ----------------------------------------------------------------
             Standard Nuclear Orientation (Angstroms)
    I     Atom           X                Y                Z
 ----------------------------------------------------------------
    1      C      -7.6046656914     0.0973462729    -1.0184578733
    2      C      -6.7879029338     0.5123798895    -2.0575850860
    3      C      -7.0075317629    -0.2644738662     0.1784079317
    4      C      -5.4224518239     0.5402416271    -1.8630223705
    5      N      -5.6960191432    -0.2461881219     0.3787756049
    6      C      -4.9152395136     0.1444765853    -0.6262643498
    7      C      -3.4485594717     0.1650719524    -0.4013484010
    8      N      -2.7364518285     0.9400915060    -1.1721501154
    9      C      -2.7829409182    -0.6260005072     0.5924413559
   10      C      -1.3894303402     1.0286219784    -1.0542580120
   11      N      -3.3162382341    -1.5156994409     1.4322853643
   12      C      -1.3600406747    -0.5205832007     0.7186108657
   13      C      -0.6191171724     0.3434847749    -0.1438072566
   14      S      -2.1054190044    -2.1158717887     2.2941482658
   15      N      -0.8584446959    -1.3124985248     1.6641297291
   16      C       0.8295759301     0.4670901740    -0.0922131873
   17      S       1.8882074930    -0.7560891325    -0.6752447282
   18      C       1.5985192958     1.5267525285     0.3896952617
   19      C       3.3248476918     0.0715636937    -0.2755287727
   20      N       1.1189728181     2.6858515169     0.9215578791
   21      C       3.0077608100     1.3042568372     0.2824467733
   22      C       4.6348366068    -0.4838176141    -0.5302140421
   23      C       2.0110866697     3.5408778149     1.3158559269
   24      N       3.9150954802     2.2243408141     0.7071680704
   25      C       5.8165027044     0.1880226003    -0.6833139264
   26      S       4.8870911603    -2.1940676013    -0.6727686872
   27      C       3.4171753794     3.3117191100     1.2107478530
   28      C       6.9148578340    -0.6707477391    -0.9270227129
   29      C       6.5627732926    -1.9834485777    -0.9549545119
   30      H      -8.6787149655     0.0543268465    -1.1306456021
   31      H      -7.2111795166     0.8081866187    -3.0088890762
   32      H      -7.6100715941    -0.5839148581     1.0203444811
   33      H      -4.7416049379     0.8604247417    -2.6366681262
   34      H      -0.9122270856     1.6874833367    -1.7613044727
   35      H       1.6522386748     4.4691627816     1.7476970052
   36      H       5.8790894180     1.2607669877    -0.6119212601
   37      H       4.1133905209     4.0668339707     1.5591458250
   38      H       7.9236162632    -0.3186472611    -1.0802815720
   39      H       7.1986525928    -2.8364570539    -1.1192933314
 ----------------------------------------------------------------
 Molecular Point Group                 C1    NOp =  1
 Largest Abelian Subgroup              C1    NOp =  1
 Nuclear Repulsion Energy =  2919.2916950309 hartrees
 There are      110 alpha and      110 beta electrons
 Requested basis set is cc-pVTZ
 There are 356 shells and 1022 basis functions

 Total QAlloc Memory Limit   2000 MB
 Mega-Array Size        61 MB
 MEM_STATIC part        62 MB
 A cutoff of  1.0D-11 yielded  30809 shell pairs
 There are    242955 function pairs (    317123 Cartesian)
 
 -------------------------------------------------------
 OpenMP Integral Computing Module                       
 Release: version 1.0, May 2013, Q-Chem Inc. Pittsburgh 
 -------------------------------------------------------
 Integral Job Info:
 Integral job number is                      11
 Integral operator is                         1
 short-range coefficients              22203600
 long-range coefficients              100000000
 Omega coefficients                         200
 if combine SR and LR in K                    1
 Integral screening is                        0
 Integral computing path is                   2
 max size of driver memory is            800000
 size of driver memory is                776718
 size of scratch memory is             26248924
 max col of scratch BK array              10000
 max len of scratch array in speh3          662
 max len of scratch index in speh4           32
 max int batch size is                      520
 min int batch size is                       52
 fixed nKL is                                52
 max L of basis functions is                  3
 order of int derivative is                   0
 number of shells is                        356
 number of basis is                        1177
 number of cartesian basis is              1177
 number of contracted shell pairs         30809
 number of primitive shell pairs          93355
 maxK2 (contraction) of shell pair          121
 max number of K2 of shell pair               1
 max number of CS2 of shell pair           4271
 max number of PS2 of shell pair          12992
 mem total for path MDJ                  838096
 -------------------------------------------------------
 Smallest overlap matrix eigenvalue = 3.26E-05

 Scale SEOQF with 1.000000e-02/1.000000e-01/1.000000e-01

 Standard Electronic Orientation quadrupole field applied
 Nucleus-field energy     =     0.0000000215 hartrees
 Guess from superposition of atomic densities
 Warning:  Energy on first SCF cycle will be non-variational
 Long-range K will be added via erf
 Coulomb attenuation parameter = 0.2 bohr**(-1)
 A restricted hybrid HF-DFT SCF calculation will be
 performed using Pulay DIIS extrapolation
 Exchange:     0.2220 Hartree-Fock + 1.0000 wB97X-D + LR-HF
 Correlation:  1.0000 wB97X-D
 Using SG-2 standard quadrature grid
 Dispersion:   Grimme D
 SCF converges when DIIS error is below 1.0E-08
 using 16 threads for integral computing 
 using 16 threads for integral computing 
 K construction time:  CPU 70.13 s  wall 4.63 s
 -------------------------------------------------------
 OpenMP BLAS3 based DFT computing Module                
 Release: version 1.0, May 2013, Q-Chem Inc. Pittsburgh 
 -------------------------------------------------------
 ---------------------------------------
  Cycle       Energy         DIIS Error
 ---------------------------------------
    1   -2301.3430719921      1.83E-02
 K construction time:  CPU 1091.38 s  wall 72.22 s
    2   -2290.8910376019      1.35E-03
 K construction time:  CPU 1038.81 s  wall 68.67 s
    3   -2290.9285361992      1.35E-03
 K construction time:  CPU 986.94 s  wall 65.26 s
    4   -2291.1385919156      1.91E-04
 K construction time:  CPU 909.10 s  wall 60.09 s
    5   -2291.1428629640      1.00E-04
 K construction time:  CPU 858.59 s  wall 56.80 s
    6   -2291.1441142154      3.62E-05
 K construction time:  CPU 798.47 s  wall 52.86 s
    7   -2291.1442893327      1.52E-05
 K construction time:  CPU 746.55 s  wall 49.39 s
    8   -2291.1443284275      5.41E-06
 K construction time:  CPU 715.38 s  wall 47.30 s
    9   -2291.1443387080      3.33E-06
 K construction time:  CPU 666.70 s  wall 44.07 s
   10   -2291.1443416432      1.11E-06
 K construction time:  CPU 608.41 s  wall 40.21 s
   11   -2291.1443420723      7.68E-07
 K construction time:  CPU 564.11 s  wall 37.22 s
   12   -2291.1443422104      2.13E-07
 K construction time:  CPU 504.60 s  wall 33.22 s
   13   -2291.1443422250      1.07E-07
 K construction time:  CPU 440.50 s  wall 28.98 s
   14   -2291.1443422268      3.12E-08
 K construction time:  CPU 371.14 s  wall 24.45 s
   15   -2291.1443422273      1.57E-08
 K construction time:  CPU 1089.38 s  wall 72.05 s
   16   -2291.1443422283      4.68E-09 Convergence criterion met
 ---------------------------------------
 SCF time:  CPU 15339.50 s  wall 1041.01 s
 SCF   energy in the final basis set = -2291.1443422283
 Total energy in the final basis set = -2291.1443422283
 
 --------------------------------------------------------------
 
                    Orbital Energies (a.u.)
 --------------------------------------------------------------
 
 Alpha MOs
 -- Occupied --
-89.145 -89.101 -89.079 -14.481 -14.476 -14.460 -14.458 -14.448
-14.436 -10.358 -10.354 -10.351 -10.344 -10.341 -10.341 -10.340
-10.339 -10.339 -10.337 -10.336 -10.334 -10.329 -10.326 -10.319
-10.311 -10.303 -10.301 -10.294 -10.292  -8.156  -8.116  -8.094
 -6.106  -6.100  -6.100  -6.065  -6.061  -6.059  -6.044  -6.040
 -6.037  -1.142  -1.098  -1.072  -1.051  -1.026  -1.011  -1.002
 -0.985  -0.925  -0.914  -0.898  -0.879  -0.868  -0.854  -0.838
 -0.812  -0.778  -0.769  -0.748  -0.739  -0.729  -0.721  -0.711
 -0.672  -0.654  -0.646  -0.630  -0.629  -0.622  -0.605  -0.602
 -0.592  -0.577  -0.569  -0.563  -0.559  -0.544  -0.543  -0.527
 -0.513  -0.506  -0.502  -0.502  -0.495  -0.491  -0.486  -0.480
 -0.473  -0.468  -0.461  -0.456  -0.449  -0.436  -0.428  -0.424
 -0.422  -0.409  -0.395  -0.376  -0.369  -0.363  -0.358  -0.350
 -0.342  -0.338  -0.336  -0.333  -0.316  -0.274
 -- Virtual --
 -0.044  -0.033   0.026   0.031   0.040   0.058   0.065   0.070
  0.085   0.089   0.093   0.122   0.124   0.129   0.131   0.138
  0.145   0.146   0.154   0.157   0.165   0.175   0.176   0.189
  0.195   0.197   0.211   0.216   0.222   0.225   0.239   0.242
  0.254   0.261   0.267   0.273   0.280   0.285   0.292   0.294
  0.299   0.301   0.309   0.312   0.313   0.319   0.323   0.329
  0.330   0.333   0.338   0.343   0.346   0.346   0.352   0.359
  0.361   0.365   0.373   0.376   0.379   0.380   0.383   0.385
  0.389   0.391   0.397   0.400   0.403   0.405   0.409   0.414
  0.415   0.418   0.422   0.427   0.430   0.433   0.435   0.439
  0.440   0.444   0.449   0.455   0.458   0.459   0.463   0.463
  0.466   0.471   0.476   0.478   0.480   0.483   0.487   0.489
  0.492   0.496   0.499   0.503   0.510   0.512   0.518   0.521
  0.524   0.527   0.529   0.533   0.536   0.540   0.547   0.551
  0.556   0.561   0.567   0.569   0.575   0.580   0.587   0.593
  0.603   0.607   0.609   0.615   0.617   0.621   0.625   0.632
  0.640   0.642   0.642   0.650   0.655   0.656   0.668   0.671
  0.672   0.674   0.681   0.690   0.696   0.701   0.709   0.711
  0.713   0.717   0.728   0.731   0.732   0.740   0.740   0.746
  0.753   0.759   0.764   0.769   0.773   0.775   0.785   0.786
  0.790   0.793   0.797   0.798   0.807   0.809   0.817   0.823
  0.826   0.831   0.836   0.838   0.842   0.845   0.852   0.854
  0.861   0.868   0.869   0.871   0.876   0.886   0.892   0.901
  0.902   0.911   0.916   0.920   0.922   0.924   0.928   0.934
  0.936   0.942   0.945   0.951   0.953   0.956   0.961   0.970
  0.976   0.981   0.985   0.987   0.993   1.001   1.006   1.009
  1.018   1.025   1.029   1.031   1.044   1.050   1.053   1.056
  1.060   1.065   1.067   1.080   1.083   1.087   1.090   1.092
  1.102   1.104   1.106   1.109   1.125   1.127   1.131   1.136
  1.148   1.149   1.160   1.168   1.179   1.181   1.187   1.192
  1.201   1.207   1.213   1.216   1.222   1.228   1.236   1.244
  1.246   1.256   1.265   1.269   1.279   1.283   1.293   1.295
  1.309   1.317   1.319   1.324   1.336   1.350   1.351   1.355
  1.359   1.371   1.374   1.377   1.382   1.383   1.385   1.392
  1.397   1.405   1.411   1.412   1.419   1.424   1.431   1.437
  1.444   1.447   1.450   1.457   1.465   1.471   1.479   1.481
  1.484   1.487   1.499   1.506   1.508   1.516   1.521   1.528
  1.539   1.565   1.566   1.567   1.573   1.581   1.589   1.594
  1.601   1.608   1.611   1.618   1.628   1.637   1.643   1.647
  1.652   1.662   1.664   1.668   1.672   1.676   1.687   1.693
  1.701   1.712   1.717   1.722   1.729   1.737   1.746   1.751
  1.755   1.763   1.764   1.769   1.780   1.790   1.795   1.803
  1.819   1.828   1.841   1.846   1.866   1.877   1.878   1.888
  1.890   1.894   1.905   1.912   1.925   1.929   1.939   1.944
  1.951   1.963   1.973   1.981   1.982   1.992   2.005   2.010
  2.015   2.017   2.031   2.040   2.045   2.048   2.055   2.065
  2.075   2.078   2.093   2.101   2.104   2.116   2.120   2.125
  2.138   2.145   2.162   2.170   2.174   2.180   2.188   2.193
  2.200   2.208   2.214   2.218   2.237   2.243   2.248   2.256
  2.263   2.265   2.279   2.289   2.292   2.294   2.298   2.299
  2.316   2.323   2.330   2.337   2.344   2.349   2.354   2.361
  2.375   2.384   2.394   2.399   2.408   2.414   2.415   2.424
  2.436   2.440   2.443   2.451   2.457   2.462   2.470   2.472
  2.476   2.489   2.507   2.508   2.520   2.529   2.533   2.534
  2.538   2.541   2.545   2.550   2.551   2.566   2.578   2.586
  2.596   2.613   2.615   2.624   2.632   2.642   2.648   2.659
  2.661   2.667   2.674   2.684   2.686   2.699   2.704   2.713
  2.727   2.730   2.735   2.745   2.751   2.771   2.774   2.776
  2.783   2.788   2.800   2.802   2.811   2.818   2.821   2.825
  2.832   2.841   2.845   2.854   2.866   2.870   2.871   2.876
  2.883   2.890   2.894   2.904   2.910   2.916   2.922   2.929
  2.932   2.940   2.945   2.954   2.957   2.965   2.973   2.983
  2.988   2.993   2.999   3.003   3.009   3.015   3.019   3.023
  3.024   3.031   3.040   3.042   3.045   3.050   3.060   3.061
  3.067   3.067   3.072   3.076   3.078   3.082   3.084   3.090
  3.092   3.099   3.102   3.111   3.112   3.115   3.122   3.131
  3.140   3.142   3.149   3.153   3.157   3.157   3.158   3.167
  3.175   3.177   3.178   3.183   3.195   3.198   3.203   3.206
  3.211   3.214   3.220   3.224   3.228   3.232   3.236   3.237
  3.239   3.246   3.254   3.257   3.263   3.265   3.273   3.275
  3.277   3.280   3.283   3.286   3.290   3.296   3.300   3.306
  3.311   3.315   3.319   3.324   3.329   3.330   3.340   3.342
  3.350   3.354   3.360   3.369   3.375   3.386   3.389   3.394
  3.403   3.404   3.415   3.415   3.419   3.422   3.425   3.433
  3.438   3.446   3.449   3.455   3.460   3.465   3.469   3.473
  3.476   3.486   3.491   3.494   3.501   3.509   3.514   3.518
  3.532   3.534   3.541   3.547   3.555   3.567   3.569   3.582
  3.588   3.593   3.600   3.609   3.618   3.626   3.633   3.643
  3.652   3.659   3.660   3.681   3.690   3.696   3.704   3.714
  3.717   3.718   3.722   3.737   3.738   3.740   3.748   3.757
  3.772   3.779   3.781   3.787   3.797   3.801   3.807   3.812
  3.814   3.817   3.824   3.840   3.848   3.856   3.870   3.885
  3.886   3.896   3.903   3.905   3.916   3.923   3.927   3.930
  3.932   3.934   3.940   3.945   3.953   3.961   3.966   3.970
  3.974   3.980   3.992   3.999   4.012   4.016   4.026   4.031
  4.040   4.048   4.054   4.065   4.075   4.084   4.093   4.100
  4.108   4.117   4.121   4.125   4.137   4.149   4.160   4.169
  4.176   4.180   4.193   4.198   4.210   4.213   4.216   4.222
  4.230   4.237   4.242   4.247   4.252   4.267   4.270   4.286
  4.293   4.296   4.303   4.307   4.313   4.321   4.329   4.335
  4.346   4.347   4.355   4.359   4.369   4.375   4.377   4.391
  4.400   4.402   4.415   4.425   4.435   4.441   4.446   4.459
  4.462   4.480   4.490   4.500   4.512   4.520   4.527   4.540
  4.546   4.556   4.559   4.565   4.586   4.593   4.596   4.609
  4.621   4.640   4.643   4.651   4.659   4.676   4.679   4.703
  4.708   4.714   4.730   4.743   4.753   4.766   4.771   4.779
  4.795   4.804   4.810   4.815   4.826   4.839   4.846   4.852
  4.860   4.871   4.883   4.888   4.901   4.910   4.921   4.930
  4.932   4.949   4.953   4.968   4.972   4.976   4.984   4.990
  4.993   5.007   5.009   5.011   5.019   5.035   5.038   5.045
  5.052   5.056   5.070   5.082   5.090   5.099   5.114   5.123
  5.129   5.138   5.144   5.150   5.163   5.167   5.185   5.194
  5.209   5.213   5.232   5.243   5.278   5.299   5.304   5.314
  5.324   5.332   5.347   5.361   5.371   5.384   5.397   5.428
  5.433   5.461   5.466   5.485   5.494   5.504   5.524   5.544
  5.561   5.574   5.576   5.586   5.595   5.601   5.625   5.650
  5.669   5.680   5.710   5.721   5.736   5.744   5.757   5.776
  5.793   5.831   5.834   5.857   5.871   5.879   5.898   5.913
  5.950   5.952   5.979   6.041   6.089   6.095   6.135   6.164
  6.195   6.230   6.243   6.274   6.290   6.315   6.376   6.431
  6.443   6.487   6.624   6.838   6.989   7.069   7.915   8.751
  9.788  10.124  10.627  11.044  11.252  11.691  11.975  12.008
 12.329  12.618  12.735  12.748  12.842  12.871  13.080  13.270
 13.318  13.410  13.530  13.629  14.290  14.606  15.036  15.068
 --------------------------------------------------------------
 
          Ground-State Mulliken Net Atomic Charges

     Atom                 Charge (a.u.)
  ----------------------------------------
      1 C                    -0.090070
      2 C                    -0.128996
      3 C                    -0.079783
      4 C                    -0.116570
      5 N                    -0.142330
      6 C                     0.079612
      7 C                     0.114952
      8 N                    -0.176103
      9 C                    -0.012805
     10 C                    -0.047967
     11 N                    -0.222583
     12 C                     0.051339
     13 C                     0.010402
     14 S                     0.409830
     15 N                    -0.272855
     16 C                    -0.102794
     17 S                     0.189499
     18 C                     0.042613
     19 C                    -0.051436
     20 N                    -0.144249
     21 C                     0.049538
     22 C                    -0.014557
     23 C                    -0.050412
     24 N                    -0.162717
     25 C                    -0.142578
     26 S                     0.100513
     27 C                    -0.049722
     28 C                    -0.156260
     29 C                    -0.182891
     30 H                     0.133361
     31 H                     0.120128
     32 H                     0.120512
     33 H                     0.136385
     34 H                     0.125895
     35 H                     0.131515
     36 H                     0.137537
     37 H                     0.127185
     38 H                     0.130566
     39 H                     0.136295
  ----------------------------------------
  Sum of atomic charges =     0.000000

 -----------------------------------------------------------------
                    Cartesian Multipole Moments
 -----------------------------------------------------------------
    Charge (ESU x 10^10)
                 0.0000
    Dipole Moment (Debye)
         X      -0.1161      Y       0.6457      Z      -1.2570
       Tot       1.4179
    Quadrupole Moments (Debye-Ang)
        XX    -151.6272     XY       2.5331     YY    -171.9166
        XZ       6.3745     YZ       1.7948     ZZ    -178.9263
    Octopole Moments (Debye-Ang^2)
       XXX    -107.4905    XXY     -10.5785    XYY      63.0438
       YYY      20.8144    XXZ     -84.2316    XYZ      31.0730
       YYZ      28.0990    XZZ     -37.1486    YZZ       4.6333
       ZZZ      14.0502
    Hexadecapole Moments (Debye-Ang^3)
      XXXX  -15975.8953   XXXY    -276.3756   XXYY   -3525.9342
      XYYY     122.5089   YYYY   -2495.3995   XXXZ     180.4501
      XXYZ      23.7463   XYYZ       4.1262   YYYZ      91.2791
      XXZZ   -3377.5831   XYZZ      22.2807   YYZZ    -666.6681
      XZZZ      76.7436   YZZZ     -52.5443   ZZZZ   -1516.4443
 -----------------------------------------------------------------
 Calculating analytic gradient of the SCF energy
 K construction time:  CPU 2657.30 s  wall 168.60 s
 Gradient of SCF Energy
            1           2           3           4           5           6
    1  -0.0004804   0.0016401  -0.0005964  -0.0018602  -0.0007859   0.0026042
    2  -0.0001253   0.0002895  -0.0000889  -0.0000723  -0.0004212   0.0003474
    3   0.0000563   0.0009069  -0.0001986  -0.0003295   0.0003145   0.0007212
            7           8           9          10          11          12
    1  -0.0035008   0.0021158   0.0009319  -0.0057191   0.0018122  -0.0023524
    2  -0.0006128  -0.0018668   0.0005251   0.0062014   0.0001874   0.0000367
    3  -0.0009738   0.0012238   0.0000416  -0.0068579  -0.0003314   0.0008228
           13          14          15          16          17          18
    1   0.0167745  -0.0010137  -0.0037456  -0.0169699   0.0057898   0.0033880
    2  -0.0000417  -0.0025407   0.0017811  -0.0078122  -0.0020317   0.0049482
    3   0.0049353   0.0022492  -0.0014888  -0.0039087  -0.0032218   0.0040431
           19          20          21          22          23          24
    1  -0.0001317   0.0044649  -0.0006150  -0.0016005   0.0037451  -0.0005716
    2  -0.0020495  -0.0008395   0.0043705   0.0019258   0.0010721  -0.0022168
    3   0.0000037  -0.0007924   0.0014283   0.0006411   0.0000865  -0.0012552
           25          26          27          28          29          30
    1   0.0004643   0.0000457  -0.0022299   0.0006787  -0.0006985   0.0000193
    2   0.0005861  -0.0005505   0.0021876  -0.0002179  -0.0007123  -0.0000738
    3  -0.0000964   0.0000531   0.0012031   0.0000601  -0.0000045  -0.0002640
           31          32          33          34          35          36
    1  -0.0003047   0.0002980   0.0000521  -0.0018033  -0.0001318  -0.0003278
    2  -0.0000301   0.0000073   0.0001415  -0.0025139  -0.0000599  -0.0005083
    3  -0.0005797  -0.0000932  -0.0000787   0.0013902   0.0003136   0.0000768
           37          38          39
    1   0.0003794  -0.0001404   0.0003755
    2  -0.0000218   0.0006207   0.0001795
    3  -0.0000337  -0.0001615   0.0000986
 Max gradient component =       1.697E-02
 RMS gradient           =       3.029E-03
 Gradient time:  CPU 3103.51 s  wall 199.00 s
 Geometry Optimization Parameters
   NAtoms,    NIC,     NZ,  NCons,   NDum,   NFix, NCnnct, MaxDiis
       39     293       0       3       0       0       0       0


** CONSTRAINED OPTIMIZATION IN DELOCALIZED INTERNAL COORDINATES **
   Searching for a Minimum

   Optimization Cycle:   1

                       Coordinates (Angstroms)
     ATOM                X               Y               Z
      1  C        -7.6046656914    0.0973462729   -1.0184578733
      2  C        -6.7879029338    0.5123798895   -2.0575850860
      3  C        -7.0075317629   -0.2644738662    0.1784079317
      4  C        -5.4224518239    0.5402416271   -1.8630223705
      5  N        -5.6960191432   -0.2461881219    0.3787756049
      6  C        -4.9152395136    0.1444765853   -0.6262643498
      7  C        -3.4485594717    0.1650719524   -0.4013484010
      8  N        -2.7364518285    0.9400915060   -1.1721501154
      9  C        -2.7829409182   -0.6260005072    0.5924413559
     10  C        -1.3894303402    1.0286219784   -1.0542580120
     11  N        -3.3162382341   -1.5156994409    1.4322853643
     12  C        -1.3600406747   -0.5205832007    0.7186108657
     13  C        -0.6191171724    0.3434847749   -0.1438072566
     14  S        -2.1054190044   -2.1158717887    2.2941482658
     15  N        -0.8584446959   -1.3124985248    1.6641297291
     16  C         0.8295759301    0.4670901740   -0.0922131873
     17  S         1.8882074930   -0.7560891325   -0.6752447282
     18  C         1.5985192958    1.5267525285    0.3896952617
     19  C         3.3248476918    0.0715636937   -0.2755287727
     20  N         1.1189728181    2.6858515169    0.9215578791
     21  C         3.0077608100    1.3042568372    0.2824467733
     22  C         4.6348366068   -0.4838176141   -0.5302140421
     23  C         2.0110866697    3.5408778149    1.3158559269
     24  N         3.9150954802    2.2243408141    0.7071680704
     25  C         5.8165027044    0.1880226003   -0.6833139264
     26  S         4.8870911603   -2.1940676013   -0.6727686872
     27  C         3.4171753794    3.3117191100    1.2107478530
     28  C         6.9148578340   -0.6707477391   -0.9270227129
     29  C         6.5627732926   -1.9834485777   -0.9549545119
     30  H        -8.6787149655    0.0543268465   -1.1306456021
     31  H        -7.2111795166    0.8081866187   -3.0088890762
     32  H        -7.6100715941   -0.5839148581    1.0203444811
     33  H        -4.7416049379    0.8604247417   -2.6366681262
     34  H        -0.9122270856    1.6874833367   -1.7613044727
     35  H         1.6522386748    4.4691627816    1.7476970052
     36  H         5.8790894180    1.2607669877   -0.6119212601
     37  H         4.1133905209    4.0668339707    1.5591458250
     38  H         7.9236162632   -0.3186472611   -1.0802815720
     39  H         7.1986525928   -2.8364570539   -1.1192933314
   Point Group: c1    Number of degrees of freedom:   111


   Energy is  -2291.144342228

              Constraints and their Current Values
                                        Value     Constraint
   Dihedral:        4   6   7   8       21.915       21.822
   Dihedral:       10  13  16  17     -105.000     -105.000
   Dihedral:       17  19  22  25      156.426      156.395

 Attempting to Generate Delocalized Internal Coordinates

   Using Lagrange Multiplier Algorithm


114 Hessian modes will be used to form the next step
  Hessian Eigenvalues:
    -0.977753   -0.977753   -0.977753    0.045000    0.045000    0.045000
     0.045000    0.045000    0.045000    0.045000    0.045000    0.045000
     0.045000    0.045000    0.045000    0.045000    0.045001    0.045001
     0.045001    0.045001    0.045001    0.045001    0.045001    0.045002
     0.045002    0.045002    0.045002    0.045003    0.045003    0.045004
     0.045004    0.045007    0.045008    0.045011    0.045025    0.045042
     0.159985    0.159992    0.159996    0.159998    0.159999    0.159999
     0.160000    0.160000    0.160000    0.160000    0.219998    0.221296
     0.223765    0.224234    0.233056    0.237962    0.243336    0.244277
     0.249685    0.249909    0.249932    0.249960    0.249971    0.249981
     0.249981    0.249983    0.249989    0.249990    0.249993    0.249993
     0.249995    0.312597    0.327544    0.334462    0.341192    0.341261
     0.354107    0.354476    0.355757    0.357029    0.359040    0.360696
     0.360954    0.362567    0.363669    0.364136    0.369052    0.372792
     0.376138    0.388446    0.390986    0.406991    0.407223    0.418675
     0.432515    0.440846    0.460521    0.465838    0.471161    0.473690
     0.482780    0.484038    0.485870    0.485956    0.504404    0.517478
     0.518983    0.525383    0.557629    0.572590    0.582389    0.589743
     0.639523    0.655123    0.663889    1.022753    1.022753    1.022753

 Minimum Search - Taking P-RFO Step
 Searching for Lamda that Maximizes Along the Constraint modes Only
 Value Taken    Lamda =   0.00001357
 Searching for Lamda that Minimizes Along All other modes
 Value Taken    Lamda =  -0.00192957
 Step Taken.  Stepsize is  0.099052

                             Maximum     Tolerance    Cnvgd?
         Gradient            0.009429       0.000300      NO
         Displacement        0.043463       0.001200      NO
         Energy change     *********       0.000001      NO


 New Cartesian Coordinates Obtained by Inverse Iteration

 Displacement from previous Coordinates is:  0.604818
 ----------------------------------------------------------------
             Standard Nuclear Orientation (Angstroms)
    I     Atom           X                Y                Z
 ----------------------------------------------------------------
    1      C      -7.5862771180     0.1526637928    -0.9825631473
    2      C      -6.7779393909     0.5470376898    -2.0363455746
    3      C      -6.9795173418    -0.2175279882     0.2068362612
    4      C      -5.4083257456     0.5497022179    -1.8612123828
    5      N      -5.6655767837    -0.2249827484     0.3874450657
    6      C      -4.8939889867     0.1470196721    -0.6304536701
    7      C      -3.4243913690     0.1497120417    -0.4173820468
    8      N      -2.7127662590     0.9171695102    -1.1967575294
    9      C      -2.7659540725    -0.6521813662     0.5740579693
   10      C      -1.3644782137     0.9890290728    -1.0775620279
   11      N      -3.3032616746    -1.5357331296     1.4172083036
   12      C      -1.3423173588    -0.5577781257     0.6971178109
   13      C      -0.6130133001     0.3082102430    -0.1624653018
   14      S      -2.0848453102    -2.1387763017     2.2676915551
   15      N      -0.8299173999    -1.3503099741     1.6375298316
   16      C       0.8403153938     0.4395813940    -0.0958762556
   17      S       1.9012116854    -0.7740188331    -0.6666378613
   18      C       1.5793299993     1.5034154222     0.3793079929
   19      C       3.3308875150     0.0693191333    -0.2673457234
   20      N       1.0535123177     2.6492088656     0.8965678687
   21      C       2.9934134420     1.2993867113     0.2855303043
   22      C       4.6459711127    -0.4811840144    -0.5195203175
   23      C       1.9237003721     3.5225839389     1.2937322483
   24      N       3.8741060872     2.2433015107     0.7165947043
   25      C       5.8257183887     0.1931384618    -0.6763832344
   26      S       4.9010493417    -2.1902335867    -0.6587258146
   27      C       3.3393522754     3.3198440695     1.2049874420
   28      C       6.9251579074    -0.6648336989    -0.9181329778
   29      C       6.5756097406    -1.9776023882    -0.9432022559
   30      H      -8.6627454008     0.1323457854    -1.0762996246
   31      H      -7.2089713357     0.8501990149    -2.9807833937
   32      H      -7.5773084621    -0.5207030585     1.0585764269
   33      H      -4.7318378391     0.8555848883    -2.6441415560
   34      H      -0.8735428602     1.6552593765    -1.7754426091
   35      H       1.5430331635     4.4481764829     1.7120266471
   36      H       5.8883315691     1.2669010292    -0.6089839431
   37      H       4.0112377225     4.0947649875     1.5566455422
   38      H       7.9345888302    -0.3154869373    -1.0723170130
   39      H       7.2104886856    -2.8313334901    -1.1070209942
 ----------------------------------------------------------------
 Molecular Point Group                 C1    NOp =  1
 Largest Abelian Subgroup              C1    NOp =  1
 Nuclear Repulsion Energy =  2924.3189779855 hartrees
 There are      110 alpha and      110 beta electrons
 Applying Cartesian multipole field
    Component          Value
    ---------          -----
     (2,0,0)        1.00000E-12
     (0,2,0)        2.00000E-11
     (0,0,2)       -3.00000E-11
 Nucleus-field energy     =     0.0000000220 hartrees
 Requested basis set is cc-pVTZ
 There are 356 shells and 1022 basis functions
 A cutoff of  1.0D-11 yielded  30901 shell pairs
 There are    243657 function pairs (    317997 Cartesian)
 Smallest overlap matrix eigenvalue = 3.18E-05
 Guess MOs from SCF MO coefficient file
 Reading MOs from coefficient file
 Reading MOs from coefficient file
 Long-range K will be added via erf
 Coulomb attenuation parameter = 0.2 bohr**(-1)
 A restricted hybrid HF-DFT SCF calculation will be
 performed using Pulay DIIS extrapolation
 Exchange:     0.2220 Hartree-Fock + 1.0000 wB97X-D + LR-HF
 Correlation:  1.0000 wB97X-D
 Using SG-2 standard quadrature grid
 Dispersion:   Grimme D
 SCF converges when DIIS error is below 1.0E-08
 Geometry optimization detected.  Setting ReadMinima to 0
 Setting SaveMinima to 0
 using 16 threads for integral computing 
 using 16 threads for integral computing 
 K construction time:  CPU 1092.98 s  wall 72.29 s
 -------------------------------------------------------
 OpenMP BLAS3 based DFT computing Module                
 Release: version 1.0, May 2013, Q-Chem Inc. Pittsburgh 
 -------------------------------------------------------
 ---------------------------------------
  Cycle       Energy         DIIS Error
 ---------------------------------------
    1   -2291.1386530502      3.01E-04
 K construction time:  CPU 1093.70 s  wall 72.34 s
    2   -2291.1451210551      3.32E-05
 K construction time:  CPU 825.33 s  wall 54.60 s
    3   -2291.1452220837      3.27E-05
 K construction time:  CPU 781.87 s  wall 51.67 s
    4   -2291.1453527910      1.07E-05
 K construction time:  CPU 723.72 s  wall 47.88 s
    5   -2291.1453681620      5.09E-06
 K construction time:  CPU 662.53 s  wall 43.89 s
    6   -2291.1453716695      1.89E-06
 K construction time:  CPU 605.14 s  wall 39.99 s
    7   -2291.1453722330      7.15E-07
 K construction time:  CPU 553.72 s  wall 36.50 s
    8   -2291.1453723310      2.77E-07
 K construction time:  CPU 521.02 s  wall 34.38 s
    9   -2291.1453723583      1.55E-07
 K construction time:  CPU 460.95 s  wall 30.25 s
   10   -2291.1453723643      5.71E-08
 K construction time:  CPU 420.58 s  wall 27.72 s
   11   -2291.1453723644      2.79E-08
 K construction time:  CPU 371.32 s  wall 24.31 s
   12   -2291.1453723647      1.07E-08
 K construction time:  CPU 299.02 s  wall 19.61 s
   13   -2291.1453723653      3.47E-09 Convergence criterion met
 ---------------------------------------
 SCF time:  CPU 11378.12 s  wall 772.21 s
 SCF   energy in the final basis set = -2291.1453723653
 Total energy in the final basis set = -2291.1453723653
 
 --------------------------------------------------------------
 
                    Orbital Energies (a.u.)
 --------------------------------------------------------------
 
 Alpha MOs
 -- Occupied --
-89.145 -89.100 -89.079 -14.482 -14.478 -14.460 -14.458 -14.448
-14.436 -10.358 -10.354 -10.351 -10.344 -10.342 -10.341 -10.338
-10.337 -10.336 -10.336 -10.336 -10.334 -10.327 -10.326 -10.319
-10.312 -10.303 -10.301 -10.294 -10.292  -8.156  -8.115  -8.094
 -6.106  -6.100  -6.100  -6.064  -6.060  -6.059  -6.044  -6.040
 -6.037  -1.143  -1.098  -1.072  -1.052  -1.027  -1.012  -1.004
 -0.986  -0.926  -0.914  -0.898  -0.879  -0.868  -0.854  -0.838
 -0.812  -0.777  -0.769  -0.748  -0.740  -0.729  -0.721  -0.710
 -0.672  -0.654  -0.646  -0.630  -0.629  -0.622  -0.605  -0.602
 -0.592  -0.577  -0.570  -0.563  -0.559  -0.544  -0.543  -0.526
 -0.513  -0.505  -0.502  -0.501  -0.495  -0.491  -0.486  -0.480
 -0.472  -0.468  -0.461  -0.456  -0.449  -0.437  -0.428  -0.424
 -0.422  -0.411  -0.398  -0.376  -0.369  -0.363  -0.358  -0.351
 -0.342  -0.339  -0.336  -0.333  -0.316  -0.275
 -- Virtual --
 -0.043  -0.033   0.026   0.031   0.040   0.059   0.066   0.071
  0.087   0.090   0.093   0.122   0.124   0.129   0.131   0.138
  0.144   0.146   0.154   0.157   0.165   0.175   0.176   0.190
  0.195   0.197   0.211   0.215   0.223   0.225   0.238   0.242
  0.254   0.260   0.266   0.273   0.280   0.285   0.291   0.294
  0.298   0.301   0.308   0.312   0.314   0.319   0.322   0.329
  0.331   0.333   0.338   0.344   0.346   0.346   0.353   0.359
  0.361   0.365   0.373   0.376   0.378   0.380   0.383   0.386
  0.390   0.391   0.397   0.400   0.404   0.406   0.409   0.414
  0.415   0.419   0.422   0.427   0.431   0.434   0.436   0.439
  0.441   0.445   0.450   0.456   0.458   0.459   0.463   0.463
  0.466   0.472   0.476   0.479   0.481   0.484   0.486   0.489
  0.493   0.495   0.499   0.503   0.510   0.512   0.518   0.520
  0.524   0.527   0.530   0.534   0.537   0.540   0.546   0.551
  0.555   0.560   0.567   0.569   0.575   0.580   0.588   0.593
  0.603   0.607   0.609   0.615   0.618   0.621   0.626   0.633
  0.640   0.642   0.643   0.651   0.655   0.657   0.669   0.671
  0.673   0.674   0.682   0.691   0.696   0.702   0.710   0.711
  0.714   0.718   0.726   0.731   0.732   0.740   0.741   0.748
  0.753   0.760   0.764   0.769   0.774   0.775   0.785   0.786
  0.791   0.794   0.798   0.799   0.808   0.809   0.817   0.824
  0.827   0.831   0.836   0.837   0.842   0.845   0.853   0.854
  0.861   0.867   0.870   0.871   0.877   0.888   0.894   0.901
  0.903   0.912   0.917   0.920   0.922   0.925   0.928   0.934
  0.937   0.942   0.946   0.952   0.953   0.956   0.962   0.972
  0.977   0.982   0.986   0.989   0.994   1.002   1.006   1.009
  1.018   1.025   1.029   1.032   1.045   1.051   1.053   1.057
  1.060   1.066   1.067   1.079   1.083   1.087   1.090   1.091
  1.103   1.105   1.106   1.112   1.125   1.127   1.132   1.136
  1.148   1.150   1.161   1.168   1.177   1.179   1.187   1.193
  1.202   1.210   1.214   1.218   1.224   1.229   1.238   1.244
  1.247   1.257   1.266   1.270   1.278   1.286   1.293   1.294
  1.308   1.318   1.319   1.326   1.337   1.350   1.352   1.355
  1.359   1.371   1.375   1.377   1.383   1.385   1.385   1.395
  1.399   1.403   1.411   1.413   1.419   1.424   1.431   1.437
  1.444   1.445   1.450   1.457   1.465   1.472   1.478   1.481
  1.485   1.487   1.498   1.506   1.508   1.516   1.522   1.528
  1.538   1.565   1.567   1.568   1.574   1.582   1.589   1.595
  1.599   1.608   1.612   1.618   1.628   1.638   1.645   1.648
  1.652   1.662   1.664   1.668   1.673   1.676   1.687   1.694
  1.704   1.711   1.717   1.725   1.730   1.738   1.746   1.752
  1.756   1.763   1.765   1.773   1.782   1.790   1.796   1.804
  1.821   1.829   1.840   1.849   1.869   1.878   1.880   1.888
  1.890   1.896   1.907   1.913   1.927   1.931   1.939   1.946
  1.952   1.966   1.973   1.982   1.983   1.993   2.006   2.011
  2.013   2.017   2.033   2.039   2.045   2.045   2.056   2.065
  2.076   2.078   2.094   2.098   2.103   2.116   2.120   2.125
  2.139   2.147   2.162   2.169   2.176   2.180   2.187   2.193
  2.201   2.208   2.213   2.220   2.239   2.242   2.248   2.257
  2.262   2.269   2.279   2.289   2.292   2.292   2.296   2.299
  2.315   2.323   2.331   2.336   2.344   2.351   2.356   2.362
  2.373   2.383   2.394   2.399   2.405   2.413   2.415   2.424
  2.435   2.442   2.445   2.452   2.457   2.462   2.470   2.472
  2.479   2.491   2.509   2.512   2.521   2.530   2.533   2.534
  2.538   2.541   2.547   2.552   2.552   2.565   2.578   2.587
  2.597   2.613   2.617   2.626   2.631   2.643   2.649   2.660
  2.664   2.667   2.676   2.685   2.688   2.701   2.705   2.713
  2.727   2.731   2.733   2.748   2.754   2.772   2.775   2.777
  2.783   2.788   2.800   2.802   2.811   2.818   2.820   2.824
  2.832   2.841   2.844   2.854   2.866   2.870   2.873   2.877
  2.884   2.890   2.894   2.906   2.910   2.919   2.924   2.930
  2.933   2.939   2.944   2.955   2.958   2.965   2.973   2.984
  2.987   2.994   2.999   3.004   3.009   3.016   3.019   3.023
  3.025   3.035   3.042   3.044   3.047   3.052   3.060   3.063
  3.068   3.068   3.073   3.076   3.078   3.083   3.086   3.091
  3.093   3.099   3.102   3.111   3.113   3.115   3.123   3.131
  3.140   3.143   3.151   3.153   3.157   3.159   3.160   3.168
  3.175   3.178   3.181   3.184   3.196   3.201   3.203   3.206
  3.210   3.214   3.221   3.224   3.229   3.232   3.236   3.239
  3.239   3.246   3.254   3.258   3.264   3.266   3.274   3.276
  3.277   3.281   3.284   3.286   3.292   3.297   3.301   3.306
  3.312   3.314   3.321   3.325   3.329   3.329   3.342   3.344
  3.350   3.355   3.363   3.368   3.378   3.387   3.390   3.398
  3.403   3.407   3.414   3.416   3.418   3.424   3.426   3.432
  3.438   3.447   3.452   3.457   3.461   3.466   3.471   3.474
  3.479   3.486   3.491   3.496   3.501   3.509   3.515   3.519
  3.533   3.535   3.542   3.548   3.556   3.567   3.571   3.584
  3.590   3.593   3.602   3.611   3.619   3.629   3.634   3.642
  3.655   3.660   3.661   3.684   3.690   3.696   3.706   3.715
  3.716   3.718   3.722   3.737   3.739   3.742   3.749   3.758
  3.773   3.778   3.783   3.788   3.800   3.801   3.807   3.812
  3.815   3.820   3.826   3.842   3.849   3.858   3.873   3.885
  3.887   3.896   3.902   3.905   3.917   3.924   3.929   3.932
  3.933   3.935   3.944   3.946   3.954   3.963   3.968   3.972
  3.977   3.981   3.992   4.000   4.013   4.015   4.027   4.035
  4.040   4.049   4.055   4.068   4.074   4.087   4.093   4.102
  4.111   4.119   4.123   4.132   4.141   4.147   4.161   4.171
  4.175   4.183   4.197   4.199   4.211   4.213   4.213   4.223
  4.229   4.237   4.243   4.250   4.255   4.264   4.275   4.288
  4.294   4.297   4.305   4.309   4.313   4.323   4.330   4.337
  4.348   4.352   4.355   4.360   4.370   4.376   4.379   4.391
  4.401   4.404   4.418   4.429   4.436   4.441   4.449   4.459
  4.461   4.482   4.491   4.502   4.512   4.520   4.531   4.543
  4.552   4.553   4.559   4.563   4.586   4.593   4.599   4.610
  4.622   4.641   4.645   4.652   4.662   4.677   4.681   4.704
  4.708   4.716   4.734   4.743   4.754   4.766   4.772   4.781
  4.796   4.805   4.810   4.818   4.827   4.841   4.845   4.853
  4.863   4.875   4.883   4.889   4.903   4.911   4.921   4.928
  4.932   4.951   4.953   4.969   4.971   4.978   4.985   4.991
  4.995   5.008   5.009   5.012   5.020   5.035   5.039   5.043
  5.054   5.056   5.069   5.080   5.094   5.099   5.115   5.123
  5.131   5.138   5.144   5.151   5.163   5.168   5.184   5.191
  5.209   5.215   5.231   5.249   5.280   5.298   5.304   5.315
  5.325   5.336   5.349   5.360   5.373   5.383   5.399   5.430
  5.432   5.461   5.467   5.487   5.490   5.503   5.520   5.541
  5.561   5.575   5.577   5.586   5.597   5.601   5.629   5.650
  5.669   5.681   5.708   5.720   5.735   5.744   5.759   5.776
  5.797   5.832   5.834   5.859   5.867   5.877   5.899   5.918
  5.951   5.954   5.981   6.048   6.090   6.098   6.138   6.170
  6.198   6.233   6.242   6.273   6.293   6.314   6.377   6.431
  6.444   6.489   6.631   6.844   6.984   7.069   7.923   8.781
  9.791  10.109  10.628  11.056  11.238  11.697  11.975  12.011
 12.326  12.626  12.756  12.770  12.856  12.877  13.072  13.291
 13.408  13.496  13.561  13.721  14.284  14.682  15.052  15.071
 --------------------------------------------------------------
 
          Ground-State Mulliken Net Atomic Charges

     Atom                 Charge (a.u.)
  ----------------------------------------
      1 C                    -0.090297
      2 C                    -0.128830
      3 C                    -0.080039
      4 C                    -0.117464
      5 N                    -0.142684
      6 C                     0.080762
      7 C                     0.113702
      8 N                    -0.175455
      9 C                    -0.015446
     10 C                    -0.050735
     11 N                    -0.220405
     12 C                     0.053340
     13 C                     0.016027
     14 S                     0.407363
     15 N                    -0.272551
     16 C                    -0.094596
     17 S                     0.189181
     18 C                     0.045596
     19 C                    -0.055169
     20 N                    -0.144027
     21 C                     0.042750
     22 C                    -0.014108
     23 C                    -0.052171
     24 N                    -0.161388
     25 C                    -0.142938
     26 S                     0.100765
     27 C                    -0.049626
     28 C                    -0.155886
     29 C                    -0.183096
     30 H                     0.133349
     31 H                     0.120289
     32 H                     0.120268
     33 H                     0.136320
     34 H                     0.124202
     35 H                     0.131565
     36 H                     0.136629
     37 H                     0.127892
     38 H                     0.130608
     39 H                     0.136305
  ----------------------------------------
  Sum of atomic charges =     0.000000

 -----------------------------------------------------------------
                    Cartesian Multipole Moments
 -----------------------------------------------------------------
    Charge (ESU x 10^10)
                 0.0000
    Dipole Moment (Debye)
         X      -0.1823      Y       0.7077      Z      -1.2304
       Tot       1.4311
    Quadrupole Moments (Debye-Ang)
        XX    -152.0756     XY       1.7458     YY    -171.8109
        XZ       5.9162     YZ       1.8409     ZZ    -179.0847
    Octopole Moments (Debye-Ang^2)
       XXX    -110.4197    XXY      -8.6644    XYY      60.6684
       YYY      24.8984    XXZ     -82.9046    XYZ      30.0571
       YYZ      27.9992    XZZ     -37.5608    YZZ       5.9886
       ZZZ      15.0801
    Hexadecapole Moments (Debye-Ang^3)
      XXXX  -15893.9980   XXXY    -290.6671   XXYY   -3520.7286
      XYYY     147.0627   YYYY   -2493.5486   XXXZ     158.1348
      XXYZ      18.3123   XYYZ       3.9729   YYYZ      99.3582
      XXZZ   -3364.5853   XYZZ      29.5575   YYZZ    -664.8029
      XZZZ      78.9517   YZZZ     -43.8223   ZZZZ   -1495.1833
 -----------------------------------------------------------------
 Calculating analytic gradient of the SCF energy
 K construction time:  CPU 2682.76 s  wall 170.09 s
 Gradient of SCF Energy
            1           2           3           4           5           6
    1  -0.0001813   0.0004166   0.0000033  -0.0003537  -0.0000616   0.0006906
    2  -0.0000456   0.0001732  -0.0000037   0.0003450  -0.0001879  -0.0003477
    3   0.0001585  -0.0000058  -0.0001731  -0.0000995  -0.0000746  -0.0000300
            7           8           9          10          11          12
    1  -0.0014557   0.0014762  -0.0004101  -0.0023971  -0.0008695  -0.0007948
    2   0.0000693  -0.0003459  -0.0011740  -0.0011210   0.0006335  -0.0013740
    3   0.0002965   0.0001454   0.0008750  -0.0015193  -0.0007884   0.0018409
           13          14          15          16          17          18
    1   0.0044848   0.0004955   0.0011765  -0.0042978   0.0025422   0.0005820
    2   0.0020969   0.0019542   0.0007144  -0.0006497   0.0010249   0.0015812
    3   0.0024974  -0.0020411  -0.0000839   0.0002166  -0.0014598   0.0016892
           19          20          21          22          23          24
    1  -0.0003989   0.0006943  -0.0006626  -0.0003371   0.0014055  -0.0005693
    2  -0.0026419  -0.0013787   0.0023415   0.0005064  -0.0002501  -0.0019666
    3  -0.0006154  -0.0008697   0.0010088   0.0001944  -0.0001223  -0.0008923
           25          26          27          28          29          30
    1   0.0006434   0.0002547  -0.0016052   0.0000747  -0.0003355   0.0000394
    2   0.0000381  -0.0001926   0.0010439  -0.0002891  -0.0001041  -0.0001069
    3  -0.0005167  -0.0000303   0.0005817   0.0001743  -0.0000153  -0.0000692
           31          32          33          34          35          36
    1  -0.0000143   0.0001031   0.0000362   0.0000533  -0.0005418  -0.0000790
    2  -0.0000863   0.0000178   0.0001163  -0.0000563  -0.0002144  -0.0001820
    3  -0.0000419   0.0000568  -0.0000033  -0.0000618  -0.0000488   0.0000503
           37          38          39
    1   0.0001713  -0.0001030   0.0001248
    2  -0.0001873   0.0001831   0.0000663
    3  -0.0001804  -0.0001197   0.0000768
 Max gradient component =       4.485E-03
 RMS gradient           =       1.058E-03
 Gradient time:  CPU 3130.72 s  wall 200.64 s
 Geometry Optimization Parameters
   NAtoms,    NIC,     NZ,  NCons,   NDum,   NFix, NCnnct, MaxDiis
       39     293       0       3       0       0       0       0

 Cartesian Hessian Update
 Hessian Updated using BFGS Update


** CONSTRAINED OPTIMIZATION IN DELOCALIZED INTERNAL COORDINATES **
   Searching for a Minimum

   Optimization Cycle:   2

                       Coordinates (Angstroms)
     ATOM                X               Y               Z
      1  C        -7.5862771180    0.1526637928   -0.9825631473
      2  C        -6.7779393909    0.5470376898   -2.0363455746
      3  C        -6.9795173418   -0.2175279882    0.2068362612
      4  C        -5.4083257456    0.5497022179   -1.8612123828
      5  N        -5.6655767837   -0.2249827484    0.3874450657
      6  C        -4.8939889867    0.1470196721   -0.6304536701
      7  C        -3.4243913690    0.1497120417   -0.4173820468
      8  N        -2.7127662590    0.9171695102   -1.1967575294
      9  C        -2.7659540725   -0.6521813662    0.5740579693
     10  C        -1.3644782137    0.9890290728   -1.0775620279
     11  N        -3.3032616746   -1.5357331296    1.4172083036
     12  C        -1.3423173588   -0.5577781257    0.6971178109
     13  C        -0.6130133001    0.3082102430   -0.1624653018
     14  S        -2.0848453102   -2.1387763017    2.2676915551
     15  N        -0.8299173999   -1.3503099741    1.6375298316
     16  C         0.8403153938    0.4395813940   -0.0958762556
     17  S         1.9012116854   -0.7740188331   -0.6666378613
     18  C         1.5793299993    1.5034154222    0.3793079929
     19  C         3.3308875150    0.0693191333   -0.2673457234
     20  N         1.0535123177    2.6492088656    0.8965678687
     21  C         2.9934134420    1.2993867113    0.2855303043
     22  C         4.6459711127   -0.4811840144   -0.5195203175
     23  C         1.9237003721    3.5225839389    1.2937322483
     24  N         3.8741060872    2.2433015107    0.7165947043
     25  C         5.8257183887    0.1931384618   -0.6763832344
     26  S         4.9010493417   -2.1902335867   -0.6587258146
     27  C         3.3393522754    3.3198440695    1.2049874420
     28  C         6.9251579074   -0.6648336989   -0.9181329778
     29  C         6.5756097406   -1.9776023882   -0.9432022559
     30  H        -8.6627454008    0.1323457854   -1.0762996246
     31  H        -7.2089713357    0.8501990149   -2.9807833937
     32  H        -7.5773084621   -0.5207030585    1.0585764269
     33  H        -4.7318378391    0.8555848883   -2.6441415560
     34  H        -0.8735428602    1.6552593765   -1.7754426091
     35  H         1.5430331635    4.4481764829    1.7120266471
     36  H         5.8883315691    1.2669010292   -0.6089839431
     37  H         4.0112377225    4.0947649875    1.5566455422
     38  H         7.9345888302   -0.3154869373   -1.0723170130
     39  H         7.2104886856   -2.8313334901   -1.1070209942
   Point Group: c1    Number of degrees of freedom:   111


   Energy is  -2291.145372365

              Constraints and their Current Values
                                        Value     Constraint
   Dihedral:        4   6   7   8       21.822       21.822
   Dihedral:       10  13  16  17     -105.000     -105.000
   Dihedral:       17  19  22  25      156.395      156.395
 Hessian Updated using BFGS Update

   Using Lagrange Multiplier Algorithm


110 Hessian modes will be used to form the next step
  Hessian Eigenvalues:
    -0.977744    0.040263    0.045000    0.045000    0.045000    0.045000
     0.045000    0.045000    0.045000    0.045000    0.045000    0.045000
     0.045000    0.045000    0.045001    0.045001    0.045001    0.045001
     0.045001    0.045001    0.045001    0.045002    0.045002    0.045002
     0.045003    0.045003    0.045003    0.045004    0.045004    0.045007
     0.045011    0.045025    0.045038    0.045253    0.158275    0.159989
     0.159992    0.159996    0.159999    0.159999    0.160000    0.160000
     0.160000    0.160292    0.217274    0.220183    0.221328    0.224136
     0.225254    0.234641    0.238107    0.244089    0.244497    0.249706
     0.249912    0.249946    0.249962    0.249976    0.249982    0.249984
     0.249989    0.249992    0.249993    0.249994    0.290713    0.311708
     0.317144    0.334601    0.337882    0.341286    0.354109    0.354496
     0.355753    0.357011    0.359039    0.360697    0.360903    0.361413
     0.363654    0.364136    0.368193    0.370752    0.374642    0.388808
     0.391320    0.405574    0.408510    0.418676    0.432506    0.455161
     0.459875    0.461848    0.472695    0.473665    0.480700    0.483492
     0.485673    0.486103    0.505523    0.518940    0.523798    0.530738
     0.559764    0.572682    0.589743    0.593920    0.639572    0.658136
     0.664512    1.022773

 Minimum Search - Taking P-RFO Step
 Searching for Lamda that Maximizes Along the Constraint modes Only
 Value Taken    Lamda =   0.00000002
 Searching for Lamda that Minimizes Along All other modes
 Value Taken    Lamda =  -0.00027231
 Step Taken.  Stepsize is  0.054103

                             Maximum     Tolerance    Cnvgd?
         Gradient            0.002641       0.000300      NO
         Displacement        0.020633       0.001200      NO
         Energy change     -0.001030       0.000001      NO


 New Cartesian Coordinates Obtained by Inverse Iteration

 Displacement from previous Coordinates is:  0.397801
 ----------------------------------------------------------------
             Standard Nuclear Orientation (Angstroms)
    I     Atom           X                Y                Z
 ----------------------------------------------------------------
    1      C      -7.5852335386     0.1951992856    -0.9548335631
    2      C      -6.7832796986     0.5721922010    -2.0195745273
    3      C      -6.9710346093    -0.1809570887     0.2288540808
    4      C      -5.4113648270     0.5541351821    -1.8599990185
    5      N      -5.6553740119    -0.2084364031     0.3941952645
    6      C      -4.8898802553     0.1477123141    -0.6338806556
    7      C      -3.4175208991     0.1361344282    -0.4321920878
    8      N      -2.7038419877     0.8959488010    -1.2176190077
    9      C      -2.7640853746    -0.6728246178     0.5570919717
   10      C      -1.3535654213     0.9585286479    -1.0988395638
   11      N      -3.3044028861    -1.5541500769     1.4034811220
   12      C      -1.3414498398    -0.5886870013     0.6769255131
   13      C      -0.6115914454     0.2774386564    -0.1799084157
   14      S      -2.0925799057    -2.1716895794     2.2536719549
   15      N      -0.8361763456    -1.3887702875     1.6172232666
   16      C       0.8456090572     0.4119102216    -0.1016128768
   17      S       1.9109453307    -0.7958444976    -0.6652055065
   18      C       1.5723949614     1.4829106870     0.3696111873
   19      C       3.3354343625     0.0614085137    -0.2635600311
   20      N       1.0326048240     2.6281026448     0.8799161343
   21      C       2.9892127491     1.2894373036     0.2831885422
   22      C       4.6557121803    -0.4791971911    -0.5095881647
   23      C       1.8947100466     3.5101241526     1.2758997528
   24      N       3.8609201804     2.2442959394     0.7143619760
   25      C       5.8284993247     0.2067913790    -0.6643633100
   26      S       4.9263516142    -2.1853542049    -0.6456520078
   27      C       3.3141738554     3.3176523476     1.1941455221
   28      C       6.9368564253    -0.6409385926    -0.9019063373
   29      C       6.5997123889    -1.9569479259    -0.9264530480
   30      H      -8.6630295029     0.1933654293    -1.0350726554
   31      H      -7.2202715236     0.8803155805    -2.9594788905
   32      H      -7.5646074323    -0.4711501032     1.0881335445
   33      H      -4.7391637079     0.8472018622    -2.6513104066
   34      H      -0.8570989318     1.6251829322    -1.7932954465
   35      H       1.5094398228     4.4366714005     1.6878160509
   36      H       5.8810179324     1.2816142209    -0.5989480484
   37      H       3.9759247822     4.1011401348     1.5463374244
   38      H       7.9441477947    -0.2840801265    -1.0529692275
   39      H       7.2419238390    -2.8055168985    -1.0882897920
 ----------------------------------------------------------------
 Molecular Point Group                 C1    NOp =  1
 Largest Abelian Subgroup              C1    NOp =  1
 Nuclear Repulsion Energy =  2924.0903530624 hartrees
 There are      110 alpha and      110 beta electrons
 Applying Cartesian multipole field
    Component          Value
    ---------          -----
     (2,0,0)        1.00000E-12
     (0,2,0)        2.00000E-11
     (0,0,2)       -3.00000E-11
 Nucleus-field energy     =     0.0000000225 hartrees
 Requested basis set is cc-pVTZ
 There are 356 shells and 1022 basis functions
 A cutoff of  1.0D-11 yielded  30914 shell pairs
 There are    243860 function pairs (    318335 Cartesian)
 Smallest overlap matrix eigenvalue = 3.17E-05
 Guess MOs from SCF MO coefficient file
 Reading MOs from coefficient file
 Reading MOs from coefficient file
 Long-range K will be added via erf
 Coulomb attenuation parameter = 0.2 bohr**(-1)
 A restricted hybrid HF-DFT SCF calculation will be
 performed using Pulay DIIS extrapolation
 Exchange:     0.2220 Hartree-Fock + 1.0000 wB97X-D + LR-HF
 Correlation:  1.0000 wB97X-D
 Using SG-2 standard quadrature grid
 Dispersion:   Grimme D
 SCF converges when DIIS error is below 1.0E-08
 Geometry optimization detected.  Setting ReadMinima to 0
 Setting SaveMinima to 0
 using 16 threads for integral computing 
 using 16 threads for integral computing 
 K construction time:  CPU 1095.17 s  wall 72.55 s
 -------------------------------------------------------
 OpenMP BLAS3 based DFT computing Module                
 Release: version 1.0, May 2013, Q-Chem Inc. Pittsburgh 
 -------------------------------------------------------
 ---------------------------------------
  Cycle       Energy         DIIS Error
 ---------------------------------------
    1   -2291.1363417814      1.81E-04
 K construction time:  CPU 1092.33 s  wall 72.33 s
    2   -2291.1453869854      2.09E-05
 K construction time:  CPU 789.72 s  wall 52.30 s
    3   -2291.1454522675      1.90E-05
 K construction time:  CPU 737.59 s  wall 48.80 s
    4   -2291.1454926585      6.30E-06
 K construction time:  CPU 688.78 s  wall 45.72 s
    5   -2291.1454977156      3.93E-06
 K construction time:  CPU 634.42 s  wall 42.00 s
    6   -2291.1454997572      1.10E-06
 K construction time:  CPU 566.51 s  wall 37.56 s
    7   -2291.1454999650      3.32E-07
 K construction time:  CPU 511.83 s  wall 33.70 s
    8   -2291.1454999923      1.72E-07
 K construction time:  CPU 474.16 s  wall 31.20 s
    9   -2291.1455000013      7.07E-08
 K construction time:  CPU 415.83 s  wall 27.30 s
   10   -2291.1455000025      3.29E-08
 K construction time:  CPU 377.50 s  wall 24.78 s
   11   -2291.1455000016      1.87E-08
 K construction time:  CPU 331.68 s  wall 21.79 s
   12   -2291.1455000020      5.56E-09 Convergence criterion met
 ---------------------------------------
 SCF time:  CPU 10456.89 s  wall 710.16 s
 SCF   energy in the final basis set = -2291.1455000020
 Total energy in the final basis set = -2291.1455000020
 
 --------------------------------------------------------------
 
                    Orbital Energies (a.u.)
 --------------------------------------------------------------
 
 Alpha MOs
 -- Occupied --
-89.146 -89.100 -89.079 -14.482 -14.478 -14.460 -14.458 -14.449
-14.436 -10.358 -10.354 -10.351 -10.344 -10.342 -10.341 -10.338
-10.337 -10.336 -10.336 -10.336 -10.334 -10.327 -10.325 -10.318
-10.312 -10.303 -10.301 -10.294 -10.292  -8.156  -8.115  -8.094
 -6.106  -6.100  -6.100  -6.064  -6.060  -6.058  -6.043  -6.040
 -6.037  -1.142  -1.098  -1.072  -1.052  -1.027  -1.012  -1.002
 -0.986  -0.926  -0.914  -0.898  -0.879  -0.867  -0.854  -0.838
 -0.812  -0.777  -0.769  -0.748  -0.739  -0.729  -0.721  -0.710
 -0.671  -0.654  -0.646  -0.630  -0.629  -0.622  -0.605  -0.602
 -0.592  -0.577  -0.569  -0.563  -0.559  -0.543  -0.543  -0.526
 -0.513  -0.505  -0.502  -0.501  -0.495  -0.491  -0.486  -0.480
 -0.473  -0.468  -0.461  -0.456  -0.449  -0.437  -0.428  -0.424
 -0.422  -0.411  -0.396  -0.376  -0.369  -0.363  -0.358  -0.351
 -0.342  -0.339  -0.336  -0.333  -0.316  -0.275
 -- Virtual --
 -0.043  -0.032   0.026   0.031   0.040   0.059   0.067   0.071
  0.086   0.090   0.093   0.122   0.124   0.129   0.131   0.138
  0.144   0.146   0.154   0.157   0.165   0.175   0.176   0.190
  0.196   0.197   0.211   0.215   0.223   0.225   0.238   0.242
  0.255   0.260   0.266   0.273   0.279   0.285   0.291   0.294
  0.298   0.301   0.309   0.312   0.314   0.319   0.322   0.329
  0.330   0.333   0.338   0.343   0.346   0.346   0.353   0.359
  0.361   0.365   0.373   0.376   0.378   0.380   0.383   0.386
  0.390   0.392   0.398   0.400   0.404   0.406   0.409   0.414
  0.415   0.419   0.421   0.427   0.430   0.434   0.436   0.440
  0.441   0.445   0.450   0.456   0.458   0.460   0.463   0.463
  0.466   0.472   0.476   0.479   0.481   0.484   0.486   0.489
  0.493   0.495   0.499   0.504   0.510   0.512   0.518   0.520
  0.524   0.527   0.530   0.533   0.537   0.540   0.547   0.551
  0.556   0.560   0.567   0.569   0.575   0.580   0.588   0.593
  0.603   0.606   0.609   0.615   0.618   0.620   0.626   0.633
  0.640   0.643   0.643   0.651   0.656   0.657   0.669   0.672
  0.674   0.674   0.682   0.691   0.696   0.702   0.710   0.712
  0.714   0.718   0.726   0.731   0.732   0.740   0.740   0.748
  0.753   0.759   0.764   0.769   0.774   0.775   0.785   0.785
  0.791   0.794   0.798   0.799   0.808   0.810   0.816   0.824
  0.827   0.831   0.836   0.837   0.842   0.845   0.853   0.855
  0.861   0.867   0.869   0.870   0.876   0.888   0.894   0.901
  0.903   0.911   0.917   0.920   0.921   0.926   0.928   0.934
  0.937   0.941   0.946   0.952   0.953   0.956   0.962   0.972
  0.977   0.983   0.985   0.990   0.995   1.002   1.006   1.010
  1.018   1.025   1.029   1.032   1.045   1.051   1.053   1.058
  1.060   1.066   1.068   1.079   1.083   1.088   1.091   1.092
  1.103   1.105   1.106   1.112   1.124   1.127   1.132   1.137
  1.148   1.150   1.161   1.168   1.177   1.179   1.186   1.192
  1.201   1.209   1.215   1.218   1.224   1.230   1.238   1.243
  1.247   1.257   1.266   1.270   1.277   1.285   1.293   1.294
  1.308   1.319   1.319   1.327   1.337   1.350   1.352   1.355
  1.359   1.371   1.376   1.377   1.383   1.385   1.385   1.395
  1.399   1.403   1.411   1.413   1.419   1.423   1.431   1.437
  1.444   1.445   1.450   1.456   1.466   1.472   1.479   1.482
  1.485   1.488   1.497   1.506   1.508   1.516   1.521   1.527
  1.537   1.565   1.567   1.568   1.574   1.583   1.589   1.595
  1.600   1.608   1.612   1.618   1.628   1.638   1.645   1.648
  1.652   1.661   1.663   1.667   1.673   1.676   1.686   1.694
  1.704   1.711   1.717   1.723   1.730   1.737   1.745   1.752
  1.756   1.763   1.765   1.774   1.782   1.790   1.796   1.804
  1.821   1.829   1.838   1.849   1.868   1.878   1.880   1.888
  1.889   1.896   1.907   1.913   1.927   1.931   1.939   1.945
  1.952   1.966   1.973   1.982   1.983   1.994   2.006   2.011
  2.013   2.017   2.033   2.039   2.045   2.045   2.056   2.066
  2.076   2.078   2.094   2.098   2.103   2.116   2.120   2.125
  2.139   2.147   2.162   2.169   2.176   2.179   2.187   2.193
  2.200   2.207   2.213   2.220   2.239   2.243   2.248   2.258
  2.262   2.269   2.279   2.289   2.292   2.292   2.296   2.299
  2.315   2.322   2.331   2.335   2.344   2.350   2.356   2.361
  2.372   2.382   2.394   2.399   2.405   2.413   2.414   2.424
  2.435   2.442   2.445   2.453   2.457   2.462   2.469   2.472
  2.479   2.490   2.509   2.513   2.521   2.531   2.533   2.535
  2.538   2.541   2.547   2.552   2.552   2.566   2.579   2.587
  2.596   2.612   2.617   2.626   2.631   2.643   2.649   2.660
  2.664   2.667   2.677   2.685   2.688   2.701   2.705   2.714
  2.726   2.731   2.733   2.748   2.754   2.772   2.776   2.777
  2.783   2.788   2.800   2.801   2.810   2.818   2.820   2.824
  2.832   2.840   2.843   2.854   2.866   2.870   2.873   2.877
  2.883   2.889   2.894   2.904   2.910   2.919   2.924   2.930
  2.933   2.938   2.944   2.954   2.959   2.965   2.973   2.983
  2.986   2.994   2.999   3.005   3.009   3.016   3.020   3.023
  3.025   3.035   3.043   3.044   3.047   3.052   3.060   3.063
  3.067   3.068   3.073   3.076   3.078   3.083   3.086   3.091
  3.094   3.099   3.103   3.111   3.112   3.115   3.123   3.131
  3.141   3.143   3.152   3.153   3.157   3.160   3.161   3.168
  3.175   3.179   3.182   3.185   3.196   3.200   3.203   3.207
  3.209   3.213   3.221   3.224   3.229   3.232   3.236   3.239
  3.240   3.247   3.254   3.259   3.264   3.266   3.274   3.276
  3.277   3.282   3.284   3.286   3.292   3.298   3.300   3.306
  3.312   3.314   3.320   3.325   3.328   3.329   3.342   3.343
  3.350   3.354   3.364   3.367   3.378   3.386   3.390   3.399
  3.403   3.408   3.414   3.416   3.417   3.424   3.426   3.431
  3.438   3.447   3.451   3.457   3.461   3.466   3.471   3.474
  3.480   3.486   3.491   3.495   3.501   3.508   3.515   3.519
  3.532   3.535   3.542   3.548   3.557   3.567   3.571   3.584
  3.590   3.593   3.602   3.611   3.619   3.630   3.634   3.641
  3.655   3.660   3.661   3.684   3.690   3.696   3.706   3.715
  3.716   3.718   3.721   3.737   3.739   3.742   3.749   3.758
  3.772   3.777   3.783   3.788   3.800   3.801   3.807   3.812
  3.814   3.820   3.827   3.843   3.850   3.857   3.871   3.885
  3.887   3.895   3.902   3.905   3.917   3.924   3.928   3.932
  3.933   3.935   3.944   3.947   3.954   3.963   3.967   3.972
  3.977   3.981   3.993   3.999   4.013   4.014   4.027   4.035
  4.040   4.048   4.055   4.069   4.074   4.087   4.092   4.102
  4.111   4.118   4.124   4.132   4.141   4.147   4.160   4.171
  4.174   4.183   4.196   4.198   4.210   4.213   4.213   4.223
  4.230   4.237   4.243   4.250   4.255   4.263   4.275   4.287
  4.294   4.297   4.305   4.309   4.313   4.323   4.329   4.337
  4.348   4.353   4.354   4.360   4.370   4.376   4.379   4.391
  4.401   4.404   4.418   4.429   4.435   4.441   4.450   4.458
  4.461   4.481   4.491   4.501   4.513   4.519   4.531   4.544
  4.551   4.552   4.558   4.562   4.585   4.592   4.598   4.610
  4.621   4.642   4.645   4.652   4.662   4.676   4.680   4.704
  4.707   4.715   4.734   4.742   4.755   4.765   4.771   4.782
  4.797   4.804   4.810   4.818   4.826   4.839   4.844   4.851
  4.862   4.875   4.883   4.888   4.902   4.911   4.920   4.926
  4.932   4.950   4.952   4.967   4.970   4.978   4.986   4.992
  4.995   5.008   5.009   5.012   5.019   5.034   5.039   5.041
  5.053   5.057   5.069   5.079   5.092   5.099   5.114   5.123
  5.130   5.138   5.143   5.150   5.162   5.167   5.183   5.188
  5.209   5.215   5.230   5.248   5.278   5.297   5.304   5.315
  5.325   5.335   5.349   5.360   5.373   5.383   5.397   5.430
  5.431   5.462   5.468   5.487   5.490   5.501   5.518   5.539
  5.560   5.575   5.577   5.586   5.596   5.600   5.628   5.649
  5.667   5.681   5.707   5.719   5.734   5.744   5.759   5.775
  5.797   5.832   5.835   5.859   5.867   5.875   5.898   5.916
  5.950   5.952   5.980   6.045   6.086   6.098   6.137   6.170
  6.198   6.231   6.240   6.271   6.294   6.312   6.376   6.431
  6.444   6.488   6.630   6.843   6.978   7.068   7.918   8.776
  9.790  10.104  10.608  11.034  11.235  11.698  11.965  11.981
 12.330  12.628  12.754  12.771  12.847  12.867  13.048  13.283
 13.408  13.506  13.574  13.736  14.291  14.695  15.035  15.069
 --------------------------------------------------------------
 
          Ground-State Mulliken Net Atomic Charges

     Atom                 Charge (a.u.)
  ----------------------------------------
      1 C                    -0.090294
      2 C                    -0.128666
      3 C                    -0.080067
      4 C                    -0.117487
      5 N                    -0.142566
      6 C                     0.080867
      7 C                     0.113008
      8 N                    -0.175795
      9 C                    -0.013756
     10 C                    -0.050508
     11 N                    -0.222264
     12 C                     0.054032
     13 C                     0.014901
     14 S                     0.409941
     15 N                    -0.274858
     16 C                    -0.090540
     17 S                     0.189081
     18 C                     0.044546
     19 C                    -0.056340
     20 N                    -0.144599
     21 C                     0.043667
     22 C                    -0.013911
     23 C                    -0.052238
     24 N                    -0.161955
     25 C                    -0.142948
     26 S                     0.100523
     27 C                    -0.049432
     28 C                    -0.156236
     29 C                    -0.183152
     30 H                     0.133336
     31 H                     0.120243
     32 H                     0.120178
     33 H                     0.136039
     34 H                     0.124276
     35 H                     0.131483
     36 H                     0.136702
     37 H                     0.128016
     38 H                     0.130579
     39 H                     0.136192
  ----------------------------------------
  Sum of atomic charges =     0.000000

 -----------------------------------------------------------------
                    Cartesian Multipole Moments
 -----------------------------------------------------------------
    Charge (ESU x 10^10)
                 0.0000
    Dipole Moment (Debye)
         X      -0.2201      Y       0.7463      Z      -1.1921
       Tot       1.4236
    Quadrupole Moments (Debye-Ang)
        XX    -152.1661     XY       1.5471     YY    -171.6456
        XZ       5.6738     YZ       1.7054     ZZ    -179.0829
    Octopole Moments (Debye-Ang^2)
       XXX    -112.2331    XXY      -5.0932    XYY      59.3364
       YYY      28.5526    XXZ     -80.7392    XYZ      30.0190
       YYZ      28.6536    XZZ     -38.1648    YZZ       6.7304
       ZZZ      16.5464
    Hexadecapole Moments (Debye-Ang^3)
      XXXX  -15906.8747   XXXY    -305.7576   XXYY   -3526.9905
      XYYY     160.2618   YYYY   -2492.5680   XXXZ     147.8713
      XXYZ      15.6912   XYYZ       3.7244   YYYZ     106.3056
      XXZZ   -3368.8113   XYZZ      33.4209   YYZZ    -661.6259
      XZZZ      77.2264   YZZZ     -35.5844   ZZZZ   -1476.9505
 -----------------------------------------------------------------
 Calculating analytic gradient of the SCF energy
 K construction time:  CPU 2670.79 s  wall 169.47 s
 Gradient of SCF Energy
            1           2           3           4           5           6
    1   0.0000020  -0.0000502  -0.0000816   0.0000732   0.0001231   0.0000207
    2   0.0000321   0.0000162  -0.0000215   0.0005484  -0.0001136  -0.0009066
    3   0.0001292  -0.0001116  -0.0000506   0.0000358  -0.0001649  -0.0003509
            7           8           9          10          11          12
    1  -0.0000527   0.0009627  -0.0000060  -0.0003769   0.0008892   0.0000223
    2   0.0004720   0.0002047   0.0004843  -0.0024379   0.0001915   0.0009312
    3   0.0009318  -0.0005209  -0.0010231  -0.0009611   0.0002351  -0.0009939
           13          14          15          16          17          18
    1  -0.0010653   0.0000702  -0.0007939   0.0007102   0.0000755  -0.0000087
    2   0.0028360  -0.0014854  -0.0000413  -0.0006369   0.0012195  -0.0004829
    3   0.0012767   0.0016411   0.0002199   0.0010434  -0.0014576   0.0002961
           19          20          21          22          23          24
    1  -0.0005199  -0.0005435   0.0003632   0.0002051   0.0006876  -0.0001779
    2  -0.0010214  -0.0009607   0.0006709   0.0002979   0.0003386  -0.0009240
    3  -0.0000400  -0.0005615   0.0004692   0.0002583   0.0002259  -0.0004431
           25          26          27          28          29          30
    1   0.0000138   0.0000651  -0.0006568  -0.0000548  -0.0001872   0.0000119
    2  -0.0001848  -0.0000972   0.0006592   0.0000214   0.0000576  -0.0000996
    3  -0.0004417   0.0000440   0.0003312   0.0001832  -0.0000457   0.0000044
           31          32          33          34          35          36
    1   0.0000285  -0.0000179  -0.0000128   0.0003433  -0.0001125   0.0000443
    2  -0.0000547   0.0000480   0.0000479   0.0004116  -0.0000451   0.0001089
    3   0.0000626   0.0000433   0.0000726  -0.0001727  -0.0000541   0.0000243
           37          38          39
    1   0.0000273  -0.0000245   0.0000038
    2  -0.0000855  -0.0000052   0.0000066
    3  -0.0000938  -0.0000900   0.0000490
 Max gradient component =       2.836E-03
 RMS gradient           =       6.154E-04
 Gradient time:  CPU 3117.27 s  wall 199.98 s
 Geometry Optimization Parameters
   NAtoms,    NIC,     NZ,  NCons,   NDum,   NFix, NCnnct, MaxDiis
       39     293       0       3       0       0       0       0

 Cartesian Hessian Update
 Hessian Updated using BFGS Update


** CONSTRAINED OPTIMIZATION IN DELOCALIZED INTERNAL COORDINATES **
   Searching for a Minimum

   Optimization Cycle:   3

                       Coordinates (Angstroms)
     ATOM                X               Y               Z
      1  C        -7.5852335386    0.1951992856   -0.9548335631
      2  C        -6.7832796986    0.5721922010   -2.0195745273
      3  C        -6.9710346093   -0.1809570887    0.2288540808
      4  C        -5.4113648270    0.5541351821   -1.8599990185
      5  N        -5.6553740119   -0.2084364031    0.3941952645
      6  C        -4.8898802553    0.1477123141   -0.6338806556
      7  C        -3.4175208991    0.1361344282   -0.4321920878
      8  N        -2.7038419877    0.8959488010   -1.2176190077
      9  C        -2.7640853746   -0.6728246178    0.5570919717
     10  C        -1.3535654213    0.9585286479   -1.0988395638
     11  N        -3.3044028861   -1.5541500769    1.4034811220
     12  C        -1.3414498398   -0.5886870013    0.6769255131
     13  C        -0.6115914454    0.2774386564   -0.1799084157
     14  S        -2.0925799057   -2.1716895794    2.2536719549
     15  N        -0.8361763456   -1.3887702875    1.6172232666
     16  C         0.8456090572    0.4119102216   -0.1016128768
     17  S         1.9109453307   -0.7958444976   -0.6652055065
     18  C         1.5723949614    1.4829106870    0.3696111873
     19  C         3.3354343625    0.0614085137   -0.2635600311
     20  N         1.0326048240    2.6281026448    0.8799161343
     21  C         2.9892127491    1.2894373036    0.2831885422
     22  C         4.6557121803   -0.4791971911   -0.5095881647
[...]
   Point Group: c1    Number of degrees of freedom:   111


   Energy is  -2291.145567050

              Constraints and their Current Values
                                        Value     Constraint
   Dihedral:        4   6   7   8       21.822       21.822
   Dihedral:       10  13  16  17     -105.000     -105.000
   Dihedral:       17  19  22  25      156.395      156.395
 Hessian Updated using BFGS Update

108 Hessian modes will be used to form the next step
  Hessian Eigenvalues:
     0.006740    0.016436    0.040508    0.045000    0.045000    0.045000
     0.045000    0.045000    0.045000    0.045000    0.045000    0.045000
     0.045000    0.045001    0.045001    0.045001    0.045001    0.045001
     0.045001    0.045002    0.045002    0.045002    0.045003    0.045004
     0.045005    0.045006    0.045007    0.045021    0.045028    0.045046
     0.045200    0.045416    0.045733    0.156644    0.159676    0.159993
     0.159997    0.160000    0.160000    0.160005    0.160061    0.160139
     0.161105    0.219775    0.220804    0.222457    0.224342    0.225217
     0.235628    0.239034    0.243719    0.244385    0.245796    0.249070
     0.249765    0.249952    0.249988    0.249990    0.250352    0.251255
     0.256776    0.267344    0.303909    0.310098    0.316334    0.334412
     0.335220    0.341144    0.348908    0.354145    0.354489    0.355765
     0.357053    0.359043    0.360701    0.361171    0.363291    0.364072
     0.364222    0.366171    0.376973    0.391275    0.399745    0.406691
     0.407253    0.420188    0.432694    0.442396    0.454814    0.460496
     0.466264    0.473780    0.474055    0.484115    0.485144    0.486954
     0.489819    0.508665    0.516917    0.519253    0.525362    0.559102
     0.572779    0.589844    0.639920    0.655301    0.662555    0.686437

 Minimum Search - Taking Simple RFO Step
 Searching for Lamda that Minimizes Along All modes
 Value Taken    Lamda =   0.00000000
 Step Taken.  Stepsize is  0.004323

                             Maximum     Tolerance    Cnvgd?
         Gradient           0.000046      0.000300     YES
         Displacement       0.001377      0.001200      NO
         Energy change     -0.000001      0.000001     YES

 Final energy is   -2291.14556704965     


 ******************************
 **  OPTIMIZATION CONVERGED  **
 ******************************

                       Coordinates (Angstroms)
     ATOM                X               Y               Z
      1  C        -7.5820302618    0.2539420165   -0.9424736137
      2  C        -6.7762647391    0.6207914188   -2.0077305681
      3  C        -6.9715915816   -0.1437048693    0.2362365459
      4  C        -5.4045561232    0.5720682639   -1.8535608944
      5  N        -5.6562394284   -0.1985953722    0.3971051409
      6  C        -4.8871574609    0.1479206719   -0.6318757568
      7  C        -3.4149093666    0.1127544969   -0.4324546220
      8  N        -2.6906979629    0.8676682428   -1.2118652633
      9  C        -2.7728077644   -0.7140857749    0.5494567432
     10  C        -1.3400039944    0.9200876266   -1.0841690342
     11  N        -3.3256840846   -1.6084841717    1.3727733993
     12  C        -1.3498669271   -0.6418774032    0.6791501375
     13  C        -0.6085721432    0.2323010876   -0.1606327266
     14  S        -2.1216507367   -2.2497256877    2.2160606309
     15  N        -0.8546516755   -1.4634269391    1.6053120612
     16  C         0.8474242940    0.3680559437   -0.0663447703
     17  S         1.9254539945   -0.8319239885   -0.6254177987
     18  C         1.5645823928    1.4591503168    0.3769992699
     19  C         3.3418079437    0.0514131593   -0.2479468091
     20  N         1.0162303853    2.6084736196    0.8711764870
     21  C         2.9829757374    1.2827608689    0.2809968928
     22  C         4.6676270058   -0.4754257495   -0.4939574075
     23  C         1.8704921853    3.5079070205    1.2418554567
     24  N         3.8473957417    2.2560194259    0.6885490558
     25  C         5.8286201325    0.2260442412   -0.6680143604
     26  S         4.9629364508   -2.1787807734   -0.6099871565
     27  C         3.2922096084    3.3310271844    1.1521305117
     28  C         6.9480667071   -0.6078864038   -0.9028964282
     29  C         6.6308413288   -1.9290592311   -0.9066430490
     30  H        -8.6599111576    0.2781442219   -1.0180269488
     31  H        -7.2100693554    0.9452909318   -2.9437208304
     32  H        -7.5681738816   -0.4284859928    1.0951889246
     33  H        -4.7294084111    0.8552785547   -2.6460511694
     34  H        -0.8354630380    1.5842728610   -1.7739124495
     35  H         1.4788248056    4.4374653757    1.6409600692
     36  H         5.8645496810    1.3022110838   -0.6186020041
     37  H         3.9464285571    4.1291105178    1.4855847302
     38  H         7.9489476128   -0.2377438726   -1.0643419576
     39  H         7.2843348566   -2.7700832509   -1.0626097189

Z-matrix Print:
$molecule
0 1
S 
C  1 1.707238
C  2 1.378897 1 109.454015
N  3 1.365959 2 124.981975 1 -178.931038 0
C  4 1.294661 3 115.039462 2 -179.518414 0
H  5 1.084789 4 117.542959 3 179.996240 0
C  3 1.432539 2 113.327227 1 1.376031 0
N  7 1.364021 3 121.304859 2 179.289798 0
C  8 1.295678 7 115.299895 3 0.350423 0
H  9 1.084496 8 117.522357 7 179.932673 0
C  7 1.387357 3 113.012082 2 -0.417710 0
C  11 1.447714 7 128.656026 3 -179.890455 0
C  12 1.367575 11 127.765444 7 22.653500 0
H  13 1.077900 12 122.314663 11 -1.070889 0
C  13 1.415546 12 112.973397 11 179.423105 0
H  15 1.079274 13 123.790646 12 -179.938568 0
C  15 1.358729 13 112.871249 12 -0.052130 0
H  17 1.076430 15 128.197434 13 -179.809313 0
C  2 1.465348 1 122.767306 3 -176.094300 0
C  19 1.364171 2 121.978688 1 105.000002 0
H  20 1.082335 19 119.398612 2 -0.282459 0
N  20 1.357729 19 125.282043 2 178.490486 0
C  22 1.304553 20 121.226011 19 0.630741 0
C  19 1.420895 2 122.503290 1 -73.595044 0
N  24 1.333401 19 126.571176 2 2.243347 0
C  24 1.430662 19 119.760009 2 -179.102851 0
N  26 1.335467 24 112.934305 19 -177.927418 0
C  23 1.486109 22 117.135598 20 -178.667638 0
N  28 1.330550 23 117.560729 22 156.334950 0
C  29 1.326289 28 117.948130 23 -178.648176 0
H  30 1.083886 29 116.032220 28 179.749171 0
C  30 1.385683 29 123.501041 28 -0.001706 0
H  32 1.080797 30 120.346908 29 -179.894682 0
C  32 1.385139 30 118.289430 29 0.363246 0
H  34 1.081464 32 120.779481 30 179.506370 0
C  34 1.381205 32 118.851249 30 -0.171655 0
H  36 1.078922 34 122.019799 32 179.403056 0
S  27 1.603752 26 106.328330 24 -0.658135 0
S  17 1.712388 15 111.637378 13 0.497839 0
$end

 
 --------------------------------------------------------------
 
                    Orbital Energies (a.u.)
 --------------------------------------------------------------
 
 Alpha MOs
 -- Occupied --
-89.146 -89.100 -89.079 -14.482 -14.478 -14.460 -14.459 -14.449
-14.436 -10.358 -10.354 -10.351 -10.344 -10.342 -10.342 -10.338
-10.337 -10.336 -10.336 -10.336 -10.334 -10.328 -10.326 -10.318
-10.312 -10.303 -10.301 -10.294 -10.292  -8.156  -8.115  -8.094
 -6.106  -6.100  -6.100  -6.064  -6.060  -6.058  -6.043  -6.040
 -6.037  -1.142  -1.098  -1.072  -1.052  -1.027  -1.012  -1.003
 -0.986  -0.926  -0.914  -0.898  -0.879  -0.867  -0.854  -0.838
 -0.812  -0.777  -0.769  -0.748  -0.739  -0.729  -0.721  -0.710
 -0.671  -0.654  -0.646  -0.630  -0.629  -0.622  -0.605  -0.602
 -0.591  -0.577  -0.570  -0.563  -0.559  -0.543  -0.543  -0.526
 -0.513  -0.505  -0.502  -0.501  -0.495  -0.491  -0.486  -0.480
 -0.473  -0.468  -0.461  -0.456  -0.449  -0.437  -0.428  -0.424
 -0.422  -0.411  -0.397  -0.376  -0.369  -0.363  -0.358  -0.351
 -0.342  -0.339  -0.336  -0.333  -0.317  -0.275
 -- Virtual --
 -0.043  -0.032   0.026   0.031   0.040   0.058   0.066   0.071
  0.086   0.090   0.093   0.122   0.124   0.129   0.131   0.138
  0.144   0.146   0.154   0.157   0.165   0.175   0.176   0.190
  0.196   0.197   0.211   0.215   0.223   0.225   0.238   0.242
  0.255   0.260   0.266   0.273   0.280   0.286   0.291   0.295
  0.299   0.301   0.309   0.313   0.314   0.319   0.322   0.329
  0.330   0.333   0.338   0.343   0.346   0.346   0.353   0.360
  0.361   0.364   0.373   0.376   0.378   0.380   0.383   0.385
  0.389   0.392   0.398   0.399   0.404   0.406   0.410   0.414
  0.414   0.419   0.421   0.428   0.431   0.434   0.436   0.440
  0.441   0.445   0.450   0.456   0.458   0.459   0.463   0.463
  0.466   0.472   0.476   0.479   0.481   0.484   0.486   0.489
  0.493   0.495   0.498   0.504   0.510   0.512   0.518   0.520
  0.524   0.527   0.530   0.533   0.537   0.540   0.547   0.551
  0.555   0.560   0.567   0.569   0.575   0.580   0.587   0.593
  0.603   0.606   0.609   0.615   0.617   0.621   0.626   0.634
  0.639   0.643   0.644   0.650   0.656   0.657   0.669   0.672
  0.674   0.674   0.682   0.690   0.697   0.702   0.709   0.713
  0.714   0.718   0.725   0.730   0.732   0.739   0.740   0.749
  0.752   0.759   0.764   0.768   0.774   0.776   0.784   0.785
  0.790   0.793   0.798   0.799   0.808   0.810   0.816   0.824
  0.827   0.830   0.835   0.836   0.843   0.844   0.854   0.855
  0.861   0.867   0.869   0.870   0.876   0.890   0.894   0.901
  0.903   0.912   0.917   0.920   0.921   0.927   0.928   0.933
  0.937   0.941   0.946   0.952   0.954   0.956   0.963   0.972
  0.976   0.984   0.985   0.992   0.995   1.002   1.006   1.010
  1.018   1.026   1.029   1.031   1.045   1.050   1.052   1.058
  1.060   1.067   1.069   1.078   1.082   1.088   1.091   1.092
  1.102   1.105   1.106   1.112   1.123   1.127   1.132   1.139
  1.148   1.150   1.162   1.167   1.176   1.178   1.186   1.192
  1.201   1.209   1.214   1.219   1.224   1.230   1.239   1.243
  1.247   1.257   1.265   1.270   1.275   1.285   1.291   1.294
  1.308   1.319   1.319   1.327   1.337   1.350   1.352   1.355
  1.359   1.371   1.376   1.377   1.383   1.385   1.385   1.396
  1.398   1.403   1.411   1.413   1.419   1.423   1.431   1.437
  1.443   1.445   1.450   1.455   1.465   1.472   1.478   1.481
  1.486   1.487   1.497   1.506   1.508   1.516   1.520   1.528
  1.537   1.565   1.566   1.566   1.573   1.583   1.589   1.595
  1.599   1.608   1.613   1.617   1.628   1.637   1.646   1.648
  1.652   1.660   1.663   1.667   1.673   1.674   1.686   1.693
  1.704   1.710   1.717   1.723   1.729   1.737   1.745   1.751
  1.755   1.763   1.765   1.775   1.782   1.791   1.796   1.803
  1.821   1.827   1.837   1.848   1.868   1.878   1.879   1.888
  1.889   1.896   1.907   1.913   1.928   1.931   1.939   1.945
  1.952   1.966   1.973   1.982   1.983   1.994   2.006   2.011
  2.013   2.017   2.033   2.039   2.043   2.045   2.056   2.065
  2.077   2.078   2.093   2.098   2.104   2.115   2.120   2.124
  2.139   2.147   2.163   2.169   2.176   2.179   2.186   2.191
  2.200   2.207   2.213   2.220   2.239   2.243   2.247   2.259
  2.261   2.268   2.279   2.288   2.292   2.292   2.297   2.299
  2.315   2.322   2.331   2.335   2.344   2.351   2.356   2.361
  2.371   2.383   2.395   2.398   2.405   2.413   2.414   2.423
  2.434   2.443   2.446   2.453   2.457   2.463   2.468   2.471
  2.479   2.490   2.508   2.515   2.520   2.530   2.533   2.535
  2.538   2.541   2.547   2.552   2.553   2.564   2.580   2.586
  2.596   2.611   2.617   2.626   2.631   2.643   2.649   2.659
  2.664   2.667   2.676   2.684   2.688   2.700   2.705   2.714
  2.725   2.731   2.733   2.747   2.753   2.773   2.775   2.777
  2.784   2.787   2.800   2.800   2.809   2.818   2.820   2.823
  2.832   2.840   2.842   2.853   2.867   2.868   2.873   2.876
  2.883   2.887   2.893   2.904   2.910   2.918   2.925   2.930
  2.933   2.937   2.945   2.954   2.959   2.965   2.972   2.982
  2.985   2.993   2.999   3.005   3.009   3.016   3.020   3.024
  3.025   3.035   3.042   3.044   3.047   3.053   3.058   3.064
  3.067   3.068   3.072   3.074   3.078   3.083   3.085   3.092
  3.094   3.099   3.103   3.111   3.111   3.116   3.123   3.132
  3.141   3.143   3.151   3.152   3.157   3.160   3.162   3.168
  3.174   3.179   3.182   3.186   3.196   3.200   3.202   3.207
  3.209   3.213   3.222   3.224   3.229   3.232   3.236   3.239
  3.240   3.247   3.254   3.259   3.264   3.267   3.274   3.276
  3.277   3.282   3.283   3.286   3.292   3.298   3.300   3.306
  3.312   3.313   3.319   3.325   3.327   3.330   3.341   3.344
  3.350   3.354   3.364   3.366   3.377   3.386   3.389   3.398
  3.403   3.407   3.414   3.416   3.418   3.426   3.426   3.431
  3.438   3.447   3.451   3.457   3.460   3.467   3.471   3.473
  3.481   3.486   3.490   3.495   3.501   3.508   3.516   3.519
  3.532   3.535   3.541   3.548   3.557   3.567   3.572   3.584
  3.590   3.592   3.601   3.610   3.619   3.629   3.634   3.641
  3.655   3.660   3.662   3.684   3.691   3.695   3.705   3.714
  3.716   3.718   3.721   3.736   3.739   3.742   3.748   3.758
  3.771   3.778   3.783   3.788   3.800   3.801   3.807   3.812
  3.816   3.819   3.825   3.842   3.851   3.856   3.871   3.884
  3.887   3.895   3.902   3.904   3.918   3.924   3.927   3.932
  3.933   3.935   3.943   3.947   3.955   3.963   3.967   3.972
  3.977   3.981   3.991   3.999   4.013   4.014   4.026   4.037
  4.039   4.047   4.056   4.070   4.074   4.089   4.092   4.101
  4.110   4.117   4.125   4.133   4.140   4.147   4.161   4.172
  4.173   4.183   4.197   4.197   4.209   4.211   4.213   4.223
  4.230   4.237   4.243   4.250   4.255   4.262   4.275   4.287
  4.293   4.296   4.306   4.309   4.312   4.324   4.329   4.335
  4.348   4.353   4.355   4.360   4.371   4.376   4.379   4.391
  4.400   4.403   4.418   4.428   4.435   4.441   4.449   4.457
  4.462   4.481   4.489   4.500   4.513   4.519   4.532   4.545
  4.551   4.552   4.558   4.563   4.584   4.593   4.597   4.610
  4.620   4.642   4.643   4.649   4.662   4.676   4.680   4.704
  4.706   4.715   4.733   4.743   4.755   4.764   4.771   4.782
  4.796   4.804   4.809   4.817   4.825   4.839   4.843   4.851
  4.864   4.876   4.883   4.887   4.901   4.910   4.919   4.926
  4.932   4.950   4.952   4.966   4.971   4.978   4.986   4.991
  4.995   5.008   5.009   5.013   5.019   5.034   5.039   5.041
  5.053   5.058   5.069   5.079   5.092   5.098   5.115   5.123
  5.130   5.138   5.142   5.149   5.162   5.166   5.183   5.188
  5.209   5.215   5.230   5.247   5.277   5.297   5.303   5.316
  5.326   5.334   5.349   5.359   5.374   5.383   5.396   5.429
  5.431   5.461   5.468   5.487   5.489   5.501   5.518   5.539
  5.559   5.574   5.577   5.587   5.595   5.600   5.628   5.648
  5.667   5.680   5.708   5.718   5.734   5.744   5.759   5.772
  5.795   5.832   5.835   5.859   5.867   5.875   5.898   5.915
  5.950   5.951   5.980   6.045   6.084   6.097   6.135   6.169
  6.198   6.231   6.240   6.271   6.293   6.312   6.376   6.431
  6.444   6.486   6.629   6.842   6.977   7.068   7.919   8.773
  9.791  10.105  10.601  11.031  11.234  11.692  11.961  11.980
 12.329  12.626  12.752  12.773  12.852  12.865  13.034  13.284
 13.406  13.492  13.564  13.736  14.293  14.687  15.035  15.070
 --------------------------------------------------------------
 
          Ground-State Mulliken Net Atomic Charges

     Atom                 Charge (a.u.)
  ----------------------------------------
      1 C                    -0.090447
      2 C                    -0.128267
      3 C                    -0.079817
      4 C                    -0.117398
      5 N                    -0.143232
      6 C                     0.081446
      7 C                     0.112938
      8 N                    -0.175729
      9 C                    -0.013223
     10 C                    -0.049924
     11 N                    -0.222044
     12 C                     0.051782
     13 C                     0.013898
     14 S                     0.408995
     15 N                    -0.274138
     16 C                    -0.083943
     17 S                     0.188725
     18 C                     0.037806
     19 C                    -0.056543
     20 N                    -0.143936
     21 C                     0.045597
     22 C                    -0.014262
     23 C                    -0.051859
     24 N                    -0.162023
     25 C                    -0.142840
     26 S                     0.100438
     27 C                    -0.049644
     28 C                    -0.156601
     29 C                    -0.182817
     30 H                     0.133350
     31 H                     0.119976
     32 H                     0.120242
     33 H                     0.135773
     34 H                     0.124620
     35 H                     0.131431
     36 H                     0.136999
     37 H                     0.127928
     38 H                     0.130552
     39 H                     0.136188
  ----------------------------------------
  Sum of atomic charges =     0.000000

 -----------------------------------------------------------------
                    Cartesian Multipole Moments
 -----------------------------------------------------------------
    Charge (ESU x 10^10)
                 0.0000
    Dipole Moment (Debye)
         X      -0.2147      Y       0.8298      Z      -1.2289
       Tot       1.4983
    Quadrupole Moments (Debye-Ang)
        XX    -152.1415     XY       1.1767     YY    -171.4369
        XZ       5.4305     YZ       1.4817     ZZ    -179.3691
    Octopole Moments (Debye-Ang^2)
       XXX    -111.3066    XXY       0.7317    XYY      58.2904
       YYY      35.9435    XXZ     -80.9257    XYZ      29.7284
       YYZ      27.6403    XZZ     -38.2463    YZZ       8.7562
       ZZZ      14.2050
    Hexadecapole Moments (Debye-Ang^3)
      XXXX  -15946.1160   XXXY    -339.4072   XXYY   -3539.4103
      XYYY     167.4708   YYYY   -2520.7324   XXXZ     134.1419
      XXYZ      11.4131   XYYZ       4.0886   YYYZ     120.8751
      XXZZ   -3373.2921   XYZZ      31.6485   YYZZ    -663.2299
      XZZZ      76.0381   YZZZ     -17.5682   ZZZZ   -1440.4819
 -----------------------------------------------------------------
Archival summary:
1\1\mn251\OPT\ProcedureUnspecified\BasisUnspecified\362010\afmv_a\SatJun1704:33:132017SatJun1704:33:132017\0\\#,OPT,ProcedureUnspecified,BasisUnspecified,\\0,1\S\C,1,1.70724\C,2,1.3789,1,109.454\N,3,1.36596,2,124.982,1,-178.931,0\C,4,1.29466,3,115.039,2,-179.518,0\H,5,1.08479,4,117.543,3,179.996,0\C,3,1.43254,2,113.327,1,1.37603,0\N,7,1.36402,3,121.305,2,179.29,0\C,8,1.29568,7,115.3,3,0.350423,0\H,9,1.0845,8,117.522,7,179.933,0\C,7,1.38736,3,113.012,2,-0.41771,0\C,11,1.44771,7,128.656,3,-179.89,0\C,12,1.36757,11,127.765,7,22.6535,0\H,13,1.0779,12,122.315,11,-1.07089,0\C,13,1.41555,12,112.973,11,179.423,0\H,15,1.07927,13,123.791,12,-179.939,0\C,15,1.35873,13,112.871,12,-0.0521302,0\H,17,1.07643,15,128.197,13,-179.809,0\C,2,1.46535,1,122.767,3,-176.094,0\C,19,1.36417,2,121.979,1,105,0\H,20,1.08234,19,119.399,2,-0.282459,0\N,20,1.35773,19,125.282,2,178.49,0\C,22,1.30455,20,121.226,19,0.630741,0\C,19,1.42089,2,122.503,1,-73.595,0\N,24,1.3334,19,126.571,2,2.24335,0\C,24,1.43066,19,119.76,2,-179.103,0\N,26,1.33547,24,112.934,19,-177.927,0\C,23,1.48611,22,117.136,20,-178.668,0\N,28,1.33055,23,117.561,22,156.335,0\C,29,1.32629,28,117.948,23,-178.648,0\H,30,1.08389,29,116.032,28,179.749,0\C,30,1.38568,29,123.501,28,-0.00170596,0\H,32,1.0808,30,120.347,29,-179.895,0\C,32,1.38514,30,118.289,29,0.363246,0\H,34,1.08146,32,120.779,30,179.506,0\C,34,1.3812,32,118.851,30,-0.171655,0\H,36,1.07892,34,122.02,32,179.403,0\S,27,1.60375,26,106.328,24,-0.658135,0\S,17,1.71239,15,111.637,13,0.497839,0\\\@

 Total job time:  7847.91s(wall), 116893.44s(cpu) 
 Sat Jun 17 04:33:13 2017

        *************************************************************
        *                                                           *
        *  Thank you very much for using Q-Chem.  Have a nice day.  *
        *                                                           *
        *************************************************************


