
Running Job 1 of 1 C169_2/C169_135.qcin
qchem C169_2/C169_135.qcin_41680.0 /tmpu/cab_g/afmv_a/scratch_qchem/qchem41680/ 1
/tmpu/appuserlic/qchem4.4/serial-multicore/exe/qcprog.exe_s C169_2/C169_135.qcin_41680.0 /tmpu/cab_g/afmv_a/scratch_qchem/qchem41680/
Check license passed

                  Welcome to Q-Chem
     A Quantum Leap Into The Future Of Chemistry


 Q-Chem 4.4, Q-Chem, Inc., Pleasanton, CA (2016)

 Y. Shao,  Z. Gan,  E. Epifanovsky,  A. T. B. Gilbert,  M. Wormit,  
 J. Kussmann,  A. W. Lange,  A. Behn,  J. Deng,  X. Feng,  D. Ghosh,  
 M. Goldey,  P. R. Horn,  L. D. Jacobson,  I. Kaliman,  F. Rob,  
 R. Z. Khaliullin,  T. Kus,  A. Landau,  J. Liu,  E. I. Proynov,  Y. M. Rhee,  
 R. M. Richard,  M. A. Rohrdanz,  R. P. Steele,  E. J. Sundstrom,  
 H. L. Woodcock III,  P. M. Zimmerman,  D. Zuev,  B. Albrecht,  E. Alguire,  
 B. Austin,  S. A. Baeppler,  G. J. O. Beran,  Y. A. Bernard,  E. Berquist,  
 K. Brandhorst,  K. B. Bravaya,  S. T. Brown,  D. Casanova,  C.-M. Chang,  
 Y. Chen,  S. H. Chien,  K. D. Closser,  M. P. Coons,  D. L. Crittenden,  
 S. Dasgupta,  M. Diedenhofen,  R. A. DiStasio Jr.,  H. Do,  A. D. Dutoi,  
 R. G. Edgar,  P.-T. Fang,  S. Fatehi,  Q. Feng,  L. Fusti-Molnar,  
 A. Ghysels,  A. Golubeva-Zadorozhnaya,  J. Gomes,  A. Gunina,  
 M. W. D. Hanson-Heine,  P. H. P. Harbach,  A. W. Hauser,  J. E. Herr,  
 E. G. Hohenstein,  Z. C. Holden,  K. Hui,  T.-C. Jagau,  H. Ji,  B. Kaduk,  
 K. Khistyaev,  Jaehoon Kim,  Jihan Kim,  R. A. King,  P. Klunzinger,  
 K. Koh,  D. Kosenkov,  T. Kowalczyk,  C. M. Krauter,  A. Kunitsa,  
 K. U. Lao,  A. Laurent,  K. V. Lawler,  J. Lee,  D. Lefrancois,  S. Lehtola,  
 S. V. Levchenko,  C. Y. Lin,  Y.-S. Lin,  F. Liu,  E. Livshits,  
 R. C. Lochan,  A. Luenser,  P. Manohar,  S. F. Manzer,  S.-P. Mao,  Y. Mao,  
 N. Mardirossian,  A. V. Marenich,  L. A. Martinez-Martinez,  S. A. Maurer,  
 N. J. Mayhall,  J.-M. Mewes,  A. F. Morrison,  K. Nanda,  T. S. Nguyen-Beck,  
 C. M. Oana,  R. Olivares-Amaya,  D. P. O'Neill,  J. A. Parkhill,  
 T. M. Perrine,  R. Peverati,  P. A. Pieniazek,  F. Plasser,  A. Prociuk,  
 D. R. Rehn,  E. Rosta,  N. J. Russ,  N. Sergueev,  S. M. Sharada,  
 S. Sharma,  D. W. Small,  A. Sodt,  T. Stauch,  T. Stein,  D. Stuck,  
 Y.-C. Su,  A. J. W. Thom,  T. Tsuchimochi,  L. Vogt,  O. Vydrov,  T. Wang,  
 M. A. Watson,  J. Wenzel,  A. White,  C. F. Williams,  V. Vanovschi,  
 K. Yao,  S. Yeganeh,  S. R. Yost,  Z.-Q. You,  I. Y. Zhang,  X. Zhang,  
 Y. Zhao,  B. R. Brooks,  G. K. L. Chan,  D. M. Chipman,  C. J. Cramer,  
 W. A. Goddard III,  M. S. Gordon,  W. J. Hehre,  A. Klamt,  
 H. F. Schaefer III,  M. W. Schmidt,  C. D. Sherrill,  D. G. Truhlar,  
 A. Warshel,  X. Xu,  A. Aspuru-Guzik,  R. Baer,  A. T. Bell,  N. A. Besley,  
 J.-D. Chai,  A. Dreuw,  B. D. Dunietz,  T. R. Furlani,  S. R. Gwaltney,  
 C.-P. Hsu,  Y. Jung,  J. Kong,  D. S. Lambrecht,  W. Liang,  C. Ochsenfeld,  
 V. A. Rassolov,  L. V. Slipchenko,  J. E. Subotnik,  T. Van Voorhis,  
 J. M. Herbert,  A. I. Krylov,  P. M. W. Gill,  M. Head-Gordon

 Contributors to earlier versions of Q-Chem not listed above: 
 R. D. Adamson,  J. Baker,  E. F. C. Byrd,  A. K. Chakraborty,  C.-L. Cheng,  
 H. Dachsel,  R. J. Doerksen,  G. Hawkins,  A. Heyden,  S. Hirata,  
 G. Kedziora,  F. J. Keil,  C. Kelley,  P. P. Korambath,  W. Kurlancheek,  
 A. M. Lee,  M. S. Lee,  D. Liotard,  I. Lotan,  P. E. Maslen,  N. Nair,  
 D. Neuhauser,  R. Olson,  B. Peters,  J. Ritchie,  N. E. Schultz,  
 N. Shenvi,  A. C. Simmonett,  K. S. Thanthiriwatte,  Q. Wu,  W. Zhang

 Please cite Q-Chem as follows:
 Y. Shao et al., Mol. Phys. 113, 184-215 (2015)
 DOI: 10.1080/00268976.2014.952696

 Q-Chem 4.4.2 for Intel X86 Linux

 Parts of Q-Chem use Armadillo 5.200.1 (Boston Tea Smuggler).
 http://arma.sourceforge.net/

 Q-Chem begins on Sat Jun 17 21:28:30 2017  

Host: 
0

     Scratch files written to /tmpu/cab_g/afmv_a/scratch_qchem/qchem41680//
 Dec716 11556_ 22328  22283 4050   
Processing $rem in /tmpu/appuserlic/qchem4.4/serial-multicore/config/preferences.
 MEM_TOTAL  2000 
FILE_GEOM_ORG=        593

Checking the input file for inconsistencies... 	...done.

--------------------------------------------------------------
User input:
--------------------------------------------------------------
$comment
OPTIMIZATION
$end

$rem
JOBTYPE OPT
EXCHANGE omegaB97X-D
BASIS cc-pVTZ
$end

$molecule
0 1
C          0.00000        0.00000        0.00000
C         -0.65396       -1.22126       -0.00000
C          1.38563        0.00000        0.00000
C          0.09526       -2.37957        0.00866
N          2.11912       -1.10562        0.01199
C          1.48546       -2.27640        0.02149
C          2.30642       -3.51253        0.03449
N          1.74513       -4.60745       -0.39909
C          3.65824       -3.56714        0.50995
C          2.40434       -5.79109       -0.42442
N          4.38617       -2.58332        1.04242
C          4.35289       -4.81920        0.47143
C          3.70163       -5.99343       -0.01477
S          5.80914       -3.21778        1.41887
N          5.59255       -4.74484        0.95148
C          4.33823       -7.30129       -0.04468
S          5.93279       -7.54554       -0.64009
C          3.83159       -8.52860        0.38358
C          5.94766       -9.22976       -0.37200
N          2.60116       -8.73935        0.92947
C          4.74253       -9.61678        0.20183
C          7.08767      -10.05589       -0.69957
C          2.32719       -9.96470        1.25485
N          4.42059      -10.89031        0.55490
C          7.42545      -11.27000       -0.16763
S          8.24371       -9.57785       -1.90122
C          3.23874      -11.04839        1.06689
C          8.61573      -11.80392       -0.71666
C          9.17070      -10.99707       -1.65948
H         -0.54853        0.93120        0.00000
H         -1.73532       -1.26909       -0.00410
H          1.93662        0.93286       -0.01167
H         -0.36319       -3.35650        0.00329
H          1.82722       -6.62671       -0.78554
H          1.35072      -10.15716        1.68661
H          6.82486      -11.75307        0.58453
H          2.94995      -12.05196        1.35972
H          9.03984      -12.74903       -0.41344
H         10.06929      -11.16390       -2.22838
$end

$opt
CONSTRAINT
tors 4 6 7 8 21.82164
tors 10 13 16 17 135.00000
tors 17 19 22 25 156.39459
ENDCONSTRAINT
$end
--------------------------------------------------------------
 ----------------------------------------------------------------
             Standard Nuclear Orientation (Angstroms)
    I     Atom           X                Y                Z
 ----------------------------------------------------------------
    1      C       7.6459417697     0.2721567988    -0.6869799400
    2      C       6.9483487780     1.4641295667    -0.7951677756
    3      C       6.9247343677    -0.8899903911    -0.4650693968
    4      C       5.5746264443     1.4472585919    -0.6699081248
    5      N       5.6042547229    -0.9209728250    -0.3388928496
    6      C       4.9397788321     0.2286830002    -0.4343094521
    7      C       3.4629316750     0.1932435304    -0.2934967502
    8      N       2.7889251152     1.1812679777    -0.8144677052
    9      C       2.7519011533    -0.8463546989     0.3921656266
   10      C       1.4377361006     1.2485595052    -0.7372460791
   11      N       3.2528571927    -1.9019972270     1.0371230498
   12      C       1.3230327078    -0.7745511778     0.4618497440
   13      C       0.6241321026     0.3234812567    -0.1256950095
   14      S       2.0038478164    -2.7093670010     1.6348080343
   15      N       0.7803709998    -1.7874025961     1.1344451669
   16      C      -0.8212412674     0.4745580296    -0.0569667199
   17      S      -1.9076181760    -0.8160467533    -0.3900091059
   18      C      -1.5655326834     1.6050828469     0.2811523110
   19      C      -3.3248232859     0.0957907635    -0.1277641960
   20      N      -1.0594567318     2.8232148988     0.6223426902
   21      C      -2.9794397036     1.3894250313     0.2445585519
   22      C      -4.6471965360    -0.4701297227    -0.2708679090
   23      C      -1.9316222033     3.7434083159     0.8961780298
   24      N      -3.8653154757     2.3790476384     0.5379075953
   25      C      -5.8112787330    -0.0405216994     0.3048648146
   26      S      -4.9411580280    -1.8569311297    -1.2705088167
   27      C      -3.3425398747     3.5240186595     0.8535648474
   28      C      -6.9296242652    -0.8330414323    -0.0479619547
   29      C      -6.6100452946    -1.8533565175    -0.8874466683
   30      H       8.7228917821     0.2415630732    -0.7721931769
   31      H       7.4701985921     2.3957189978    -0.9725314468
   32      H       7.4298483381    -1.8452471809    -0.3857076243
   33      H       4.9824928315     2.3457769694    -0.7513941610
   34      H       0.9982956630     2.1232041109    -1.1884941803
   35      H      -1.5515449922     4.7232005277     1.1654357975
   36      H      -5.8475622181     0.8212217660     0.9497611994
   37      H      -4.0211659426     4.3353064319     1.0935244861
   38      H      -7.9287696777    -0.6490461184     0.3165908423
   39      H      -7.2662014388    -2.5973870414    -1.3055628495
 ----------------------------------------------------------------
 Molecular Point Group                 C1    NOp =  1
 Largest Abelian Subgroup              C1    NOp =  1
 Nuclear Repulsion Energy =  2922.9377558300 hartrees
 There are      110 alpha and      110 beta electrons
 Requested basis set is cc-pVTZ
 There are 356 shells and 1022 basis functions

 Total QAlloc Memory Limit   2000 MB
 Mega-Array Size        61 MB
 MEM_STATIC part        62 MB
 A cutoff of  1.0D-11 yielded  30892 shell pairs
 There are    243522 function pairs (    317735 Cartesian)
 
 -------------------------------------------------------
 OpenMP Integral Computing Module                       
 Release: version 1.0, May 2013, Q-Chem Inc. Pittsburgh 
 -------------------------------------------------------
 Integral Job Info:
 Integral job number is                      11
 Integral operator is                         1
 short-range coefficients              22203600
 long-range coefficients              100000000
 Omega coefficients                         200
 if combine SR and LR in K                    1
 Integral screening is                        0
 Integral computing path is                   2
 max size of driver memory is            800000
 size of driver memory is                776718
 size of scratch memory is             26248924
 max col of scratch BK array              10000
 max len of scratch array in speh3          662
 max len of scratch index in speh4           32
 max int batch size is                      520
 min int batch size is                       52
 fixed nKL is                                52
 max L of basis functions is                  3
 order of int derivative is                   0
 number of shells is                        356
 number of basis is                        1177
 number of cartesian basis is              1177
 number of contracted shell pairs         30892
 number of primitive shell pairs          93451
 maxK2 (contraction) of shell pair          121
 max number of K2 of shell pair               1
 max number of CS2 of shell pair           4291
 max number of PS2 of shell pair          13027
 mem total for path MDJ                  833952
 -------------------------------------------------------
 Smallest overlap matrix eigenvalue = 2.96E-05

 Scale SEOQF with 1.000000e-02/1.000000e-01/1.000000e-01

 Standard Electronic Orientation quadrupole field applied
 Nucleus-field energy     =     0.0000000468 hartrees
 Guess from superposition of atomic densities
 Warning:  Energy on first SCF cycle will be non-variational
 Long-range K will be added via erf
 Coulomb attenuation parameter = 0.2 bohr**(-1)
 A restricted hybrid HF-DFT SCF calculation will be
 performed using Pulay DIIS extrapolation
 Exchange:     0.2220 Hartree-Fock + 1.0000 wB97X-D + LR-HF
 Correlation:  1.0000 wB97X-D
 Using SG-2 standard quadrature grid
 Dispersion:   Grimme D
 SCF converges when DIIS error is below 1.0E-08
 using 16 threads for integral computing 
 using 16 threads for integral computing 
 K construction time:  CPU 70.71 s  wall 4.66 s
 -------------------------------------------------------
 OpenMP BLAS3 based DFT computing Module                
 Release: version 1.0, May 2013, Q-Chem Inc. Pittsburgh 
 -------------------------------------------------------
 ---------------------------------------
  Cycle       Energy         DIIS Error
 ---------------------------------------
    1   -2301.4275749847      1.83E-02
 K construction time:  CPU 1106.03 s  wall 73.17 s
    2   -2290.8986874137      1.33E-03
 K construction time:  CPU 1054.40 s  wall 69.76 s
    3   -2290.9350429688      1.33E-03
 K construction time:  CPU 1004.24 s  wall 66.40 s
    4   -2291.1420241345      1.99E-04
 K construction time:  CPU 923.78 s  wall 61.18 s
    5   -2291.1462559726      1.17E-04
 K construction time:  CPU 874.28 s  wall 57.84 s
    6   -2291.1478398343      4.50E-05
 K construction time:  CPU 817.98 s  wall 54.13 s
    7   -2291.1480948671      1.77E-05
 K construction time:  CPU 763.88 s  wall 50.57 s
    8   -2291.1481455832      5.41E-06
 K construction time:  CPU 736.89 s  wall 48.79 s
    9   -2291.1481567215      3.60E-06
 K construction time:  CPU 693.51 s  wall 45.89 s
   10   -2291.1481603548      1.25E-06
 K construction time:  CPU 630.74 s  wall 41.61 s
   11   -2291.1481608769      7.39E-07
 K construction time:  CPU 590.51 s  wall 38.99 s
   12   -2291.1481610318      2.11E-07
 K construction time:  CPU 518.30 s  wall 34.28 s
   13   -2291.1481610467      1.13E-07
 K construction time:  CPU 456.78 s  wall 30.06 s
   14   -2291.1481610491      3.33E-08
 K construction time:  CPU 386.86 s  wall 25.35 s
   15   -2291.1481610501      1.62E-08
 K construction time:  CPU 1103.32 s  wall 72.96 s
   16   -2291.1481610501      5.08E-09 Convergence criterion met
 ---------------------------------------
 SCF time:  CPU 15665.85 s  wall 1062.38 s
 SCF   energy in the final basis set = -2291.1481610501
 Total energy in the final basis set = -2291.1481610501
 
 --------------------------------------------------------------
 
                    Orbital Energies (a.u.)
 --------------------------------------------------------------
 
 Alpha MOs
 -- Occupied --
-89.145 -89.101 -89.079 -14.481 -14.477 -14.461 -14.460 -14.447
-14.435 -10.355 -10.355 -10.351 -10.345 -10.343 -10.342 -10.341
-10.340 -10.337 -10.337 -10.334 -10.333 -10.330 -10.324 -10.319
-10.310 -10.302 -10.299 -10.295 -10.293  -8.156  -8.115  -8.095
 -6.106  -6.100  -6.100  -6.064  -6.060  -6.059  -6.044  -6.040
 -6.038  -1.142  -1.100  -1.070  -1.050  -1.028  -1.012  -1.003
 -0.986  -0.925  -0.913  -0.897  -0.879  -0.869  -0.854  -0.838
 -0.812  -0.777  -0.771  -0.748  -0.739  -0.730  -0.718  -0.711
 -0.672  -0.655  -0.647  -0.629  -0.629  -0.621  -0.606  -0.603
 -0.590  -0.576  -0.569  -0.561  -0.558  -0.545  -0.543  -0.527
 -0.512  -0.506  -0.502  -0.501  -0.494  -0.492  -0.486  -0.482
 -0.473  -0.468  -0.460  -0.457  -0.450  -0.440  -0.427  -0.426
 -0.421  -0.411  -0.396  -0.376  -0.370  -0.362  -0.358  -0.350
 -0.342  -0.339  -0.336  -0.333  -0.317  -0.269
 -- Virtual --
 -0.048  -0.030   0.025   0.031   0.041   0.054   0.067   0.072
  0.086   0.086   0.105   0.123   0.124   0.128   0.132   0.137
  0.148   0.152   0.153   0.160   0.164   0.175   0.178   0.190
  0.195   0.201   0.211   0.215   0.219   0.228   0.243   0.247
  0.257   0.265   0.269   0.271   0.278   0.289   0.291   0.296
  0.299   0.299   0.309   0.316   0.318   0.319   0.321   0.329
  0.331   0.335   0.342   0.345   0.347   0.350   0.354   0.357
  0.362   0.367   0.372   0.375   0.378   0.382   0.383   0.390
  0.392   0.396   0.396   0.402   0.403   0.406   0.409   0.411
  0.416   0.418   0.426   0.428   0.431   0.433   0.434   0.439
  0.443   0.447   0.451   0.454   0.458   0.459   0.462   0.463
  0.468   0.472   0.473   0.477   0.479   0.482   0.489   0.490
  0.494   0.497   0.498   0.506   0.508   0.512   0.517   0.520
  0.523   0.528   0.531   0.536   0.538   0.541   0.547   0.550
  0.553   0.561   0.566   0.571   0.576   0.582   0.589   0.601
  0.603   0.608   0.611   0.611   0.617   0.622   0.627   0.636
  0.638   0.641   0.649   0.656   0.660   0.661   0.664   0.665
  0.680   0.680   0.684   0.690   0.697   0.704   0.707   0.711
  0.723   0.726   0.729   0.734   0.735   0.738   0.744   0.744
  0.755   0.763   0.768   0.770   0.773   0.778   0.780   0.786
  0.791   0.796   0.798   0.801   0.809   0.813   0.815   0.825
  0.829   0.831   0.837   0.841   0.843   0.847   0.850   0.857
  0.859   0.866   0.870   0.877   0.880   0.883   0.895   0.897
  0.901   0.912   0.916   0.923   0.925   0.925   0.935   0.937
  0.939   0.941   0.949   0.954   0.958   0.959   0.963   0.968
  0.980   0.981   0.985   0.989   0.993   1.006   1.009   1.014
  1.021   1.022   1.028   1.034   1.042   1.046   1.056   1.057
  1.062   1.067   1.078   1.083   1.085   1.090   1.095   1.096
  1.101   1.109   1.110   1.114   1.121   1.128   1.133   1.141
  1.145   1.147   1.164   1.172   1.175   1.185   1.188   1.194
  1.196   1.205   1.210   1.215   1.219   1.232   1.235   1.241
  1.244   1.254   1.256   1.262   1.271   1.280   1.293   1.297
  1.306   1.307   1.323   1.325   1.336   1.345   1.352   1.356
  1.360   1.366   1.371   1.374   1.379   1.384   1.385   1.392
  1.399   1.404   1.411   1.412   1.422   1.429   1.431   1.436
  1.443   1.446   1.449   1.456   1.465   1.472   1.477   1.485
  1.488   1.492   1.495   1.505   1.508   1.511   1.518   1.523
  1.543   1.556   1.565   1.568   1.569   1.578   1.585   1.592
  1.599   1.607   1.611   1.615   1.624   1.631   1.637   1.649
  1.651   1.659   1.666   1.669   1.673   1.682   1.687   1.694
  1.695   1.702   1.711   1.721   1.728   1.738   1.742   1.747
  1.753   1.759   1.767   1.768   1.789   1.790   1.798   1.809
  1.815   1.825   1.837   1.846   1.863   1.870   1.880   1.886
  1.890   1.894   1.909   1.914   1.921   1.928   1.937   1.942
  1.949   1.966   1.978   1.982   1.986   1.990   1.999   2.012
  2.014   2.021   2.029   2.037   2.042   2.053   2.058   2.071
  2.074   2.088   2.097   2.108   2.111   2.120   2.122   2.127
  2.138   2.155   2.162   2.171   2.174   2.178   2.185   2.189
  2.201   2.206   2.213   2.218   2.233   2.243   2.250   2.255
  2.262   2.266   2.279   2.289   2.292   2.296   2.303   2.312
  2.313   2.317   2.334   2.336   2.346   2.356   2.369   2.374
  2.378   2.386   2.398   2.401   2.406   2.411   2.418   2.429
  2.438   2.442   2.446   2.453   2.458   2.461   2.469   2.477
  2.483   2.492   2.503   2.514   2.517   2.523   2.527   2.530
  2.534   2.539   2.543   2.553   2.558   2.571   2.586   2.588
  2.612   2.618   2.622   2.628   2.637   2.646   2.649   2.651
  2.659   2.668   2.669   2.680   2.684   2.694   2.704   2.713
  2.723   2.733   2.739   2.749   2.755   2.773   2.774   2.776
  2.780   2.786   2.793   2.804   2.807   2.815   2.817   2.820
  2.826   2.837   2.841   2.847   2.854   2.856   2.868   2.874
  2.878   2.887   2.893   2.909   2.913   2.916   2.925   2.931
  2.939   2.942   2.946   2.950   2.956   2.965   2.970   2.982
  2.987   2.992   3.000   3.005   3.010   3.013   3.015   3.019
  3.027   3.031   3.036   3.041   3.050   3.055   3.059   3.066
  3.067   3.069   3.073   3.074   3.079   3.082   3.085   3.090
  3.093   3.098   3.106   3.108   3.113   3.118   3.122   3.124
  3.130   3.138   3.150   3.154   3.157   3.162   3.164   3.172
  3.173   3.180   3.183   3.193   3.194   3.196   3.201   3.205
  3.209   3.217   3.221   3.222   3.228   3.232   3.233   3.235
  3.241   3.250   3.251   3.254   3.259   3.263   3.265   3.271
  3.276   3.278   3.280   3.288   3.293   3.299   3.301   3.303
  3.308   3.309   3.316   3.321   3.325   3.330   3.332   3.340
  3.344   3.352   3.362   3.367   3.375   3.385   3.387   3.392
  3.393   3.404   3.407   3.410   3.415   3.422   3.427   3.433
  3.435   3.442   3.452   3.456   3.463   3.468   3.473   3.477
  3.480   3.487   3.489   3.492   3.503   3.506   3.514   3.522
  3.529   3.533   3.539   3.550   3.558   3.563   3.569   3.581
  3.588   3.593   3.608   3.612   3.617   3.628   3.637   3.639
  3.654   3.659   3.670   3.681   3.692   3.697   3.700   3.711
  3.716   3.721   3.728   3.733   3.736   3.747   3.751   3.756
  3.764   3.769   3.780   3.784   3.794   3.799   3.806   3.807
  3.818   3.824   3.827   3.840   3.844   3.857   3.868   3.875
  3.878   3.901   3.904   3.910   3.918   3.920   3.926   3.930
  3.933   3.936   3.941   3.945   3.952   3.961   3.966   3.969
  3.977   3.986   3.993   3.999   4.014   4.019   4.028   4.036
  4.050   4.053   4.059   4.072   4.079   4.082   4.090   4.094
  4.108   4.115   4.123   4.132   4.141   4.153   4.160   4.168
  4.181   4.188   4.192   4.201   4.206   4.214   4.217   4.222
  4.227   4.241   4.242   4.250   4.251   4.266   4.267   4.277
  4.290   4.297   4.298   4.309   4.317   4.320   4.327   4.340
  4.342   4.345   4.351   4.360   4.361   4.376   4.382   4.391
  4.394   4.409   4.417   4.424   4.435   4.441   4.450   4.463
  4.471   4.479   4.485   4.502   4.516   4.520   4.530   4.538
  4.544   4.552   4.562   4.566   4.577   4.590   4.596   4.601
  4.612   4.634   4.644   4.648   4.668   4.669   4.684   4.700
  4.708   4.719   4.722   4.749   4.755   4.767   4.773   4.779
  4.796   4.807   4.810   4.810   4.828   4.837   4.840   4.854
  4.860   4.877   4.879   4.894   4.902   4.914   4.919   4.928
  4.934   4.949   4.955   4.960   4.973   4.979   4.986   4.988
  4.994   5.001   5.008   5.011   5.026   5.035   5.040   5.049
  5.053   5.065   5.073   5.086   5.090   5.100   5.109   5.120
  5.130   5.140   5.146   5.154   5.163   5.167   5.182   5.197
  5.211   5.215   5.232   5.244   5.274   5.301   5.304   5.315
  5.323   5.333   5.349   5.364   5.372   5.387   5.402   5.422
  5.442   5.465   5.468   5.486   5.492   5.501   5.527   5.544
  5.561   5.573   5.575   5.591   5.593   5.598   5.623   5.646
  5.671   5.683   5.711   5.722   5.735   5.749   5.757   5.780
  5.790   5.831   5.837   5.857   5.872   5.884   5.898   5.922
  5.946   5.957   5.991   6.042   6.095   6.099   6.131   6.167
  6.196   6.238   6.245   6.288   6.293   6.324   6.377   6.431
  6.442   6.486   6.632   6.850   6.988   7.073   7.979   8.806
  9.818  10.138  10.640  11.067  11.247  11.706  11.988  12.011
 12.355  12.627  12.751  12.770  12.849  12.939  13.054  13.193
 13.309  13.429  13.531  13.774  14.293  14.615  15.042  15.070
 --------------------------------------------------------------
 
          Ground-State Mulliken Net Atomic Charges

     Atom                 Charge (a.u.)
  ----------------------------------------
      1 C                    -0.090978
      2 C                    -0.129586
      3 C                    -0.079511
      4 C                    -0.117942
      5 N                    -0.143875
      6 C                     0.080263
      7 C                     0.108753
      8 N                    -0.176245
      9 C                    -0.010868
     10 C                    -0.064975
     11 N                    -0.221272
     12 C                     0.032377
     13 C                     0.050813
     14 S                     0.409548
     15 N                    -0.284936
     16 C                    -0.078431
     17 S                     0.190278
     18 C                     0.033592
     19 C                    -0.049989
     20 N                    -0.154481
     21 C                     0.049273
     22 C                    -0.015051
     23 C                    -0.046703
     24 N                    -0.162906
     25 C                    -0.139719
     26 S                     0.100893
     27 C                    -0.050299
     28 C                    -0.156827
     29 C                    -0.181842
     30 H                     0.133244
     31 H                     0.120247
     32 H                     0.119638
     33 H                     0.138288
     34 H                     0.127131
     35 H                     0.131452
     36 H                     0.136395
     37 H                     0.127354
     38 H                     0.130378
     39 H                     0.136518
  ----------------------------------------
  Sum of atomic charges =     0.000000

 -----------------------------------------------------------------
                    Cartesian Multipole Moments
 -----------------------------------------------------------------
    Charge (ESU x 10^10)
                 0.0000
    Dipole Moment (Debye)
         X      -0.0334      Y       1.5725      Z       0.4077
       Tot       1.6248
    Quadrupole Moments (Debye-Ang)
        XX    -150.6737     XY       4.4676     YY    -167.6322
        XZ      -3.2085     YZ       3.0448     ZZ    -184.4520
    Octopole Moments (Debye-Ang^2)
       XXX     109.5794    XXY      10.6821    XYY     -25.5605
       YYY      39.1975    XXZ     -20.5776    XYZ     -34.6770
       YYZ      15.5938    XZZ      -5.0695    YZZ      -7.7787
       ZZZ      15.5468
    Hexadecapole Moments (Debye-Ang^3)
      XXXX  -15955.4750   XXXY     565.9556   XXYY   -3493.9122
      XYYY    -144.8126   YYYY   -3023.2689   XXXZ    -264.4244
      XXYZ     107.8280   XYYZ      -4.0356   YYYZ      57.6461
      XXZZ   -3485.4407   XYZZ     -21.6324   YYZZ    -676.1893
      XZZZ      49.0748   YZZZ     -15.8898   ZZZZ    -879.0280
 -----------------------------------------------------------------
 Calculating analytic gradient of the SCF energy
 K construction time:  CPU 2767.61 s  wall 175.50 s
 Gradient of SCF Energy
            1           2           3           4           5           6
    1   0.0003047  -0.0014933   0.0006580   0.0018868   0.0004669  -0.0020610
    2  -0.0001710  -0.0006166  -0.0000288   0.0001094  -0.0003567   0.0000481
    3   0.0000513   0.0002113  -0.0002400  -0.0002009   0.0002777   0.0002501
            7           8           9          10          11          12
    1   0.0027040  -0.0006594  -0.0010775   0.0041037  -0.0010628   0.0014926
    2   0.0001775  -0.0016643   0.0000796   0.0031899   0.0001629   0.0008077
    3  -0.0000549   0.0001137  -0.0004540  -0.0050862   0.0001919   0.0010651
           13          14          15          16          17          18
    1  -0.0087344   0.0006281   0.0026810   0.0089862  -0.0041516  -0.0020231
    2  -0.0011698  -0.0018727   0.0013241  -0.0033009  -0.0017458   0.0023491
    3   0.0029002   0.0010981  -0.0014293  -0.0022507  -0.0017519   0.0030904
           19          20          21          22          23          24
    1  -0.0004196  -0.0036967   0.0004309   0.0010697  -0.0026880   0.0000549
    2  -0.0008310   0.0000499   0.0027370   0.0016311   0.0001677  -0.0017228
    3  -0.0007168   0.0002535   0.0009793   0.0010649   0.0003448  -0.0005408
           25          26          27          28          29          30
    1  -0.0002425  -0.0000211   0.0015152  -0.0006909   0.0008549   0.0000171
    2   0.0002736  -0.0001816   0.0017247  -0.0002095  -0.0006470   0.0002980
    3   0.0003366  -0.0004146   0.0002483  -0.0001855  -0.0006273   0.0001843
           31          32          33          34          35          36
    1   0.0002679  -0.0003105  -0.0000673   0.0012339   0.0004426   0.0002310
    2   0.0004938   0.0001507   0.0000522  -0.0016984   0.0001255  -0.0003272
    3  -0.0002552   0.0001518  -0.0001668   0.0014786  -0.0005421  -0.0002535
           37          38          39
    1  -0.0003950   0.0001423  -0.0003778
    2  -0.0000617   0.0003805   0.0002723
    3   0.0002487   0.0005119   0.0001182
 Max gradient component =       8.986E-03
 RMS gradient           =       1.800E-03
 Gradient time:  CPU 3217.07 s  wall 206.15 s
 Geometry Optimization Parameters
   NAtoms,    NIC,     NZ,  NCons,   NDum,   NFix, NCnnct, MaxDiis
       39     293       0       3       0       0       0       0


** CONSTRAINED OPTIMIZATION IN DELOCALIZED INTERNAL COORDINATES **
   Searching for a Minimum

   Optimization Cycle:   1

                       Coordinates (Angstroms)
     ATOM                X               Y               Z
      1  C         7.6459417697    0.2721567988   -0.6869799400
      2  C         6.9483487780    1.4641295667   -0.7951677756
      3  C         6.9247343677   -0.8899903911   -0.4650693968
      4  C         5.5746264443    1.4472585919   -0.6699081248
      5  N         5.6042547229   -0.9209728250   -0.3388928496
      6  C         4.9397788321    0.2286830002   -0.4343094521
      7  C         3.4629316750    0.1932435304   -0.2934967502
      8  N         2.7889251152    1.1812679777   -0.8144677052
      9  C         2.7519011533   -0.8463546989    0.3921656266
     10  C         1.4377361006    1.2485595052   -0.7372460791
     11  N         3.2528571927   -1.9019972270    1.0371230498
     12  C         1.3230327078   -0.7745511778    0.4618497440
     13  C         0.6241321026    0.3234812567   -0.1256950095
     14  S         2.0038478164   -2.7093670010    1.6348080343
     15  N         0.7803709998   -1.7874025961    1.1344451669
     16  C        -0.8212412674    0.4745580296   -0.0569667199
     17  S        -1.9076181760   -0.8160467533   -0.3900091059
     18  C        -1.5655326834    1.6050828469    0.2811523110
     19  C        -3.3248232859    0.0957907635   -0.1277641960
     20  N        -1.0594567318    2.8232148988    0.6223426902
     21  C        -2.9794397036    1.3894250313    0.2445585519
     22  C        -4.6471965360   -0.4701297227   -0.2708679090
     23  C        -1.9316222033    3.7434083159    0.8961780298
     24  N        -3.8653154757    2.3790476384    0.5379075953
     25  C        -5.8112787330   -0.0405216994    0.3048648146
     26  S        -4.9411580280   -1.8569311297   -1.2705088167
     27  C        -3.3425398747    3.5240186595    0.8535648474
     28  C        -6.9296242652   -0.8330414323   -0.0479619547
     29  C        -6.6100452946   -1.8533565175   -0.8874466683
     30  H         8.7228917821    0.2415630732   -0.7721931769
     31  H         7.4701985921    2.3957189978   -0.9725314468
     32  H         7.4298483381   -1.8452471809   -0.3857076243
     33  H         4.9824928315    2.3457769694   -0.7513941610
     34  H         0.9982956630    2.1232041109   -1.1884941803
     35  H        -1.5515449922    4.7232005277    1.1654357975
     36  H        -5.8475622181    0.8212217660    0.9497611994
     37  H        -4.0211659426    4.3353064319    1.0935244861
     38  H        -7.9287696777   -0.6490461184    0.3165908423
     39  H        -7.2662014388   -2.5973870414   -1.3055628495
   Point Group: c1    Number of degrees of freedom:   111


   Energy is  -2291.148161050

              Constraints and their Current Values
                                        Value     Constraint
   Dihedral:        4   6   7   8       21.915       21.822
   Dihedral:       10  13  16  17      135.001      135.000
   Dihedral:       17  19  22  25      156.426      156.395

 Attempting to Generate Delocalized Internal Coordinates

   Using Lagrange Multiplier Algorithm


114 Hessian modes will be used to form the next step
  Hessian Eigenvalues:
    -0.977753   -0.977753   -0.977753    0.045000    0.045000    0.045000
     0.045000    0.045000    0.045000    0.045000    0.045000    0.045000
     0.045000    0.045000    0.045000    0.045000    0.045001    0.045001
     0.045001    0.045001    0.045001    0.045001    0.045001    0.045002
     0.045002    0.045002    0.045002    0.045003    0.045003    0.045004
     0.045004    0.045007    0.045008    0.045011    0.045025    0.045042
     0.159985    0.159992    0.159996    0.159998    0.159999    0.159999
     0.160000    0.160000    0.160000    0.160000    0.219998    0.221296
     0.223765    0.224234    0.233056    0.237962    0.243336    0.244277
     0.249685    0.249909    0.249932    0.249960    0.249971    0.249981
     0.249981    0.249983    0.249989    0.249990    0.249993    0.249993
     0.249995    0.312596    0.327544    0.334452    0.341192    0.341269
     0.354118    0.354472    0.355757    0.357029    0.359040    0.360703
     0.360954    0.362567    0.363660    0.364153    0.369052    0.372791
     0.376138    0.388431    0.390986    0.406991    0.407225    0.418671
     0.432515    0.440853    0.460521    0.465845    0.471161    0.473690
     0.482794    0.484038    0.485870    0.485956    0.504401    0.517481
     0.518997    0.525383    0.557629    0.572590    0.582389    0.589743
     0.639523    0.655130    0.663892    1.022753    1.022753    1.022753

 Minimum Search - Taking P-RFO Step
 Searching for Lamda that Maximizes Along the Constraint modes Only
 Value Taken    Lamda =   0.00001741
 Searching for Lamda that Minimizes Along All other modes
 Value Taken    Lamda =  -0.00125806
 Step Taken.  Stepsize is  0.092827

                             Maximum     Tolerance    Cnvgd?
         Gradient            0.006811       0.000300      NO
         Displacement        0.047040       0.001200      NO
         Energy change     *********       0.000001      NO


 New Cartesian Coordinates Obtained by Inverse Iteration

 Displacement from previous Coordinates is:  0.529996
 ----------------------------------------------------------------
             Standard Nuclear Orientation (Angstroms)
    I     Atom           X                Y                Z
 ----------------------------------------------------------------
    1      C       7.6169587720     0.2811646443    -0.7302033860
    2      C       6.9210782669     1.4767997209    -0.8054998859
    3      C       6.8984457050    -0.8827467266    -0.5090505977
    4      C       5.5488756524     1.4604256406    -0.6532089833
    5      N       5.5813412811    -0.9129073692    -0.3555038318
    6      C       4.9191155433     0.2393237252    -0.4209563359
    7      C       3.4435604480     0.2002169190    -0.2628621899
    8      N       2.7660427986     1.1950193137    -0.7671526923
    9      C       2.7459540795    -0.8510509230     0.4205753110
   10      C       1.4153585927     1.2489950420    -0.6830287047
   11      N       3.2555632585    -1.9113641918     1.0499639488
   12      C       1.3175326777    -0.7872490096     0.5017982011
   13      C       0.6217235049     0.3134921035    -0.0755838802
   14      S       2.0086261902    -2.7226429199     1.6484463124
   15      N       0.7746113314    -1.8048460455     1.1688963811
   16      C      -0.8230978272     0.4583163101    -0.0128745804
   17      S      -1.9011092303    -0.8283845998    -0.3512827895
   18      C      -1.5520620846     1.5935774834     0.2970318580
   19      C      -3.3181642807     0.0939178823    -0.1190928020
   20      N      -1.0182907514     2.8024565630     0.6285540163
   21      C      -2.9672113294     1.3901231669     0.2432146822
   22      C      -4.6409115792    -0.4722962135    -0.2761625728
   23      C      -1.8797725572     3.7367770868     0.8834449139
   24      N      -3.8388046162     2.3989755551     0.5147550593
   25      C      -5.8131753541    -0.0353942472     0.2773726591
   26      S      -4.9194562479    -1.8743664030    -1.2573163214
   27      C      -3.2958681311     3.5360941885     0.8245730213
   28      C      -6.9257704405    -0.8334143099    -0.0809565520
   29      C      -6.5936212464    -1.8661554099    -0.8990392540
   30      H       8.6915191642     0.2472371108    -0.8406860510
   31      H       7.4412587556     2.4089243604    -0.9795412095
   32      H       7.4043548842    -1.8398989925    -0.4568006497
   33      H       4.9562594286     2.3603380100    -0.7103378268
   34      H       0.9604546872     2.1218516301    -1.1311028572
   35      H      -1.4920827378     4.7131382993     1.1535101696
   36      H      -5.8606632460     0.8359204274     0.9095773026
   37      H      -3.9612114242     4.3626074075     1.0474413442
   38      H      -7.9317281770    -0.6471538149     0.2626509726
   39      H      -7.2406233042    -2.6188466392    -1.3159313044
 ----------------------------------------------------------------
 Molecular Point Group                 C1    NOp =  1
 Largest Abelian Subgroup              C1    NOp =  1
 Nuclear Repulsion Energy =  2927.1178745400 hartrees
 There are      110 alpha and      110 beta electrons
 Applying Cartesian multipole field
    Component          Value
    ---------          -----
     (2,0,0)        1.00000E-12
     (0,2,0)        2.00000E-11
     (0,0,2)       -3.00000E-11
 Nucleus-field energy     =     0.0000000471 hartrees
 Requested basis set is cc-pVTZ
 There are 356 shells and 1022 basis functions
 A cutoff of  1.0D-11 yielded  30962 shell pairs
 There are    244076 function pairs (    318461 Cartesian)
 Smallest overlap matrix eigenvalue = 2.90E-05
 Guess MOs from SCF MO coefficient file
 Reading MOs from coefficient file
 Reading MOs from coefficient file
 Long-range K will be added via erf
 Coulomb attenuation parameter = 0.2 bohr**(-1)
 A restricted hybrid HF-DFT SCF calculation will be
 performed using Pulay DIIS extrapolation
 Exchange:     0.2220 Hartree-Fock + 1.0000 wB97X-D + LR-HF
 Correlation:  1.0000 wB97X-D
 Using SG-2 standard quadrature grid
 Dispersion:   Grimme D
 SCF converges when DIIS error is below 1.0E-08
 Geometry optimization detected.  Setting ReadMinima to 0
 Setting SaveMinima to 0
 using 16 threads for integral computing 
 using 16 threads for integral computing 
 K construction time:  CPU 1109.42 s  wall 73.39 s
 -------------------------------------------------------
 OpenMP BLAS3 based DFT computing Module                
 Release: version 1.0, May 2013, Q-Chem Inc. Pittsburgh 
 -------------------------------------------------------
 ---------------------------------------
  Cycle       Energy         DIIS Error
 ---------------------------------------
    1   -2291.1440309311      2.99E-04
 K construction time:  CPU 1110.31 s  wall 73.38 s
    2   -2291.1485046097      3.20E-05
 K construction time:  CPU 834.37 s  wall 55.17 s
    3   -2291.1486703696      3.19E-05
 K construction time:  CPU 796.52 s  wall 52.64 s
    4   -2291.1487899147      1.25E-05
 K construction time:  CPU 739.69 s  wall 48.84 s
    5   -2291.1488141625      4.35E-06
 K construction time:  CPU 670.11 s  wall 44.27 s
    6   -2291.1488169816      1.99E-06
 K construction time:  CPU 609.75 s  wall 40.30 s
    7   -2291.1488175579      6.36E-07
 K construction time:  CPU 567.32 s  wall 37.41 s
    8   -2291.1488176433      2.95E-07
 K construction time:  CPU 523.86 s  wall 34.52 s
    9   -2291.1488176670      1.35E-07
 K construction time:  CPU 464.70 s  wall 30.65 s
   10   -2291.1488176724      5.18E-08
 K construction time:  CPU 429.60 s  wall 28.18 s
   11   -2291.1488176729      2.90E-08
 K construction time:  CPU 382.78 s  wall 25.15 s
   12   -2291.1488176734      9.95E-09 Convergence criterion met
 ---------------------------------------
 SCF time:  CPU 11094.09 s  wall 751.44 s
 SCF   energy in the final basis set = -2291.1488176734
 Total energy in the final basis set = -2291.1488176734
 
 --------------------------------------------------------------
 
                    Orbital Energies (a.u.)
 --------------------------------------------------------------
 
 Alpha MOs
 -- Occupied --
-89.145 -89.100 -89.079 -14.482 -14.479 -14.461 -14.461 -14.447
-14.435 -10.355 -10.355 -10.351 -10.345 -10.343 -10.342 -10.339
-10.338 -10.337 -10.337 -10.334 -10.332 -10.328 -10.324 -10.319
-10.310 -10.302 -10.299 -10.295 -10.293  -8.156  -8.115  -8.095
 -6.106  -6.100  -6.100  -6.064  -6.060  -6.058  -6.044  -6.040
 -6.038  -1.143  -1.100  -1.070  -1.050  -1.029  -1.013  -1.004
 -0.987  -0.926  -0.913  -0.897  -0.879  -0.868  -0.854  -0.838
 -0.812  -0.777  -0.771  -0.748  -0.739  -0.731  -0.718  -0.711
 -0.672  -0.655  -0.647  -0.630  -0.629  -0.621  -0.606  -0.603
 -0.590  -0.576  -0.569  -0.561  -0.559  -0.545  -0.543  -0.526
 -0.512  -0.506  -0.502  -0.501  -0.494  -0.492  -0.486  -0.482
 -0.473  -0.468  -0.460  -0.457  -0.450  -0.440  -0.428  -0.426
 -0.421  -0.412  -0.398  -0.376  -0.370  -0.363  -0.358  -0.350
 -0.342  -0.339  -0.336  -0.334  -0.317  -0.269
 -- Virtual --
 -0.048  -0.029   0.025   0.031   0.041   0.055   0.067   0.072
  0.086   0.087   0.106   0.123   0.125   0.128   0.132   0.137
  0.148   0.151   0.153   0.159   0.164   0.175   0.178   0.191
  0.196   0.201   0.211   0.216   0.220   0.229   0.243   0.248
  0.257   0.265   0.268   0.271   0.278   0.289   0.291   0.297
  0.299   0.300   0.309   0.316   0.318   0.320   0.321   0.329
  0.331   0.335   0.342   0.346   0.347   0.350   0.354   0.357
  0.363   0.367   0.372   0.375   0.378   0.382   0.383   0.390
  0.393   0.396   0.397   0.402   0.404   0.407   0.410   0.412
  0.416   0.418   0.425   0.428   0.431   0.433   0.435   0.440
  0.443   0.447   0.451   0.454   0.458   0.460   0.462   0.463
  0.468   0.472   0.474   0.477   0.480   0.483   0.489   0.490
  0.494   0.496   0.499   0.506   0.508   0.512   0.517   0.519
  0.523   0.529   0.531   0.536   0.539   0.541   0.547   0.551
  0.553   0.561   0.566   0.571   0.577   0.582   0.589   0.601
  0.602   0.608   0.611   0.611   0.618   0.622   0.628   0.636
  0.639   0.641   0.649   0.657   0.660   0.661   0.664   0.666
  0.680   0.681   0.685   0.690   0.698   0.705   0.708   0.711
  0.723   0.727   0.729   0.734   0.736   0.738   0.744   0.744
  0.754   0.763   0.769   0.771   0.773   0.777   0.781   0.787
  0.792   0.796   0.800   0.802   0.811   0.815   0.815   0.825
  0.829   0.832   0.838   0.842   0.844   0.847   0.849   0.857
  0.859   0.868   0.871   0.877   0.881   0.883   0.896   0.898
  0.902   0.912   0.915   0.923   0.925   0.926   0.934   0.936
  0.939   0.942   0.950   0.955   0.959   0.961   0.964   0.969
  0.981   0.982   0.986   0.991   0.994   1.006   1.009   1.017
  1.022   1.023   1.028   1.035   1.042   1.048   1.055   1.057
  1.063   1.068   1.078   1.083   1.086   1.091   1.095   1.096
  1.103   1.110   1.111   1.114   1.122   1.128   1.135   1.140
  1.146   1.149   1.165   1.171   1.177   1.183   1.190   1.195
  1.196   1.206   1.210   1.216   1.220   1.232   1.235   1.242
  1.246   1.255   1.257   1.263   1.272   1.280   1.293   1.297
  1.306   1.308   1.323   1.326   1.337   1.345   1.352   1.358
  1.361   1.367   1.371   1.374   1.379   1.385   1.386   1.391
  1.399   1.405   1.410   1.412   1.422   1.428   1.432   1.436
  1.443   1.446   1.449   1.455   1.465   1.474   1.477   1.485
  1.489   1.493   1.496   1.505   1.507   1.511   1.518   1.524
  1.546   1.557   1.565   1.568   1.571   1.579   1.585   1.592
  1.601   1.607   1.610   1.617   1.624   1.631   1.636   1.650
  1.654   1.659   1.666   1.669   1.674   1.683   1.687   1.694
  1.697   1.703   1.711   1.723   1.730   1.739   1.744   1.746
  1.754   1.760   1.767   1.771   1.789   1.791   1.800   1.811
  1.817   1.826   1.838   1.847   1.864   1.871   1.882   1.888
  1.890   1.894   1.908   1.914   1.924   1.930   1.938   1.943
  1.949   1.967   1.980   1.982   1.988   1.991   2.000   2.012
  2.015   2.020   2.029   2.038   2.041   2.054   2.058   2.071
  2.074   2.088   2.099   2.108   2.112   2.120   2.121   2.127
  2.139   2.155   2.163   2.169   2.173   2.178   2.186   2.190
  2.201   2.207   2.213   2.219   2.234   2.243   2.251   2.257
  2.261   2.267   2.279   2.291   2.292   2.297   2.303   2.311
  2.313   2.318   2.333   2.336   2.346   2.357   2.370   2.372
  2.379   2.386   2.397   2.400   2.407   2.411   2.417   2.429
  2.440   2.442   2.445   2.454   2.458   2.462   2.471   2.479
  2.485   2.492   2.506   2.516   2.518   2.524   2.528   2.531
  2.535   2.540   2.542   2.554   2.557   2.572   2.586   2.590
  2.611   2.617   2.623   2.629   2.638   2.646   2.650   2.654
  2.660   2.668   2.671   2.680   2.685   2.695   2.706   2.714
  2.723   2.734   2.738   2.751   2.757   2.773   2.776   2.777
  2.781   2.786   2.792   2.804   2.808   2.816   2.817   2.823
  2.827   2.836   2.840   2.847   2.854   2.857   2.869   2.875
  2.879   2.889   2.894   2.909   2.914   2.917   2.926   2.932
  2.940   2.941   2.948   2.950   2.957   2.966   2.970   2.984
  2.987   2.994   3.001   3.006   3.010   3.013   3.016   3.019
  3.027   3.033   3.039   3.043   3.051   3.056   3.059   3.066
  3.068   3.070   3.073   3.075   3.080   3.083   3.086   3.091
  3.093   3.099   3.105   3.109   3.114   3.119   3.122   3.126
  3.132   3.140   3.150   3.155   3.158   3.163   3.165   3.172
  3.174   3.180   3.186   3.194   3.195   3.198   3.203   3.206
  3.211   3.219   3.222   3.222   3.228   3.233   3.235   3.235
  3.240   3.250   3.253   3.255   3.260   3.264   3.265   3.274
  3.276   3.277   3.282   3.289   3.293   3.300   3.301   3.304
  3.309   3.312   3.317   3.322   3.326   3.330   3.333   3.341
  3.346   3.353   3.361   3.368   3.378   3.385   3.388   3.394
  3.396   3.405   3.408   3.411   3.417   3.422   3.425   3.433
  3.437   3.443   3.453   3.456   3.464   3.469   3.472   3.479
  3.480   3.487   3.490   3.492   3.502   3.507   3.515   3.523
  3.529   3.532   3.539   3.550   3.561   3.563   3.571   3.581
  3.591   3.594   3.610   3.614   3.619   3.630   3.637   3.640
  3.656   3.660   3.672   3.684   3.692   3.698   3.701   3.711
  3.716   3.722   3.729   3.734   3.738   3.748   3.751   3.756
  3.765   3.770   3.782   3.786   3.796   3.800   3.804   3.808
  3.821   3.826   3.828   3.841   3.844   3.857   3.870   3.877
  3.880   3.901   3.904   3.907   3.918   3.921   3.927   3.932
  3.933   3.936   3.943   3.947   3.952   3.961   3.968   3.973
  3.980   3.988   3.992   4.000   4.016   4.021   4.031   4.035
  4.052   4.056   4.062   4.073   4.080   4.086   4.094   4.095
  4.110   4.116   4.127   4.137   4.143   4.155   4.162   4.169
  4.183   4.192   4.194   4.204   4.208   4.212   4.219   4.223
  4.227   4.241   4.244   4.251   4.256   4.265   4.269   4.279
  4.289   4.297   4.303   4.309   4.319   4.322   4.328   4.341
  4.344   4.348   4.352   4.361   4.362   4.377   4.384   4.393
  4.396   4.412   4.420   4.425   4.436   4.442   4.451   4.465
  4.471   4.479   4.486   4.503   4.517   4.520   4.534   4.539
  4.544   4.553   4.561   4.565   4.580   4.589   4.596   4.602
  4.613   4.637   4.645   4.649   4.667   4.671   4.685   4.702
  4.712   4.722   4.725   4.750   4.758   4.766   4.773   4.780
  4.798   4.807   4.811   4.813   4.827   4.836   4.840   4.853
  4.860   4.880   4.883   4.895   4.907   4.915   4.917   4.928
  4.936   4.950   4.954   4.961   4.972   4.979   4.987   4.989
  4.996   5.002   5.008   5.012   5.026   5.037   5.042   5.051
  5.051   5.069   5.072   5.085   5.091   5.102   5.110   5.121
  5.132   5.140   5.148   5.153   5.164   5.168   5.182   5.196
  5.211   5.219   5.231   5.249   5.275   5.299   5.305   5.316
  5.324   5.337   5.351   5.364   5.373   5.388   5.406   5.423
  5.444   5.465   5.470   5.486   5.493   5.501   5.525   5.542
  5.560   5.574   5.578   5.594   5.595   5.597   5.626   5.647
  5.670   5.684   5.710   5.721   5.734   5.748   5.758   5.780
  5.794   5.833   5.837   5.859   5.870   5.882   5.901   5.924
  5.949   5.958   5.993   6.045   6.093   6.107   6.135   6.170
  6.199   6.239   6.246   6.290   6.298   6.324   6.379   6.431
  6.444   6.489   6.639   6.857   6.984   7.074   7.984   8.852
  9.825  10.142  10.647  11.072  11.242  11.716  11.995  12.012
 12.359  12.632  12.762  12.781  12.854  12.952  13.054  13.297
 13.346  13.444  13.534  13.879  14.286  14.674  15.058  15.075
 --------------------------------------------------------------
 
          Ground-State Mulliken Net Atomic Charges

     Atom                 Charge (a.u.)
  ----------------------------------------
      1 C                    -0.091080
      2 C                    -0.129603
      3 C                    -0.079626
      4 C                    -0.118679
      5 N                    -0.144326
      6 C                     0.081757
      7 C                     0.107059
      8 N                    -0.175697
      9 C                    -0.012804
     10 C                    -0.066372
     11 N                    -0.219598
     12 C                     0.032122
     13 C                     0.058311
     14 S                     0.408254
     15 N                    -0.284922
     16 C                    -0.071478
     17 S                     0.189575
     18 C                     0.036512
     19 C                    -0.053580
     20 N                    -0.156248
     21 C                     0.043425
     22 C                    -0.015092
     23 C                    -0.046895
     24 N                    -0.161961
     25 C                    -0.140289
     26 S                     0.100634
     27 C                    -0.050508
     28 C                    -0.156917
     29 C                    -0.181823
     30 H                     0.133138
     31 H                     0.120454
     32 H                     0.119291
     33 H                     0.138131
     34 H                     0.126192
     35 H                     0.131290
     36 H                     0.136441
     37 H                     0.127978
     38 H                     0.130421
     39 H                     0.136513
  ----------------------------------------
  Sum of atomic charges =     0.000000

 -----------------------------------------------------------------
                    Cartesian Multipole Moments
 -----------------------------------------------------------------
    Charge (ESU x 10^10)
                 0.0000
    Dipole Moment (Debye)
         X      -0.0038      Y       1.5920      Z       0.3536
       Tot       1.6308
    Quadrupole Moments (Debye-Ang)
        XX    -151.3304     XY       4.6515     YY    -167.4329
        XZ      -3.2755     YZ       3.0982     ZZ    -184.5297
    Octopole Moments (Debye-Ang^2)
       XXX     106.1769    XXY       9.6888    XYY     -25.2417
       YYY      41.6760    XXZ     -25.9920    XYZ     -33.7763
       YYZ      13.4860    XZZ      -4.0974    YZZ      -7.4004
       ZZZ      10.9471
    Hexadecapole Moments (Debye-Ang^3)
      XXXX  -15871.1383   XXXY     551.4191   XXYY   -3478.7057
      XYYY    -152.6943   YYYY   -3038.2684   XXXZ    -285.6707
      XXYZ     110.7902   XYYZ      -3.9735   YYYZ      62.4882
      XXZZ   -3461.2509   XYZZ     -25.6523   YYZZ    -680.9784
      XZZZ      41.6666   YZZZ     -11.4023   ZZZZ    -877.3769
 -----------------------------------------------------------------
 Calculating analytic gradient of the SCF energy
 K construction time:  CPU 2788.49 s  wall 176.65 s
 Gradient of SCF Energy
            1           2           3           4           5           6
    1   0.0000504  -0.0002698   0.0000993   0.0002341   0.0000320  -0.0004655
    2  -0.0002509   0.0000891   0.0001730   0.0000909   0.0000082   0.0001746
    3   0.0000012   0.0001065   0.0000279  -0.0005511   0.0001152   0.0007583
            7           8           9          10          11          12
    1   0.0008762  -0.0008763   0.0003231   0.0011267   0.0005264   0.0004100
    2  -0.0003843  -0.0001320  -0.0008962  -0.0013135   0.0004886  -0.0010437
    3  -0.0005956   0.0001254   0.0006172  -0.0019890  -0.0004850   0.0018678
           13          14          15          16          17          18
    1  -0.0026709  -0.0003739  -0.0007729   0.0024728  -0.0017138  -0.0001056
    2   0.0010939   0.0016482   0.0001018   0.0012454   0.0001678   0.0006281
    3   0.0019827  -0.0009114  -0.0003298  -0.0001509  -0.0016312   0.0020853
           19          20          21          22          23          24
    1   0.0003865  -0.0002854   0.0006186   0.0001704  -0.0008188   0.0004843
    2  -0.0018326  -0.0009065   0.0016105   0.0006270  -0.0002520  -0.0014246
    3  -0.0006694  -0.0006077   0.0006698   0.0001075  -0.0000151  -0.0006058
           25          26          27          28          29          30
    1  -0.0003110  -0.0002355   0.0011582  -0.0001279   0.0004216   0.0000019
    2  -0.0003197  -0.0001208   0.0008851  -0.0001039  -0.0001065   0.0000962
    3   0.0004513  -0.0001613   0.0001879  -0.0003395  -0.0001380   0.0001268
           31          32          33          34          35          36
    1  -0.0000069  -0.0001034  -0.0000881  -0.0002808   0.0003652  -0.0000749
    2  -0.0000047  -0.0000610   0.0000070   0.0003723  -0.0000511  -0.0001971
    3  -0.0001180  -0.0000151  -0.0001015   0.0002012  -0.0002709  -0.0000825
           37          38          39
    1  -0.0001177   0.0001067  -0.0001655
    2  -0.0002447   0.0000348   0.0001035
    3   0.0000837   0.0002336   0.0000192
 Max gradient component =       2.671E-03
 RMS gradient           =       7.634E-04
 Gradient time:  CPU 3243.64 s  wall 207.48 s
 Geometry Optimization Parameters
   NAtoms,    NIC,     NZ,  NCons,   NDum,   NFix, NCnnct, MaxDiis
       39     293       0       3       0       0       0       0

 Cartesian Hessian Update
 Hessian Updated using BFGS Update


** CONSTRAINED OPTIMIZATION IN DELOCALIZED INTERNAL COORDINATES **
   Searching for a Minimum

   Optimization Cycle:   2

                       Coordinates (Angstroms)
     ATOM                X               Y               Z
      1  C         7.6169587720    0.2811646443   -0.7302033860
      2  C         6.9210782669    1.4767997209   -0.8054998859
      3  C         6.8984457050   -0.8827467266   -0.5090505977
      4  C         5.5488756524    1.4604256406   -0.6532089833
      5  N         5.5813412811   -0.9129073692   -0.3555038318
      6  C         4.9191155433    0.2393237252   -0.4209563359
      7  C         3.4435604480    0.2002169190   -0.2628621899
      8  N         2.7660427986    1.1950193137   -0.7671526923
      9  C         2.7459540795   -0.8510509230    0.4205753110
     10  C         1.4153585927    1.2489950420   -0.6830287047
     11  N         3.2555632585   -1.9113641918    1.0499639488
     12  C         1.3175326777   -0.7872490096    0.5017982011
     13  C         0.6217235049    0.3134921035   -0.0755838802
     14  S         2.0086261902   -2.7226429199    1.6484463124
     15  N         0.7746113314   -1.8048460455    1.1688963811
     16  C        -0.8230978272    0.4583163101   -0.0128745804
     17  S        -1.9011092303   -0.8283845998   -0.3512827895
     18  C        -1.5520620846    1.5935774834    0.2970318580
     19  C        -3.3181642807    0.0939178823   -0.1190928020
     20  N        -1.0182907514    2.8024565630    0.6285540163
     21  C        -2.9672113294    1.3901231669    0.2432146822
     22  C        -4.6409115792   -0.4722962135   -0.2761625728
     23  C        -1.8797725572    3.7367770868    0.8834449139
     24  N        -3.8388046162    2.3989755551    0.5147550593
     25  C        -5.8131753541   -0.0353942472    0.2773726591
     26  S        -4.9194562479   -1.8743664030   -1.2573163214
     27  C        -3.2958681311    3.5360941885    0.8245730213
     28  C        -6.9257704405   -0.8334143099   -0.0809565520
     29  C        -6.5936212464   -1.8661554099   -0.8990392540
     30  H         8.6915191642    0.2472371108   -0.8406860510
     31  H         7.4412587556    2.4089243604   -0.9795412095
     32  H         7.4043548842   -1.8398989925   -0.4568006497
     33  H         4.9562594286    2.3603380100   -0.7103378268
     34  H         0.9604546872    2.1218516301   -1.1311028572
     35  H        -1.4920827378    4.7131382993    1.1535101696
     36  H        -5.8606632460    0.8359204274    0.9095773026
     37  H        -3.9612114242    4.3626074075    1.0474413442
     38  H        -7.9317281770   -0.6471538149    0.2626509726
     39  H        -7.2406233042   -2.6188466392   -1.3159313044
   Point Group: c1    Number of degrees of freedom:   111


   Energy is  -2291.148817673

              Constraints and their Current Values
                                        Value     Constraint
   Dihedral:        4   6   7   8       21.822       21.822
   Dihedral:       10  13  16  17      135.000      135.000
   Dihedral:       17  19  22  25      156.395      156.395
 Hessian Updated using BFGS Update

   Using Lagrange Multiplier Algorithm


110 Hessian modes will be used to form the next step
  Hessian Eigenvalues:
    -0.977753    0.035029    0.045000    0.045000    0.045000    0.045000
     0.045000    0.045000    0.045000    0.045000    0.045000    0.045000
     0.045000    0.045000    0.045001    0.045001    0.045001    0.045001
     0.045001    0.045001    0.045001    0.045002    0.045002    0.045002
     0.045002    0.045003    0.045004    0.045004    0.045006    0.045008
     0.045010    0.045025    0.045039    0.045309    0.158235    0.159990
     0.159994    0.159996    0.159999    0.160000    0.160000    0.160000
     0.160000    0.160187    0.219966    0.221301    0.223660    0.224197
     0.230528    0.236168    0.238489    0.244073    0.244548    0.249704
     0.249910    0.249947    0.249962    0.249975    0.249983    0.249985
     0.249989    0.249992    0.249993    0.249994    0.286490    0.312230
     0.320385    0.334608    0.338980    0.341393    0.354115    0.354499
     0.355756    0.357004    0.359040    0.360704    0.360945    0.362682
     0.363667    0.364154    0.369614    0.372684    0.382138    0.389040
     0.393429    0.405474    0.407508    0.418671    0.432508    0.459405
     0.460980    0.467993    0.473508    0.473852    0.482640    0.485492
     0.485737    0.492002    0.505562    0.518940    0.524029    0.534928
     0.561154    0.572714    0.589738    0.591398    0.639536    0.658544
     0.664170    1.022754

 Minimum Search - Taking P-RFO Step
 Searching for Lamda that Maximizes Along the Constraint modes Only
 Value Taken    Lamda =   0.00000000
 Searching for Lamda that Minimizes Along All other modes
 Value Taken    Lamda =  -0.00022527
 Step Taken.  Stepsize is  0.065916

                             Maximum     Tolerance    Cnvgd?
         Gradient            0.001987       0.000300      NO
         Displacement        0.036175       0.001200      NO
         Energy change     -0.000657       0.000001      NO


 New Cartesian Coordinates Obtained by Inverse Iteration

 Displacement from previous Coordinates is:  0.312364
 ----------------------------------------------------------------
             Standard Nuclear Orientation (Angstroms)
    I     Atom           X                Y                Z
 ----------------------------------------------------------------
    1      C       7.6115289102     0.2751623623    -0.7611684575
    2      C       6.9212575558     1.4752078023    -0.8109219073
    3      C       6.8903182007    -0.8878661266    -0.5439500436
    4      C       5.5506638373     1.4636011357    -0.6405837566
    5      N       5.5754149629    -0.9132655177    -0.3723209830
    6      C       4.9183653414     0.2429339707    -0.4146035410
    7      C       3.4429529389     0.2064760003    -0.2456087095
    8      N       2.7637636350     1.2074504927    -0.7355703896
    9      C       2.7507456502    -0.8508353114     0.4337528104
   10      C       1.4124071796     1.2568055699    -0.6466646454
   11      N       3.2638294739    -1.9173155429     1.0522052788
   12      C       1.3239333326    -0.7883534888     0.5242320125
   13      C       0.6258252437     0.3156388632    -0.0414586208
   14      S       2.0235683230    -2.7368160327     1.6539173283
   15      N       0.7878420066    -1.8128068611     1.1886515542
   16      C      -0.8228885704     0.4535144466     0.0206284324
   17      S      -1.8935375953    -0.8346714752    -0.3200741078
   18      C      -1.5543713386     1.5916536446     0.3097196408
   19      C      -3.3150797091     0.0911250087    -0.1152064857
   20      N      -1.0224513318     2.8029743440     0.6414073376
   21      C      -2.9697427262     1.3890621617     0.2397317601
   22      C      -4.6368838934    -0.4749157559    -0.2807077215
   23      C      -1.8870243519     3.7388686563     0.8805377424
   24      N      -3.8444870413     2.4014851460     0.4940290437
   25      C      -5.8121092669    -0.0263752967     0.2563110747
   26      S      -4.9095410611    -1.8905923899    -1.2424480404
   27      C      -3.3036943045     3.5389115160     0.8034706450
   28      C      -6.9239322622    -0.8262515126    -0.1002703539
   29      C      -6.5871053844    -1.8724714724    -0.8990261444
   30      H       8.6840753484     0.2361301670    -0.8884843497
   31      H       7.4439103179     2.4067710734    -0.9794005324
   32      H       7.3929342381    -1.8476849707    -0.5111700362
   33      H       4.9621875161     2.3670947422    -0.6785199643
   34      H       0.9533575366     2.1289265867    -1.0921929168
   35      H      -1.5055706659     4.7166159602     1.1541967307
   36      H      -5.8620277799     0.8550513719     0.8748855404
   37      H      -3.9691856396     4.3691049139     1.0122027031
   38      H      -7.9333683763    -0.6325877459     0.2287414268
   39      H      -7.2308697935    -2.6307816601    -1.3106384599
 ----------------------------------------------------------------
 Molecular Point Group                 C1    NOp =  1
 Largest Abelian Subgroup              C1    NOp =  1
 Nuclear Repulsion Energy =  2926.7022507827 hartrees
 There are      110 alpha and      110 beta electrons
 Applying Cartesian multipole field
    Component          Value
    ---------          -----
     (2,0,0)        1.00000E-12
     (0,2,0)        2.00000E-11
     (0,0,2)       -3.00000E-11
 Nucleus-field energy     =     0.0000000474 hartrees
 Requested basis set is cc-pVTZ
 There are 356 shells and 1022 basis functions
 A cutoff of  1.0D-11 yielded  30970 shell pairs
 There are    244190 function pairs (    318612 Cartesian)
 Smallest overlap matrix eigenvalue = 2.89E-05
 Guess MOs from SCF MO coefficient file
 Reading MOs from coefficient file
 Reading MOs from coefficient file
 Long-range K will be added via erf
 Coulomb attenuation parameter = 0.2 bohr**(-1)
 A restricted hybrid HF-DFT SCF calculation will be
 performed using Pulay DIIS extrapolation
 Exchange:     0.2220 Hartree-Fock + 1.0000 wB97X-D + LR-HF
 Correlation:  1.0000 wB97X-D
 Using SG-2 standard quadrature grid
 Dispersion:   Grimme D
 SCF converges when DIIS error is below 1.0E-08
 Geometry optimization detected.  Setting ReadMinima to 0
 Setting SaveMinima to 0
 using 16 threads for integral computing 
 using 16 threads for integral computing 
 K construction time:  CPU 1108.51 s  wall 73.32 s
 -------------------------------------------------------
 OpenMP BLAS3 based DFT computing Module                
 Release: version 1.0, May 2013, Q-Chem Inc. Pittsburgh 
 -------------------------------------------------------
 ---------------------------------------
  Cycle       Energy         DIIS Error
 ---------------------------------------
    1   -2291.1430847534      2.13E-04
 K construction time:  CPU 1107.81 s  wall 73.21 s
    2   -2291.1487935189      2.14E-05
 K construction time:  CPU 798.38 s  wall 52.83 s
    3   -2291.1489219796      1.52E-05
 K construction time:  CPU 752.91 s  wall 49.78 s
    4   -2291.1489460021      9.34E-06
 K construction time:  CPU 717.70 s  wall 47.44 s
    5   -2291.1489583753      3.70E-06
 K construction time:  CPU 652.78 s  wall 43.17 s
    6   -2291.1489603673      1.28E-06
 K construction time:  CPU 580.36 s  wall 38.39 s
    7   -2291.1489606169      3.32E-07
 K construction time:  CPU 535.44 s  wall 35.37 s
    8   -2291.1489606497      2.03E-07
 K construction time:  CPU 488.28 s  wall 32.13 s
    9   -2291.1489606596      8.47E-08
 K construction time:  CPU 435.96 s  wall 28.58 s
   10   -2291.1489606612      3.05E-08
 K construction time:  CPU 392.44 s  wall 25.83 s
   11   -2291.1489606591      1.83E-08
 K construction time:  CPU 344.87 s  wall 22.54 s
   12   -2291.1489606615      5.85E-09 Convergence criterion met
 ---------------------------------------
 SCF time:  CPU 10697.40 s  wall 725.32 s
 SCF   energy in the final basis set = -2291.1489606615
 Total energy in the final basis set = -2291.1489606615
 
 --------------------------------------------------------------
 
                    Orbital Energies (a.u.)
 --------------------------------------------------------------
 
 Alpha MOs
 -- Occupied --
-89.146 -89.100 -89.079 -14.482 -14.479 -14.461 -14.461 -14.447
-14.435 -10.355 -10.355 -10.351 -10.345 -10.344 -10.343 -10.339
-10.338 -10.337 -10.337 -10.334 -10.332 -10.328 -10.324 -10.319
-10.310 -10.302 -10.299 -10.295 -10.293  -8.156  -8.115  -8.095
 -6.106  -6.100  -6.100  -6.064  -6.060  -6.058  -6.044  -6.040
 -6.037  -1.142  -1.100  -1.070  -1.050  -1.029  -1.013  -1.003
 -0.987  -0.926  -0.913  -0.897  -0.879  -0.868  -0.854  -0.838
 -0.812  -0.777  -0.771  -0.748  -0.739  -0.730  -0.718  -0.711
 -0.671  -0.655  -0.647  -0.629  -0.629  -0.621  -0.606  -0.603
 -0.590  -0.576  -0.569  -0.561  -0.559  -0.545  -0.543  -0.526
 -0.512  -0.506  -0.502  -0.501  -0.494  -0.492  -0.485  -0.482
 -0.473  -0.468  -0.460  -0.457  -0.450  -0.440  -0.428  -0.426
 -0.421  -0.413  -0.397  -0.376  -0.371  -0.363  -0.359  -0.350
 -0.342  -0.339  -0.336  -0.334  -0.317  -0.269
 -- Virtual --
 -0.048  -0.029   0.025   0.031   0.041   0.054   0.067   0.072
  0.086   0.086   0.106   0.123   0.125   0.128   0.132   0.137
  0.148   0.151   0.153   0.159   0.164   0.175   0.178   0.191
  0.196   0.201   0.211   0.216   0.220   0.229   0.243   0.248
  0.257   0.265   0.268   0.271   0.278   0.289   0.291   0.297
  0.299   0.300   0.309   0.316   0.318   0.320   0.321   0.329
  0.331   0.335   0.342   0.346   0.347   0.350   0.354   0.357
  0.363   0.367   0.372   0.375   0.378   0.382   0.383   0.390
  0.393   0.396   0.397   0.402   0.404   0.407   0.410   0.412
  0.416   0.418   0.426   0.429   0.431   0.433   0.435   0.440
  0.443   0.447   0.451   0.455   0.458   0.460   0.462   0.463
  0.468   0.472   0.474   0.477   0.480   0.483   0.490   0.490
  0.494   0.496   0.499   0.507   0.508   0.512   0.517   0.519
  0.523   0.530   0.531   0.536   0.538   0.540   0.547   0.551
  0.553   0.561   0.566   0.571   0.577   0.583   0.589   0.601
  0.602   0.608   0.611   0.611   0.619   0.622   0.629   0.636
  0.639   0.641   0.649   0.657   0.660   0.661   0.664   0.666
  0.679   0.682   0.685   0.691   0.699   0.704   0.708   0.711
  0.723   0.727   0.730   0.735   0.736   0.739   0.743   0.744
  0.753   0.763   0.769   0.771   0.773   0.776   0.781   0.787
  0.792   0.796   0.800   0.802   0.810   0.815   0.816   0.825
  0.829   0.833   0.838   0.842   0.844   0.847   0.849   0.857
  0.859   0.868   0.871   0.877   0.881   0.883   0.896   0.898
  0.902   0.913   0.915   0.922   0.925   0.926   0.934   0.936
  0.939   0.943   0.951   0.954   0.959   0.961   0.964   0.970
  0.981   0.982   0.986   0.991   0.993   1.006   1.010   1.017
  1.022   1.023   1.028   1.035   1.042   1.048   1.055   1.058
  1.063   1.069   1.078   1.083   1.087   1.091   1.095   1.096
  1.104   1.110   1.111   1.114   1.122   1.129   1.135   1.140
  1.146   1.149   1.165   1.171   1.177   1.183   1.190   1.195
  1.197   1.206   1.210   1.215   1.220   1.232   1.236   1.243
  1.246   1.256   1.257   1.264   1.272   1.280   1.293   1.297
  1.305   1.308   1.322   1.326   1.337   1.345   1.352   1.358
  1.361   1.367   1.370   1.374   1.379   1.385   1.386   1.390
  1.399   1.405   1.410   1.413   1.422   1.429   1.432   1.436
  1.443   1.446   1.449   1.456   1.465   1.474   1.478   1.485
  1.489   1.493   1.496   1.505   1.508   1.510   1.518   1.524
  1.547   1.557   1.564   1.567   1.571   1.579   1.585   1.591
  1.601   1.607   1.610   1.618   1.624   1.631   1.635   1.650
  1.654   1.659   1.665   1.669   1.673   1.684   1.687   1.694
  1.697   1.703   1.710   1.723   1.729   1.739   1.744   1.746
  1.755   1.759   1.767   1.770   1.789   1.791   1.800   1.810
  1.816   1.826   1.837   1.846   1.864   1.871   1.882   1.887
  1.890   1.895   1.908   1.914   1.924   1.930   1.938   1.942
  1.948   1.967   1.980   1.982   1.988   1.991   2.000   2.011
  2.015   2.020   2.029   2.037   2.041   2.054   2.058   2.072
  2.074   2.089   2.098   2.107   2.112   2.119   2.121   2.127
  2.139   2.155   2.164   2.168   2.173   2.178   2.186   2.190
  2.200   2.207   2.213   2.219   2.234   2.243   2.252   2.257
  2.261   2.268   2.278   2.291   2.292   2.298   2.303   2.310
  2.314   2.319   2.333   2.335   2.345   2.358   2.370   2.370
  2.379   2.385   2.397   2.400   2.407   2.411   2.418   2.429
  2.440   2.442   2.445   2.453   2.458   2.462   2.471   2.479
  2.485   2.492   2.507   2.516   2.518   2.524   2.528   2.531
  2.536   2.540   2.542   2.555   2.557   2.572   2.586   2.591
  2.611   2.616   2.623   2.630   2.637   2.646   2.649   2.654
  2.660   2.668   2.670   2.680   2.686   2.695   2.706   2.713
  2.723   2.734   2.738   2.750   2.757   2.773   2.775   2.777
  2.781   2.786   2.791   2.803   2.808   2.815   2.817   2.824
  2.827   2.836   2.840   2.846   2.853   2.856   2.869   2.874
  2.878   2.888   2.894   2.909   2.914   2.917   2.926   2.932
  2.940   2.942   2.947   2.951   2.957   2.965   2.969   2.983
  2.987   2.995   3.001   3.005   3.010   3.013   3.017   3.020
  3.027   3.033   3.039   3.043   3.051   3.055   3.059   3.066
  3.068   3.070   3.073   3.076   3.080   3.083   3.086   3.091
  3.093   3.099   3.105   3.108   3.114   3.119   3.122   3.126
  3.132   3.140   3.150   3.155   3.158   3.163   3.165   3.171
  3.175   3.179   3.186   3.193   3.195   3.198   3.203   3.206
  3.212   3.219   3.222   3.222   3.228   3.233   3.234   3.236
  3.240   3.250   3.253   3.256   3.260   3.264   3.265   3.273
  3.276   3.277   3.282   3.289   3.293   3.300   3.301   3.304
  3.309   3.313   3.317   3.321   3.325   3.330   3.333   3.341
  3.347   3.353   3.360   3.367   3.377   3.385   3.388   3.394
  3.398   3.404   3.408   3.412   3.417   3.422   3.425   3.433
  3.438   3.443   3.453   3.455   3.464   3.469   3.472   3.478
  3.481   3.487   3.490   3.492   3.502   3.506   3.514   3.523
  3.528   3.531   3.539   3.549   3.562   3.563   3.571   3.580
  3.591   3.594   3.609   3.614   3.619   3.629   3.637   3.640
  3.656   3.660   3.672   3.683   3.691   3.697   3.700   3.710
  3.716   3.723   3.729   3.735   3.738   3.748   3.750   3.756
  3.765   3.770   3.782   3.787   3.796   3.801   3.804   3.809
  3.821   3.826   3.828   3.840   3.843   3.858   3.870   3.876
  3.881   3.901   3.903   3.908   3.918   3.921   3.928   3.932
  3.933   3.936   3.943   3.947   3.953   3.961   3.968   3.973
  3.980   3.988   3.992   3.998   4.016   4.021   4.032   4.034
  4.051   4.056   4.062   4.072   4.081   4.086   4.094   4.096
  4.111   4.116   4.128   4.138   4.144   4.155   4.162   4.169
  4.183   4.191   4.194   4.204   4.207   4.211   4.219   4.223
  4.227   4.241   4.243   4.252   4.258   4.265   4.269   4.278
  4.289   4.296   4.303   4.308   4.319   4.323   4.328   4.341
  4.343   4.347   4.352   4.361   4.362   4.377   4.384   4.393
  4.396   4.411   4.421   4.425   4.435   4.442   4.451   4.465
  4.470   4.477   4.486   4.503   4.517   4.520   4.533   4.539
  4.543   4.552   4.561   4.565   4.579   4.588   4.596   4.602
  4.614   4.637   4.645   4.648   4.666   4.671   4.684   4.700
  4.712   4.723   4.725   4.749   4.758   4.766   4.772   4.781
  4.798   4.807   4.810   4.814   4.827   4.835   4.840   4.851
  4.860   4.880   4.882   4.895   4.908   4.915   4.916   4.927
  4.935   4.949   4.953   4.962   4.972   4.979   4.988   4.989
  4.995   5.002   5.008   5.012   5.026   5.037   5.042   5.050
  5.050   5.069   5.072   5.085   5.091   5.102   5.110   5.120
  5.132   5.139   5.148   5.152   5.164   5.168   5.180   5.194
  5.211   5.218   5.231   5.248   5.273   5.299   5.305   5.316
  5.324   5.336   5.351   5.364   5.373   5.388   5.406   5.421
  5.444   5.465   5.470   5.485   5.493   5.500   5.524   5.540
  5.559   5.573   5.578   5.593   5.594   5.597   5.626   5.646
  5.669   5.685   5.710   5.720   5.734   5.748   5.758   5.778
  5.793   5.834   5.837   5.859   5.870   5.881   5.902   5.922
  5.949   5.957   5.993   6.043   6.089   6.107   6.136   6.169
  6.200   6.238   6.247   6.290   6.299   6.323   6.379   6.431
  6.444   6.488   6.638   6.857   6.980   7.073   7.982   8.852
  9.824  10.144  10.635  11.058  11.238  11.713  11.985  11.997
 12.360  12.633  12.766  12.774  12.847  12.937  13.038  13.293
 13.346  13.444  13.539  13.888  14.292  14.680  15.050  15.073
 --------------------------------------------------------------
 
          Ground-State Mulliken Net Atomic Charges

     Atom                 Charge (a.u.)
  ----------------------------------------
      1 C                    -0.091028
      2 C                    -0.129474
      3 C                    -0.079695
      4 C                    -0.118781
      5 N                    -0.144378
      6 C                     0.081877
      7 C                     0.106554
      8 N                    -0.175888
      9 C                    -0.011867
     10 C                    -0.065827
     11 N                    -0.220644
     12 C                     0.032169
     13 C                     0.058635
     14 S                     0.409857
     15 N                    -0.286480
     16 C                    -0.068630
     17 S                     0.188993
     18 C                     0.035269
     19 C                    -0.054907
     20 N                    -0.156922
     21 C                     0.044136
     22 C                    -0.015089
     23 C                    -0.046630
     24 N                    -0.162309
     25 C                    -0.139388
     26 S                     0.100384
     27 C                    -0.050172
     28 C                    -0.157423
     29 C                    -0.181671
     30 H                     0.133086
     31 H                     0.120466
     32 H                     0.119177
     33 H                     0.137870
     34 H                     0.126464
     35 H                     0.131214
     36 H                     0.136265
     37 H                     0.127939
     38 H                     0.130400
     39 H                     0.136448
  ----------------------------------------
  Sum of atomic charges =     0.000000

 -----------------------------------------------------------------
                    Cartesian Multipole Moments
 -----------------------------------------------------------------
    Charge (ESU x 10^10)
                 0.0000
    Dipole Moment (Debye)
         X       0.0136      Y       1.5842      Z       0.3266
       Tot       1.6176
    Quadrupole Moments (Debye-Ang)
        XX    -151.3787     XY       4.4193     YY    -167.2165
        XZ      -3.3546     YZ       3.0306     ZZ    -184.6113
    Octopole Moments (Debye-Ang^2)
       XXX     104.9612    XXY      10.4932    XYY     -25.9885
       YYY      42.3564    XXZ     -29.0883    XYZ     -33.4991
       YYZ      12.5474    XZZ      -3.3697    YZZ      -7.3091
       ZZZ       7.9675
    Hexadecapole Moments (Debye-Ang^3)
      XXXX  -15872.9062   XXXY     547.1213   XXYY   -3474.9350
      XYYY    -150.8808   YYYY   -3050.1286   XXXZ    -296.3658
      XXYZ     113.5355   XYYZ      -2.3770   YYYZ      63.0333
      XXZZ   -3458.9983   XYZZ     -25.0233   YYZZ    -683.8956
      XZZZ      43.0508   YZZZ     -10.1265   ZZZZ    -874.1845
 -----------------------------------------------------------------
 Calculating analytic gradient of the SCF energy
 K construction time:  CPU 2784.51 s  wall 176.54 s
 Gradient of SCF Energy
            1           2           3           4           5           6
    1  -0.0000491   0.0001231   0.0000657  -0.0002019  -0.0000758   0.0002182
    2  -0.0001622   0.0001578   0.0000920   0.0000497   0.0001022   0.0001797
    3  -0.0000427   0.0000672   0.0000915  -0.0007835   0.0001005   0.0012431
            7           8           9          10          11          12
    1  -0.0003284  -0.0005606   0.0001990  -0.0000266  -0.0005058  -0.0000685
    2  -0.0006304   0.0006225   0.0005436  -0.0018288   0.0000168   0.0008051
    3  -0.0010018   0.0003129  -0.0001405  -0.0016266  -0.0001029   0.0003199
           13          14          15          16          17          18
    1   0.0009207  -0.0001360   0.0003804  -0.0005847   0.0000755   0.0001836
    2   0.0015692  -0.0010311  -0.0002656   0.0001785   0.0008785  -0.0006639
    3   0.0016914   0.0006210   0.0000301   0.0004291  -0.0013922   0.0012104
           19          20          21          22          23          24
    1   0.0003861   0.0007138  -0.0003192  -0.0003166  -0.0002853   0.0000561
    2  -0.0006010  -0.0007255   0.0004161   0.0005542   0.0002462  -0.0006937
    3  -0.0002037  -0.0005625   0.0001948  -0.0003603   0.0000747  -0.0002552
           25          26          27          28          29          30
    1   0.0002212  -0.0001001   0.0003281  -0.0000096   0.0001549   0.0000111
    2  -0.0005581  -0.0000554   0.0004222   0.0001251   0.0000460   0.0000047
    3   0.0003581  -0.0001733   0.0001024  -0.0001878   0.0000865   0.0000779
           31          32          33          34          35          36
    1  -0.0000365   0.0000110  -0.0000366  -0.0003907  -0.0000003  -0.0000372
    2  -0.0001023  -0.0000579  -0.0000663   0.0004384  -0.0000043   0.0001728
    3  -0.0000531  -0.0000906  -0.0000257  -0.0001003  -0.0000956   0.0000783
           37          38          39
    1   0.0000004   0.0000350  -0.0000143
    2  -0.0001147  -0.0000781   0.0000180
    3   0.0000284   0.0000938  -0.0000139
 Max gradient component =       1.829E-03
 RMS gradient           =       5.062E-04
 Gradient time:  CPU 3236.06 s  wall 207.32 s
 Geometry Optimization Parameters
   NAtoms,    NIC,     NZ,  NCons,   NDum,   NFix, NCnnct, MaxDiis
       39     293       0       3       0       0       0       0

 Cartesian Hessian Update
 Hessian Updated using BFGS Update


** CONSTRAINED OPTIMIZATION IN DELOCALIZED INTERNAL COORDINATES **
   Searching for a Minimum

   Optimization Cycle:   3

                       Coordinates (Angstroms)
     ATOM                X               Y               Z
      1  C         7.6115289102    0.2751623623   -0.7611684575
      2  C         6.9212575558    1.4752078023   -0.8109219073
      3  C         6.8903182007   -0.8878661266   -0.5439500436
      4  C         5.5506638373    1.4636011357   -0.6405837566
      5  N         5.5754149629   -0.9132655177   -0.3723209830
      6  C         4.9183653414    0.2429339707   -0.4146035410
      7  C         3.4429529389    0.2064760003   -0.2456087095
      8  N         2.7637636350    1.2074504927   -0.7355703896
      9  C         2.7507456502   -0.8508353114    0.4337528104
     10  C         1.4124071796    1.2568055699   -0.6466646454
     11  N         3.2638294739   -1.9173155429    1.0522052788
     12  C         1.3239333326   -0.7883534888    0.5242320125
     13  C         0.6258252437    0.3156388632   -0.0414586208
     14  S         2.0235683230   -2.7368160327    1.6539173283
     15  N         0.7878420066   -1.8128068611    1.1886515542
     16  C        -0.8228885704    0.4535144466    0.0206284324
     17  S        -1.8935375953   -0.8346714752   -0.3200741078
     18  C        -1.5543713386    1.5916536446    0.3097196408
     19  C        -3.3150797091    0.0911250087   -0.1152064857
     20  N        -1.0224513318    2.8029743440    0.6414073376
     21  C        -2.9697427262    1.3890621617    0.2397317601
     22  C        -4.6368838934   -0.4749157559   -0.2807077215
     23  C        -1.8870243519    3.7388686563    0.8805377424
[...]
     39  H        -7.1901380797   -2.6750174360   -1.2936780414
   Point Group: c1    Number of degrees of freedom:   111


   Energy is  -2291.149079940

              Constraints and their Current Values
                                        Value     Constraint
   Dihedral:        4   6   7   8       21.822       21.822
   Dihedral:       10  13  16  17      135.000      135.000
   Dihedral:       17  19  22  25      156.395      156.395
 Hessian Updated using BFGS Update

103 Hessian modes will be used to form the next step
  Hessian Eigenvalues:
     0.009928    0.018504    0.042696    0.045000    0.045000    0.045000
     0.045000    0.045000    0.045000    0.045000    0.045000    0.045001
     0.045001    0.045001    0.045002    0.045002    0.045002    0.045002
     0.045003    0.045003    0.045006    0.045011    0.045021    0.045032
     0.045105    0.045205    0.045379    0.046097    0.157048    0.159575
     0.159987    0.159998    0.159999    0.160000    0.160018    0.160071
     0.160337    0.160538    0.219921    0.221427    0.223970    0.224290
     0.230991    0.238397    0.240038    0.243678    0.244663    0.245801
     0.249718    0.249888    0.249954    0.249973    0.249983    0.249990
     0.253235    0.257699    0.262195    0.292801    0.310652    0.313823
     0.334869    0.337852    0.340827    0.345543    0.354207    0.354591
     0.355781    0.357082    0.359039    0.360704    0.360986    0.363168
     0.364159    0.365092    0.373890    0.377908    0.390641    0.398335
     0.400703    0.404404    0.420210    0.432299    0.432626    0.460555
     0.466700    0.468795    0.473775    0.475134    0.485124    0.486202
     0.489902    0.491135    0.505340    0.519159    0.523994    0.528322
     0.559578    0.572521    0.589666    0.638281    0.649202    0.657058
     0.668422

 Minimum Search - Taking Simple RFO Step
 Searching for Lamda that Minimizes Along All modes
 Value Taken    Lamda =   0.00000000
 Step Taken.  Stepsize is  0.002467

                             Maximum     Tolerance    Cnvgd?
         Gradient           0.000053      0.000300     YES
         Displacement       0.001200      0.001200      NO
         Energy change     -0.000001      0.000001     YES

 Final energy is   -2291.14907993968     


 ******************************
 **  OPTIMIZATION CONVERGED  **
 ******************************

                       Coordinates (Angstroms)
     ATOM                X               Y               Z
      1  C         7.6049646656    0.2589412213   -0.8093806448
      2  C         6.9234153083    1.4647865863   -0.8144458121
      3  C         6.8782959968   -0.9041385860   -0.6105266316
      4  C         5.5560943862    1.4588166042   -0.6198079554
      5  N         5.5664175936   -0.9244978599   -0.4168670839
      6  C         4.9178275339    0.2374528767   -0.4160092633
      7  C         3.4452629431    0.2070397628   -0.2242582918
      8  N         2.7650222625    1.2247390045   -0.6760138828
      9  C         2.7558466307   -0.8612524995    0.4402318299
     10  C         1.4148450657    1.2810683404   -0.5667933577
     11  N         3.2720577564   -1.9446856472    1.0252287441
     12  C         1.3311827818   -0.7903166697    0.5557985181
     13  C         0.6296931535    0.3326621095    0.0317060278
     14  S         2.0350929593   -2.7683960545    1.6272088009
     15  N         0.7981540221   -1.8258505659    1.2045882632
     16  C        -0.8192756318    0.4622850730    0.1007651120
     17  S        -1.8819003275   -0.8324195247   -0.2491820029
     18  C        -1.5605869540    1.6072690794    0.3423580939
     19  C        -3.3087579116    0.0968291622   -0.1008607396
     20  N        -1.0420891462    2.8261625040    0.6696628014
     21  C        -2.9731838779    1.4012495929    0.2381361903
     22  C        -4.6254757038   -0.4774131628   -0.2780488006
     23  C        -1.9139594826    3.7639354549    0.8691118975
     24  N        -3.8568274250    2.4161627819    0.4523482815
     25  C        -5.8133698754   -0.0172818495    0.2205656244
     26  S        -4.8731604317   -1.9241761245   -1.1990257624
     27  C        -3.3276611079    3.5598769404    0.7562807446
     28  C        -6.9148413790   -0.8322763039   -0.1338665710
     29  C        -6.5579319637   -1.9015617184   -0.8925266330
     30  H         8.6745805098    0.2150879987   -0.9578309269
     31  H         7.4502279331    2.3971483961   -0.9654772877
     32  H         7.3743475362   -1.8678356731   -0.6091820920
     33  H         4.9750747834    2.3679656763   -0.6235940321
     34  H         0.9575645538    2.1650713443   -0.9879488293
     35  H        -1.5416345539    4.7461532275    1.1395455153
     36  H        -5.8782581024    0.8814383319    0.8116836447
     37  H        -3.9998535851    4.3923254957    0.9327466064
     38  H        -7.9320523800   -0.6303731137    0.1649888412
     39  H        -7.1901380797   -2.6750174360   -1.2936780414

Z-matrix Print:
$molecule
0 1
S 
C  1 1.709218
C  2 1.388899 1 109.273831
N  3 1.362630 2 125.535326 1 179.274494 0
C  4 1.296331 3 115.421640 2 179.835445 0
H  5 1.084414 4 117.541724 3 -179.919596 0
C  3 1.431341 2 113.041614 1 -1.069892 0
N  7 1.364430 3 121.404924 2 179.861876 0
C  8 1.295900 7 115.322369 3 0.259065 0
H  9 1.084671 8 117.562995 7 -179.505834 0
C  7 1.385243 3 113.357782 2 0.758064 0
C  2 1.447375 1 122.216488 3 178.301438 0
C  12 1.368002 2 127.726145 1 -156.394576 0
H  13 1.077650 12 122.189390 2 -1.248952 0
C  13 1.415301 12 113.006233 2 179.311191 0
H  15 1.079258 13 123.810260 12 179.907952 0
C  15 1.358794 13 112.864570 12 -0.136250 0
H  17 1.076495 15 128.258589 13 -179.857668 0
C  11 1.456393 7 127.897925 3 -175.372240 0
C  19 1.368992 11 121.983359 7 39.722555 0
H  20 1.080712 19 119.628523 11 -1.141060 0
N  20 1.355758 19 125.281953 11 179.576755 0
C  22 1.304807 20 121.580910 19 -1.471687 0
C  19 1.424023 11 122.876870 7 -141.383663 0
N  24 1.333183 19 126.489962 11 2.535864 0
C  24 1.431103 19 119.984324 11 -179.268265 0
N  26 1.335111 24 112.938530 19 -177.459334 0
C  23 1.485308 22 117.141777 20 -179.017093 0
N  28 1.330714 23 117.737565 22 156.554801 0
C  29 1.326252 28 117.956941 23 -178.871923 0
H  30 1.083873 29 116.032166 28 179.763665 0
C  30 1.385765 29 123.541139 28 -0.081579 0
H  32 1.080758 30 120.306732 29 -179.718965 0
C  32 1.385135 30 118.240428 29 0.414723 0
H  34 1.081499 32 120.753204 30 -179.965382 0
C  34 1.381118 32 118.871824 30 -0.117612 0
H  36 1.078958 34 121.936870 32 179.413278 0
S  27 1.603422 26 106.445625 24 -0.735174 0
S  17 1.712574 15 111.636608 13 0.511783 0
$end

 
 --------------------------------------------------------------
 
                    Orbital Energies (a.u.)
 --------------------------------------------------------------
 
 Alpha MOs
 -- Occupied --
-89.146 -89.100 -89.079 -14.482 -14.479 -14.461 -14.461 -14.447
-14.435 -10.355 -10.354 -10.351 -10.345 -10.344 -10.343 -10.339
-10.339 -10.337 -10.337 -10.334 -10.332 -10.328 -10.324 -10.319
-10.310 -10.302 -10.299 -10.295 -10.293  -8.156  -8.115  -8.095
 -6.106  -6.100  -6.100  -6.064  -6.060  -6.058  -6.044  -6.040
 -6.038  -1.142  -1.100  -1.070  -1.050  -1.029  -1.013  -1.003
 -0.987  -0.926  -0.913  -0.897  -0.879  -0.868  -0.854  -0.838
 -0.812  -0.777  -0.771  -0.748  -0.739  -0.731  -0.718  -0.711
 -0.672  -0.655  -0.647  -0.629  -0.629  -0.621  -0.606  -0.603
 -0.590  -0.576  -0.569  -0.561  -0.558  -0.545  -0.543  -0.526
 -0.512  -0.507  -0.502  -0.501  -0.494  -0.492  -0.486  -0.482
 -0.473  -0.468  -0.460  -0.458  -0.450  -0.440  -0.428  -0.427
 -0.421  -0.412  -0.397  -0.376  -0.371  -0.363  -0.358  -0.350
 -0.342  -0.339  -0.336  -0.334  -0.317  -0.269
 -- Virtual --
 -0.048  -0.029   0.025   0.031   0.041   0.054   0.068   0.072
  0.086   0.086   0.107   0.123   0.125   0.128   0.132   0.137
  0.149   0.152   0.153   0.160   0.164   0.175   0.178   0.191
  0.196   0.201   0.210   0.216   0.221   0.230   0.243   0.248
  0.258   0.265   0.268   0.272   0.278   0.289   0.290   0.297
  0.299   0.300   0.309   0.316   0.318   0.320   0.321   0.329
  0.331   0.334   0.342   0.346   0.347   0.350   0.354   0.357
  0.363   0.367   0.372   0.376   0.378   0.382   0.383   0.390
  0.393   0.395   0.397   0.402   0.404   0.407   0.410   0.412
  0.416   0.418   0.426   0.428   0.432   0.433   0.435   0.440
  0.443   0.447   0.451   0.455   0.458   0.461   0.462   0.463
  0.468   0.472   0.474   0.477   0.480   0.483   0.489   0.490
  0.495   0.497   0.500   0.507   0.508   0.512   0.516   0.519
  0.522   0.530   0.531   0.535   0.538   0.540   0.548   0.551
  0.553   0.560   0.565   0.572   0.578   0.583   0.589   0.601
  0.602   0.608   0.611   0.611   0.620   0.622   0.630   0.636
  0.639   0.641   0.650   0.657   0.660   0.661   0.664   0.666
  0.678   0.682   0.685   0.692   0.699   0.704   0.709   0.712
  0.722   0.728   0.732   0.735   0.737   0.740   0.743   0.744
  0.752   0.763   0.769   0.771   0.773   0.775   0.783   0.787
  0.793   0.796   0.800   0.802   0.810   0.815   0.817   0.825
  0.830   0.833   0.838   0.843   0.845   0.847   0.849   0.857
  0.858   0.870   0.871   0.877   0.881   0.882   0.896   0.899
  0.901   0.913   0.914   0.923   0.925   0.926   0.934   0.934
  0.940   0.944   0.952   0.953   0.958   0.960   0.965   0.971
  0.980   0.982   0.985   0.989   0.992   1.006   1.010   1.017
  1.022   1.024   1.029   1.034   1.043   1.049   1.055   1.057
  1.064   1.071   1.078   1.084   1.089   1.092   1.094   1.097
  1.104   1.109   1.110   1.114   1.121   1.129   1.133   1.139
  1.146   1.149   1.165   1.170   1.177   1.184   1.189   1.195
  1.200   1.205   1.207   1.216   1.221   1.232   1.236   1.243
  1.248   1.256   1.258   1.265   1.273   1.280   1.294   1.298
  1.303   1.309   1.322   1.326   1.337   1.346   1.353   1.358
  1.362   1.367   1.369   1.372   1.379   1.385   1.386   1.389
  1.397   1.406   1.410   1.414   1.422   1.428   1.431   1.436
  1.444   1.446   1.450   1.454   1.465   1.473   1.479   1.485
  1.489   1.493   1.498   1.506   1.507   1.510   1.516   1.524
  1.547   1.556   1.564   1.567   1.572   1.579   1.585   1.591
  1.602   1.606   1.610   1.618   1.624   1.629   1.634   1.649
  1.656   1.660   1.665   1.668   1.674   1.685   1.687   1.694
  1.698   1.702   1.711   1.724   1.729   1.739   1.745   1.747
  1.755   1.759   1.767   1.770   1.787   1.792   1.802   1.809
  1.816   1.827   1.836   1.845   1.864   1.870   1.882   1.885
  1.890   1.895   1.907   1.915   1.924   1.930   1.937   1.942
  1.947   1.967   1.979   1.982   1.989   1.993   2.000   2.011
  2.015   2.021   2.029   2.036   2.041   2.053   2.058   2.072
  2.072   2.089   2.098   2.107   2.112   2.118   2.120   2.127
  2.140   2.155   2.163   2.167   2.172   2.178   2.186   2.189
  2.200   2.208   2.213   2.219   2.230   2.243   2.252   2.255
  2.261   2.268   2.279   2.291   2.292   2.298   2.303   2.309
  2.316   2.321   2.333   2.334   2.345   2.359   2.369   2.371
  2.378   2.384   2.397   2.400   2.405   2.412   2.419   2.429
  2.439   2.442   2.446   2.452   2.458   2.461   2.471   2.477
  2.485   2.490   2.508   2.514   2.518   2.524   2.528   2.531
  2.538   2.539   2.542   2.555   2.556   2.570   2.587   2.593
  2.612   2.613   2.622   2.631   2.635   2.645   2.647   2.654
  2.659   2.667   2.670   2.680   2.686   2.694   2.706   2.712
  2.723   2.734   2.737   2.749   2.758   2.773   2.775   2.777
  2.782   2.786   2.791   2.802   2.809   2.814   2.817   2.827
  2.829   2.837   2.838   2.846   2.854   2.854   2.870   2.873
  2.878   2.887   2.893   2.910   2.914   2.917   2.926   2.931
  2.939   2.942   2.947   2.951   2.957   2.965   2.969   2.981
  2.987   2.995   3.000   3.003   3.009   3.012   3.017   3.020
  3.027   3.033   3.038   3.044   3.050   3.054   3.058   3.065
  3.068   3.070   3.073   3.077   3.081   3.082   3.083   3.091
  3.093   3.098   3.105   3.109   3.113   3.119   3.120   3.125
  3.132   3.139   3.150   3.155   3.158   3.164   3.165   3.171
  3.175   3.178   3.185   3.192   3.194   3.199   3.203   3.205
  3.212   3.217   3.221   3.223   3.228   3.232   3.234   3.237
  3.240   3.250   3.254   3.257   3.260   3.263   3.264   3.274
  3.277   3.277   3.283   3.288   3.293   3.299   3.301   3.305
  3.309   3.314   3.317   3.321   3.324   3.331   3.333   3.341
  3.349   3.354   3.360   3.366   3.375   3.384   3.387   3.393
  3.400   3.404   3.407   3.413   3.417   3.422   3.425   3.432
  3.439   3.444   3.452   3.454   3.463   3.468   3.471   3.478
  3.481   3.486   3.490   3.493   3.501   3.505   3.514   3.521
  3.526   3.531   3.538   3.550   3.562   3.563   3.572   3.579
  3.590   3.593   3.607   3.614   3.620   3.629   3.636   3.641
  3.656   3.660   3.672   3.682   3.689   3.695   3.700   3.711
  3.715   3.723   3.728   3.735   3.737   3.749   3.750   3.757
  3.765   3.771   3.781   3.788   3.795   3.801   3.803   3.810
  3.819   3.825   3.828   3.838   3.841   3.860   3.869   3.875
  3.883   3.901   3.904   3.908   3.916   3.921   3.927   3.933
  3.933   3.935   3.943   3.947   3.952   3.962   3.969   3.973
  3.980   3.987   3.992   3.997   4.017   4.021   4.031   4.033
  4.051   4.056   4.062   4.072   4.081   4.086   4.094   4.097
  4.111   4.116   4.127   4.138   4.145   4.155   4.163   4.168
  4.182   4.191   4.194   4.204   4.206   4.211   4.219   4.224
  4.226   4.241   4.244   4.252   4.260   4.264   4.267   4.274
  4.289   4.296   4.303   4.309   4.319   4.325   4.327   4.340
  4.343   4.346   4.353   4.361   4.362   4.377   4.383   4.392
  4.397   4.409   4.421   4.427   4.435   4.442   4.450   4.465
  4.467   4.477   4.486   4.502   4.516   4.520   4.533   4.536
  4.543   4.550   4.561   4.566   4.578   4.587   4.596   4.602
  4.615   4.637   4.645   4.647   4.666   4.670   4.683   4.700
  4.711   4.724   4.727   4.747   4.757   4.767   4.772   4.781
  4.797   4.807   4.810   4.814   4.826   4.836   4.841   4.853
  4.860   4.879   4.883   4.895   4.907   4.915   4.916   4.928
  4.935   4.949   4.953   4.962   4.972   4.978   4.987   4.988
  4.995   5.003   5.008   5.012   5.024   5.038   5.041   5.050
  5.050   5.069   5.073   5.085   5.091   5.102   5.111   5.121
  5.132   5.140   5.147   5.152   5.164   5.168   5.180   5.194
  5.211   5.219   5.231   5.246   5.272   5.299   5.304   5.316
  5.324   5.334   5.351   5.363   5.374   5.388   5.406   5.421
  5.444   5.465   5.469   5.484   5.492   5.500   5.524   5.540
  5.559   5.573   5.578   5.592   5.593   5.600   5.626   5.646
  5.668   5.685   5.711   5.720   5.734   5.748   5.756   5.777
  5.792   5.834   5.838   5.859   5.871   5.881   5.903   5.922
  5.949   5.959   5.994   6.043   6.088   6.107   6.136   6.168
  6.200   6.239   6.248   6.291   6.298   6.324   6.377   6.431
  6.444   6.487   6.639   6.858   6.980   7.073   7.989   8.854
  9.822  10.150  10.641  11.059  11.232  11.699  11.987  12.001
 12.355  12.629  12.753  12.774  12.851  12.922  13.034  13.286
 13.330  13.435  13.542  13.901  14.297  14.669  15.056  15.075
 --------------------------------------------------------------
 
          Ground-State Mulliken Net Atomic Charges

     Atom                 Charge (a.u.)
  ----------------------------------------
      1 C                    -0.091149
      2 C                    -0.129314
      3 C                    -0.079677
      4 C                    -0.118645
      5 N                    -0.144779
      6 C                     0.081717
      7 C                     0.106132
      8 N                    -0.176123
      9 C                    -0.012315
     10 C                    -0.064817
     11 N                    -0.220209
     12 C                     0.030504
     13 C                     0.061123
     14 S                     0.409234
     15 N                    -0.286810
     16 C                    -0.065245
     17 S                     0.187344
     18 C                     0.031607
     19 C                    -0.056476
     20 N                    -0.158306
     21 C                     0.046684
     22 C                    -0.014503
     23 C                    -0.045811
     24 N                    -0.162186
     25 C                    -0.139039
     26 S                     0.100466
     27 C                    -0.049655
     28 C                    -0.157465
     29 C                    -0.181615
     30 H                     0.133085
     31 H                     0.120299
     32 H                     0.119214
     33 H                     0.137646
     34 H                     0.126453
     35 H                     0.131388
     36 H                     0.136508
     37 H                     0.127817
     38 H                     0.130345
     39 H                     0.136572
  ----------------------------------------
  Sum of atomic charges =     0.000000

 -----------------------------------------------------------------
                    Cartesian Multipole Moments
 -----------------------------------------------------------------
    Charge (ESU x 10^10)
                 0.0000
    Dipole Moment (Debye)
         X      -0.0204      Y       1.5830      Z       0.2771
       Tot       1.6072
    Quadrupole Moments (Debye-Ang)
        XX    -151.1462     XY       4.1910     YY    -166.9182
        XZ      -3.3442     YZ       2.9557     ZZ    -184.9374
    Octopole Moments (Debye-Ang^2)
       XXX     101.8176    XXY      12.0097    XYY     -28.8046
       YYY      44.1619    XXZ     -33.0803    XYZ     -32.6198
       YYZ      10.2181    XZZ      -2.2948    YZZ      -7.1319
       ZZZ       2.8131
    Hexadecapole Moments (Debye-Ang^3)
      XXXX  -15845.9133   XXXY     551.4090   XXYY   -3467.5914
      XYYY    -137.7668   YYYY   -3095.8996   XXXZ    -290.8955
      XXYZ     116.7341   XYYZ       5.8157   YYYZ      60.3686
      XXZZ   -3450.5975   XYZZ     -20.2372   YYZZ    -693.6649
      XZZZ      60.6189   YZZZ     -11.7542   ZZZZ    -852.9448
 -----------------------------------------------------------------
Archival summary:
1\1\mn251\OPT\ProcedureUnspecified\BasisUnspecified\362010\afmv_a\SatJun1723:29:412017SatJun1723:29:412017\0\\#,OPT,ProcedureUnspecified,BasisUnspecified,\\0,1\S\C,1,1.70922\C,2,1.3889,1,109.274\N,3,1.36263,2,125.535,1,179.274,0\C,4,1.29633,3,115.422,2,179.835,0\H,5,1.08441,4,117.542,3,-179.92,0\C,3,1.43134,2,113.042,1,-1.06989,0\N,7,1.36443,3,121.405,2,179.862,0\C,8,1.2959,7,115.322,3,0.259065,0\H,9,1.08467,8,117.563,7,-179.506,0\C,7,1.38524,3,113.358,2,0.758064,0\C,2,1.44738,1,122.216,3,178.301,0\C,12,1.368,2,127.726,1,-156.395,0\H,13,1.07765,12,122.189,2,-1.24895,0\C,13,1.4153,12,113.006,2,179.311,0\H,15,1.07926,13,123.81,12,179.908,0\C,15,1.35879,13,112.865,12,-0.13625,0\H,17,1.07649,15,128.259,13,-179.858,0\C,11,1.45639,7,127.898,3,-175.372,0\C,19,1.36899,11,121.983,7,39.7226,0\H,20,1.08071,19,119.629,11,-1.14106,0\N,20,1.35576,19,125.282,11,179.577,0\C,22,1.30481,20,121.581,19,-1.47169,0\C,19,1.42402,11,122.877,7,-141.384,0\N,24,1.33318,19,126.49,11,2.53586,0\C,24,1.4311,19,119.984,11,-179.268,0\N,26,1.33511,24,112.939,19,-177.459,0\C,23,1.48531,22,117.142,20,-179.017,0\N,28,1.33071,23,117.738,22,156.555,0\C,29,1.32625,28,117.957,23,-178.872,0\H,30,1.08387,29,116.032,28,179.764,0\C,30,1.38577,29,123.541,28,-0.0815795,0\H,32,1.08076,30,120.307,29,-179.719,0\C,32,1.38513,30,118.24,29,0.414723,0\H,34,1.0815,32,120.753,30,-179.965,0\C,34,1.38112,32,118.872,30,-0.117612,0\H,36,1.07896,34,121.937,32,179.413,0\S,27,1.60342,26,106.446,24,-0.735174,0\S,17,1.71257,15,111.637,13,0.511783,0\\\@

 Total job time:  7271.48s(wall), 108436.94s(cpu) 
 Sat Jun 17 23:29:41 2017

        *************************************************************
        *                                                           *
        *  Thank you very much for using Q-Chem.  Have a nice day.  *
        *                                                           *
        *************************************************************


