
Running Job 1 of 1 C169_2/C169_210.qcin
qchem C169_2/C169_210.qcin_58955.0 /tmpu/cab_g/afmv_a/scratch_qchem/qchem58955/ 1
/tmpu/appuserlic/qchem4.4/serial-multicore/exe/qcprog.exe_s C169_2/C169_210.qcin_58955.0 /tmpu/cab_g/afmv_a/scratch_qchem/qchem58955/
Check license passed

                  Welcome to Q-Chem
     A Quantum Leap Into The Future Of Chemistry


 Q-Chem 4.4, Q-Chem, Inc., Pleasanton, CA (2016)

 Y. Shao,  Z. Gan,  E. Epifanovsky,  A. T. B. Gilbert,  M. Wormit,  
 J. Kussmann,  A. W. Lange,  A. Behn,  J. Deng,  X. Feng,  D. Ghosh,  
 M. Goldey,  P. R. Horn,  L. D. Jacobson,  I. Kaliman,  F. Rob,  
 R. Z. Khaliullin,  T. Kus,  A. Landau,  J. Liu,  E. I. Proynov,  Y. M. Rhee,  
 R. M. Richard,  M. A. Rohrdanz,  R. P. Steele,  E. J. Sundstrom,  
 H. L. Woodcock III,  P. M. Zimmerman,  D. Zuev,  B. Albrecht,  E. Alguire,  
 B. Austin,  S. A. Baeppler,  G. J. O. Beran,  Y. A. Bernard,  E. Berquist,  
 K. Brandhorst,  K. B. Bravaya,  S. T. Brown,  D. Casanova,  C.-M. Chang,  
 Y. Chen,  S. H. Chien,  K. D. Closser,  M. P. Coons,  D. L. Crittenden,  
 S. Dasgupta,  M. Diedenhofen,  R. A. DiStasio Jr.,  H. Do,  A. D. Dutoi,  
 R. G. Edgar,  P.-T. Fang,  S. Fatehi,  Q. Feng,  L. Fusti-Molnar,  
 A. Ghysels,  A. Golubeva-Zadorozhnaya,  J. Gomes,  A. Gunina,  
 M. W. D. Hanson-Heine,  P. H. P. Harbach,  A. W. Hauser,  J. E. Herr,  
 E. G. Hohenstein,  Z. C. Holden,  K. Hui,  T.-C. Jagau,  H. Ji,  B. Kaduk,  
 K. Khistyaev,  Jaehoon Kim,  Jihan Kim,  R. A. King,  P. Klunzinger,  
 K. Koh,  D. Kosenkov,  T. Kowalczyk,  C. M. Krauter,  A. Kunitsa,  
 K. U. Lao,  A. Laurent,  K. V. Lawler,  J. Lee,  D. Lefrancois,  S. Lehtola,  
 S. V. Levchenko,  C. Y. Lin,  Y.-S. Lin,  F. Liu,  E. Livshits,  
 R. C. Lochan,  A. Luenser,  P. Manohar,  S. F. Manzer,  S.-P. Mao,  Y. Mao,  
 N. Mardirossian,  A. V. Marenich,  L. A. Martinez-Martinez,  S. A. Maurer,  
 N. J. Mayhall,  J.-M. Mewes,  A. F. Morrison,  K. Nanda,  T. S. Nguyen-Beck,  
 C. M. Oana,  R. Olivares-Amaya,  D. P. O'Neill,  J. A. Parkhill,  
 T. M. Perrine,  R. Peverati,  P. A. Pieniazek,  F. Plasser,  A. Prociuk,  
 D. R. Rehn,  E. Rosta,  N. J. Russ,  N. Sergueev,  S. M. Sharada,  
 S. Sharma,  D. W. Small,  A. Sodt,  T. Stauch,  T. Stein,  D. Stuck,  
 Y.-C. Su,  A. J. W. Thom,  T. Tsuchimochi,  L. Vogt,  O. Vydrov,  T. Wang,  
 M. A. Watson,  J. Wenzel,  A. White,  C. F. Williams,  V. Vanovschi,  
 K. Yao,  S. Yeganeh,  S. R. Yost,  Z.-Q. You,  I. Y. Zhang,  X. Zhang,  
 Y. Zhao,  B. R. Brooks,  G. K. L. Chan,  D. M. Chipman,  C. J. Cramer,  
 W. A. Goddard III,  M. S. Gordon,  W. J. Hehre,  A. Klamt,  
 H. F. Schaefer III,  M. W. Schmidt,  C. D. Sherrill,  D. G. Truhlar,  
 A. Warshel,  X. Xu,  A. Aspuru-Guzik,  R. Baer,  A. T. Bell,  N. A. Besley,  
 J.-D. Chai,  A. Dreuw,  B. D. Dunietz,  T. R. Furlani,  S. R. Gwaltney,  
 C.-P. Hsu,  Y. Jung,  J. Kong,  D. S. Lambrecht,  W. Liang,  C. Ochsenfeld,  
 V. A. Rassolov,  L. V. Slipchenko,  J. E. Subotnik,  T. Van Voorhis,  
 J. M. Herbert,  A. I. Krylov,  P. M. W. Gill,  M. Head-Gordon

 Contributors to earlier versions of Q-Chem not listed above: 
 R. D. Adamson,  J. Baker,  E. F. C. Byrd,  A. K. Chakraborty,  C.-L. Cheng,  
 H. Dachsel,  R. J. Doerksen,  G. Hawkins,  A. Heyden,  S. Hirata,  
 G. Kedziora,  F. J. Keil,  C. Kelley,  P. P. Korambath,  W. Kurlancheek,  
 A. M. Lee,  M. S. Lee,  D. Liotard,  I. Lotan,  P. E. Maslen,  N. Nair,  
 D. Neuhauser,  R. Olson,  B. Peters,  J. Ritchie,  N. E. Schultz,  
 N. Shenvi,  A. C. Simmonett,  K. S. Thanthiriwatte,  Q. Wu,  W. Zhang

 Please cite Q-Chem as follows:
 Y. Shao et al., Mol. Phys. 113, 184-215 (2015)
 DOI: 10.1080/00268976.2014.952696

 Q-Chem 4.4.2 for Intel X86 Linux

 Parts of Q-Chem use Armadillo 5.200.1 (Boston Tea Smuggler).
 http://arma.sourceforge.net/

 Q-Chem begins on Sun Jun 18 19:06:56 2017  

Host: 
0

     Scratch files written to /tmpu/cab_g/afmv_a/scratch_qchem/qchem58955//
 Dec716 11556_ 22328  22283 4050   
Processing $rem in /tmpu/appuserlic/qchem4.4/serial-multicore/config/preferences.
 MEM_TOTAL  2000 
FILE_GEOM_ORG=        593

Checking the input file for inconsistencies... 	...done.

--------------------------------------------------------------
User input:
--------------------------------------------------------------
$comment
OPTIMIZATION
$end

$rem
JOBTYPE OPT
EXCHANGE omegaB97X-D
BASIS cc-pVTZ
$end

$molecule
0 1
C          0.00000        0.00000        0.00000
C         -0.65396       -1.22126       -0.00000
C          1.38563        0.00000        0.00000
C          0.09526       -2.37957        0.00866
N          2.11912       -1.10562        0.01199
C          1.48546       -2.27640        0.02149
C          2.30642       -3.51253        0.03449
N          1.74513       -4.60745       -0.39909
C          3.65824       -3.56714        0.50995
C          2.40434       -5.79109       -0.42442
N          4.38617       -2.58332        1.04242
C          4.35289       -4.81920        0.47143
C          3.70163       -5.99343       -0.01477
S          5.80914       -3.21778        1.41887
N          5.59255       -4.74484        0.95148
C          4.33823       -7.30129       -0.04468
S          5.56456       -7.76385        1.06841
C          4.09393       -8.37142       -0.90580
C          5.79352       -9.32281        0.41577
N          3.18047       -8.39227       -1.91650
C          4.91364       -9.51417       -0.64282
C          6.76142      -10.25248        0.95268
C          3.11889       -9.49110       -2.60294
N          4.82169      -10.65072       -1.38444
C          6.76119      -11.61664        0.85179
S          8.14623       -9.71101        1.84600
C          3.94305      -10.62767       -2.33909
C          7.86362      -12.22076        1.50214
C          8.69176      -11.31590        2.08809
H         -0.54853        0.93120        0.00000
H         -1.73532       -1.26909       -0.00410
H          1.93662        0.93286       -0.01167
H         -0.36319       -3.35650        0.00329
H          1.82722       -6.62671       -0.78554
H          2.40209       -9.52868       -3.41642
H          5.99363      -12.15159        0.31840
H          3.84376      -11.51833       -2.94996
H          8.02504      -13.28753        1.53375
H          9.59497      -11.50618        2.64215
$end

$opt
CONSTRAINT
tors 4 6 7 8 21.82164
tors 10 13 16 17 -150.00000
tors 17 19 22 25 156.39459
ENDCONSTRAINT
$end
--------------------------------------------------------------
 ----------------------------------------------------------------
             Standard Nuclear Orientation (Angstroms)
    I     Atom           X                Y                Z
 ----------------------------------------------------------------
    1      C       7.6698283730     0.3435540171     0.3870433843
    2      C       6.9454069769     1.3129414590     1.0613143223
    3      C       6.9721901980    -0.6001060157    -0.3496907714
    4      C       5.5684246193     1.2945675592     0.9796464175
    5      N       5.6484341396    -0.6323514299    -0.4344082764
    6      C       4.9569078598     0.2959140692     0.2232053044
    7      C       3.4764645231     0.2594986897     0.1276901466
    8      N       2.8343482216     1.3688365229     0.3704742362
    9      C       2.7268456464    -0.9198254824    -0.1943778786
   10      C       1.4823946518     1.4427995551     0.3161226246
   11      N       3.1846548905    -2.1536578317    -0.4165863576
   12      C       1.2986245417    -0.8328140702    -0.2598770907
   13      C       0.6358016686     0.4030496393     0.0096648371
   14      S       1.9034885897    -3.0738859296    -0.7009995649
   15      N       0.7165374189    -1.9938156349    -0.5531078463
   16      C      -0.8117317995     0.5484288418    -0.0031294580
   17      S      -1.8794918869    -0.7487372281     0.3630193552
   18      C      -1.5723771014     1.6849369008    -0.2790941618
   19      C      -3.3097639305     0.1515075112     0.1336741489
   20      N      -1.0839305200     2.9156951848    -0.6000495601
   21      C      -2.9831321817     1.4609755473    -0.1980266426
   22      C      -4.6238987606    -0.4273454893     0.2991066702
   23      C      -1.9693747124     3.8364302372    -0.8251159599
   24      N      -3.8832895720     2.4513204532    -0.4412026479
   25      C      -5.7961075390     0.2180104669     0.5829263672
   26      S      -4.8950775365    -2.1328473709     0.1359058039
   27      C      -3.3770783560     3.6062703392    -0.7473678653
   28      C      -6.9023199006    -0.6594605968     0.6809403718
   29      C      -6.5655513827    -1.9593923113     0.4695417325
   30      H       8.7494227235     0.3175613060     0.4296933334
   31      H       7.4487730398     2.0723392470     1.6457641274
   32      H       7.5001667033    -1.3686960394    -0.9014734587
   33      H       4.9566177244     2.0291553150     1.4803165851
   34      H       1.0686315242     2.4086622194     0.5562170249
   35      H      -1.6034556692     4.8234113395    -1.0876721715
   36      H      -5.8466457833     1.2867766511     0.7054395399
   37      H      -4.0674102781     4.4185247507    -0.9473191213
   38      H      -7.9054338694    -0.3304189772     0.9057687946
   39      H      -7.2099751901    -2.8216234098     0.4854400090
 ----------------------------------------------------------------
 Molecular Point Group                 C1    NOp =  1
 Largest Abelian Subgroup              C1    NOp =  1
 Nuclear Repulsion Energy =  2928.1226138338 hartrees
 There are      110 alpha and      110 beta electrons
 Requested basis set is cc-pVTZ
 There are 356 shells and 1022 basis functions

 Total QAlloc Memory Limit   2000 MB
 Mega-Array Size        61 MB
 MEM_STATIC part        62 MB
 A cutoff of  1.0D-11 yielded  30895 shell pairs
 There are    243717 function pairs (    318050 Cartesian)
 
 -------------------------------------------------------
 OpenMP Integral Computing Module                       
 Release: version 1.0, May 2013, Q-Chem Inc. Pittsburgh 
 -------------------------------------------------------
 Integral Job Info:
 Integral job number is                      11
 Integral operator is                         1
 short-range coefficients              22203600
 long-range coefficients              100000000
 Omega coefficients                         200
 if combine SR and LR in K                    1
 Integral screening is                        0
 Integral computing path is                   2
 max size of driver memory is            800000
 size of driver memory is                776718
 size of scratch memory is             26248924
 max col of scratch BK array              10000
 max len of scratch array in speh3          662
 max len of scratch index in speh4           32
 max int batch size is                      520
 min int batch size is                       52
 fixed nKL is                                52
 max L of basis functions is                  3
 order of int derivative is                   0
 number of shells is                        356
 number of basis is                        1177
 number of cartesian basis is              1177
 number of contracted shell pairs         30895
 number of primitive shell pairs          93604
 maxK2 (contraction) of shell pair          121
 max number of K2 of shell pair               1
 max number of CS2 of shell pair           4268
 max number of PS2 of shell pair          13013
 mem total for path MDJ                  836024
 -------------------------------------------------------
 Smallest overlap matrix eigenvalue = 2.91E-05

 Scale SEOQF with 1.000000e-02/1.000000e-01/1.000000e-01

 Standard Electronic Orientation quadrupole field applied
 Nucleus-field energy     =     0.0000000610 hartrees
 Guess from superposition of atomic densities
 Warning:  Energy on first SCF cycle will be non-variational
 Long-range K will be added via erf
 Coulomb attenuation parameter = 0.2 bohr**(-1)
 A restricted hybrid HF-DFT SCF calculation will be
 performed using Pulay DIIS extrapolation
 Exchange:     0.2220 Hartree-Fock + 1.0000 wB97X-D + LR-HF
 Correlation:  1.0000 wB97X-D
 Using SG-2 standard quadrature grid
 Dispersion:   Grimme D
 SCF converges when DIIS error is below 1.0E-08
 using 16 threads for integral computing 
 using 16 threads for integral computing 
 K construction time:  CPU 70.75 s  wall 4.68 s
 -------------------------------------------------------
 OpenMP BLAS3 based DFT computing Module                
 Release: version 1.0, May 2013, Q-Chem Inc. Pittsburgh 
 -------------------------------------------------------
 ---------------------------------------
  Cycle       Energy         DIIS Error
 ---------------------------------------
    1   -2301.5090949694      1.84E-02
 K construction time:  CPU 1115.59 s  wall 73.82 s
    2   -2290.9029229628      1.32E-03
 K construction time:  CPU 1064.35 s  wall 70.44 s
    3   -2290.9357518544      1.33E-03
 K construction time:  CPU 1016.07 s  wall 67.19 s
    4   -2291.1429502194      2.09E-04
 K construction time:  CPU 939.43 s  wall 62.18 s
    5   -2291.1473133468      1.32E-04
 K construction time:  CPU 887.58 s  wall 58.72 s
    6   -2291.1492972864      4.88E-05
 K construction time:  CPU 836.44 s  wall 55.31 s
    7   -2291.1495955294      1.78E-05
 K construction time:  CPU 783.92 s  wall 51.90 s
    8   -2291.1496480811      5.42E-06
 K construction time:  CPU 749.72 s  wall 49.68 s
    9   -2291.1496594741      3.61E-06
 K construction time:  CPU 713.08 s  wall 47.12 s
   10   -2291.1496632099      1.24E-06
 K construction time:  CPU 645.50 s  wall 42.59 s
   11   -2291.1496637367      7.43E-07
 K construction time:  CPU 605.99 s  wall 40.05 s
   12   -2291.1496638945      2.10E-07
 K construction time:  CPU 533.43 s  wall 35.20 s
   13   -2291.1496639100      1.19E-07
 K construction time:  CPU 474.95 s  wall 31.29 s
   14   -2291.1496639127      3.39E-08
 K construction time:  CPU 402.74 s  wall 26.47 s
   15   -2291.1496639126      1.73E-08
 K construction time:  CPU 1114.62 s  wall 73.71 s
   16   -2291.1496639145      5.79E-09 Convergence criterion met
 ---------------------------------------
 SCF time:  CPU 15930.22 s  wall 1080.37 s
 SCF   energy in the final basis set = -2291.1496639145
 Total energy in the final basis set = -2291.1496639145
 
 --------------------------------------------------------------
 
                    Orbital Energies (a.u.)
 --------------------------------------------------------------
 
 Alpha MOs
 -- Occupied --
-89.146 -89.100 -89.080 -14.482 -14.478 -14.462 -14.461 -14.446
-14.434 -10.355 -10.353 -10.351 -10.345 -10.344 -10.343 -10.342
-10.341 -10.338 -10.336 -10.335 -10.330 -10.330 -10.324 -10.320
-10.309 -10.301 -10.298 -10.295 -10.293  -8.156  -8.115  -8.095
 -6.106  -6.100  -6.100  -6.064  -6.060  -6.059  -6.044  -6.040
 -6.038  -1.143  -1.101  -1.069  -1.049  -1.029  -1.013  -1.003
 -0.986  -0.925  -0.912  -0.896  -0.879  -0.869  -0.854  -0.838
 -0.812  -0.777  -0.771  -0.748  -0.738  -0.731  -0.717  -0.711
 -0.672  -0.655  -0.648  -0.629  -0.629  -0.621  -0.606  -0.603
 -0.588  -0.576  -0.566  -0.562  -0.558  -0.547  -0.543  -0.527
 -0.512  -0.507  -0.502  -0.500  -0.493  -0.492  -0.487  -0.482
 -0.474  -0.466  -0.461  -0.460  -0.450  -0.441  -0.428  -0.426
 -0.420  -0.412  -0.395  -0.376  -0.372  -0.360  -0.356  -0.351
 -0.342  -0.339  -0.335  -0.334  -0.320  -0.265
 -- Virtual --
 -0.052  -0.027   0.024   0.032   0.042   0.052   0.068   0.073
  0.085   0.090   0.110   0.123   0.124   0.127   0.131   0.136
  0.151   0.152   0.155   0.162   0.167   0.175   0.180   0.190
  0.198   0.204   0.209   0.215   0.226   0.228   0.243   0.248
  0.259   0.264   0.268   0.276   0.278   0.289   0.292   0.294
  0.300   0.303   0.308   0.312   0.317   0.322   0.323   0.330
  0.332   0.336   0.342   0.347   0.348   0.349   0.354   0.361
  0.365   0.368   0.372   0.374   0.382   0.382   0.386   0.387
  0.389   0.393   0.397   0.399   0.405   0.408   0.410   0.413
  0.414   0.419   0.420   0.428   0.432   0.433   0.434   0.441
  0.442   0.445   0.453   0.455   0.458   0.459   0.463   0.464
  0.468   0.470   0.477   0.480   0.481   0.485   0.486   0.490
  0.493   0.496   0.504   0.508   0.509   0.512   0.518   0.520
  0.525   0.531   0.533   0.537   0.539   0.542   0.544   0.550
  0.559   0.562   0.564   0.573   0.578   0.584   0.589   0.597
  0.603   0.607   0.611   0.614   0.624   0.627   0.630   0.636
  0.641   0.647   0.648   0.657   0.662   0.665   0.668   0.669
  0.674   0.678   0.691   0.695   0.698   0.705   0.711   0.714
  0.723   0.725   0.730   0.734   0.739   0.742   0.748   0.752
  0.762   0.764   0.767   0.775   0.776   0.777   0.782   0.785
  0.789   0.799   0.804   0.807   0.809   0.816   0.819   0.822
  0.829   0.832   0.840   0.843   0.844   0.851   0.854   0.857
  0.859   0.871   0.874   0.876   0.878   0.885   0.887   0.904
  0.909   0.915   0.918   0.922   0.924   0.926   0.933   0.934
  0.939   0.943   0.950   0.953   0.956   0.961   0.967   0.970
  0.976   0.977   0.986   0.989   0.996   0.999   1.012   1.014
  1.021   1.028   1.034   1.038   1.045   1.048   1.055   1.059
  1.063   1.065   1.075   1.084   1.087   1.090   1.093   1.097
  1.103   1.106   1.108   1.111   1.119   1.124   1.133   1.138
  1.144   1.154   1.163   1.166   1.175   1.182   1.185   1.187
  1.189   1.206   1.210   1.218   1.225   1.230   1.234   1.245
  1.254   1.256   1.264   1.270   1.274   1.289   1.294   1.296
  1.305   1.313   1.324   1.325   1.333   1.343   1.351   1.354
  1.359   1.368   1.370   1.374   1.378   1.382   1.386   1.388
  1.401   1.405   1.410   1.416   1.424   1.424   1.435   1.439
  1.441   1.445   1.453   1.456   1.457   1.475   1.479   1.483
  1.487   1.495   1.498   1.506   1.511   1.513   1.519   1.525
  1.544   1.554   1.560   1.568   1.576   1.582   1.584   1.595
  1.602   1.608   1.610   1.621   1.624   1.637   1.644   1.653
  1.656   1.656   1.665   1.668   1.673   1.684   1.688   1.698
  1.703   1.714   1.719   1.721   1.730   1.736   1.741   1.747
  1.754   1.764   1.773   1.780   1.788   1.792   1.798   1.806
  1.820   1.826   1.833   1.844   1.858   1.875   1.884   1.885
  1.896   1.900   1.908   1.912   1.922   1.934   1.936   1.941
  1.953   1.965   1.974   1.984   1.992   1.994   2.000   2.002
  2.015   2.019   2.028   2.039   2.040   2.054   2.059   2.063
  2.077   2.081   2.105   2.108   2.113   2.116   2.123   2.136
  2.140   2.143   2.162   2.172   2.177   2.179   2.184   2.188
  2.201   2.205   2.209   2.223   2.227   2.242   2.244   2.259
  2.264   2.268   2.283   2.293   2.294   2.299   2.307   2.316
  2.318   2.327   2.331   2.344   2.347   2.358   2.368   2.375
  2.382   2.386   2.396   2.400   2.404   2.412   2.419   2.426
  2.435   2.442   2.453   2.456   2.457   2.463   2.468   2.470
  2.483   2.495   2.500   2.523   2.528   2.531   2.532   2.535
  2.536   2.539   2.550   2.551   2.555   2.565   2.577   2.596
  2.605   2.614   2.624   2.630   2.637   2.638   2.648   2.656
  2.658   2.663   2.670   2.674   2.687   2.697   2.710   2.716
  2.725   2.728   2.738   2.745   2.759   2.771   2.774   2.779
  2.782   2.785   2.794   2.801   2.806   2.815   2.819   2.827
  2.829   2.838   2.840   2.850   2.851   2.860   2.870   2.875
  2.879   2.887   2.895   2.909   2.912   2.914   2.926   2.935
  2.938   2.942   2.947   2.949   2.957   2.967   2.975   2.982
  2.989   2.990   3.001   3.005   3.009   3.010   3.014   3.021
  3.024   3.030   3.034   3.042   3.048   3.053   3.056   3.060
  3.063   3.068   3.070   3.073   3.079   3.084   3.087   3.089
  3.097   3.101   3.101   3.104   3.117   3.119   3.121   3.125
  3.137   3.143   3.153   3.154   3.154   3.159   3.165   3.167
  3.171   3.181   3.182   3.192   3.193   3.196   3.201   3.208
  3.212   3.214   3.219   3.222   3.226   3.232   3.234   3.236
  3.242   3.247   3.253   3.256   3.262   3.265   3.269   3.275
  3.279   3.283   3.287   3.288   3.291   3.297   3.304   3.306
  3.308   3.314   3.318   3.322   3.325   3.333   3.334   3.340
  3.346   3.353   3.355   3.364   3.373   3.381   3.387   3.389
  3.400   3.400   3.411   3.412   3.416   3.421   3.429   3.432
  3.435   3.443   3.448   3.453   3.458   3.466   3.472   3.475
  3.480   3.488   3.492   3.498   3.503   3.507   3.511   3.519
  3.527   3.528   3.530   3.556   3.563   3.564   3.570   3.573
  3.584   3.600   3.608   3.618   3.620   3.631   3.634   3.648
  3.650   3.657   3.677   3.681   3.686   3.695   3.703   3.707
  3.717   3.724   3.731   3.732   3.737   3.745   3.752   3.756
  3.768   3.777   3.778   3.788   3.790   3.799   3.799   3.815
  3.817   3.825   3.829   3.834   3.849   3.857   3.862   3.880
  3.887   3.896   3.905   3.911   3.915   3.919   3.926   3.931
  3.934   3.939   3.942   3.950   3.952   3.959   3.966   3.976
  3.981   3.983   3.990   4.003   4.014   4.025   4.028   4.040
  4.046   4.056   4.060   4.076   4.083   4.084   4.092   4.105
  4.109   4.113   4.121   4.134   4.145   4.155   4.164   4.173
  4.186   4.194   4.198   4.201   4.211   4.215   4.220   4.222
  4.228   4.230   4.245   4.250   4.257   4.261   4.270   4.277
  4.288   4.294   4.303   4.306   4.316   4.321   4.330   4.333
  4.345   4.348   4.357   4.362   4.372   4.374   4.379   4.390
  4.399   4.407   4.422   4.425   4.436   4.438   4.449   4.456
  4.467   4.477   4.492   4.495   4.513   4.523   4.526   4.531
  4.549   4.554   4.564   4.571   4.574   4.589   4.602   4.606
  4.619   4.628   4.642   4.648   4.664   4.675   4.678   4.684
  4.716   4.720   4.734   4.744   4.753   4.771   4.776   4.792
  4.792   4.799   4.810   4.815   4.829   4.841   4.845   4.854
  4.870   4.878   4.886   4.896   4.901   4.911   4.914   4.930
  4.937   4.942   4.952   4.970   4.975   4.978   4.986   4.993
  4.996   5.007   5.008   5.016   5.021   5.039   5.046   5.051
  5.059   5.067   5.078   5.093   5.098   5.102   5.119   5.120
  5.133   5.143   5.148   5.156   5.162   5.167   5.186   5.194
  5.212   5.218   5.239   5.243   5.270   5.304   5.307   5.315
  5.325   5.336   5.350   5.371   5.378   5.399   5.402   5.427
  5.438   5.464   5.472   5.486   5.493   5.502   5.529   5.541
  5.564   5.572   5.575   5.590   5.598   5.603   5.624   5.646
  5.672   5.690   5.713   5.722   5.739   5.750   5.752   5.783
  5.793   5.832   5.839   5.857   5.875   5.890   5.903   5.929
  5.945   5.965   5.998   6.041   6.088   6.113   6.139   6.167
  6.200   6.241   6.252   6.298   6.299   6.334   6.379   6.430
  6.444   6.487   6.637   6.862   6.988   7.076   8.025   8.852
  9.812  10.174  10.653  11.090  11.250  11.677  12.005  12.064
 12.371  12.635  12.736  12.796  12.849  12.956  13.075  13.164
 13.322  13.428  13.541  13.974  14.301  14.626  15.059  15.072
 --------------------------------------------------------------
 
          Ground-State Mulliken Net Atomic Charges

     Atom                 Charge (a.u.)
  ----------------------------------------
      1 C                    -0.092402
      2 C                    -0.128668
      3 C                    -0.079556
      4 C                    -0.118408
      5 N                    -0.144489
      6 C                     0.080773
      7 C                     0.104335
      8 N                    -0.177271
      9 C                    -0.010395
     10 C                    -0.071129
     11 N                    -0.219854
     12 C                     0.041780
     13 C                     0.056028
     14 S                     0.408048
     15 N                    -0.297523
     16 C                    -0.076057
     17 S                     0.186852
     18 C                     0.047358
     19 C                    -0.056083
     20 N                    -0.166721
     21 C                     0.058136
     22 C                    -0.014954
     23 C                    -0.045478
     24 N                    -0.161239
     25 C                    -0.141986
     26 S                     0.102701
     27 C                    -0.048432
     28 C                    -0.156220
     29 C                    -0.182248
     30 H                     0.133190
     31 H                     0.119377
     32 H                     0.119413
     33 H                     0.137269
     34 H                     0.130856
     35 H                     0.130723
     36 H                     0.137601
     37 H                     0.127568
     38 H                     0.130519
     39 H                     0.136587
  ----------------------------------------
  Sum of atomic charges =     0.000000

 -----------------------------------------------------------------
                    Cartesian Multipole Moments
 -----------------------------------------------------------------
    Charge (ESU x 10^10)
                 0.0000
    Dipole Moment (Debye)
         X      -0.2977      Y       1.2853      Z       0.9870
       Tot       1.6477
    Quadrupole Moments (Debye-Ang)
        XX    -151.8803     XY       1.4267     YY    -166.4868
        XZ       3.6454     YZ       0.6412     ZZ    -184.9007
    Octopole Moments (Debye-Ang^2)
       XXX     104.2456    XXY      11.1224    XYY     -50.9777
       YYY      25.1782    XXZ      55.1406    XYZ      25.7636
       YYZ     -13.8256    XZZ      14.6849    YZZ       1.7923
       ZZZ      -8.0912
    Hexadecapole Moments (Debye-Ang^3)
      XXXX  -15946.5262   XXXY     475.3247   XXYY   -3562.2996
      XYYY    -164.9474   YYYY   -3329.8419   XXXZ      23.2732
      XXYZ     101.3134   XYYZ      58.7335   YYYZ     -47.6010
      XXZZ   -3400.7074   XYZZ     -13.6558   YYZZ    -697.6377
      XZZZ      14.7807   YZZZ      17.2744   ZZZZ    -505.3130
 -----------------------------------------------------------------
 Calculating analytic gradient of the SCF energy
 K construction time:  CPU 2862.05 s  wall 181.46 s
 Gradient of SCF Energy
            1           2           3           4           5           6
    1   0.0003772  -0.0013901   0.0004331   0.0016055   0.0005000  -0.0013843
    2  -0.0000284  -0.0005462  -0.0001525   0.0000167  -0.0002811   0.0001623
    3   0.0001546  -0.0007480   0.0000382   0.0001534   0.0000145  -0.0004783
            7           8           9          10          11          12
    1   0.0013714   0.0000904  -0.0008046   0.0024545  -0.0005971   0.0006178
    2   0.0001654  -0.0007889   0.0000577   0.0024086  -0.0000238   0.0002354
    3   0.0010596   0.0004861  -0.0003487  -0.0014550   0.0002543  -0.0009058
           13          14          15          16          17          18
    1  -0.0035635   0.0003383   0.0014907   0.0039119  -0.0018635  -0.0004660
    2  -0.0007120  -0.0013264   0.0014583  -0.0021185  -0.0002346   0.0008517
    3  -0.0010833  -0.0001236  -0.0002583   0.0021237   0.0033271  -0.0025601
           19          20          21          22          23          24
    1  -0.0007984  -0.0020826   0.0001522   0.0006495  -0.0015918  -0.0001517
    2  -0.0013313   0.0006087   0.0016417   0.0018310  -0.0004627  -0.0009343
    3  -0.0019796   0.0008735   0.0002558   0.0000093   0.0003159   0.0008353
           25          26          27          28          29          30
    1  -0.0000133  -0.0001494   0.0008234  -0.0007901   0.0007506  -0.0000103
    2   0.0004144  -0.0003345   0.0009986  -0.0007578  -0.0007608   0.0000937
    3   0.0001984  -0.0003739  -0.0008793  -0.0000748  -0.0001280   0.0002860
           31          32          33          34          35          36
    1   0.0001868  -0.0003039  -0.0001655   0.0003569   0.0004692   0.0004118
    2   0.0004750   0.0001556   0.0001004  -0.0015304   0.0000186  -0.0004914
    3   0.0003817   0.0000044  -0.0000458   0.0005343   0.0000024  -0.0002653
           37          38          39
    1  -0.0004390   0.0001410  -0.0005671
    2   0.0000228   0.0006773   0.0004215
    3   0.0001420   0.0002018   0.0000556
 Max gradient component =       3.912E-03
 RMS gradient           =       1.050E-03
 Gradient time:  CPU 3317.09 s  wall 212.47 s
 Geometry Optimization Parameters
   NAtoms,    NIC,     NZ,  NCons,   NDum,   NFix, NCnnct, MaxDiis
       39     293       0       3       0       0       0       0


** CONSTRAINED OPTIMIZATION IN DELOCALIZED INTERNAL COORDINATES **
   Searching for a Minimum

   Optimization Cycle:   1

                       Coordinates (Angstroms)
     ATOM                X               Y               Z
      1  C         7.6698283730    0.3435540171    0.3870433843
      2  C         6.9454069769    1.3129414590    1.0613143223
      3  C         6.9721901980   -0.6001060157   -0.3496907714
      4  C         5.5684246193    1.2945675592    0.9796464175
      5  N         5.6484341396   -0.6323514299   -0.4344082764
      6  C         4.9569078598    0.2959140692    0.2232053044
      7  C         3.4764645231    0.2594986897    0.1276901466
      8  N         2.8343482216    1.3688365229    0.3704742362
      9  C         2.7268456464   -0.9198254824   -0.1943778786
     10  C         1.4823946518    1.4427995551    0.3161226246
     11  N         3.1846548905   -2.1536578317   -0.4165863576
     12  C         1.2986245417   -0.8328140702   -0.2598770907
     13  C         0.6358016686    0.4030496393    0.0096648371
     14  S         1.9034885897   -3.0738859296   -0.7009995649
     15  N         0.7165374189   -1.9938156349   -0.5531078463
     16  C        -0.8117317995    0.5484288418   -0.0031294580
     17  S        -1.8794918869   -0.7487372281    0.3630193552
     18  C        -1.5723771014    1.6849369008   -0.2790941618
     19  C        -3.3097639305    0.1515075112    0.1336741489
     20  N        -1.0839305200    2.9156951848   -0.6000495601
     21  C        -2.9831321817    1.4609755473   -0.1980266426
     22  C        -4.6238987606   -0.4273454893    0.2991066702
     23  C        -1.9693747124    3.8364302372   -0.8251159599
     24  N        -3.8832895720    2.4513204532   -0.4412026479
     25  C        -5.7961075390    0.2180104669    0.5829263672
     26  S        -4.8950775365   -2.1328473709    0.1359058039
     27  C        -3.3770783560    3.6062703392   -0.7473678653
     28  C        -6.9023199006   -0.6594605968    0.6809403718
     29  C        -6.5655513827   -1.9593923113    0.4695417325
     30  H         8.7494227235    0.3175613060    0.4296933334
     31  H         7.4487730398    2.0723392470    1.6457641274
     32  H         7.5001667033   -1.3686960394   -0.9014734587
     33  H         4.9566177244    2.0291553150    1.4803165851
     34  H         1.0686315242    2.4086622194    0.5562170249
     35  H        -1.6034556692    4.8234113395   -1.0876721715
     36  H        -5.8466457833    1.2867766511    0.7054395399
     37  H        -4.0674102781    4.4185247507   -0.9473191213
     38  H        -7.9054338694   -0.3304189772    0.9057687946
     39  H        -7.2099751901   -2.8216234098    0.4854400090
   Point Group: c1    Number of degrees of freedom:   111


   Energy is  -2291.149663914

              Constraints and their Current Values
                                        Value     Constraint
   Dihedral:        4   6   7   8       21.915       21.822
   Dihedral:       10  13  16  17     -150.000     -150.000
   Dihedral:       17  19  22  25      156.426      156.395

 Attempting to Generate Delocalized Internal Coordinates

   Using Lagrange Multiplier Algorithm


114 Hessian modes will be used to form the next step
  Hessian Eigenvalues:
    -0.977753   -0.977753   -0.977753    0.045000    0.045000    0.045000
     0.045000    0.045000    0.045000    0.045000    0.045000    0.045000
     0.045000    0.045000    0.045000    0.045000    0.045001    0.045001
     0.045001    0.045001    0.045001    0.045001    0.045001    0.045002
     0.045002    0.045002    0.045002    0.045003    0.045003    0.045004
     0.045004    0.045007    0.045008    0.045011    0.045025    0.045042
     0.159985    0.159992    0.159996    0.159998    0.159999    0.159999
     0.160000    0.160000    0.160000    0.160000    0.219998    0.221296
     0.223765    0.224234    0.233056    0.237962    0.243336    0.244277
     0.249685    0.249909    0.249932    0.249960    0.249971    0.249981
     0.249981    0.249983    0.249989    0.249990    0.249993    0.249993
     0.249995    0.312597    0.327538    0.334467    0.341192    0.341261
     0.354111    0.354476    0.355757    0.357029    0.359040    0.360698
     0.360954    0.362567    0.363652    0.364134    0.369052    0.372794
     0.376138    0.388443    0.390986    0.406991    0.407224    0.418673
     0.432515    0.440847    0.460521    0.465837    0.471161    0.473690
     0.482795    0.484038    0.485870    0.485956    0.504402    0.517476
     0.518991    0.525383    0.557629    0.572590    0.582389    0.589743
     0.639523    0.655125    0.663887    1.022753    1.022753    1.022753

 Minimum Search - Taking P-RFO Step
 Searching for Lamda that Maximizes Along the Constraint modes Only
 Value Taken    Lamda =   0.00000659
 Searching for Lamda that Minimizes Along All other modes
 Value Taken    Lamda =  -0.00070191
 Step Taken.  Stepsize is  0.091336

                             Maximum     Tolerance    Cnvgd?
         Gradient            0.005286       0.000300      NO
         Displacement        0.028650       0.001200      NO
         Energy change     *********       0.000001      NO


 New Cartesian Coordinates Obtained by Inverse Iteration

 Displacement from previous Coordinates is:  0.362906
 ----------------------------------------------------------------
             Standard Nuclear Orientation (Angstroms)
    I     Atom           X                Y                Z
 ----------------------------------------------------------------
    1      C       7.6532266103     0.3594138221     0.3590934071
    2      C       6.9359358189     1.3210954297     1.0521370222
    3      C       6.9491503310    -0.5836071535    -0.3717924369
    4      C       5.5567199237     1.2974563462     0.9907366715
    5      N       5.6248132460    -0.6213931277    -0.4361754427
    6      C       4.9402767044     0.3000183129     0.2371404334
    7      C       3.4591089204     0.2585722808     0.1514096109
    8      N       2.8138106951     1.3646572246     0.4028495428
    9      C       2.7171185180    -0.9254768905    -0.1700949955
   10      C       1.4618395444     1.4315334245     0.3492365913
   11      N       3.1809166513    -2.1559701469    -0.3966461602
   12      C       1.2889199422    -0.8450190403    -0.2381381276
   13      C       0.6273585696     0.3913673813     0.0236561965
   14      S       1.9011334371    -3.0783678561    -0.6818312716
   15      N       0.7073212922    -2.0067845311    -0.5329122106
   16      C      -0.8173283618     0.5388266273    -0.0126976694
   17      S      -1.8877726599    -0.7567903541     0.3293719828
   18      C      -1.5626189613     1.6795842170    -0.2852981543
   19      C      -3.3115608798     0.1576434624     0.1179499440
   20      N      -1.0504383502     2.9016739622    -0.6025262242
   21      C      -2.9751954520     1.4661363082    -0.2119557498
   22      C      -4.6257319932    -0.4228839662     0.2870728617
   23      C      -1.9235324597     3.8332687520    -0.8293303261
   24      N      -3.8605506328     2.4694383785    -0.4572281673
   25      C      -5.7982882231     0.2153631383     0.5874965798
   26      S      -4.8884810195    -2.1280060546     0.1176974857
   27      C      -3.3352970204     3.6178047814    -0.7561200764
   28      C      -6.8985969288    -0.6690118144     0.6872946874
   29      C      -6.5566854334    -1.9653577720     0.4644534151
   30      H       8.7335102280     0.3376566451     0.3822574455
   31      H       7.4455848247     2.0784110051     1.6321111591
   32      H       7.4735840275    -1.3463457556    -0.9357006921
   33      H       4.9494461853     2.0267450247     1.5040675198
   34      H       1.0419523167     2.3996765171     0.5783553410
   35      H      -1.5483750465     4.8171938554    -1.0892395276
   36      H      -5.8556341292     1.2833049180     0.7206301803
   37      H      -4.0121362610     4.4400045669    -0.9593432027
   38      H      -7.9030872169    -0.3516790923     0.9217833328
   39      H      -7.1924986933    -2.8339628209     0.4796453285
 ----------------------------------------------------------------
 Molecular Point Group                 C1    NOp =  1
 Largest Abelian Subgroup              C1    NOp =  1
 Nuclear Repulsion Energy =  2931.2595837323 hartrees
 There are      110 alpha and      110 beta electrons
 Applying Cartesian multipole field
    Component          Value
    ---------          -----
     (2,0,0)        1.00000E-12
     (0,2,0)        2.00000E-11
     (0,0,2)       -3.00000E-11
 Nucleus-field energy     =     0.0000000611 hartrees
 Requested basis set is cc-pVTZ
 There are 356 shells and 1022 basis functions
 A cutoff of  1.0D-11 yielded  30931 shell pairs
 There are    243927 function pairs (    318309 Cartesian)
 Smallest overlap matrix eigenvalue = 2.82E-05
 Guess MOs from SCF MO coefficient file
 Reading MOs from coefficient file
 Reading MOs from coefficient file
 Long-range K will be added via erf
 Coulomb attenuation parameter = 0.2 bohr**(-1)
 A restricted hybrid HF-DFT SCF calculation will be
 performed using Pulay DIIS extrapolation
 Exchange:     0.2220 Hartree-Fock + 1.0000 wB97X-D + LR-HF
 Correlation:  1.0000 wB97X-D
 Using SG-2 standard quadrature grid
 Dispersion:   Grimme D
 SCF converges when DIIS error is below 1.0E-08
 Geometry optimization detected.  Setting ReadMinima to 0
 Setting SaveMinima to 0
 using 16 threads for integral computing 
 using 16 threads for integral computing 
 K construction time:  CPU 1117.89 s  wall 73.97 s
 -------------------------------------------------------
 OpenMP BLAS3 based DFT computing Module                
 Release: version 1.0, May 2013, Q-Chem Inc. Pittsburgh 
 -------------------------------------------------------
 ---------------------------------------
  Cycle       Energy         DIIS Error
 ---------------------------------------
    1   -2291.1504053869      1.99E-04
 K construction time:  CPU 1118.37 s  wall 73.88 s
    2   -2291.1499283488      2.08E-05
 K construction time:  CPU 818.36 s  wall 54.16 s
    3   -2291.1499919868      1.98E-05
 K construction time:  CPU 777.66 s  wall 51.40 s
    4   -2291.1500370966      7.92E-06
 K construction time:  CPU 720.37 s  wall 47.64 s
    5   -2291.1500458947      3.09E-06
 K construction time:  CPU 655.47 s  wall 43.41 s
    6   -2291.1500471798      1.12E-06
 K construction time:  CPU 597.99 s  wall 39.40 s
    7   -2291.1500473742      3.96E-07
 K construction time:  CPU 543.96 s  wall 35.88 s
    8   -2291.1500474042      1.63E-07
 K construction time:  CPU 509.13 s  wall 33.45 s
    9   -2291.1500474123      8.13E-08
 K construction time:  CPU 443.02 s  wall 29.15 s
   10   -2291.1500474145      3.18E-08
 K construction time:  CPU 425.26 s  wall 27.84 s
   11   -2291.1500474147      1.78E-08
 K construction time:  CPU 383.71 s  wall 25.08 s
   12   -2291.1500474165      6.79E-09 Convergence criterion met
 ---------------------------------------
 SCF time:  CPU 10921.83 s  wall 739.78 s
 SCF   energy in the final basis set = -2291.1500474165
 Total energy in the final basis set = -2291.1500474165
 
 --------------------------------------------------------------
 
                    Orbital Energies (a.u.)
 --------------------------------------------------------------
 
 Alpha MOs
 -- Occupied --
-89.146 -89.100 -89.079 -14.482 -14.479 -14.462 -14.461 -14.446
-14.434 -10.355 -10.353 -10.351 -10.344 -10.344 -10.343 -10.340
-10.340 -10.338 -10.336 -10.335 -10.329 -10.329 -10.324 -10.319
-10.310 -10.301 -10.298 -10.295 -10.293  -8.156  -8.114  -8.095
 -6.106  -6.100  -6.100  -6.063  -6.059  -6.058  -6.044  -6.040
 -6.038  -1.143  -1.101  -1.069  -1.049  -1.029  -1.014  -1.004
 -0.987  -0.925  -0.912  -0.896  -0.879  -0.869  -0.853  -0.839
 -0.812  -0.777  -0.772  -0.748  -0.738  -0.731  -0.717  -0.711
 -0.672  -0.655  -0.648  -0.629  -0.629  -0.621  -0.607  -0.603
 -0.588  -0.576  -0.567  -0.562  -0.558  -0.547  -0.542  -0.526
 -0.512  -0.507  -0.501  -0.499  -0.493  -0.492  -0.487  -0.482
 -0.473  -0.466  -0.462  -0.460  -0.450  -0.441  -0.428  -0.426
 -0.420  -0.412  -0.396  -0.376  -0.372  -0.360  -0.356  -0.351
 -0.342  -0.339  -0.335  -0.334  -0.320  -0.265
 -- Virtual --
 -0.052  -0.026   0.024   0.032   0.042   0.053   0.068   0.073
  0.086   0.090   0.111   0.123   0.124   0.127   0.131   0.136
  0.151   0.152   0.155   0.162   0.167   0.175   0.180   0.190
  0.199   0.203   0.210   0.215   0.226   0.228   0.243   0.248
  0.259   0.264   0.268   0.276   0.278   0.290   0.292   0.294
  0.300   0.303   0.308   0.312   0.317   0.322   0.323   0.330
  0.332   0.336   0.342   0.347   0.348   0.349   0.354   0.361
  0.365   0.368   0.372   0.375   0.382   0.382   0.386   0.388
  0.390   0.393   0.397   0.400   0.405   0.407   0.411   0.414
  0.414   0.419   0.421   0.429   0.433   0.433   0.434   0.442
  0.442   0.445   0.454   0.455   0.458   0.460   0.464   0.464
  0.468   0.470   0.478   0.480   0.482   0.485   0.487   0.491
  0.494   0.497   0.504   0.508   0.509   0.513   0.518   0.520
  0.525   0.531   0.534   0.537   0.538   0.542   0.545   0.551
  0.559   0.561   0.564   0.574   0.578   0.584   0.589   0.596
  0.602   0.607   0.611   0.615   0.624   0.627   0.630   0.636
  0.641   0.647   0.649   0.658   0.662   0.666   0.668   0.670
  0.674   0.679   0.692   0.696   0.698   0.706   0.712   0.715
  0.722   0.725   0.731   0.734   0.739   0.742   0.748   0.752
  0.762   0.763   0.768   0.775   0.776   0.778   0.782   0.785
  0.789   0.799   0.806   0.808   0.810   0.816   0.819   0.822
  0.828   0.831   0.839   0.843   0.845   0.850   0.855   0.858
  0.859   0.872   0.875   0.877   0.879   0.885   0.886   0.904
  0.910   0.916   0.918   0.922   0.925   0.926   0.932   0.935
  0.939   0.945   0.951   0.953   0.957   0.961   0.969   0.972
  0.976   0.979   0.987   0.989   0.997   0.999   1.013   1.016
  1.022   1.027   1.034   1.039   1.046   1.049   1.054   1.059
  1.063   1.066   1.074   1.084   1.087   1.090   1.093   1.097
  1.103   1.108   1.108   1.112   1.119   1.125   1.134   1.139
  1.143   1.155   1.163   1.167   1.175   1.180   1.185   1.187
  1.191   1.207   1.211   1.218   1.227   1.230   1.234   1.246
  1.253   1.255   1.265   1.270   1.274   1.290   1.294   1.297
  1.306   1.314   1.324   1.326   1.332   1.344   1.351   1.354
  1.360   1.368   1.369   1.374   1.377   1.382   1.386   1.388
  1.401   1.404   1.408   1.417   1.424   1.425   1.435   1.438
  1.441   1.445   1.454   1.456   1.457   1.478   1.479   1.484
  1.487   1.496   1.499   1.505   1.511   1.512   1.519   1.525
  1.546   1.555   1.562   1.569   1.576   1.583   1.585   1.596
  1.603   1.609   1.610   1.622   1.625   1.637   1.644   1.654
  1.657   1.658   1.666   1.667   1.673   1.684   1.688   1.698
  1.703   1.713   1.720   1.722   1.731   1.736   1.740   1.748
  1.755   1.766   1.775   1.782   1.789   1.792   1.798   1.807
  1.820   1.828   1.835   1.847   1.858   1.876   1.885   1.885
  1.898   1.900   1.909   1.911   1.923   1.935   1.936   1.942
  1.953   1.967   1.975   1.984   1.993   1.993   2.001   2.004
  2.016   2.020   2.030   2.037   2.041   2.053   2.058   2.063
  2.077   2.082   2.105   2.108   2.112   2.115   2.124   2.136
  2.140   2.144   2.162   2.171   2.176   2.182   2.184   2.188
  2.202   2.206   2.209   2.224   2.227   2.244   2.245   2.260
  2.265   2.268   2.283   2.292   2.294   2.299   2.307   2.315
  2.319   2.326   2.332   2.344   2.347   2.358   2.366   2.374
  2.382   2.388   2.397   2.401   2.403   2.413   2.419   2.425
  2.436   2.441   2.453   2.457   2.459   2.462   2.468   2.470
  2.484   2.496   2.501   2.524   2.529   2.531   2.533   2.535
  2.538   2.539   2.550   2.553   2.555   2.566   2.577   2.598
  2.604   2.615   2.625   2.631   2.636   2.639   2.651   2.657
  2.659   2.664   2.670   2.674   2.688   2.697   2.710   2.716
  2.725   2.728   2.738   2.746   2.760   2.772   2.774   2.779
  2.783   2.786   2.795   2.799   2.807   2.816   2.820   2.827
  2.829   2.838   2.840   2.849   2.851   2.861   2.870   2.877
  2.879   2.887   2.895   2.910   2.912   2.914   2.927   2.936
  2.940   2.943   2.947   2.951   2.959   2.968   2.975   2.982
  2.989   2.991   3.002   3.005   3.009   3.011   3.015   3.022
  3.024   3.030   3.036   3.042   3.049   3.053   3.056   3.061
  3.064   3.069   3.070   3.072   3.080   3.084   3.087   3.090
  3.097   3.101   3.102   3.104   3.119   3.121   3.121   3.126
  3.137   3.144   3.154   3.154   3.155   3.159   3.166   3.167
  3.172   3.181   3.182   3.193   3.194   3.197   3.202   3.209
  3.212   3.214   3.222   3.223   3.228   3.232   3.235   3.236
  3.242   3.246   3.253   3.257   3.262   3.266   3.270   3.276
  3.281   3.284   3.287   3.289   3.292   3.298   3.304   3.307
  3.309   3.314   3.319   3.322   3.325   3.333   3.335   3.342
  3.346   3.353   3.356   3.363   3.373   3.383   3.388   3.389
  3.399   3.401   3.412   3.412   3.418   3.421   3.429   3.433
  3.435   3.443   3.449   3.453   3.461   3.466   3.472   3.476
  3.481   3.490   3.492   3.499   3.502   3.507   3.512   3.519
  3.527   3.529   3.531   3.556   3.563   3.565   3.570   3.574
  3.583   3.600   3.609   3.619   3.621   3.631   3.634   3.648
  3.650   3.657   3.678   3.684   3.687   3.695   3.703   3.708
  3.717   3.722   3.732   3.734   3.737   3.745   3.753   3.757
  3.767   3.777   3.780   3.789   3.792   3.799   3.801   3.816
  3.818   3.827   3.832   3.836   3.850   3.857   3.864   3.880
  3.887   3.896   3.906   3.910   3.915   3.920   3.927   3.931
  3.934   3.939   3.943   3.950   3.953   3.962   3.966   3.977
  3.983   3.984   3.991   4.005   4.014   4.026   4.030   4.040
  4.046   4.057   4.061   4.076   4.082   4.084   4.095   4.105
  4.110   4.115   4.122   4.136   4.145   4.157   4.164   4.173
  4.187   4.195   4.199   4.202   4.212   4.215   4.220   4.223
  4.228   4.230   4.245   4.250   4.258   4.264   4.269   4.276
  4.290   4.295   4.303   4.308   4.318   4.324   4.329   4.334
  4.347   4.350   4.359   4.361   4.370   4.376   4.378   4.393
  4.399   4.407   4.423   4.426   4.436   4.439   4.447   4.458
  4.469   4.478   4.493   4.497   4.514   4.523   4.527   4.532
  4.549   4.555   4.562   4.570   4.576   4.588   4.601   4.608
  4.620   4.628   4.642   4.650   4.665   4.676   4.679   4.686
  4.716   4.723   4.734   4.745   4.753   4.774   4.778   4.791
  4.794   4.801   4.809   4.816   4.828   4.841   4.843   4.854
  4.871   4.881   4.886   4.898   4.901   4.912   4.913   4.930
  4.938   4.942   4.952   4.970   4.974   4.979   4.986   4.993
  4.997   5.008   5.009   5.016   5.022   5.040   5.047   5.051
  5.062   5.069   5.079   5.092   5.100   5.102   5.119   5.121
  5.134   5.142   5.148   5.158   5.163   5.167   5.185   5.192
  5.211   5.219   5.239   5.246   5.270   5.303   5.308   5.317
  5.326   5.339   5.351   5.371   5.379   5.402   5.404   5.427
  5.439   5.464   5.473   5.487   5.492   5.501   5.528   5.540
  5.563   5.571   5.577   5.591   5.599   5.602   5.627   5.648
  5.672   5.691   5.713   5.721   5.739   5.750   5.753   5.783
  5.795   5.834   5.838   5.857   5.873   5.889   5.905   5.930
  5.947   5.966   6.000   6.042   6.089   6.114   6.143   6.169
  6.201   6.241   6.252   6.300   6.302   6.335   6.380   6.431
  6.445   6.489   6.643   6.866   6.986   7.076   8.034   8.882
  9.817  10.176  10.658  11.098  11.249  11.685  12.010  12.065
 12.375  12.640  12.744  12.803  12.853  12.964  13.077  13.231
 13.329  13.428  13.541  14.022  14.292  14.654  15.066  15.076
 --------------------------------------------------------------
 
          Ground-State Mulliken Net Atomic Charges

     Atom                 Charge (a.u.)
  ----------------------------------------
      1 C                    -0.092169
      2 C                    -0.128764
      3 C                    -0.080100
      4 C                    -0.119309
      5 N                    -0.144607
      6 C                     0.082024
      7 C                     0.103856
      8 N                    -0.177295
      9 C                    -0.011684
     10 C                    -0.072269
     11 N                    -0.218735
     12 C                     0.042848
     13 C                     0.059436
     14 S                     0.407173
     15 N                    -0.298467
     16 C                    -0.071984
     17 S                     0.186652
     18 C                     0.048582
     19 C                    -0.058577
     20 N                    -0.167718
     21 C                     0.054645
     22 C                    -0.014355
     23 C                    -0.045624
     24 N                    -0.159830
     25 C                    -0.142609
     26 S                     0.102531
     27 C                    -0.048069
     28 C                    -0.156001
     29 C                    -0.182341
     30 H                     0.133093
     31 H                     0.119630
     32 H                     0.119169
     33 H                     0.137117
     34 H                     0.130966
     35 H                     0.130807
     36 H                     0.136877
     37 H                     0.128168
     38 H                     0.130491
     39 H                     0.136442
  ----------------------------------------
  Sum of atomic charges =     0.000000

 -----------------------------------------------------------------
                    Cartesian Multipole Moments
 -----------------------------------------------------------------
    Charge (ESU x 10^10)
                 0.0000
    Dipole Moment (Debye)
         X      -0.2314      Y       1.2865      Z       0.9610
       Tot       1.6224
    Quadrupole Moments (Debye-Ang)
        XX    -152.1874     XY       1.7970     YY    -166.3740
        XZ       3.2151     YZ       0.6548     ZZ    -184.8428
    Octopole Moments (Debye-Ang^2)
       XXX     107.2011    XXY      10.0218    XYY     -49.8186
       YYY      26.3271    XXZ      54.1696    XYZ      25.3806
       YYZ     -13.8736    XZZ      14.8795    YZZ       1.9736
       ZZZ      -7.8254
    Hexadecapole Moments (Debye-Ang^3)
      XXXX  -15882.7884   XXXY     480.2333   XXYY   -3554.4747
      XYYY    -171.7134   YYYY   -3332.1964   XXXZ     -12.8120
      XXYZ     104.9858   XYYZ      54.8656   YYYZ     -47.4575
      XXZZ   -3383.1940   XYZZ     -18.6711   YYZZ    -698.0677
      XZZZ       5.5959   YZZZ      18.9297   ZZZZ    -503.1852
 -----------------------------------------------------------------
 Calculating analytic gradient of the SCF energy
 K construction time:  CPU 2876.24 s  wall 182.31 s
 Gradient of SCF Energy
            1           2           3           4           5           6
    1   0.0000831  -0.0002273   0.0001157   0.0003006  -0.0001377  -0.0002697
    2  -0.0001279   0.0000336   0.0001008   0.0002713  -0.0000957  -0.0002914
    3  -0.0001521  -0.0000018   0.0001237   0.0000725   0.0001832   0.0001232
            7           8           9          10          11          12
    1   0.0005616  -0.0006518   0.0001193   0.0004848   0.0004716  -0.0000144
    2  -0.0002015   0.0000618  -0.0006597  -0.0001894   0.0005237  -0.0009220
    3  -0.0001576   0.0000341   0.0001393   0.0002798  -0.0000123  -0.0006740
           13          14          15          16          17          18
    1  -0.0013372  -0.0001919  -0.0004080   0.0009835  -0.0006929   0.0000507
    2   0.0003708   0.0009097   0.0002972   0.0004478   0.0002239   0.0001953
    3  -0.0014323   0.0002223  -0.0003299   0.0013999   0.0015588  -0.0016599
           19          20          21          22          23          24
    1   0.0000046  -0.0000424   0.0003276   0.0002139  -0.0003967   0.0003617
    2  -0.0017029  -0.0002875   0.0010077   0.0004931  -0.0001250  -0.0007840
    3  -0.0006895   0.0007996  -0.0003895  -0.0000130  -0.0000076   0.0003461
           25          26          27          28          29          30
    1  -0.0005116  -0.0001035   0.0006997  -0.0001781   0.0005211  -0.0000280
    2   0.0000371  -0.0002224   0.0006121  -0.0003013  -0.0000944  -0.0000497
    3   0.0007337  -0.0000109  -0.0003265  -0.0002314  -0.0001812   0.0001447
           31          32          33          34          35          36
    1  -0.0000100  -0.0000960  -0.0000092  -0.0002362   0.0002217   0.0001315
    2   0.0000338  -0.0000096   0.0000749   0.0002424  -0.0000221  -0.0000486
    3   0.0000011  -0.0000696  -0.0000933   0.0000792   0.0000898  -0.0001023
           37          38          39
    1  -0.0000483   0.0001167  -0.0001787
    2  -0.0001260   0.0001907   0.0001334
    3   0.0000718   0.0001300   0.0000019
 Max gradient component =       1.703E-03
 RMS gradient           =       4.851E-04
 Gradient time:  CPU 3333.56 s  wall 213.35 s
 Geometry Optimization Parameters
   NAtoms,    NIC,     NZ,  NCons,   NDum,   NFix, NCnnct, MaxDiis
       39     293       0       3       0       0       0       0

 Cartesian Hessian Update
 Hessian Updated using BFGS Update


** CONSTRAINED OPTIMIZATION IN DELOCALIZED INTERNAL COORDINATES **
   Searching for a Minimum

   Optimization Cycle:   2

                       Coordinates (Angstroms)
     ATOM                X               Y               Z
      1  C         7.6532266103    0.3594138221    0.3590934071
      2  C         6.9359358189    1.3210954297    1.0521370222
      3  C         6.9491503310   -0.5836071535   -0.3717924369
      4  C         5.5567199237    1.2974563462    0.9907366715
      5  N         5.6248132460   -0.6213931277   -0.4361754427
      6  C         4.9402767044    0.3000183129    0.2371404334
      7  C         3.4591089204    0.2585722808    0.1514096109
      8  N         2.8138106951    1.3646572246    0.4028495428
      9  C         2.7171185180   -0.9254768905   -0.1700949955
     10  C         1.4618395444    1.4315334245    0.3492365913
     11  N         3.1809166513   -2.1559701469   -0.3966461602
     12  C         1.2889199422   -0.8450190403   -0.2381381276
     13  C         0.6273585696    0.3913673813    0.0236561965
     14  S         1.9011334371   -3.0783678561   -0.6818312716
     15  N         0.7073212922   -2.0067845311   -0.5329122106
     16  C        -0.8173283618    0.5388266273   -0.0126976694
     17  S        -1.8877726599   -0.7567903541    0.3293719828
     18  C        -1.5626189613    1.6795842170   -0.2852981543
     19  C        -3.3115608798    0.1576434624    0.1179499440
     20  N        -1.0504383502    2.9016739622   -0.6025262242
     21  C        -2.9751954520    1.4661363082   -0.2119557498
     22  C        -4.6257319932   -0.4228839662    0.2870728617
     23  C        -1.9235324597    3.8332687520   -0.8293303261
     24  N        -3.8605506328    2.4694383785   -0.4572281673
     25  C        -5.7982882231    0.2153631383    0.5874965798
     26  S        -4.8884810195   -2.1280060546    0.1176974857
     27  C        -3.3352970204    3.6178047814   -0.7561200764
     28  C        -6.8985969288   -0.6690118144    0.6872946874
     29  C        -6.5566854334   -1.9653577720    0.4644534151
     30  H         8.7335102280    0.3376566451    0.3822574455
     31  H         7.4455848247    2.0784110051    1.6321111591
     32  H         7.4735840275   -1.3463457556   -0.9357006921
     33  H         4.9494461853    2.0267450247    1.5040675198
     34  H         1.0419523167    2.3996765171    0.5783553410
     35  H        -1.5483750465    4.8171938554   -1.0892395276
     36  H        -5.8556341292    1.2833049180    0.7206301803
     37  H        -4.0121362610    4.4400045669   -0.9593432027
     38  H        -7.9030872169   -0.3516790923    0.9217833328
     39  H        -7.1924986933   -2.8339628209    0.4796453285
   Point Group: c1    Number of degrees of freedom:   111


   Energy is  -2291.150047416

              Constraints and their Current Values
                                        Value     Constraint
   Dihedral:        4   6   7   8       21.822       21.822
   Dihedral:       10  13  16  17     -150.000     -150.000
   Dihedral:       17  19  22  25      156.395      156.395
 Hessian Updated using BFGS Update

102 Hessian modes will be used to form the next step
  Hessian Eigenvalues:
     0.030367    0.045000    0.045000    0.045000    0.045000    0.045000
     0.045000    0.045000    0.045000    0.045000    0.045001    0.045001
     0.045001    0.045001    0.045001    0.045001    0.045002    0.045002
     0.045003    0.045004    0.045004    0.045004    0.045007    0.045011
     0.045025    0.045039    0.046440    0.157448    0.159989    0.159992
     0.159996    0.159999    0.159999    0.160000    0.160000    0.160000
     0.160045    0.219949    0.221276    0.224087    0.224212    0.233011
     0.237976    0.242212    0.244207    0.246334    0.249692    0.249918
     0.249940    0.249967    0.249978    0.249981    0.249984    0.249987
     0.249992    0.249993    0.249994    0.287923    0.312175    0.325384
     0.334804    0.340742    0.341359    0.354098    0.354521    0.355750
     0.356974    0.359040    0.360701    0.360948    0.363212    0.363552
     0.364134    0.369156    0.372955    0.386781    0.389605    0.392279
     0.406229    0.407771    0.418708    0.432529    0.459612    0.463082
     0.469778    0.473500    0.473697    0.482888    0.485460    0.485825
     0.496243    0.505080    0.518893    0.522031    0.527609    0.560280
     0.573093    0.585310    0.589807    0.640225    0.658003    0.663818

 Minimum Search - Taking Simple RFO Step
 Searching for Lamda that Minimizes Along All modes
 Value Taken    Lamda =  -0.00014444
 Step Taken.  Stepsize is  0.060775

                             Maximum     Tolerance    Cnvgd?
         Gradient           0.001439      0.000300      NO
         Displacement       0.020628      0.001200      NO
         Energy change     -0.000384      0.000001      NO


 New Cartesian Coordinates Obtained by Inverse Iteration

 Displacement from previous Coordinates is:  0.211521
 ----------------------------------------------------------------
             Standard Nuclear Orientation (Angstroms)
    I     Atom           X                Y                Z
 ----------------------------------------------------------------
    1      C       7.6534290299     0.3699158226     0.3342186688
    2      C       6.9403320891     1.3240692647     1.0416060304
    3      C       6.9452404221    -0.5735157560    -0.3921298685
    4      C       5.5601550351     1.2940396722     0.9966248865
    5      N       5.6205040100    -0.6173691706    -0.4404791272
    6      C       4.9398474719     0.2974203577     0.2457885367
    7      C       3.4576748624     0.2536117615     0.1705560948
    8      N       2.8126405322     1.3581718789     0.4288091231
    9      C       2.7162082937    -0.9315460496    -0.1476702692
   10      C       1.4602086892     1.4247286437     0.3746688301
   11      N       3.1790853633    -2.1633766553    -0.3731022709
   12      C       1.2886276765    -0.8510351511    -0.2153427360
   13      C       0.6277431308     0.3869312869     0.0383388280
   14      S       1.9004961016    -3.0883677217    -0.6551809881
   15      N       0.7079422994    -2.0149024790    -0.5070046305
   16      C      -0.8182447260     0.5362035949    -0.0157619123
   17      S      -1.8901079853    -0.7596533716     0.3124896943
   18      C      -1.5617822242     1.6789665946    -0.2850415402
   19      C      -3.3130435995     0.1593553882     0.1091792994
   20      N      -1.0474611664     2.9005574329    -0.6038363099
   21      C      -2.9755256781     1.4672386823    -0.2158403796
   22      C      -4.6280679669    -0.4209549736     0.2747308912
   23      C      -1.9198609388     3.8330028321    -0.8309986360
   24      N      -3.8601630444     2.4720346809    -0.4615026456
   25      C      -5.7987992178     0.2173334230     0.5811219949
   26      S      -4.8924379877    -2.1246741250     0.1006860253
   27      C      -3.3326812783     3.6193706331    -0.7578404606
   28      C      -6.8996629564    -0.6664127168     0.6813121675
   29      C      -6.5595618005    -1.9623133990     0.4535862776
   30      H       8.7340741068     0.3539760887     0.3420360665
   31      H       7.4536309233     2.0808305437     1.6186842612
   32      H       7.4674714111    -1.3306432933    -0.9657179617
   33      H       4.9557321871     2.0178154489     1.5208798189
   34      H       1.0409895073     2.3938430406     0.6001528023
   35      H      -1.5457758576     4.8167977819    -1.0925062340
   36      H      -5.8560016066     1.2848240127     0.7199687478
   37      H      -4.0069714178     4.4432709877    -0.9629463198
   38      H      -7.9041234040    -0.3513048079     0.9189593055
   39      H      -7.1938422224    -2.8320501785     0.4679202431
 ----------------------------------------------------------------
 Molecular Point Group                 C1    NOp =  1
 Largest Abelian Subgroup              C1    NOp =  1
 Nuclear Repulsion Energy =  2931.0450999432 hartrees
 There are      110 alpha and      110 beta electrons
 Applying Cartesian multipole field
    Component          Value
    ---------          -----
     (2,0,0)        1.00000E-12
     (0,2,0)        2.00000E-11
     (0,0,2)       -3.00000E-11
 Nucleus-field energy     =     0.0000000613 hartrees
 Requested basis set is cc-pVTZ
 There are 356 shells and 1022 basis functions
 A cutoff of  1.0D-11 yielded  30931 shell pairs
 There are    243991 function pairs (    318421 Cartesian)
 Smallest overlap matrix eigenvalue = 2.79E-05
 Guess MOs from SCF MO coefficient file
 Reading MOs from coefficient file
 Reading MOs from coefficient file
 Long-range K will be added via erf
 Coulomb attenuation parameter = 0.2 bohr**(-1)
 A restricted hybrid HF-DFT SCF calculation will be
 performed using Pulay DIIS extrapolation
 Exchange:     0.2220 Hartree-Fock + 1.0000 wB97X-D + LR-HF
 Correlation:  1.0000 wB97X-D
 Using SG-2 standard quadrature grid
 Dispersion:   Grimme D
 SCF converges when DIIS error is below 1.0E-08
 Geometry optimization detected.  Setting ReadMinima to 0
 Setting SaveMinima to 0
 using 16 threads for integral computing 
 using 16 threads for integral computing 
 K construction time:  CPU 1121.58 s  wall 74.30 s
 -------------------------------------------------------
 OpenMP BLAS3 based DFT computing Module                
 Release: version 1.0, May 2013, Q-Chem Inc. Pittsburgh 
 -------------------------------------------------------
 ---------------------------------------
  Cycle       Energy         DIIS Error
 ---------------------------------------
    1   -2291.1486047673      1.14E-04
 K construction time:  CPU 1118.71 s  wall 73.99 s
    2   -2291.1500884633      1.14E-05
 K construction time:  CPU 772.14 s  wall 51.28 s
    3   -2291.1501251004      7.55E-06
 K construction time:  CPU 717.54 s  wall 47.54 s
    4   -2291.1501319416      3.98E-06
 K construction time:  CPU 688.82 s  wall 45.50 s
    5   -2291.1501344328      1.67E-06
 K construction time:  CPU 624.44 s  wall 41.27 s
    6   -2291.1501348187      7.08E-07
 K construction time:  CPU 554.72 s  wall 36.66 s
    7   -2291.1501348924      1.87E-07
 K construction time:  CPU 503.50 s  wall 33.18 s
    8   -2291.1501348983      1.16E-07
 K construction time:  CPU 461.50 s  wall 30.33 s
    9   -2291.1501349023      4.51E-08
 K construction time:  CPU 406.26 s  wall 26.66 s
   10   -2291.1501349025      1.79E-08
 K construction time:  CPU 386.32 s  wall 25.33 s
   11   -2291.1501349003      1.06E-08
 K construction time:  CPU 344.69 s  wall 22.63 s
   12   -2291.1501349015      3.60E-09 Convergence criterion met
 ---------------------------------------
 SCF time:  CPU 10416.45 s  wall 706.60 s
 SCF   energy in the final basis set = -2291.1501349015
 Total energy in the final basis set = -2291.1501349015
 
 --------------------------------------------------------------
 
                    Orbital Energies (a.u.)
 --------------------------------------------------------------
 
 Alpha MOs
 -- Occupied --
-89.146 -89.099 -89.079 -14.482 -14.479 -14.462 -14.461 -14.446
-14.434 -10.355 -10.353 -10.351 -10.344 -10.344 -10.343 -10.341
-10.340 -10.338 -10.336 -10.335 -10.330 -10.329 -10.324 -10.319
-10.310 -10.301 -10.298 -10.295 -10.293  -8.156  -8.114  -8.095
 -6.106  -6.101  -6.100  -6.063  -6.059  -6.058  -6.044  -6.040
 -6.038  -1.143  -1.101  -1.069  -1.049  -1.029  -1.013  -1.003
 -0.987  -0.925  -0.912  -0.896  -0.879  -0.869  -0.853  -0.838
 -0.812  -0.777  -0.772  -0.748  -0.738  -0.731  -0.717  -0.711
 -0.672  -0.655  -0.648  -0.629  -0.629  -0.621  -0.606  -0.603
 -0.588  -0.576  -0.567  -0.562  -0.558  -0.547  -0.542  -0.526
 -0.512  -0.507  -0.501  -0.499  -0.493  -0.492  -0.487  -0.482
 -0.474  -0.466  -0.462  -0.460  -0.450  -0.441  -0.428  -0.426
 -0.419  -0.412  -0.396  -0.376  -0.372  -0.360  -0.357  -0.351
 -0.342  -0.339  -0.335  -0.334  -0.320  -0.265
 -- Virtual --
 -0.052  -0.026   0.024   0.032   0.042   0.053   0.068   0.074
  0.085   0.090   0.111   0.123   0.124   0.127   0.131   0.137
  0.151   0.152   0.155   0.162   0.167   0.175   0.180   0.190
  0.200   0.203   0.210   0.215   0.226   0.228   0.242   0.247
  0.259   0.264   0.268   0.276   0.278   0.290   0.292   0.294
  0.300   0.303   0.308   0.312   0.317   0.322   0.323   0.330
  0.332   0.336   0.342   0.347   0.348   0.349   0.354   0.361
  0.366   0.368   0.372   0.375   0.381   0.382   0.386   0.389
  0.390   0.393   0.397   0.400   0.405   0.407   0.411   0.414
  0.414   0.419   0.420   0.429   0.433   0.434   0.434   0.442
  0.442   0.445   0.454   0.455   0.458   0.460   0.464   0.464
  0.468   0.470   0.478   0.480   0.482   0.485   0.486   0.491
  0.494   0.497   0.504   0.508   0.509   0.514   0.518   0.520
  0.525   0.530   0.534   0.537   0.538   0.542   0.545   0.551
  0.559   0.561   0.564   0.574   0.577   0.584   0.589   0.596
  0.602   0.607   0.611   0.615   0.624   0.627   0.630   0.636
  0.641   0.647   0.649   0.659   0.662   0.665   0.667   0.670
  0.674   0.679   0.692   0.696   0.698   0.706   0.712   0.715
  0.722   0.725   0.731   0.735   0.739   0.742   0.747   0.752
  0.762   0.763   0.768   0.775   0.776   0.778   0.782   0.786
  0.789   0.799   0.807   0.808   0.810   0.815   0.818   0.822
  0.828   0.831   0.839   0.843   0.845   0.850   0.856   0.857
  0.859   0.872   0.875   0.877   0.880   0.885   0.886   0.903
  0.910   0.916   0.918   0.922   0.925   0.927   0.932   0.934
  0.939   0.946   0.950   0.953   0.958   0.961   0.969   0.973
  0.976   0.980   0.988   0.989   0.997   1.000   1.013   1.015
  1.022   1.027   1.034   1.039   1.047   1.050   1.054   1.059
  1.062   1.066   1.074   1.084   1.086   1.090   1.094   1.097
  1.103   1.108   1.109   1.111   1.119   1.125   1.133   1.139
  1.144   1.155   1.163   1.167   1.174   1.180   1.184   1.186
  1.193   1.207   1.212   1.218   1.227   1.230   1.234   1.246
  1.253   1.254   1.264   1.270   1.274   1.290   1.293   1.297
  1.305   1.314   1.325   1.326   1.331   1.344   1.350   1.353
  1.360   1.369   1.370   1.374   1.377   1.382   1.386   1.388
  1.401   1.404   1.408   1.417   1.423   1.425   1.435   1.438
  1.441   1.445   1.454   1.456   1.457   1.478   1.479   1.484
  1.487   1.496   1.499   1.505   1.511   1.512   1.519   1.525
  1.546   1.555   1.562   1.569   1.576   1.583   1.585   1.597
  1.602   1.609   1.609   1.622   1.625   1.637   1.643   1.653
  1.657   1.658   1.666   1.667   1.673   1.684   1.688   1.697
  1.703   1.713   1.719   1.722   1.730   1.735   1.740   1.749
  1.754   1.766   1.775   1.783   1.789   1.791   1.797   1.807
  1.820   1.829   1.835   1.848   1.858   1.876   1.884   1.886
  1.898   1.899   1.909   1.911   1.924   1.935   1.936   1.942
  1.953   1.967   1.975   1.984   1.993   1.993   2.000   2.004
  2.016   2.020   2.030   2.036   2.041   2.053   2.059   2.062
  2.077   2.082   2.105   2.108   2.112   2.115   2.124   2.135
  2.139   2.144   2.161   2.171   2.176   2.182   2.184   2.188
  2.202   2.206   2.210   2.222   2.227   2.244   2.246   2.260
  2.266   2.267   2.283   2.291   2.295   2.299   2.307   2.314
  2.318   2.325   2.332   2.344   2.347   2.358   2.365   2.374
  2.381   2.388   2.397   2.400   2.403   2.413   2.418   2.425
  2.436   2.441   2.453   2.457   2.460   2.462   2.467   2.471
  2.483   2.495   2.502   2.524   2.529   2.531   2.534   2.535
  2.537   2.539   2.549   2.553   2.555   2.567   2.577   2.599
  2.604   2.616   2.624   2.630   2.635   2.639   2.651   2.657
  2.659   2.664   2.670   2.674   2.688   2.697   2.710   2.716
  2.724   2.728   2.737   2.746   2.760   2.772   2.774   2.779
  2.783   2.786   2.795   2.799   2.808   2.815   2.820   2.827
  2.829   2.838   2.840   2.848   2.851   2.861   2.870   2.877
  2.879   2.887   2.894   2.910   2.912   2.914   2.927   2.936
  2.940   2.942   2.947   2.951   2.959   2.968   2.975   2.982
  2.989   2.991   3.002   3.005   3.009   3.011   3.015   3.022
  3.024   3.030   3.036   3.041   3.049   3.053   3.056   3.061
  3.065   3.068   3.070   3.072   3.079   3.084   3.087   3.091
  3.096   3.100   3.102   3.104   3.119   3.121   3.121   3.125
  3.137   3.144   3.154   3.154   3.156   3.159   3.166   3.167
  3.172   3.181   3.183   3.193   3.194   3.197   3.202   3.209
  3.212   3.214   3.222   3.223   3.228   3.232   3.235   3.236
  3.242   3.245   3.253   3.257   3.262   3.266   3.271   3.277
  3.281   3.284   3.287   3.290   3.292   3.297   3.304   3.306
  3.309   3.314   3.319   3.322   3.324   3.332   3.335   3.343
  3.346   3.352   3.356   3.363   3.373   3.383   3.388   3.389
  3.399   3.402   3.411   3.413   3.417   3.421   3.429   3.433
  3.435   3.443   3.449   3.453   3.461   3.466   3.472   3.476
  3.481   3.490   3.492   3.499   3.502   3.507   3.512   3.518
  3.526   3.529   3.531   3.555   3.563   3.566   3.569   3.575
  3.584   3.598   3.609   3.619   3.620   3.631   3.635   3.648
  3.650   3.657   3.677   3.684   3.686   3.695   3.702   3.708
  3.717   3.721   3.732   3.734   3.737   3.745   3.753   3.757
  3.767   3.777   3.780   3.789   3.792   3.799   3.802   3.815
  3.818   3.826   3.832   3.836   3.850   3.857   3.864   3.881
  3.887   3.896   3.906   3.910   3.914   3.920   3.927   3.931
  3.934   3.939   3.943   3.950   3.953   3.962   3.966   3.977
  3.983   3.985   3.990   4.005   4.014   4.026   4.030   4.039
  4.045   4.056   4.061   4.076   4.082   4.084   4.095   4.103
  4.110   4.114   4.121   4.136   4.145   4.157   4.164   4.172
  4.187   4.195   4.199   4.202   4.210   4.214   4.219   4.223
  4.227   4.230   4.245   4.250   4.257   4.264   4.269   4.276
  4.289   4.295   4.302   4.308   4.318   4.324   4.329   4.334
  4.347   4.350   4.358   4.361   4.370   4.376   4.378   4.393
  4.398   4.407   4.424   4.426   4.435   4.439   4.446   4.458
  4.470   4.477   4.493   4.497   4.513   4.523   4.527   4.531
  4.548   4.554   4.562   4.570   4.576   4.587   4.601   4.607
  4.620   4.627   4.642   4.649   4.664   4.677   4.679   4.686
  4.715   4.722   4.734   4.745   4.754   4.775   4.778   4.790
  4.794   4.801   4.809   4.816   4.827   4.840   4.843   4.853
  4.870   4.880   4.886   4.897   4.901   4.913   4.913   4.929
  4.938   4.942   4.951   4.970   4.973   4.979   4.985   4.993
  4.997   5.008   5.009   5.016   5.022   5.040   5.048   5.050
  5.061   5.069   5.078   5.092   5.100   5.102   5.118   5.121
  5.134   5.141   5.147   5.157   5.163   5.167   5.185   5.192
  5.211   5.218   5.239   5.245   5.269   5.302   5.309   5.318
  5.326   5.339   5.351   5.370   5.379   5.401   5.403   5.427
  5.439   5.464   5.473   5.487   5.492   5.501   5.526   5.540
  5.562   5.570   5.577   5.592   5.600   5.600   5.626   5.647
  5.672   5.691   5.713   5.721   5.738   5.749   5.754   5.781
  5.794   5.835   5.838   5.857   5.873   5.888   5.905   5.929
  5.947   5.966   6.000   6.041   6.087   6.113   6.145   6.168
  6.201   6.241   6.252   6.299   6.302   6.335   6.379   6.431
  6.445   6.488   6.643   6.865   6.984   7.076   8.035   8.879
  9.815  10.172  10.650  11.090  11.246  11.681  12.002  12.054
 12.373  12.642  12.748  12.799  12.851  12.955  13.066  13.224
 13.326  13.426  13.545  14.025  14.296  14.654  15.064  15.075
 --------------------------------------------------------------
 
          Ground-State Mulliken Net Atomic Charges

     Atom                 Charge (a.u.)
  ----------------------------------------
      1 C                    -0.092065
      2 C                    -0.128691
      3 C                    -0.080042
      4 C                    -0.119221
      5 N                    -0.144941
      6 C                     0.082504
      7 C                     0.103362
      8 N                    -0.177172
      9 C                    -0.011229
     10 C                    -0.072527
     11 N                    -0.219550
     12 C                     0.044524
     13 C                     0.058976
     14 S                     0.408248
     15 N                    -0.299768
     16 C                    -0.070333
     17 S                     0.186448
     18 C                     0.046770
     19 C                    -0.059338
     20 N                    -0.167836
     21 C                     0.055408
     22 C                    -0.014058
     23 C                    -0.045545
     24 N                    -0.159678
     25 C                    -0.142081
     26 S                     0.102056
     27 C                    -0.047983
     28 C                    -0.156406
     29 C                    -0.182091
     30 H                     0.133049
     31 H                     0.119675
     32 H                     0.119181
     33 H                     0.136897
     34 H                     0.130853
     35 H                     0.130898
     36 H                     0.136696
     37 H                     0.128183
     38 H                     0.130452
     39 H                     0.136375
  ----------------------------------------
  Sum of atomic charges =     0.000000

 -----------------------------------------------------------------
                    Cartesian Multipole Moments
 -----------------------------------------------------------------
    Charge (ESU x 10^10)
                 0.0000
    Dipole Moment (Debye)
         X      -0.1948      Y       1.2825      Z       0.9385
       Tot       1.6011
    Quadrupole Moments (Debye-Ang)
        XX    -152.1659     XY       1.8769     YY    -166.3076
        XZ       3.0096     YZ       0.6883     ZZ    -184.8343
    Octopole Moments (Debye-Ang^2)
       XXX     109.2150    XXY      10.9872    XYY     -49.5346
       YYY      26.5317    XXZ      52.3011    XYZ      25.2639
       YYZ     -14.2556    XZZ      15.0456    YZZ       2.1509
       ZZZ      -8.4760
    Hexadecapole Moments (Debye-Ang^3)
      XXXX  -15884.1219   XXXY     489.5164   XXYY   -3556.7077
      XYYY    -172.7270   YYYY   -3334.4017   XXXZ     -38.8181
      XXYZ     107.0830   XYYZ      51.7333   YYYZ     -45.9340
      XXZZ   -3382.5866   XYZZ     -19.4510   YYZZ    -697.9452
      XZZZ      -4.8717   YZZZ      20.5846   ZZZZ    -498.2110
 -----------------------------------------------------------------
 Calculating analytic gradient of the SCF energy
 K construction time:  CPU 2883.83 s  wall 182.81 s
 Gradient of SCF Energy
            1           2           3           4           5           6
    1  -0.0000642   0.0001533   0.0000994  -0.0001694  -0.0000969   0.0000669
    2  -0.0000802   0.0001145   0.0000866   0.0002567   0.0000623  -0.0004477
    3  -0.0001984   0.0001787   0.0000832  -0.0001888   0.0001789   0.0006051
            7           8           9          10          11          12
    1  -0.0000743  -0.0003708   0.0001527   0.0000282  -0.0002618  -0.0000888
    2   0.0000429   0.0002230   0.0002777  -0.0004929   0.0000747   0.0003872
    3  -0.0008013   0.0000976   0.0005219   0.0013190  -0.0002819   0.0000752
           13          14          15          16          17          18
    1   0.0004607  -0.0001519   0.0001624  -0.0003145   0.0002380  -0.0000381
    2   0.0003945  -0.0007400  -0.0001543  -0.0000493   0.0007017  -0.0003542
    3  -0.0014377  -0.0002113  -0.0002055   0.0008347   0.0007430  -0.0008171
           19          20          21          22          23          24
    1   0.0001335   0.0002809  -0.0002162  -0.0000901  -0.0001394   0.0001033
    2  -0.0004530  -0.0003366   0.0002082   0.0002353   0.0002211  -0.0003016
    3  -0.0003527   0.0003271  -0.0003710  -0.0001603  -0.0001714   0.0000659
           25          26          27          28          29          30
    1  -0.0000542  -0.0000983   0.0001557   0.0000353   0.0001474  -0.0000048
    2  -0.0002369  -0.0000103   0.0001925   0.0000499   0.0000679  -0.0000802
    3   0.0006096  -0.0000050   0.0000350  -0.0001971  -0.0000535   0.0000641
           31          32          33          34          35          36
    1  -0.0000298   0.0000259   0.0000200  -0.0000147  -0.0000448  -0.0000073
    2  -0.0000773  -0.0000320   0.0000488   0.0002048   0.0000017   0.0001403
    3  -0.0000913  -0.0000477  -0.0000966  -0.0001833   0.0000933  -0.0000073
           37          38          39
    1   0.0000374   0.0000224   0.0000069
    2  -0.0000771  -0.0000585  -0.0000101
    3  -0.0000250   0.0000664   0.0000057
 Max gradient component =       1.438E-03
 RMS gradient           =       3.223E-04
 Gradient time:  CPU 3340.17 s  wall 213.89 s
 Geometry Optimization Parameters
   NAtoms,    NIC,     NZ,  NCons,   NDum,   NFix, NCnnct, MaxDiis
       39     293       0       3       0       0       0       0

 Cartesian Hessian Update
 Hessian Updated using BFGS Update


** CONSTRAINED OPTIMIZATION IN DELOCALIZED INTERNAL COORDINATES **
   Searching for a Minimum

   Optimization Cycle:   3

                       Coordinates (Angstroms)
     ATOM                X               Y               Z
      1  C         7.6534290299    0.3699158226    0.3342186688
      2  C         6.9403320891    1.3240692647    1.0416060304
      3  C         6.9452404221   -0.5735157560   -0.3921298685
      4  C         5.5601550351    1.2940396722    0.9966248865
      5  N         5.6205040100   -0.6173691706   -0.4404791272
      6  C         4.9398474719    0.2974203577    0.2457885367
      7  C         3.4576748624    0.2536117615    0.1705560948
      8  N         2.8126405322    1.3581718789    0.4288091231
      9  C         2.7162082937   -0.9315460496   -0.1476702692
     10  C         1.4602086892    1.4247286437    0.3746688301
     11  N         3.1790853633   -2.1633766553   -0.3731022709
     12  C         1.2886276765   -0.8510351511   -0.2153427360
     13  C         0.6277431308    0.3869312869    0.0383388280
     14  S         1.9004961016   -3.0883677217   -0.6551809881
     15  N         0.7079422994   -2.0149024790   -0.5070046305
     16  C        -0.8182447260    0.5362035949   -0.0157619123
     17  S        -1.8901079853   -0.7596533716    0.3124896943
     18  C        -1.5617822242    1.6789665946   -0.2850415402
     19  C        -3.3130435995    0.1593553882    0.1091792994
     20  N        -1.0474611664    2.9005574329   -0.6038363099
     21  C        -2.9755256781    1.4672386823   -0.2158403796
     22  C        -4.6280679669   -0.4209549736    0.2747308912
     23  C        -1.9198609388    3.8330028321   -0.8309986360
     24  N        -3.8601630444    2.4720346809   -0.4615026456
     25  C        -5.7987992178    0.2173334230    0.5811219949
     26  S        -4.8924379877   -2.1246741250    0.1006860253
     27  C        -3.3326812783    3.6193706331   -0.7578404606
[...]
     39  H        -7.2108885620   -2.8199624060    0.4391786749
   Point Group: c1    Number of degrees of freedom:   111


   Energy is  -2291.150180680

              Constraints and their Current Values
                                        Value     Constraint
   Dihedral:        4   6   7   8       21.822       21.822
   Dihedral:       10  13  16  17     -150.000     -150.000
   Dihedral:       17  19  22  25      156.395      156.395
 Hessian Updated using BFGS Update

102 Hessian modes will be used to form the next step
  Hessian Eigenvalues:
     0.012060    0.022105    0.043274    0.045000    0.045000    0.045000
     0.045000    0.045000    0.045000    0.045000    0.045000    0.045001
     0.045001    0.045001    0.045001    0.045001    0.045002    0.045002
     0.045002    0.045003    0.045004    0.045008    0.045019    0.045026
     0.045162    0.045656    0.046568    0.157376    0.159822    0.159994
     0.159998    0.159999    0.159999    0.160000    0.160042    0.160174
     0.160293    0.219942    0.221273    0.224142    0.224250    0.233334
     0.237946    0.242936    0.244253    0.246414    0.249040    0.249528
     0.249756    0.249948    0.249960    0.249973    0.249988    0.249989
     0.255072    0.269153    0.311561    0.317477    0.333384    0.335204
     0.339568    0.342031    0.354066    0.354507    0.355792    0.356471
     0.357095    0.359045    0.360723    0.360953    0.363787    0.364133
     0.366424    0.377380    0.388094    0.390483    0.392224    0.405594
     0.417822    0.420116    0.432327    0.436212    0.459936    0.460940
     0.472222    0.473516    0.475751    0.483343    0.484314    0.486083
     0.501836    0.505300    0.519167    0.523214    0.534385    0.559302
     0.572781    0.589579    0.638221    0.652326    0.656177    0.663317

 Minimum Search - Taking Simple RFO Step
 Searching for Lamda that Minimizes Along All modes
 Value Taken    Lamda =   0.00000000
 Step Taken.  Stepsize is  0.002407

                             Maximum     Tolerance    Cnvgd?
         Gradient           0.000123      0.000300     YES
         Displacement       0.001129      0.001200     YES
         Energy change     -0.000001      0.000001     YES

 Final energy is   -2291.15018067971     


 ******************************
 **  OPTIMIZATION CONVERGED  **
 ******************************

                       Coordinates (Angstroms)
     ATOM                X               Y               Z
      1  C         7.6535134431    0.3877797770    0.3061059448
      2  C         6.9421934182    1.3380463047    1.0201680658
      3  C         6.9432052223   -0.5621290982   -0.4101480765
      4  C         5.5620002843    1.2984495567    0.9913196101
      5  N         5.6183616356   -0.6147443879   -0.4437818692
      6  C         4.9396519514    0.2968044466    0.2492716581
      7  C         3.4574519008    0.2476168624    0.1842321449
      8  N         2.8094335219    1.3502174169    0.4417677080
      9  C         2.7185982501   -0.9417984887   -0.1232949891
     10  C         1.4566857844    1.4141209153    0.3820902686
     11  N         3.1849984904   -2.1762474407   -0.3242210568
     12  C         1.2910425273   -0.8650105537   -0.1945061633
     13  C         0.6267279713    0.3746679272    0.0433382998
     14  S         1.9084203879   -3.1079420156   -0.5919567547
     15  N         0.7129683171   -2.0345947318   -0.4661851329
     16  C        -0.8184909091    0.5235226488   -0.0261978924
     17  S        -1.8958183211   -0.7707359520    0.2986568718
     18  C        -1.5587476536    1.6721262564   -0.2818679726
     19  C        -3.3152966868    0.1558204067    0.1018895221
     20  N        -1.0419585654    2.8936495842   -0.5982496016
     21  C        -2.9729128959    1.4650738627   -0.2110558555
     22  C        -4.6332262592   -0.4203688014    0.2583010843
     23  C        -1.9114892686    3.8300481762   -0.8177906966
     24  N        -3.8551701251    2.4745194950   -0.4490198743
     25  C        -5.8007397388    0.2218240483    0.5687327033
     26  S        -4.9055834324   -2.1218957899    0.0761348714
     27  C        -3.3250649717    3.6215203276   -0.7404074123
     28  C        -6.9059366140   -0.6570268998    0.6648914903
     29  C        -6.5722494935   -1.9533702809    0.4302567173
     30  H         8.7342511648    0.3808358993    0.2993072176
     31  H         7.4566686375    2.0993784176    1.5904886285
     32  H         7.4640630303   -1.3168310635   -0.9879927539
     33  H         4.9586992061    2.0178076455    1.5229980192
     34  H         1.0351810054    2.3818256580    0.6079275258
     35  H        -1.5343487030    4.8127850189   -1.0792653752
     36  H        -5.8523115251    1.2885048221    0.7141479829
     37  H        -3.9970063576    4.4492208170   -0.9384652943
     38  H        -7.9089580036   -0.3373183758    0.9026180656
     39  H        -7.2108885620   -2.8199624060    0.4391786749

Z-matrix Print:
$molecule
0 1
S 
C  1 1.706500
C  2 1.388995 1 109.434347
N  3 1.361611 2 125.342110 1 -179.311082 0
C  4 1.296738 3 115.476722 2 179.211626 0
H  5 1.084352 4 117.574021 3 -179.870818 0
C  5 1.430968 4 123.016467 3 -0.294874 0
H  7 1.084609 5 119.246570 4 -179.221319 0
N  7 1.296582 5 123.235548 4 0.296914 0
C  9 1.363557 7 115.600570 5 0.032585 0
C  10 1.390193 9 125.522048 7 -179.039940 0
C  2 1.446858 1 121.937636 3 179.939341 0
C  12 1.368162 2 127.945192 1 -156.394577 0
H  13 1.077782 12 122.411399 2 -1.417092 0
C  13 1.415304 12 112.974062 2 178.973307 0
H  15 1.079249 13 123.831457 12 -179.882831 0
C  15 1.359009 13 112.883668 12 -0.091987 0
H  17 1.076532 15 128.372619 13 -179.961198 0
C  11 1.454528 10 128.493316 9 -4.030726 0
C  19 1.372605 11 122.349867 10 -26.570139 0
H  20 1.079408 19 119.632495 11 -0.035142 0
N  20 1.355571 19 125.349677 11 178.728872 0
C  22 1.304600 20 121.791888 19 0.702771 0
C  19 1.426424 11 122.936485 10 155.336188 0
N  24 1.332631 19 126.492695 11 2.042172 0
C  24 1.431392 19 120.185358 11 -179.385207 0
N  26 1.334828 24 112.991532 19 -177.819493 0
C  23 1.484441 22 117.342858 20 -178.651484 0
N  28 1.331124 23 117.619929 22 156.518198 0
C  29 1.326314 28 117.965668 23 -178.793400 0
H  30 1.083869 29 116.032381 28 179.801376 0
C  30 1.385599 29 123.529942 28 -0.025913 0
H  32 1.080781 30 120.328638 29 -179.826745 0
C  32 1.385232 30 118.262935 29 0.342198 0
H  34 1.081470 32 120.696388 30 179.820467 0
C  34 1.381062 32 118.864719 30 -0.126661 0
H  36 1.078949 34 121.964615 32 179.553877 0
S  27 1.602931 26 106.523417 24 -0.681019 0
S  17 1.712185 15 111.629690 13 0.436205 0
$end

 
 --------------------------------------------------------------
 
                    Orbital Energies (a.u.)
 --------------------------------------------------------------
 
 Alpha MOs
 -- Occupied --
-89.146 -89.099 -89.079 -14.482 -14.479 -14.462 -14.461 -14.446
-14.434 -10.355 -10.353 -10.350 -10.344 -10.344 -10.343 -10.341
-10.340 -10.338 -10.336 -10.335 -10.330 -10.329 -10.324 -10.319
-10.310 -10.301 -10.298 -10.295 -10.293  -8.156  -8.114  -8.095
 -6.106  -6.101  -6.100  -6.063  -6.059  -6.058  -6.044  -6.040
 -6.038  -1.143  -1.101  -1.069  -1.049  -1.029  -1.013  -1.003
 -0.986  -0.925  -0.912  -0.896  -0.879  -0.869  -0.853  -0.838
 -0.812  -0.777  -0.772  -0.748  -0.738  -0.731  -0.717  -0.711
 -0.672  -0.655  -0.648  -0.629  -0.629  -0.621  -0.606  -0.603
 -0.588  -0.576  -0.567  -0.562  -0.557  -0.547  -0.542  -0.526
 -0.512  -0.507  -0.501  -0.500  -0.493  -0.492  -0.487  -0.482
 -0.474  -0.466  -0.462  -0.460  -0.450  -0.441  -0.428  -0.426
 -0.419  -0.412  -0.396  -0.376  -0.372  -0.360  -0.357  -0.352
 -0.342  -0.339  -0.335  -0.334  -0.320  -0.265
 -- Virtual --
 -0.052  -0.026   0.024   0.032   0.042   0.052   0.069   0.074
  0.085   0.090   0.111   0.123   0.124   0.127   0.131   0.137
  0.151   0.152   0.155   0.162   0.167   0.175   0.180   0.190
  0.200   0.203   0.209   0.215   0.226   0.228   0.242   0.247
  0.259   0.265   0.268   0.276   0.278   0.290   0.293   0.294
  0.300   0.303   0.308   0.311   0.317   0.323   0.324   0.330
  0.332   0.336   0.342   0.347   0.348   0.350   0.354   0.361
  0.366   0.368   0.372   0.375   0.381   0.382   0.386   0.389
  0.390   0.393   0.397   0.399   0.405   0.407   0.411   0.413
  0.414   0.419   0.420   0.429   0.433   0.434   0.434   0.442
  0.443   0.445   0.454   0.455   0.458   0.460   0.464   0.465
  0.468   0.470   0.478   0.480   0.482   0.485   0.486   0.491
  0.494   0.497   0.504   0.508   0.509   0.514   0.518   0.520
  0.525   0.530   0.534   0.537   0.538   0.542   0.545   0.551
  0.559   0.561   0.564   0.574   0.578   0.584   0.590   0.597
  0.602   0.606   0.611   0.615   0.624   0.627   0.630   0.636
  0.641   0.647   0.649   0.659   0.662   0.665   0.668   0.671
  0.674   0.679   0.692   0.696   0.698   0.706   0.711   0.715
  0.721   0.725   0.731   0.735   0.739   0.742   0.746   0.752
  0.762   0.763   0.768   0.775   0.776   0.778   0.782   0.786
  0.788   0.799   0.807   0.808   0.810   0.815   0.818   0.822
  0.827   0.830   0.839   0.843   0.845   0.852   0.856   0.857
  0.859   0.872   0.875   0.878   0.880   0.885   0.886   0.903
  0.910   0.917   0.918   0.922   0.925   0.926   0.932   0.935
  0.939   0.946   0.950   0.952   0.959   0.962   0.970   0.972
  0.977   0.979   0.988   0.990   0.998   1.000   1.014   1.015
  1.023   1.027   1.034   1.039   1.048   1.050   1.053   1.059
  1.062   1.067   1.074   1.084   1.085   1.090   1.093   1.097
  1.103   1.108   1.109   1.111   1.119   1.125   1.133   1.140
  1.144   1.155   1.162   1.167   1.174   1.180   1.184   1.185
  1.195   1.207   1.213   1.218   1.226   1.231   1.233   1.246
  1.253   1.254   1.263   1.269   1.274   1.291   1.292   1.298
  1.306   1.315   1.325   1.327   1.330   1.344   1.350   1.353
  1.360   1.369   1.370   1.374   1.377   1.382   1.386   1.388
  1.401   1.404   1.408   1.417   1.423   1.426   1.436   1.436
  1.441   1.445   1.454   1.456   1.457   1.478   1.479   1.483
  1.487   1.496   1.498   1.506   1.510   1.511   1.520   1.526
  1.546   1.555   1.562   1.569   1.575   1.584   1.586   1.597
  1.602   1.609   1.610   1.621   1.625   1.636   1.643   1.653
  1.657   1.658   1.667   1.667   1.673   1.683   1.688   1.697
  1.702   1.713   1.719   1.721   1.731   1.735   1.740   1.750
  1.754   1.765   1.775   1.783   1.788   1.792   1.797   1.808
  1.821   1.829   1.835   1.849   1.858   1.875   1.884   1.885
  1.898   1.898   1.910   1.911   1.925   1.934   1.936   1.942
  1.953   1.967   1.975   1.984   1.992   1.992   2.000   2.005
  2.016   2.020   2.030   2.035   2.040   2.054   2.058   2.061
  2.076   2.081   2.104   2.108   2.111   2.115   2.125   2.135
  2.139   2.143   2.161   2.171   2.176   2.181   2.184   2.188
  2.202   2.206   2.210   2.221   2.227   2.244   2.246   2.260
  2.265   2.267   2.283   2.291   2.295   2.300   2.307   2.314
  2.317   2.325   2.332   2.344   2.346   2.358   2.364   2.374
  2.381   2.388   2.396   2.400   2.403   2.413   2.418   2.425
  2.436   2.440   2.452   2.456   2.459   2.463   2.467   2.471
  2.484   2.495   2.502   2.524   2.528   2.531   2.533   2.535
  2.538   2.539   2.548   2.554   2.555   2.567   2.577   2.599
  2.603   2.616   2.624   2.629   2.636   2.640   2.651   2.656
  2.659   2.664   2.669   2.674   2.688   2.697   2.710   2.716
  2.724   2.727   2.736   2.745   2.760   2.772   2.774   2.778
  2.783   2.786   2.795   2.798   2.808   2.815   2.820   2.828
  2.829   2.837   2.841   2.849   2.851   2.862   2.870   2.878
  2.879   2.887   2.894   2.910   2.912   2.914   2.927   2.935
  2.940   2.943   2.947   2.951   2.959   2.967   2.974   2.982
  2.987   2.990   3.002   3.005   3.009   3.012   3.015   3.023
  3.024   3.031   3.037   3.040   3.048   3.052   3.056   3.060
  3.064   3.068   3.070   3.072   3.078   3.084   3.087   3.092
  3.097   3.100   3.102   3.104   3.119   3.121   3.121   3.125
  3.137   3.144   3.153   3.154   3.156   3.160   3.166   3.166
  3.173   3.181   3.182   3.192   3.195   3.197   3.202   3.208
  3.211   3.215   3.222   3.223   3.228   3.232   3.235   3.236
  3.242   3.245   3.252   3.259   3.262   3.266   3.271   3.277
  3.281   3.285   3.287   3.290   3.292   3.297   3.303   3.306
  3.310   3.314   3.320   3.321   3.324   3.332   3.335   3.343
  3.345   3.351   3.357   3.363   3.374   3.383   3.388   3.389
  3.399   3.402   3.410   3.414   3.418   3.421   3.429   3.433
  3.435   3.443   3.449   3.453   3.462   3.466   3.472   3.476
  3.481   3.490   3.492   3.499   3.502   3.506   3.512   3.519
  3.526   3.529   3.531   3.555   3.564   3.566   3.568   3.575
  3.584   3.598   3.609   3.619   3.619   3.630   3.635   3.648
  3.650   3.657   3.676   3.684   3.686   3.695   3.703   3.708
  3.717   3.721   3.732   3.734   3.737   3.746   3.752   3.757
  3.767   3.776   3.780   3.789   3.792   3.799   3.802   3.816
  3.819   3.827   3.832   3.837   3.850   3.856   3.865   3.880
  3.887   3.896   3.905   3.910   3.912   3.920   3.927   3.931
  3.934   3.939   3.942   3.950   3.953   3.963   3.967   3.977
  3.983   3.985   3.990   4.006   4.014   4.026   4.031   4.039
  4.043   4.057   4.062   4.076   4.082   4.084   4.094   4.103
  4.110   4.114   4.121   4.136   4.145   4.158   4.164   4.172
  4.187   4.194   4.199   4.202   4.210   4.215   4.219   4.224
  4.227   4.230   4.246   4.250   4.256   4.264   4.269   4.275
  4.288   4.296   4.302   4.308   4.318   4.326   4.329   4.334
  4.347   4.350   4.358   4.361   4.370   4.376   4.377   4.393
  4.399   4.407   4.424   4.427   4.435   4.440   4.445   4.458
  4.469   4.477   4.493   4.496   4.513   4.523   4.526   4.531
  4.548   4.554   4.562   4.571   4.576   4.587   4.601   4.606
  4.620   4.626   4.643   4.649   4.664   4.677   4.679   4.686
  4.715   4.722   4.733   4.745   4.754   4.774   4.778   4.790
  4.794   4.801   4.809   4.816   4.826   4.841   4.843   4.854
  4.872   4.880   4.887   4.897   4.901   4.913   4.913   4.928
  4.938   4.941   4.951   4.970   4.974   4.979   4.986   4.992
  4.997   5.007   5.009   5.016   5.022   5.040   5.048   5.050
  5.062   5.070   5.079   5.093   5.100   5.103   5.120   5.121
  5.134   5.142   5.147   5.157   5.163   5.167   5.185   5.192
  5.211   5.218   5.238   5.245   5.269   5.302   5.309   5.317
  5.326   5.338   5.351   5.370   5.379   5.401   5.404   5.427
  5.439   5.464   5.473   5.486   5.492   5.501   5.526   5.540
  5.561   5.570   5.577   5.592   5.599   5.601   5.626   5.646
  5.672   5.691   5.713   5.721   5.738   5.749   5.753   5.780
  5.793   5.835   5.838   5.858   5.873   5.888   5.905   5.929
  5.947   5.967   6.000   6.041   6.086   6.114   6.145   6.167
  6.201   6.240   6.252   6.299   6.303   6.335   6.379   6.431
  6.444   6.487   6.642   6.865   6.984   7.075   8.035   8.877
  9.815  10.172  10.649  11.091  11.245  11.677  12.004  12.057
 12.371  12.640  12.747  12.797  12.852  12.949  13.063  13.220
 13.327  13.425  13.545  14.033  14.298  14.650  15.065  15.076
 --------------------------------------------------------------
 
          Ground-State Mulliken Net Atomic Charges

     Atom                 Charge (a.u.)
  ----------------------------------------
      1 C                    -0.092271
      2 C                    -0.128419
      3 C                    -0.079869
      4 C                    -0.118911
      5 N                    -0.145762
      6 C                     0.083310
      7 C                     0.103148
      8 N                    -0.177082
      9 C                    -0.010735
     10 C                    -0.072594
     11 N                    -0.219674
     12 C                     0.046292
     13 C                     0.056736
     14 S                     0.407778
     15 N                    -0.300113
     16 C                    -0.068138
     17 S                     0.185705
     18 C                     0.044718
     19 C                    -0.059655
     20 N                    -0.167981
     21 C                     0.056718
     22 C                    -0.014268
     23 C                    -0.045294
     24 N                    -0.159784
     25 C                    -0.141305
     26 S                     0.101706
     27 C                    -0.048110
     28 C                    -0.156918
     29 C                    -0.181622
     30 H                     0.133057
     31 H                     0.119581
     32 H                     0.119311
     33 H                     0.136585
     34 H                     0.130981
     35 H                     0.130986
     36 H                     0.136905
     37 H                     0.128084
     38 H                     0.130496
     39 H                     0.136408
  ----------------------------------------
  Sum of atomic charges =     0.000000

 -----------------------------------------------------------------
                    Cartesian Multipole Moments
 -----------------------------------------------------------------
    Charge (ESU x 10^10)
                 0.0000
    Dipole Moment (Debye)
         X      -0.1890      Y       1.3141      Z       0.9267
       Tot       1.6190
    Quadrupole Moments (Debye-Ang)
        XX    -152.0348     XY       2.0051     YY    -166.2804
        XZ       2.8232     YZ       0.7159     ZZ    -184.9080
    Octopole Moments (Debye-Ang^2)
       XXX     109.4140    XXY      12.8339    XYY     -48.9683
       YYY      28.5750    XXZ      49.2012    XYZ      24.7199
       YYZ     -14.3958    XZZ      15.1057    YZZ       2.6286
       ZZZ     -10.0813
    Hexadecapole Moments (Debye-Ang^3)
      XXXX  -15893.5177   XXXY     500.3874   XXYY   -3561.4148
      XYYY    -175.5140   YYYY   -3343.0773   XXXZ     -63.0533
      XXYZ     111.2305   XYYZ      48.6977   YYYZ     -42.0599
      XXZZ   -3385.9119   XYZZ     -20.6770   YYZZ    -698.4907
      XZZZ     -16.4188   YZZZ      23.4048   ZZZZ    -482.3214
 -----------------------------------------------------------------
Archival summary:
1\1\mn251\OPT\ProcedureUnspecified\BasisUnspecified\362010\afmv_a\SunJun1820:52:472017SunJun1820:52:472017\0\\#,OPT,ProcedureUnspecified,BasisUnspecified,\\0,1\S\C,1,1.7065\C,2,1.38899,1,109.434\N,3,1.36161,2,125.342,1,-179.311,0\C,4,1.29674,3,115.477,2,179.212,0\H,5,1.08435,4,117.574,3,-179.871,0\C,5,1.43097,4,123.016,3,-0.294874,0\H,7,1.08461,5,119.247,4,-179.221,0\N,7,1.29658,5,123.236,4,0.296914,0\C,9,1.36356,7,115.601,5,0.0325854,0\C,10,1.39019,9,125.522,7,-179.04,0\C,2,1.44686,1,121.938,3,179.939,0\C,12,1.36816,2,127.945,1,-156.395,0\H,13,1.07778,12,122.411,2,-1.41709,0\C,13,1.4153,12,112.974,2,178.973,0\H,15,1.07925,13,123.831,12,-179.883,0\C,15,1.35901,13,112.884,12,-0.0919873,0\H,17,1.07653,15,128.373,13,-179.961,0\C,11,1.45453,10,128.493,9,-4.03073,0\C,19,1.37261,11,122.35,10,-26.5701,0\H,20,1.07941,19,119.632,11,-0.0351424,0\N,20,1.35557,19,125.35,11,178.729,0\C,22,1.3046,20,121.792,19,0.702771,0\C,19,1.42642,11,122.936,10,155.336,0\N,24,1.33263,19,126.493,11,2.04217,0\C,24,1.43139,19,120.185,11,-179.385,0\N,26,1.33483,24,112.992,19,-177.819,0\C,23,1.48444,22,117.343,20,-178.651,0\N,28,1.33112,23,117.62,22,156.518,0\C,29,1.32631,28,117.966,23,-178.793,0\H,30,1.08387,29,116.032,28,179.801,0\C,30,1.3856,29,123.53,28,-0.0259132,0\H,32,1.08078,30,120.329,29,-179.827,0\C,32,1.38523,30,118.263,29,0.342198,0\H,34,1.08147,32,120.696,30,179.82,0\C,34,1.38106,32,118.865,30,-0.126661,0\H,36,1.07895,34,121.965,32,179.554,0\S,27,1.60293,26,106.523,24,-0.681019,0\S,17,1.71219,15,111.63,13,0.436205,0\\\@

 Total job time:  6351.30s(wall), 94776.26s(cpu) 
 Sun Jun 18 20:52:47 2017

        *************************************************************
        *                                                           *
        *  Thank you very much for using Q-Chem.  Have a nice day.  *
        *                                                           *
        *************************************************************


