
Running Job 1 of 1 C169_2/C169_270.qcin
qchem C169_2/C169_270.qcin_21463.0 /tmpu/cab_g/afmv_a/scratch_qchem/qchem21463/ 1
/tmpu/appuserlic/qchem4.4/serial-multicore/exe/qcprog.exe_s C169_2/C169_270.qcin_21463.0 /tmpu/cab_g/afmv_a/scratch_qchem/qchem21463/
Check license passed

                  Welcome to Q-Chem
     A Quantum Leap Into The Future Of Chemistry


 Q-Chem 4.4, Q-Chem, Inc., Pleasanton, CA (2016)

 Y. Shao,  Z. Gan,  E. Epifanovsky,  A. T. B. Gilbert,  M. Wormit,  
 J. Kussmann,  A. W. Lange,  A. Behn,  J. Deng,  X. Feng,  D. Ghosh,  
 M. Goldey,  P. R. Horn,  L. D. Jacobson,  I. Kaliman,  F. Rob,  
 R. Z. Khaliullin,  T. Kus,  A. Landau,  J. Liu,  E. I. Proynov,  Y. M. Rhee,  
 R. M. Richard,  M. A. Rohrdanz,  R. P. Steele,  E. J. Sundstrom,  
 H. L. Woodcock III,  P. M. Zimmerman,  D. Zuev,  B. Albrecht,  E. Alguire,  
 B. Austin,  S. A. Baeppler,  G. J. O. Beran,  Y. A. Bernard,  E. Berquist,  
 K. Brandhorst,  K. B. Bravaya,  S. T. Brown,  D. Casanova,  C.-M. Chang,  
 Y. Chen,  S. H. Chien,  K. D. Closser,  M. P. Coons,  D. L. Crittenden,  
 S. Dasgupta,  M. Diedenhofen,  R. A. DiStasio Jr.,  H. Do,  A. D. Dutoi,  
 R. G. Edgar,  P.-T. Fang,  S. Fatehi,  Q. Feng,  L. Fusti-Molnar,  
 A. Ghysels,  A. Golubeva-Zadorozhnaya,  J. Gomes,  A. Gunina,  
 M. W. D. Hanson-Heine,  P. H. P. Harbach,  A. W. Hauser,  J. E. Herr,  
 E. G. Hohenstein,  Z. C. Holden,  K. Hui,  T.-C. Jagau,  H. Ji,  B. Kaduk,  
 K. Khistyaev,  Jaehoon Kim,  Jihan Kim,  R. A. King,  P. Klunzinger,  
 K. Koh,  D. Kosenkov,  T. Kowalczyk,  C. M. Krauter,  A. Kunitsa,  
 K. U. Lao,  A. Laurent,  K. V. Lawler,  J. Lee,  D. Lefrancois,  S. Lehtola,  
 S. V. Levchenko,  C. Y. Lin,  Y.-S. Lin,  F. Liu,  E. Livshits,  
 R. C. Lochan,  A. Luenser,  P. Manohar,  S. F. Manzer,  S.-P. Mao,  Y. Mao,  
 N. Mardirossian,  A. V. Marenich,  L. A. Martinez-Martinez,  S. A. Maurer,  
 N. J. Mayhall,  J.-M. Mewes,  A. F. Morrison,  K. Nanda,  T. S. Nguyen-Beck,  
 C. M. Oana,  R. Olivares-Amaya,  D. P. O'Neill,  J. A. Parkhill,  
 T. M. Perrine,  R. Peverati,  P. A. Pieniazek,  F. Plasser,  A. Prociuk,  
 D. R. Rehn,  E. Rosta,  N. J. Russ,  N. Sergueev,  S. M. Sharada,  
 S. Sharma,  D. W. Small,  A. Sodt,  T. Stauch,  T. Stein,  D. Stuck,  
 Y.-C. Su,  A. J. W. Thom,  T. Tsuchimochi,  L. Vogt,  O. Vydrov,  T. Wang,  
 M. A. Watson,  J. Wenzel,  A. White,  C. F. Williams,  V. Vanovschi,  
 K. Yao,  S. Yeganeh,  S. R. Yost,  Z.-Q. You,  I. Y. Zhang,  X. Zhang,  
 Y. Zhao,  B. R. Brooks,  G. K. L. Chan,  D. M. Chipman,  C. J. Cramer,  
 W. A. Goddard III,  M. S. Gordon,  W. J. Hehre,  A. Klamt,  
 H. F. Schaefer III,  M. W. Schmidt,  C. D. Sherrill,  D. G. Truhlar,  
 A. Warshel,  X. Xu,  A. Aspuru-Guzik,  R. Baer,  A. T. Bell,  N. A. Besley,  
 J.-D. Chai,  A. Dreuw,  B. D. Dunietz,  T. R. Furlani,  S. R. Gwaltney,  
 C.-P. Hsu,  Y. Jung,  J. Kong,  D. S. Lambrecht,  W. Liang,  C. Ochsenfeld,  
 V. A. Rassolov,  L. V. Slipchenko,  J. E. Subotnik,  T. Van Voorhis,  
 J. M. Herbert,  A. I. Krylov,  P. M. W. Gill,  M. Head-Gordon

 Contributors to earlier versions of Q-Chem not listed above: 
 R. D. Adamson,  J. Baker,  E. F. C. Byrd,  A. K. Chakraborty,  C.-L. Cheng,  
 H. Dachsel,  R. J. Doerksen,  G. Hawkins,  A. Heyden,  S. Hirata,  
 G. Kedziora,  F. J. Keil,  C. Kelley,  P. P. Korambath,  W. Kurlancheek,  
 A. M. Lee,  M. S. Lee,  D. Liotard,  I. Lotan,  P. E. Maslen,  N. Nair,  
 D. Neuhauser,  R. Olson,  B. Peters,  J. Ritchie,  N. E. Schultz,  
 N. Shenvi,  A. C. Simmonett,  K. S. Thanthiriwatte,  Q. Wu,  W. Zhang

 Please cite Q-Chem as follows:
 Y. Shao et al., Mol. Phys. 113, 184-215 (2015)
 DOI: 10.1080/00268976.2014.952696

 Q-Chem 4.4.2 for Intel X86 Linux

 Parts of Q-Chem use Armadillo 5.200.1 (Boston Tea Smuggler).
 http://arma.sourceforge.net/

 Q-Chem begins on Fri Jun 16 19:50:26 2017  

Host: 
0

     Scratch files written to /tmpu/cab_g/afmv_a/scratch_qchem/qchem21463//
 Dec716 11556_ 22328  22283 4050   
Processing $rem in /tmpu/appuserlic/qchem4.4/serial-multicore/config/preferences.
 MEM_TOTAL  2000 
FILE_GEOM_ORG=        593

Checking the input file for inconsistencies... 	...done.

--------------------------------------------------------------
User input:
--------------------------------------------------------------
$comment
OPTIMIZATION
$end

$rem
JOBTYPE OPT
EXCHANGE omegaB97X-D
BASIS cc-pVTZ
$end

$molecule
0 1
C          0.00000        0.00000        0.00000
C         -0.65396       -1.22126       -0.00000
C          1.38563        0.00000        0.00000
C          0.09526       -2.37957        0.00866
N          2.11912       -1.10562        0.01199
C          1.48546       -2.27640        0.02149
C          2.30642       -3.51253        0.03449
N          1.74513       -4.60745       -0.39909
C          3.65824       -3.56714        0.50995
C          2.40434       -5.79109       -0.42442
N          4.38617       -2.58332        1.04242
C          4.35289       -4.81920        0.47143
C          3.70163       -5.99343       -0.01477
S          5.80914       -3.21778        1.41887
N          5.59255       -4.74484        0.95148
C          4.33823       -7.30129       -0.04468
S          4.27997       -8.39401        1.28173
C          5.05837       -7.89798       -1.07993
C          5.20625       -9.61122        0.52733
N          5.30932       -7.34726       -2.30062
C          5.54519       -9.20414       -0.75752
C          5.52874      -10.85779        1.18418
C          6.00667       -8.07368       -3.11820
N          6.27440       -9.93774       -1.64084
C          5.85161      -12.05372        0.60398
S          5.55738      -10.99554        2.91308
C          6.49435       -9.37551       -2.78950
C          6.10719      -13.07676        1.54809
C          5.97988      -12.65297        2.83344
H         -0.54853        0.93120        0.00000
H         -1.73532       -1.26909       -0.00410
H          1.93662        0.93286       -0.01167
H         -0.36319       -3.35650        0.00329
H          1.82722       -6.62671       -0.78554
H          6.22334       -7.65316       -4.09451
H          5.90768      -12.17552       -0.46458
H          7.07283       -9.93357       -3.51766
H          6.36941      -14.08749        1.27473
H          6.11815      -13.22355        3.73581
$end

$opt
CONSTRAINT
tors 4 6 7 8 21.82164
tors 10 13 16 17 -90.00000
tors 17 19 22 25 156.39459
ENDCONSTRAINT
$end
--------------------------------------------------------------
 ----------------------------------------------------------------
             Standard Nuclear Orientation (Angstroms)
    I     Atom           X                Y                Z
 ----------------------------------------------------------------
    1      C      -7.5745228363    -0.5117682247    -1.0706401335
    2      C      -6.7248636563    -0.7579587535    -2.1367588748
    3      C      -7.0142872351    -0.1279627993     0.1371677831
    4      C      -5.3647255189    -0.6204380255    -1.9518265715
    5      N      -5.7083542365     0.0048126180     0.3307049022
    6      C      -4.8959088337    -0.2421804625    -0.6946086789
    7      C      -3.4354885284    -0.0930973320    -0.4775638665
    8      N      -2.6922654813     0.1090849176    -1.5304787383
    9      C      -2.8076850381    -0.1777198523     0.8089677432
   10      C      -1.3476595641     0.2529344401    -1.4436149090
   11      N      -3.3756487616    -0.4345368514     1.9891246887
   12      C      -1.3872071319    -0.0150437675     0.8953139414
   13      C      -0.6114892592     0.2084766543    -0.2826701516
   14      S      -2.1966659463    -0.4353474442     3.0749868251
   15      N      -0.9220986570    -0.1282675221     2.1377264396
   16      C       0.8369892719     0.3438409051    -0.2672295479
   17      S       1.8978999488    -1.0030517310    -0.3981626469
   18      C       1.6040569258     1.5047438108    -0.1657662733
   19      C       3.3329294970    -0.0875482493    -0.2920600874
   20      N       1.1224683435     2.7747127794    -0.0580455543
   21      C       3.0137092074     1.2606968961    -0.1835824067
   22      C       4.6438822228    -0.6947990390    -0.3372033766
   23      C       2.0130497696     3.7135614439     0.0305434070
   24      N       3.9193775320     2.2710586669    -0.0881655088
   25      C       5.8270419850    -0.1124271916    -0.7006612835
   26      S       4.8953769414    -2.3529019492     0.1058944320
   27      C       3.4195154984     3.4639487804     0.0169605847
   28      C       6.9260153120    -1.0019009899    -0.6345578897
   29      C       6.5728919086    -2.2477502910    -0.2209230219
   30      H      -8.6457699949    -0.6141052113    -1.1705163933
   31      H      -7.1187164217    -1.0560986194    -3.0998977993
   32      H      -7.6432638274     0.0855406414     0.9931810282
   33      H      -4.6592575358    -0.7943081126    -2.7497498647
   34      H      -0.8425889424     0.3950257327    -2.3851294680
   35      H       1.6525232396     4.7326430731     0.1225076917
   36      H       5.8902048427     0.9217874887    -0.9942766903
   37      H       4.1143623398     4.2930502024     0.0948435652
   38      H       7.9359863548    -0.7208447986    -0.8915132571
   39      H       7.2089296911    -3.1055723805    -0.0847284993
 ----------------------------------------------------------------
 Molecular Point Group                 C1    NOp =  1
 Largest Abelian Subgroup              C1    NOp =  1
 Nuclear Repulsion Energy =  2918.2633609212 hartrees
 There are      110 alpha and      110 beta electrons
 Requested basis set is cc-pVTZ
 There are 356 shells and 1022 basis functions

 Total QAlloc Memory Limit   2000 MB
 Mega-Array Size        61 MB
 MEM_STATIC part        62 MB
 A cutoff of  1.0D-11 yielded  30818 shell pairs
 There are    243240 function pairs (    317555 Cartesian)
 
 -------------------------------------------------------
 OpenMP Integral Computing Module                       
 Release: version 1.0, May 2013, Q-Chem Inc. Pittsburgh 
 -------------------------------------------------------
 Integral Job Info:
 Integral job number is                      11
 Integral operator is                         1
 short-range coefficients              22203600
 long-range coefficients              100000000
 Omega coefficients                         200
 if combine SR and LR in K                    1
 Integral screening is                        0
 Integral computing path is                   2
 max size of driver memory is            800000
 size of driver memory is                776718
 size of scratch memory is             26248924
 max col of scratch BK array              10000
 max len of scratch array in speh3          662
 max len of scratch index in speh4           32
 max int batch size is                      520
 min int batch size is                       52
 fixed nKL is                                52
 max L of basis functions is                  3
 order of int derivative is                   0
 number of shells is                        356
 number of basis is                        1177
 number of cartesian basis is              1177
 number of contracted shell pairs         30818
 number of primitive shell pairs          93390
 maxK2 (contraction) of shell pair          121
 max number of K2 of shell pair               1
 max number of CS2 of shell pair           4267
 max number of PS2 of shell pair          13034
 mem total for path MDJ                  836024
 -------------------------------------------------------
 Smallest overlap matrix eigenvalue = 3.29E-05

 Scale SEOQF with 1.000000e-02/1.000000e-01/1.000000e-01

 Standard Electronic Orientation quadrupole field applied
 Nucleus-field energy     =     0.0000000107 hartrees
 Guess from superposition of atomic densities
 Warning:  Energy on first SCF cycle will be non-variational
 Long-range K will be added via erf
 Coulomb attenuation parameter = 0.2 bohr**(-1)
 A restricted hybrid HF-DFT SCF calculation will be
 performed using Pulay DIIS extrapolation
 Exchange:     0.2220 Hartree-Fock + 1.0000 wB97X-D + LR-HF
 Correlation:  1.0000 wB97X-D
 Using SG-2 standard quadrature grid
 Dispersion:   Grimme D
 SCF converges when DIIS error is below 1.0E-08
 using 16 threads for integral computing 
 using 16 threads for integral computing 
 K construction time:  CPU 70.60 s  wall 4.67 s
 -------------------------------------------------------
 OpenMP BLAS3 based DFT computing Module                
 Release: version 1.0, May 2013, Q-Chem Inc. Pittsburgh 
 -------------------------------------------------------
 ---------------------------------------
  Cycle       Energy         DIIS Error
 ---------------------------------------
    1   -2301.4021003582      1.83E-02
 K construction time:  CPU 1103.04 s  wall 72.97 s
    2   -2290.8907208090      1.34E-03
 K construction time:  CPU 1050.41 s  wall 69.53 s
    3   -2290.9276906671      1.35E-03
 K construction time:  CPU 1005.79 s  wall 66.43 s
    4   -2291.1380129254      1.87E-04
 K construction time:  CPU 917.33 s  wall 60.76 s
    5   -2291.1421867933      9.43E-05
 K construction time:  CPU 875.33 s  wall 57.80 s
    6   -2291.1433335237      3.25E-05
 K construction time:  CPU 808.01 s  wall 53.50 s
    7   -2291.1434822570      1.33E-05
 K construction time:  CPU 752.67 s  wall 49.83 s
    8   -2291.1435145287      5.45E-06
 K construction time:  CPU 726.60 s  wall 48.09 s
    9   -2291.1435243868      3.10E-06
 K construction time:  CPU 673.51 s  wall 44.56 s
   10   -2291.1435269575      9.52E-07
 K construction time:  CPU 620.71 s  wall 40.92 s
   11   -2291.1435273415      6.59E-07
 K construction time:  CPU 568.97 s  wall 37.45 s
   12   -2291.1435274344      2.34E-07
 K construction time:  CPU 519.02 s  wall 34.17 s
   13   -2291.1435274488      1.05E-07
 K construction time:  CPU 454.25 s  wall 29.96 s
   14   -2291.1435274501      2.97E-08
 K construction time:  CPU 383.53 s  wall 25.22 s
   15   -2291.1435274502      1.56E-08
 K construction time:  CPU 1102.90 s  wall 72.92 s
   16   -2291.1435274512      4.72E-09 Convergence criterion met
 ---------------------------------------
 SCF time:  CPU 15562.85 s  wall 1055.47 s
 SCF   energy in the final basis set = -2291.1435274512
 Total energy in the final basis set = -2291.1435274512
 
 --------------------------------------------------------------
 
                    Orbital Energies (a.u.)
 --------------------------------------------------------------
 
 Alpha MOs
 -- Occupied --
-89.145 -89.102 -89.079 -14.481 -14.476 -14.459 -14.457 -14.448
-14.437 -10.359 -10.354 -10.351 -10.344 -10.341 -10.341 -10.339
-10.339 -10.338 -10.337 -10.335 -10.334 -10.330 -10.326 -10.319
-10.312 -10.304 -10.301 -10.294 -10.292  -8.155  -8.116  -8.094
 -6.105  -6.100  -6.099  -6.065  -6.061  -6.060  -6.043  -6.040
 -6.037  -1.141  -1.098  -1.072  -1.052  -1.025  -1.011  -1.002
 -0.985  -0.925  -0.914  -0.898  -0.878  -0.868  -0.854  -0.837
 -0.812  -0.778  -0.769  -0.748  -0.740  -0.728  -0.722  -0.710
 -0.671  -0.654  -0.645  -0.630  -0.629  -0.622  -0.604  -0.602
 -0.591  -0.578  -0.570  -0.563  -0.559  -0.544  -0.542  -0.527
 -0.514  -0.506  -0.502  -0.502  -0.495  -0.491  -0.486  -0.480
 -0.473  -0.468  -0.461  -0.455  -0.450  -0.435  -0.428  -0.423
 -0.422  -0.408  -0.395  -0.376  -0.368  -0.364  -0.359  -0.349
 -0.343  -0.338  -0.336  -0.333  -0.315  -0.275
 -- Virtual --
 -0.043  -0.034   0.026   0.032   0.040   0.056   0.066   0.072
  0.086   0.086   0.093   0.122   0.124   0.129   0.131   0.138
  0.145   0.146   0.154   0.157   0.165   0.175   0.176   0.189
  0.194   0.196   0.211   0.215   0.221   0.226   0.237   0.242
  0.253   0.261   0.267   0.274   0.281   0.284   0.291   0.293
  0.299   0.301   0.308   0.310   0.316   0.320   0.323   0.330
  0.330   0.333   0.337   0.343   0.345   0.347   0.353   0.358
  0.359   0.365   0.373   0.376   0.378   0.381   0.382   0.385
  0.389   0.391   0.395   0.400   0.402   0.406   0.408   0.414
  0.415   0.417   0.423   0.426   0.430   0.433   0.434   0.439
  0.440   0.446   0.449   0.456   0.457   0.460   0.462   0.463
  0.466   0.472   0.478   0.478   0.480   0.484   0.488   0.488
  0.493   0.498   0.502   0.504   0.510   0.513   0.519   0.519
  0.522   0.527   0.529   0.534   0.537   0.541   0.545   0.550
  0.555   0.561   0.566   0.567   0.575   0.580   0.584   0.593
  0.601   0.606   0.608   0.615   0.618   0.624   0.626   0.631
  0.639   0.642   0.645   0.648   0.653   0.657   0.667   0.669
  0.671   0.675   0.681   0.689   0.697   0.699   0.707   0.710
  0.712   0.718   0.727   0.733   0.737   0.741   0.741   0.746
  0.751   0.762   0.764   0.766   0.772   0.775   0.783   0.788
  0.789   0.794   0.797   0.802   0.807   0.808   0.818   0.821
  0.828   0.833   0.837   0.840   0.843   0.846   0.848   0.855
  0.864   0.864   0.871   0.873   0.875   0.883   0.892   0.895
  0.907   0.908   0.916   0.918   0.921   0.922   0.929   0.933
  0.938   0.941   0.945   0.950   0.952   0.958   0.960   0.971
  0.975   0.978   0.982   0.986   0.993   0.999   1.008   1.009
  1.018   1.025   1.028   1.030   1.044   1.050   1.053   1.056
  1.059   1.064   1.069   1.082   1.086   1.087   1.091   1.093
  1.101   1.103   1.110   1.114   1.117   1.126   1.131   1.138
  1.143   1.151   1.163   1.170   1.180   1.183   1.191   1.194
  1.198   1.200   1.209   1.214   1.220   1.226   1.235   1.240
  1.247   1.253   1.265   1.269   1.282   1.284   1.291   1.301
  1.309   1.316   1.320   1.325   1.339   1.347   1.351   1.353
  1.361   1.370   1.373   1.376   1.378   1.381   1.385   1.391
  1.397   1.405   1.411   1.418   1.422   1.427   1.429   1.438
  1.442   1.447   1.453   1.457   1.464   1.472   1.480   1.482
  1.484   1.493   1.496   1.507   1.510   1.520   1.522   1.528
  1.534   1.557   1.567   1.575   1.578   1.581   1.586   1.592
  1.600   1.608   1.611   1.619   1.632   1.635   1.640   1.643
  1.650   1.662   1.664   1.667   1.673   1.678   1.687   1.694
  1.703   1.711   1.717   1.724   1.731   1.739   1.744   1.749
  1.756   1.760   1.766   1.772   1.784   1.792   1.794   1.804
  1.814   1.830   1.844   1.856   1.869   1.877   1.880   1.885
  1.892   1.896   1.907   1.917   1.923   1.930   1.937   1.946
  1.949   1.963   1.971   1.979   1.983   1.994   2.001   2.009
  2.017   2.021   2.029   2.040   2.046   2.048   2.055   2.069
  2.072   2.078   2.094   2.101   2.107   2.115   2.121   2.126
  2.140   2.147   2.162   2.172   2.177   2.178   2.189   2.190
  2.195   2.204   2.211   2.217   2.221   2.242   2.250   2.252
  2.259   2.266   2.279   2.289   2.294   2.296   2.298   2.301
  2.315   2.323   2.332   2.341   2.344   2.345   2.354   2.365
  2.375   2.383   2.393   2.397   2.407   2.414   2.417   2.423
  2.432   2.437   2.441   2.451   2.457   2.462   2.470   2.475
  2.477   2.488   2.496   2.508   2.521   2.528   2.530   2.532
  2.534   2.540   2.542   2.548   2.550   2.571   2.581   2.589
  2.597   2.614   2.616   2.621   2.632   2.640   2.648   2.653
  2.659   2.666   2.674   2.680   2.688   2.700   2.703   2.712
  2.725   2.730   2.736   2.749   2.753   2.772   2.775   2.778
  2.781   2.786   2.802   2.804   2.812   2.815   2.822   2.825
  2.830   2.840   2.853   2.855   2.867   2.871   2.875   2.878
  2.886   2.893   2.894   2.902   2.912   2.920   2.922   2.930
  2.934   2.941   2.941   2.950   2.962   2.965   2.967   2.980
  2.990   2.995   2.999   3.002   3.008   3.012   3.021   3.023
  3.027   3.033   3.038   3.040   3.042   3.048   3.061   3.062
  3.063   3.068   3.071   3.074   3.077   3.080   3.083   3.087
  3.094   3.099   3.102   3.109   3.115   3.115   3.122   3.129
  3.138   3.140   3.147   3.155   3.157   3.159   3.161   3.168
  3.172   3.176   3.183   3.190   3.192   3.196   3.204   3.207
  3.213   3.214   3.220   3.224   3.228   3.235   3.236   3.238
  3.244   3.247   3.250   3.256   3.260   3.264   3.270   3.274
  3.279   3.282   3.284   3.286   3.289   3.298   3.300   3.307
  3.310   3.317   3.318   3.324   3.329   3.331   3.340   3.344
  3.351   3.356   3.361   3.370   3.373   3.387   3.390   3.400
  3.403   3.404   3.411   3.415   3.419   3.423   3.425   3.434
  3.439   3.442   3.448   3.454   3.459   3.464   3.471   3.474
  3.476   3.488   3.490   3.493   3.501   3.508   3.511   3.517
  3.526   3.533   3.543   3.549   3.554   3.567   3.571   3.581
  3.584   3.595   3.607   3.611   3.617   3.622   3.630   3.642
  3.652   3.660   3.665   3.681   3.688   3.698   3.704   3.715
  3.717   3.721   3.724   3.737   3.741   3.745   3.748   3.759
  3.768   3.778   3.781   3.787   3.795   3.798   3.805   3.810
  3.816   3.817   3.824   3.843   3.847   3.859   3.869   3.878
  3.893   3.896   3.902   3.904   3.914   3.917   3.924   3.928
  3.931   3.934   3.940   3.948   3.952   3.959   3.967   3.970
  3.973   3.980   3.990   4.002   4.008   4.013   4.023   4.026
  4.038   4.048   4.052   4.061   4.075   4.080   4.090   4.098
  4.111   4.117   4.120   4.130   4.134   4.145   4.162   4.168
  4.178   4.182   4.192   4.200   4.207   4.214   4.218   4.223
  4.233   4.236   4.244   4.251   4.253   4.263   4.269   4.282
  4.292   4.296   4.301   4.312   4.316   4.321   4.327   4.337
  4.345   4.350   4.353   4.360   4.366   4.373   4.384   4.390
  4.401   4.408   4.421   4.422   4.435   4.442   4.452   4.462
  4.463   4.478   4.490   4.496   4.513   4.517   4.524   4.538
  4.541   4.557   4.559   4.565   4.589   4.592   4.600   4.609
  4.625   4.635   4.642   4.651   4.658   4.675   4.680   4.703
  4.708   4.712   4.727   4.739   4.754   4.769   4.771   4.775
  4.794   4.804   4.810   4.817   4.828   4.840   4.842   4.854
  4.860   4.868   4.883   4.890   4.903   4.910   4.918   4.929
  4.934   4.949   4.954   4.966   4.973   4.979   4.984   4.990
  4.994   5.004   5.009   5.011   5.018   5.033   5.038   5.045
  5.054   5.058   5.070   5.081   5.089   5.099   5.113   5.125
  5.129   5.138   5.144   5.154   5.163   5.168   5.184   5.194
  5.209   5.212   5.230   5.243   5.279   5.296   5.306   5.314
  5.324   5.333   5.346   5.363   5.370   5.383   5.398   5.428
  5.433   5.462   5.465   5.483   5.497   5.503   5.524   5.544
  5.560   5.573   5.578   5.586   5.597   5.600   5.626   5.653
  5.665   5.684   5.711   5.722   5.735   5.744   5.756   5.776
  5.797   5.831   5.833   5.855   5.870   5.878   5.894   5.908
  5.952   5.955   5.979   6.041   6.090   6.094   6.145   6.161
  6.197   6.226   6.244   6.272   6.291   6.314   6.376   6.432
  6.443   6.487   6.623   6.836   6.990   7.069   7.896   8.745
  9.785  10.113  10.645  11.055  11.251  11.690  11.990  12.014
 12.320  12.616  12.709  12.751  12.827  12.864  13.066  13.254
 13.341  13.408  13.535  13.632  14.289  14.606  15.033  15.067
 --------------------------------------------------------------
 
          Ground-State Mulliken Net Atomic Charges

     Atom                 Charge (a.u.)
  ----------------------------------------
      1 C                    -0.090103
      2 C                    -0.128699
      3 C                    -0.078942
      4 C                    -0.116512
      5 N                    -0.141995
      6 C                     0.079674
      7 C                     0.115090
      8 N                    -0.176569
      9 C                    -0.015703
     10 C                    -0.055447
     11 N                    -0.222600
     12 C                     0.062366
     13 C                     0.008168
     14 S                     0.410255
     15 N                    -0.271043
     16 C                    -0.113235
     17 S                     0.185961
     18 C                     0.056804
     19 C                    -0.052374
     20 N                    -0.146791
     21 C                     0.049714
     22 C                    -0.013035
     23 C                    -0.052400
     24 N                    -0.163183
     25 C                    -0.142740
     26 S                     0.099812
     27 C                    -0.049658
     28 C                    -0.156141
     29 C                    -0.183020
     30 H                     0.133486
     31 H                     0.120280
     32 H                     0.120425
     33 H                     0.136301
     34 H                     0.127725
     35 H                     0.132973
     36 H                     0.137231
     37 H                     0.127826
     38 H                     0.130094
     39 H                     0.136004
  ----------------------------------------
  Sum of atomic charges =     0.000000

 -----------------------------------------------------------------
                    Cartesian Multipole Moments
 -----------------------------------------------------------------
    Charge (ESU x 10^10)
                 0.0000
    Dipole Moment (Debye)
         X      -0.1607      Y      -0.0973      Z      -1.2768
       Tot       1.2906
    Quadrupole Moments (Debye-Ang)
        XX    -151.8843     XY       6.3051     YY    -171.3979
        XZ       4.6324     YZ       1.2045     ZZ    -179.2296
    Octopole Moments (Debye-Ang^2)
       XXX    -104.7251    XXY     -52.8549    XYY      66.0595
       YYY      49.1028    XXZ     -73.8100    XYZ     -18.7057
       YYZ      11.6281    XZZ     -44.3697    YZZ      -7.0771
       ZZZ      21.2906
    Hexadecapole Moments (Debye-Ang^3)
      XXXX  -16014.7328   XXXY    -102.5359   XXYY   -3432.5422
      XYYY      87.0399   YYYY   -2168.0270   XXXZ     266.9679
      XXYZ      71.8516   XYYZ       7.1702   YYYZ      -1.9596
      XXZZ   -3454.8851   XYZZ      67.9311   YYZZ    -745.2036
      XZZZ      16.1022   YZZZ      -0.2428   ZZZZ   -1724.8322
 -----------------------------------------------------------------
 Calculating analytic gradient of the SCF energy
 K construction time:  CPU 2770.63 s  wall 175.54 s
 Gradient of SCF Energy
            1           2           3           4           5           6
    1  -0.0005737   0.0016390  -0.0006916  -0.0018383  -0.0007320   0.0026594
    2  -0.0000445   0.0003209  -0.0001761  -0.0001927  -0.0000885   0.0004233
    3   0.0001256   0.0007414  -0.0002503  -0.0003935   0.0004575   0.0004654
            7           8           9          10          11          12
    1  -0.0039410   0.0025767   0.0009152  -0.0056836   0.0019403  -0.0025379
    2  -0.0012411  -0.0003940   0.0005981   0.0021345   0.0000322  -0.0005394
    3  -0.0003742   0.0023563  -0.0003788  -0.0105097  -0.0001737   0.0001097
           13          14          15          16          17          18
    1   0.0185229  -0.0012853  -0.0039647  -0.0186500   0.0060996   0.0032760
    2   0.0023467  -0.0008335   0.0005746  -0.0097096  -0.0034176   0.0067934
    3   0.0055257   0.0036697  -0.0023994  -0.0004230  -0.0016318   0.0006723
           19          20          21          22          23          24
    1  -0.0002251   0.0046877  -0.0003597  -0.0017599   0.0039521  -0.0006793
    2  -0.0018940  -0.0010695   0.0048501   0.0019955   0.0012041  -0.0024674
    3   0.0005217  -0.0004015  -0.0001654   0.0000714  -0.0001613  -0.0003255
           25          26          27          28          29          30
    1   0.0006307   0.0001345  -0.0023136   0.0005902  -0.0009344   0.0000144
    2   0.0005511  -0.0007368   0.0026542  -0.0002486  -0.0005253  -0.0002133
    3  -0.0003187   0.0002643   0.0006292   0.0001067   0.0003991  -0.0000871
           31          32          33          34          35          36
    1  -0.0002553   0.0003800   0.0001083  -0.0018464  -0.0002578  -0.0003305
    2   0.0000867  -0.0000287   0.0001088  -0.0011108  -0.0000427  -0.0004197
    3  -0.0006079  -0.0000063  -0.0001086   0.0028201   0.0002894   0.0002801
           37          38          39
    1   0.0004902  -0.0001683   0.0004111
    2  -0.0001202   0.0005955   0.0002444
    3  -0.0003316  -0.0003818  -0.0000750
 Max gradient component =       1.865E-02
 RMS gradient           =       3.314E-03
 Gradient time:  CPU 3225.56 s  wall 206.36 s
 Geometry Optimization Parameters
   NAtoms,    NIC,     NZ,  NCons,   NDum,   NFix, NCnnct, MaxDiis
       39     293       0       3       0       0       0       0


** CONSTRAINED OPTIMIZATION IN DELOCALIZED INTERNAL COORDINATES **
   Searching for a Minimum

   Optimization Cycle:   1

                       Coordinates (Angstroms)
     ATOM                X               Y               Z
      1  C        -7.5745228363   -0.5117682247   -1.0706401335
      2  C        -6.7248636563   -0.7579587535   -2.1367588748
      3  C        -7.0142872351   -0.1279627993    0.1371677831
      4  C        -5.3647255189   -0.6204380255   -1.9518265715
      5  N        -5.7083542365    0.0048126180    0.3307049022
      6  C        -4.8959088337   -0.2421804625   -0.6946086789
      7  C        -3.4354885284   -0.0930973320   -0.4775638665
      8  N        -2.6922654813    0.1090849176   -1.5304787383
      9  C        -2.8076850381   -0.1777198523    0.8089677432
     10  C        -1.3476595641    0.2529344401   -1.4436149090
     11  N        -3.3756487616   -0.4345368514    1.9891246887
     12  C        -1.3872071319   -0.0150437675    0.8953139414
     13  C        -0.6114892592    0.2084766543   -0.2826701516
     14  S        -2.1966659463   -0.4353474442    3.0749868251
     15  N        -0.9220986570   -0.1282675221    2.1377264396
     16  C         0.8369892719    0.3438409051   -0.2672295479
     17  S         1.8978999488   -1.0030517310   -0.3981626469
     18  C         1.6040569258    1.5047438108   -0.1657662733
     19  C         3.3329294970   -0.0875482493   -0.2920600874
     20  N         1.1224683435    2.7747127794   -0.0580455543
     21  C         3.0137092074    1.2606968961   -0.1835824067
     22  C         4.6438822228   -0.6947990390   -0.3372033766
     23  C         2.0130497696    3.7135614439    0.0305434070
     24  N         3.9193775320    2.2710586669   -0.0881655088
     25  C         5.8270419850   -0.1124271916   -0.7006612835
     26  S         4.8953769414   -2.3529019492    0.1058944320
     27  C         3.4195154984    3.4639487804    0.0169605847
     28  C         6.9260153120   -1.0019009899   -0.6345578897
     29  C         6.5728919086   -2.2477502910   -0.2209230219
     30  H        -8.6457699949   -0.6141052113   -1.1705163933
     31  H        -7.1187164217   -1.0560986194   -3.0998977993
     32  H        -7.6432638274    0.0855406414    0.9931810282
     33  H        -4.6592575358   -0.7943081126   -2.7497498647
     34  H        -0.8425889424    0.3950257327   -2.3851294680
     35  H         1.6525232396    4.7326430731    0.1225076917
     36  H         5.8902048427    0.9217874887   -0.9942766903
     37  H         4.1143623398    4.2930502024    0.0948435652
     38  H         7.9359863548   -0.7208447986   -0.8915132571
     39  H         7.2089296911   -3.1055723805   -0.0847284993
   Point Group: c1    Number of degrees of freedom:   111


   Energy is  -2291.143527451

              Constraints and their Current Values
                                        Value     Constraint
   Dihedral:        4   6   7   8       21.915       21.822
   Dihedral:       10  13  16  17      -89.999      -90.000
   Dihedral:       17  19  22  25      156.426      156.395

 Attempting to Generate Delocalized Internal Coordinates

   Using Lagrange Multiplier Algorithm


114 Hessian modes will be used to form the next step
  Hessian Eigenvalues:
    -0.977753   -0.977753   -0.977753    0.045000    0.045000    0.045000
     0.045000    0.045000    0.045000    0.045000    0.045000    0.045000
     0.045000    0.045000    0.045000    0.045000    0.045001    0.045001
     0.045001    0.045001    0.045001    0.045001    0.045001    0.045002
     0.045002    0.045002    0.045002    0.045003    0.045003    0.045004
     0.045004    0.045007    0.045008    0.045011    0.045025    0.045042
     0.159985    0.159992    0.159996    0.159998    0.159999    0.159999
     0.160000    0.160000    0.160000    0.160000    0.219998    0.221296
     0.223765    0.224234    0.233056    0.237962    0.243336    0.244277
     0.249685    0.249909    0.249932    0.249960    0.249971    0.249981
     0.249981    0.249983    0.249989    0.249990    0.249993    0.249993
     0.249995    0.312602    0.327543    0.334455    0.341192    0.341262
     0.354111    0.354480    0.355757    0.357029    0.359040    0.360694
     0.360954    0.362567    0.363666    0.364149    0.369052    0.372786
     0.376138    0.388443    0.390986    0.406991    0.407223    0.418669
     0.432515    0.440846    0.460521    0.465832    0.471161    0.473690
     0.482787    0.484038    0.485870    0.485956    0.504411    0.517491
     0.518985    0.525383    0.557629    0.572590    0.582389    0.589743
     0.639523    0.655123    0.663885    1.022753    1.022753    1.022753

 Minimum Search - Taking P-RFO Step
 Searching for Lamda that Maximizes Along the Constraint modes Only
 Value Taken    Lamda =   0.00000550
 Searching for Lamda that Minimizes Along All other modes
 Value Taken    Lamda =  -0.00211259
 Step Taken.  Stepsize is  0.097694

                             Maximum     Tolerance    Cnvgd?
         Gradient            0.009456       0.000300      NO
         Displacement        0.037937       0.001200      NO
         Energy change     *********       0.000001      NO


 New Cartesian Coordinates Obtained by Inverse Iteration

 Displacement from previous Coordinates is:  0.526709
 ----------------------------------------------------------------
             Standard Nuclear Orientation (Angstroms)
    I     Atom           X                Y                Z
 ----------------------------------------------------------------
    1      C      -7.5589216477    -0.4658557360    -1.0574307291
    2      C      -6.7206848162    -0.7429939540    -2.1248556523
    3      C      -6.9863708522    -0.0765745864     0.1428278578
    4      C      -5.3563500286    -0.6253284667    -1.9488147822
    5      N      -5.6777040646     0.0339484504     0.3282374872
    6      C      -4.8770998381    -0.2406946722    -0.6982380653
    7      C      -3.4131070115    -0.1046446258    -0.4887352258
    8      N      -2.6761897188     0.0781844914    -1.5497701241
    9      C      -2.7861649325    -0.1885783701     0.7995223984
   10      C      -1.3302428751     0.2128616478    -1.4588493839
   11      N      -3.3518367132    -0.4312391783     1.9830926081
   12      C      -1.3647407808    -0.0356283686     0.8814199415
   13      C      -0.6070481181     0.1798501858    -0.3012335525
   14      S      -2.1585878898    -0.4326302622     3.0544622429
   15      N      -0.8809813971    -0.1433431811     2.1179814195
   16      C       0.8478325148     0.3286743185    -0.2787742032
   17      S       1.9071928860    -1.0077732894    -0.3981288620
   18      C       1.5878430082     1.4870808296    -0.1710268489
   19      C       3.3383185078    -0.0835071721    -0.2900516065
   20      N       1.0624441226     2.7397566737    -0.0634459870
   21      C       3.0017354075     1.2605405444    -0.1779485679
   22      C       4.6525804631    -0.6898404146    -0.3343443237
   23      C       1.9336873220     3.6930264618     0.0351957188
   24      N       3.8833749931     2.2918771448    -0.0715839517
   25      C       5.8374772865    -0.1102006448    -0.6964064495
   26      S       4.8986088547    -2.3487113346     0.1038233726
   27      C       3.3490775748     3.4696356852     0.0324474748
   28      C       6.9336927058    -1.0035606979    -0.6299845992
   29      C       6.5765191643    -2.2491215192    -0.2209148322
   30      H      -8.6325246063    -0.5483931186    -1.1498354697
   31      H      -7.1248064836    -1.0483527834    -3.0804404539
   32      H      -7.6090885777     0.1601435188     0.9977434020
   33      H      -4.6577512231    -0.8214398699    -2.7473627811
   34      H      -0.8166296069     0.3568794958    -2.4012355013
   35      H       1.5550778998     4.7055834715     0.1253300972
   36      H       5.9061670666     0.9246432418    -0.9892280740
   37      H       4.0206131322     4.3161690276     0.1222828312
   38      H       7.9464150567    -0.7289956755    -0.8825634786
   39      H       7.2069166401    -3.1111578152    -0.0855718072
 ----------------------------------------------------------------
 Molecular Point Group                 C1    NOp =  1
 Largest Abelian Subgroup              C1    NOp =  1
 Nuclear Repulsion Energy =  2923.9837011203 hartrees
 There are      110 alpha and      110 beta electrons
 Applying Cartesian multipole field
    Component          Value
    ---------          -----
     (2,0,0)        1.00000E-12
     (0,2,0)        2.00000E-11
     (0,0,2)       -3.00000E-11
 Nucleus-field energy     =     0.0000000107 hartrees
 Requested basis set is cc-pVTZ
 There are 356 shells and 1022 basis functions
 A cutoff of  1.0D-11 yielded  30888 shell pairs
 There are    243802 function pairs (    318287 Cartesian)
 Smallest overlap matrix eigenvalue = 3.21E-05
 Guess MOs from SCF MO coefficient file
 Reading MOs from coefficient file
 Reading MOs from coefficient file
 Long-range K will be added via erf
 Coulomb attenuation parameter = 0.2 bohr**(-1)
 A restricted hybrid HF-DFT SCF calculation will be
 performed using Pulay DIIS extrapolation
 Exchange:     0.2220 Hartree-Fock + 1.0000 wB97X-D + LR-HF
 Correlation:  1.0000 wB97X-D
 Using SG-2 standard quadrature grid
 Dispersion:   Grimme D
 SCF converges when DIIS error is below 1.0E-08
 Geometry optimization detected.  Setting ReadMinima to 0
 Setting SaveMinima to 0
 using 16 threads for integral computing 
 using 16 threads for integral computing 
 K construction time:  CPU 1107.44 s  wall 73.36 s
 -------------------------------------------------------
 OpenMP BLAS3 based DFT computing Module                
 Release: version 1.0, May 2013, Q-Chem Inc. Pittsburgh 
 -------------------------------------------------------
 ---------------------------------------
  Cycle       Energy         DIIS Error
 ---------------------------------------
    1   -2291.1399225100      2.99E-04
 K construction time:  CPU 1109.16 s  wall 73.32 s
    2   -2291.1444046058      3.42E-05
 K construction time:  CPU 840.43 s  wall 55.60 s
    3   -2291.1444955713      3.46E-05
 K construction time:  CPU 796.77 s  wall 52.63 s
    4   -2291.1446427933      9.55E-06
 K construction time:  CPU 733.64 s  wall 48.67 s
    5   -2291.1446555335      4.54E-06
 K construction time:  CPU 680.21 s  wall 44.96 s
    6   -2291.1446584643      1.99E-06
 K construction time:  CPU 626.17 s  wall 41.31 s
    7   -2291.1446590872      7.14E-07
 K construction time:  CPU 562.15 s  wall 37.21 s
    8   -2291.1446591853      3.14E-07
 K construction time:  CPU 536.99 s  wall 35.47 s
    9   -2291.1446592149      1.59E-07
 K construction time:  CPU 480.03 s  wall 31.49 s
   10   -2291.1446592209      6.36E-08
 K construction time:  CPU 431.16 s  wall 28.28 s
   11   -2291.1446592217      2.70E-08
 K construction time:  CPU 380.55 s  wall 25.06 s
   12   -2291.1446592214      1.11E-08
 K construction time:  CPU 313.17 s  wall 20.52 s
   13   -2291.1446592221      3.71E-09 Convergence criterion met
 ---------------------------------------
 SCF time:  CPU 11608.57 s  wall 788.45 s
 SCF   energy in the final basis set = -2291.1446592221
 Total energy in the final basis set = -2291.1446592221
 
 --------------------------------------------------------------
 
                    Orbital Energies (a.u.)
 --------------------------------------------------------------
 
 Alpha MOs
 -- Occupied --
-89.145 -89.100 -89.079 -14.482 -14.478 -14.459 -14.457 -14.449
-14.437 -10.359 -10.354 -10.351 -10.344 -10.341 -10.341 -10.339
-10.337 -10.336 -10.336 -10.335 -10.334 -10.328 -10.326 -10.318
-10.312 -10.303 -10.301 -10.294 -10.292  -8.155  -8.115  -8.094
 -6.105  -6.100  -6.099  -6.064  -6.060  -6.059  -6.043  -6.040
 -6.037  -1.143  -1.098  -1.072  -1.052  -1.027  -1.012  -1.004
 -0.986  -0.926  -0.914  -0.898  -0.879  -0.868  -0.854  -0.837
 -0.812  -0.777  -0.769  -0.748  -0.740  -0.728  -0.722  -0.710
 -0.672  -0.654  -0.646  -0.630  -0.629  -0.622  -0.605  -0.602
 -0.592  -0.578  -0.570  -0.563  -0.560  -0.544  -0.542  -0.526
 -0.514  -0.505  -0.502  -0.501  -0.495  -0.491  -0.486  -0.480
 -0.472  -0.468  -0.461  -0.455  -0.449  -0.436  -0.429  -0.424
 -0.422  -0.410  -0.398  -0.377  -0.368  -0.364  -0.358  -0.350
 -0.342  -0.339  -0.336  -0.333  -0.316  -0.276
 -- Virtual --
 -0.042  -0.033   0.026   0.032   0.039   0.056   0.067   0.072
  0.087   0.088   0.094   0.122   0.124   0.129   0.131   0.138
  0.143   0.146   0.154   0.156   0.165   0.175   0.176   0.189
  0.195   0.196   0.211   0.214   0.221   0.225   0.237   0.241
  0.253   0.260   0.266   0.274   0.281   0.284   0.290   0.293
  0.299   0.301   0.307   0.311   0.316   0.320   0.323   0.329
  0.331   0.333   0.337   0.343   0.345   0.347   0.354   0.358
  0.359   0.365   0.374   0.376   0.378   0.380   0.382   0.386
  0.389   0.392   0.395   0.400   0.403   0.406   0.409   0.414
  0.415   0.418   0.423   0.425   0.430   0.434   0.434   0.439
  0.440   0.446   0.450   0.457   0.457   0.459   0.462   0.463
  0.466   0.473   0.477   0.479   0.480   0.484   0.487   0.488
  0.493   0.497   0.503   0.504   0.511   0.513   0.519   0.519
  0.523   0.527   0.529   0.535   0.537   0.541   0.545   0.549
  0.555   0.560   0.566   0.567   0.575   0.581   0.584   0.594
  0.601   0.606   0.608   0.615   0.619   0.624   0.627   0.631
  0.639   0.642   0.646   0.648   0.654   0.657   0.667   0.670
  0.671   0.675   0.683   0.690   0.698   0.700   0.708   0.711
  0.713   0.718   0.726   0.732   0.737   0.741   0.742   0.747
  0.752   0.762   0.764   0.767   0.772   0.775   0.784   0.788
  0.791   0.795   0.798   0.804   0.807   0.809   0.819   0.821
  0.828   0.832   0.836   0.841   0.844   0.846   0.848   0.855
  0.862   0.864   0.871   0.872   0.876   0.885   0.892   0.897
  0.907   0.908   0.916   0.917   0.921   0.922   0.929   0.933
  0.937   0.942   0.946   0.951   0.953   0.957   0.961   0.973
  0.976   0.979   0.983   0.987   0.994   0.999   1.008   1.010
  1.019   1.025   1.027   1.031   1.044   1.051   1.054   1.057
  1.060   1.064   1.070   1.081   1.086   1.087   1.090   1.094
  1.101   1.104   1.111   1.115   1.119   1.126   1.131   1.140
  1.143   1.151   1.163   1.170   1.179   1.181   1.191   1.195
  1.199   1.202   1.213   1.214   1.222   1.226   1.235   1.242
  1.246   1.253   1.266   1.270   1.283   1.286   1.291   1.301
  1.310   1.314   1.322   1.326   1.339   1.348   1.351   1.356
  1.361   1.370   1.375   1.376   1.380   1.382   1.386   1.392
  1.399   1.403   1.411   1.418   1.423   1.428   1.429   1.438
  1.442   1.446   1.453   1.459   1.465   1.473   1.479   1.482
  1.485   1.494   1.496   1.507   1.510   1.521   1.523   1.527
  1.534   1.557   1.567   1.575   1.580   1.583   1.587   1.592
  1.600   1.608   1.610   1.621   1.633   1.636   1.641   1.643
  1.650   1.662   1.664   1.667   1.673   1.678   1.687   1.695
  1.704   1.713   1.717   1.727   1.732   1.741   1.744   1.751
  1.758   1.762   1.770   1.773   1.784   1.791   1.795   1.805
  1.816   1.831   1.845   1.858   1.871   1.877   1.881   1.887
  1.892   1.897   1.909   1.917   1.924   1.931   1.938   1.948
  1.950   1.964   1.973   1.980   1.983   1.995   2.003   2.009
  2.016   2.021   2.030   2.039   2.042   2.048   2.057   2.069
  2.073   2.078   2.095   2.099   2.106   2.115   2.121   2.128
  2.140   2.149   2.162   2.174   2.176   2.178   2.188   2.190
  2.197   2.206   2.213   2.218   2.222   2.242   2.250   2.251
  2.259   2.267   2.279   2.288   2.293   2.295   2.296   2.300
  2.314   2.325   2.332   2.341   2.343   2.345   2.355   2.368
  2.373   2.381   2.394   2.397   2.404   2.413   2.419   2.420
  2.433   2.437   2.442   2.451   2.457   2.462   2.469   2.477
  2.478   2.488   2.499   2.510   2.522   2.528   2.531   2.532
  2.536   2.540   2.543   2.549   2.551   2.569   2.579   2.590
  2.598   2.615   2.616   2.622   2.632   2.642   2.648   2.656
  2.660   2.667   2.676   2.681   2.690   2.701   2.703   2.713
  2.726   2.730   2.735   2.751   2.756   2.773   2.776   2.780
  2.782   2.787   2.802   2.805   2.813   2.815   2.821   2.824
  2.829   2.840   2.853   2.856   2.867   2.873   2.877   2.879
  2.887   2.893   2.896   2.903   2.911   2.921   2.923   2.931
  2.936   2.940   2.941   2.950   2.962   2.966   2.968   2.981
  2.991   2.995   2.999   3.004   3.009   3.012   3.020   3.023
  3.027   3.034   3.039   3.043   3.043   3.050   3.061   3.063
  3.064   3.068   3.072   3.075   3.077   3.080   3.083   3.088
  3.095   3.099   3.102   3.109   3.114   3.117   3.123   3.131
  3.138   3.142   3.148   3.157   3.157   3.160   3.162   3.168
  3.173   3.178   3.184   3.192   3.193   3.199   3.205   3.208
  3.212   3.215   3.220   3.225   3.229   3.235   3.237   3.239
  3.245   3.247   3.250   3.257   3.260   3.266   3.272   3.275
  3.279   3.283   3.285   3.287   3.290   3.299   3.301   3.308
  3.311   3.316   3.320   3.324   3.328   3.331   3.341   3.347
  3.352   3.357   3.361   3.370   3.373   3.388   3.391   3.403
  3.404   3.409   3.412   3.415   3.418   3.425   3.427   3.434
  3.438   3.442   3.450   3.456   3.460   3.465   3.471   3.474
  3.479   3.488   3.490   3.494   3.501   3.508   3.514   3.517
  3.527   3.533   3.543   3.549   3.557   3.567   3.571   3.582
  3.585   3.599   3.609   3.613   3.618   3.625   3.630   3.642
  3.652   3.660   3.668   3.685   3.688   3.697   3.704   3.714
  3.715   3.720   3.725   3.738   3.742   3.746   3.748   3.761
  3.770   3.778   3.783   3.787   3.796   3.799   3.807   3.810
  3.816   3.818   3.826   3.846   3.847   3.863   3.870   3.879
  3.894   3.897   3.901   3.904   3.915   3.919   3.926   3.929
  3.933   3.934   3.941   3.950   3.952   3.961   3.969   3.974
  3.976   3.982   3.991   4.003   4.008   4.013   4.026   4.028
  4.039   4.049   4.052   4.062   4.075   4.081   4.092   4.099
  4.112   4.117   4.125   4.131   4.140   4.146   4.162   4.169
  4.179   4.184   4.195   4.200   4.206   4.211   4.216   4.225
  4.233   4.235   4.243   4.252   4.257   4.263   4.273   4.283
  4.294   4.297   4.303   4.314   4.315   4.324   4.328   4.339
  4.347   4.351   4.355   4.361   4.367   4.374   4.386   4.391
  4.402   4.410   4.425   4.426   4.437   4.443   4.454   4.460
  4.464   4.479   4.493   4.496   4.514   4.520   4.529   4.541
  4.543   4.557   4.558   4.562   4.588   4.592   4.605   4.610
  4.626   4.639   4.644   4.652   4.660   4.675   4.683   4.705
  4.709   4.713   4.731   4.739   4.755   4.769   4.771   4.777
  4.795   4.804   4.811   4.816   4.831   4.841   4.844   4.856
  4.862   4.871   4.884   4.892   4.904   4.911   4.919   4.927
  4.934   4.949   4.955   4.966   4.973   4.981   4.984   4.993
  4.994   5.003   5.010   5.011   5.019   5.033   5.039   5.043
  5.054   5.060   5.069   5.079   5.092   5.099   5.114   5.125
  5.130   5.139   5.144   5.154   5.163   5.170   5.184   5.190
  5.209   5.214   5.228   5.250   5.281   5.294   5.306   5.315
  5.326   5.335   5.348   5.363   5.372   5.383   5.399   5.429
  5.435   5.462   5.466   5.484   5.493   5.502   5.520   5.541
  5.559   5.574   5.578   5.585   5.596   5.604   5.630   5.653
  5.666   5.684   5.710   5.721   5.733   5.742   5.759   5.776
  5.802   5.831   5.834   5.856   5.867   5.877   5.895   5.915
  5.952   5.959   5.980   6.048   6.089   6.099   6.150   6.168
  6.200   6.227   6.243   6.271   6.295   6.314   6.377   6.431
  6.444   6.488   6.630   6.842   6.984   7.069   7.906   8.769
  9.784  10.090  10.649  11.075  11.234  11.691  11.985  12.026
 12.317  12.627  12.734  12.776  12.846  12.871  13.064  13.281
 13.409  13.496  13.562  13.735  14.282  14.684  15.050  15.071
 --------------------------------------------------------------
 
          Ground-State Mulliken Net Atomic Charges

     Atom                 Charge (a.u.)
  ----------------------------------------
      1 C                    -0.090142
      2 C                    -0.128521
      3 C                    -0.079377
      4 C                    -0.117437
      5 N                    -0.142439
      6 C                     0.080440
      7 C                     0.114191
      8 N                    -0.175806
      9 C                    -0.018972
     10 C                    -0.058343
     11 N                    -0.220309
     12 C                     0.065749
     13 C                     0.013658
     14 S                     0.407551
     15 N                    -0.270419
     16 C                    -0.108095
     17 S                     0.185597
     18 C                     0.061960
     19 C                    -0.056807
     20 N                    -0.146812
     21 C                     0.043991
     22 C                    -0.011820
     23 C                    -0.054113
     24 N                    -0.161941
     25 C                    -0.143655
     26 S                     0.099932
     27 C                    -0.049665
     28 C                    -0.155656
     29 C                    -0.183239
     30 H                     0.133429
     31 H                     0.120384
     32 H                     0.120162
     33 H                     0.136396
     34 H                     0.125851
     35 H                     0.133109
     36 H                     0.136685
     37 H                     0.128318
     38 H                     0.130108
     39 H                     0.136058
  ----------------------------------------
  Sum of atomic charges =     0.000000

 -----------------------------------------------------------------
                    Cartesian Multipole Moments
 -----------------------------------------------------------------
    Charge (ESU x 10^10)
                 0.0000
    Dipole Moment (Debye)
         X      -0.2252      Y      -0.0601      Z      -1.2503
       Tot       1.2719
    Quadrupole Moments (Debye-Ang)
        XX    -152.3191     XY       5.6141     YY    -171.2521
        XZ       4.5842     YZ       1.3185     ZZ    -179.4634
    Octopole Moments (Debye-Ang^2)
       XXX    -108.4880    XXY     -53.1878    XYY      63.3364
       YYY      50.1410    XXZ     -73.0362    XYZ     -18.7470
       YYZ      12.3225    XZZ     -43.9372    YZZ      -6.4110
       ZZZ      22.0561
    Hexadecapole Moments (Debye-Ang^3)
      XXXX  -15921.1693   XXXY    -110.8430   XXYY   -3424.2689
      XYYY     107.4461   YYYY   -2153.1982   XXXZ     251.9641
      XXYZ      71.3226   XYYZ       4.5843   YYYZ      -3.2779
      XXZZ   -3440.4702   XYZZ      77.0259   YYZZ    -740.6940
      XZZZ       8.9574   YZZZ      -1.7267   ZZZZ   -1718.5470
 -----------------------------------------------------------------
 Calculating analytic gradient of the SCF energy
 K construction time:  CPU 2806.87 s  wall 177.82 s
 Gradient of SCF Energy
            1           2           3           4           5           6
    1  -0.0001976   0.0004550  -0.0000004  -0.0004097  -0.0000578   0.0007930
    2  -0.0000025  -0.0000536  -0.0000697   0.0004615  -0.0001664  -0.0005644
    3   0.0001175   0.0000145  -0.0001727  -0.0003595   0.0000560   0.0002659
            7           8           9          10          11          12
    1  -0.0015486   0.0016606  -0.0005628  -0.0030259  -0.0008802  -0.0008861
    2   0.0003379  -0.0002020  -0.0003588  -0.0002169   0.0000306  -0.0009098
    3   0.0001730   0.0003767   0.0014682  -0.0008678  -0.0011177   0.0021116
           13          14          15          16          17          18
    1   0.0049770   0.0006265   0.0012437  -0.0047723   0.0028419   0.0006207
    2   0.0017616   0.0005006   0.0006060  -0.0005057   0.0005252   0.0023824
    3   0.0015492  -0.0031316  -0.0003784   0.0007467  -0.0004056   0.0000079
           19          20          21          22          23          24
    1  -0.0004055   0.0008535  -0.0005892  -0.0004610   0.0013682  -0.0006462
    2  -0.0026288  -0.0016663   0.0026391   0.0004989  -0.0002614  -0.0022404
    3  -0.0000630  -0.0002895   0.0001342   0.0001080  -0.0001380  -0.0000966
           25          26          27          28          29          30
    1   0.0006678   0.0003394  -0.0017841   0.0001050  -0.0003837   0.0000517
    2  -0.0000828  -0.0001932   0.0012528  -0.0002483  -0.0001246  -0.0001308
    3  -0.0005063  -0.0000025   0.0001322   0.0002662   0.0000985  -0.0000115
           31          32          33          34          35          36
    1  -0.0000235   0.0000935   0.0000360   0.0001384  -0.0004696  -0.0000330
    2   0.0001749   0.0000217   0.0000232  -0.0000682  -0.0002001  -0.0002466
    3  -0.0000725   0.0000451  -0.0000689   0.0000546   0.0001341   0.0001090
           37          38          39
    1   0.0002160  -0.0001075   0.0001568
    2  -0.0002955   0.0001284   0.0000921
    3  -0.0001083  -0.0001845   0.0000056
 Max gradient component =       4.977E-03
 RMS gradient           =       1.100E-03
 Gradient time:  CPU 3263.30 s  wall 208.85 s
 Geometry Optimization Parameters
   NAtoms,    NIC,     NZ,  NCons,   NDum,   NFix, NCnnct, MaxDiis
       39     293       0       3       0       0       0       0

 Cartesian Hessian Update
 Hessian Updated using BFGS Update


** CONSTRAINED OPTIMIZATION IN DELOCALIZED INTERNAL COORDINATES **
   Searching for a Minimum

   Optimization Cycle:   2

                       Coordinates (Angstroms)
     ATOM                X               Y               Z
      1  C        -7.5589216477   -0.4658557360   -1.0574307291
      2  C        -6.7206848162   -0.7429939540   -2.1248556523
      3  C        -6.9863708522   -0.0765745864    0.1428278578
      4  C        -5.3563500286   -0.6253284667   -1.9488147822
      5  N        -5.6777040646    0.0339484504    0.3282374872
      6  C        -4.8770998381   -0.2406946722   -0.6982380653
      7  C        -3.4131070115   -0.1046446258   -0.4887352258
      8  N        -2.6761897188    0.0781844914   -1.5497701241
      9  C        -2.7861649325   -0.1885783701    0.7995223984
     10  C        -1.3302428751    0.2128616478   -1.4588493839
     11  N        -3.3518367132   -0.4312391783    1.9830926081
     12  C        -1.3647407808   -0.0356283686    0.8814199415
     13  C        -0.6070481181    0.1798501858   -0.3012335525
     14  S        -2.1585878898   -0.4326302622    3.0544622429
     15  N        -0.8809813971   -0.1433431811    2.1179814195
     16  C         0.8478325148    0.3286743185   -0.2787742032
     17  S         1.9071928860   -1.0077732894   -0.3981288620
     18  C         1.5878430082    1.4870808296   -0.1710268489
     19  C         3.3383185078   -0.0835071721   -0.2900516065
     20  N         1.0624441226    2.7397566737   -0.0634459870
     21  C         3.0017354075    1.2605405444   -0.1779485679
     22  C         4.6525804631   -0.6898404146   -0.3343443237
     23  C         1.9336873220    3.6930264618    0.0351957188
     24  N         3.8833749931    2.2918771448   -0.0715839517
     25  C         5.8374772865   -0.1102006448   -0.6964064495
     26  S         4.8986088547   -2.3487113346    0.1038233726
     27  C         3.3490775748    3.4696356852    0.0324474748
     28  C         6.9336927058   -1.0035606979   -0.6299845992
     29  C         6.5765191643   -2.2491215192   -0.2209148322
     30  H        -8.6325246063   -0.5483931186   -1.1498354697
     31  H        -7.1248064836   -1.0483527834   -3.0804404539
     32  H        -7.6090885777    0.1601435188    0.9977434020
     33  H        -4.6577512231   -0.8214398699   -2.7473627811
     34  H        -0.8166296069    0.3568794958   -2.4012355013
     35  H         1.5550778998    4.7055834715    0.1253300972
     36  H         5.9061670666    0.9246432418   -0.9892280740
     37  H         4.0206131322    4.3161690276    0.1222828312
     38  H         7.9464150567   -0.7289956755   -0.8825634786
     39  H         7.2069166401   -3.1111578152   -0.0855718072
   Point Group: c1    Number of degrees of freedom:   111


   Energy is  -2291.144659222

              Constraints and their Current Values
                                        Value     Constraint
   Dihedral:        4   6   7   8       21.822       21.822
   Dihedral:       10  13  16  17      -90.000      -90.000
   Dihedral:       17  19  22  25      156.395      156.395
 Hessian Updated using BFGS Update

   Using Lagrange Multiplier Algorithm


110 Hessian modes will be used to form the next step
  Hessian Eigenvalues:
    -0.977699    0.041030    0.045000    0.045000    0.045000    0.045000
     0.045000    0.045000    0.045000    0.045000    0.045000    0.045000
     0.045000    0.045000    0.045000    0.045001    0.045001    0.045001
     0.045001    0.045001    0.045001    0.045002    0.045002    0.045002
     0.045003    0.045003    0.045003    0.045004    0.045004    0.045007
     0.045009    0.045025    0.045040    0.045283    0.158003    0.159989
     0.159993    0.159996    0.159999    0.159999    0.160000    0.160000
     0.160000    0.160198    0.213959    0.220144    0.221322    0.224124
     0.224798    0.234458    0.238119    0.244121    0.244506    0.249707
     0.249918    0.249948    0.249962    0.249977    0.249982    0.249984
     0.249989    0.249993    0.249993    0.249994    0.294065    0.311440
     0.317431    0.334644    0.337886    0.341255    0.354112    0.354501
     0.355756    0.357017    0.359038    0.360694    0.360803    0.361149
     0.363695    0.364149    0.366995    0.371300    0.374355    0.388865
     0.391277    0.405708    0.409147    0.418673    0.432506    0.452724
     0.459830    0.460777    0.472865    0.473719    0.479882    0.483495
     0.485659    0.486032    0.505269    0.518949    0.523368    0.530506
     0.560021    0.572643    0.589743    0.595520    0.639696    0.658087
     0.664586    1.022872

 Minimum Search - Taking P-RFO Step
 Searching for Lamda that Maximizes Along the Constraint modes Only
 Value Taken    Lamda =   0.00000014
 Searching for Lamda that Minimizes Along All other modes
 Value Taken    Lamda =  -0.00031949
 Step Taken.  Stepsize is  0.056219

                             Maximum     Tolerance    Cnvgd?
         Gradient            0.002754       0.000300      NO
         Displacement        0.023202       0.001200      NO
         Energy change     -0.001132       0.000001      NO


 New Cartesian Coordinates Obtained by Inverse Iteration

 Displacement from previous Coordinates is:  0.405079
 ----------------------------------------------------------------
             Standard Nuclear Orientation (Angstroms)
    I     Atom           X                Y                Z
 ----------------------------------------------------------------
    1      C      -7.5612477136    -0.4221525151    -1.0428783832
    2      C      -6.7345824451    -0.7287207726    -2.1111078828
    3      C      -6.9753704978    -0.0279022363     0.1492786153
    4      C      -5.3668854431    -0.6312530184    -1.9446095798
    5      N      -5.6639225593     0.0614641199     0.3257732841
    6      C      -4.8743814401    -0.2399343182    -0.7016875873
    7      C      -3.4064386626    -0.1185038309    -0.5018357903
    8      N      -2.6727247738     0.0453582313    -1.5685626000
    9      C      -2.7783085763    -0.2006198451     0.7862490788
   10      C      -1.3240415387     0.1721713628    -1.4803091690
   11      N      -3.3411234937    -0.4302464768     1.9759653747
   12      C      -1.3575358407    -0.0600788479     0.8628481932
   13      C      -0.6051484771     0.1454522603    -0.3234287998
   14      S      -2.1492085142    -0.4386077651     3.0494766121
   15      N      -0.8747207148    -0.1666370709     2.1018070117
   16      C       0.8538671900     0.3024819938    -0.2963224819
   17      S       1.9158238392    -1.0272936484    -0.4094123146
   18      C       1.5815727804     1.4642806819    -0.1800210786
   19      C       3.3423014706    -0.0910755666    -0.2904160428
   20      N       1.0421000157     2.7133856466    -0.0706486061
   21      C       2.9978513366     1.2486544392    -0.1765192132
   22      C       4.6617112956    -0.6861688027    -0.3296994039
   23      C       1.9057129143     3.6726047260     0.0378064876
   24      N       3.8710054609     2.2887772708    -0.0602102127
   25      C       5.8413584738    -0.0923901042    -0.6839154243
   26      S       4.9205458136    -2.3442612942     0.1004977249
   27      C       3.3249509471     3.4601499581     0.0442979210
   28      C       6.9460453784    -0.9753636349    -0.6176279958
   29      C       6.5989414829    -2.2266844293    -0.2174573257
   30      H      -8.6367946087    -0.4857955589    -1.1280555781
   31      H      -7.1494745915    -1.0409997969    -3.0596299873
   32      H      -7.5898466835     0.2308482254     1.0038582696
   33      H      -4.6763871116    -0.8489970869    -2.7444130695
   34      H      -0.8101051234     0.3112011138    -2.4240820668
   35      H       1.5225487764     4.6835033605     0.1273732817
   36      H       5.9011416249     0.9450702179    -0.9713329125
   37      H       3.9858957831     4.3141220131     0.1433535963
   38      H       7.9580100192    -0.6911670885    -0.8625776959
   39      H       7.2356076323    -3.0843824602    -0.0842327101
 ----------------------------------------------------------------
 Molecular Point Group                 C1    NOp =  1
 Largest Abelian Subgroup              C1    NOp =  1
 Nuclear Repulsion Energy =  2924.5432620615 hartrees
 There are      110 alpha and      110 beta electrons
 Applying Cartesian multipole field
    Component          Value
    ---------          -----
     (2,0,0)        1.00000E-12
     (0,2,0)        2.00000E-11
     (0,0,2)       -3.00000E-11
 Nucleus-field energy     =     0.0000000106 hartrees
 Requested basis set is cc-pVTZ
 There are 356 shells and 1022 basis functions
 A cutoff of  1.0D-11 yielded  30915 shell pairs
 There are    243951 function pairs (    318458 Cartesian)
 Smallest overlap matrix eigenvalue = 3.19E-05
 Guess MOs from SCF MO coefficient file
 Reading MOs from coefficient file
 Reading MOs from coefficient file
 Long-range K will be added via erf
 Coulomb attenuation parameter = 0.2 bohr**(-1)
 A restricted hybrid HF-DFT SCF calculation will be
 performed using Pulay DIIS extrapolation
 Exchange:     0.2220 Hartree-Fock + 1.0000 wB97X-D + LR-HF
 Correlation:  1.0000 wB97X-D
 Using SG-2 standard quadrature grid
 Dispersion:   Grimme D
 SCF converges when DIIS error is below 1.0E-08
 Geometry optimization detected.  Setting ReadMinima to 0
 Setting SaveMinima to 0
 using 16 threads for integral computing 
 using 16 threads for integral computing 
 K construction time:  CPU 1111.90 s  wall 73.57 s
 -------------------------------------------------------
 OpenMP BLAS3 based DFT computing Module                
 Release: version 1.0, May 2013, Q-Chem Inc. Pittsburgh 
 -------------------------------------------------------
 ---------------------------------------
  Cycle       Energy         DIIS Error
 ---------------------------------------
    1   -2291.1355001667      2.11E-04
 K construction time:  CPU 1109.05 s  wall 73.41 s
    2   -2291.1446551631      2.36E-05
 K construction time:  CPU 808.40 s  wall 53.50 s
    3   -2291.1447549458      1.99E-05
 K construction time:  CPU 756.26 s  wall 50.14 s
    4   -2291.1448007571      6.35E-06
 K construction time:  CPU 711.18 s  wall 47.05 s
    5   -2291.1448075008      3.12E-06
 K construction time:  CPU 658.13 s  wall 43.53 s
    6   -2291.1448089517      1.41E-06
 K construction time:  CPU 600.24 s  wall 39.58 s
    7   -2291.1448092755      3.75E-07
 K construction time:  CPU 540.74 s  wall 35.71 s
    8   -2291.1448093140      2.32E-07
 K construction time:  CPU 502.74 s  wall 33.07 s
    9   -2291.1448093269      9.08E-08
 K construction time:  CPU 435.57 s  wall 28.61 s
   10   -2291.1448093280      4.80E-08
 K construction time:  CPU 403.18 s  wall 26.42 s
   11   -2291.1448093277      1.98E-08
 K construction time:  CPU 353.46 s  wall 23.21 s
   12   -2291.1448093276      6.62E-09 Convergence criterion met
 ---------------------------------------
 SCF time:  CPU 10798.18 s  wall 731.97 s
 SCF   energy in the final basis set = -2291.1448093276
 Total energy in the final basis set = -2291.1448093276
 
 --------------------------------------------------------------
 
                    Orbital Energies (a.u.)
 --------------------------------------------------------------
 
 Alpha MOs
 -- Occupied --
-89.146 -89.100 -89.079 -14.482 -14.477 -14.460 -14.458 -14.449
-14.436 -10.359 -10.353 -10.351 -10.343 -10.342 -10.341 -10.339
-10.336 -10.336 -10.336 -10.335 -10.334 -10.328 -10.326 -10.318
-10.312 -10.303 -10.301 -10.294 -10.292  -8.156  -8.115  -8.094
 -6.106  -6.100  -6.100  -6.064  -6.060  -6.059  -6.043  -6.039
 -6.037  -1.141  -1.098  -1.072  -1.052  -1.026  -1.012  -1.002
 -0.986  -0.926  -0.914  -0.898  -0.879  -0.867  -0.854  -0.837
 -0.812  -0.777  -0.769  -0.748  -0.740  -0.728  -0.722  -0.709
 -0.671  -0.654  -0.645  -0.630  -0.629  -0.622  -0.604  -0.602
 -0.592  -0.578  -0.570  -0.562  -0.559  -0.544  -0.542  -0.526
 -0.513  -0.505  -0.502  -0.501  -0.495  -0.491  -0.486  -0.480
 -0.473  -0.468  -0.461  -0.455  -0.449  -0.436  -0.428  -0.424
 -0.422  -0.410  -0.396  -0.376  -0.368  -0.365  -0.359  -0.350
 -0.342  -0.339  -0.336  -0.333  -0.316  -0.276
 -- Virtual --
 -0.042  -0.033   0.026   0.032   0.039   0.056   0.067   0.072
  0.086   0.088   0.094   0.122   0.124   0.129   0.132   0.138
  0.144   0.146   0.154   0.156   0.165   0.175   0.176   0.189
  0.195   0.196   0.211   0.214   0.221   0.225   0.237   0.241
  0.254   0.260   0.266   0.274   0.280   0.284   0.290   0.293
  0.299   0.301   0.308   0.311   0.317   0.320   0.323   0.330
  0.331   0.333   0.337   0.343   0.345   0.347   0.354   0.359
  0.359   0.365   0.374   0.376   0.378   0.380   0.382   0.386
  0.389   0.392   0.395   0.400   0.403   0.407   0.409   0.414
  0.415   0.419   0.422   0.425   0.430   0.434   0.435   0.439
  0.441   0.446   0.450   0.457   0.457   0.460   0.462   0.463
  0.466   0.473   0.477   0.480   0.480   0.484   0.487   0.488
  0.493   0.497   0.503   0.504   0.511   0.512   0.518   0.519
  0.523   0.527   0.529   0.535   0.537   0.540   0.545   0.550
  0.556   0.560   0.566   0.567   0.575   0.581   0.585   0.595
  0.601   0.606   0.608   0.616   0.619   0.624   0.628   0.632
  0.639   0.642   0.646   0.648   0.655   0.658   0.667   0.670
  0.671   0.676   0.683   0.691   0.698   0.700   0.708   0.712
  0.713   0.717   0.726   0.732   0.737   0.741   0.742   0.747
  0.752   0.762   0.764   0.767   0.772   0.776   0.784   0.788
  0.791   0.795   0.798   0.804   0.806   0.809   0.819   0.821
  0.828   0.832   0.836   0.840   0.844   0.846   0.848   0.856
  0.861   0.865   0.871   0.872   0.877   0.885   0.893   0.898
  0.906   0.907   0.916   0.917   0.921   0.922   0.930   0.933
  0.937   0.942   0.946   0.951   0.953   0.957   0.962   0.974
  0.976   0.979   0.983   0.988   0.995   0.998   1.008   1.010
  1.019   1.025   1.026   1.031   1.044   1.051   1.054   1.058
  1.060   1.064   1.070   1.081   1.086   1.087   1.090   1.095
  1.101   1.103   1.111   1.115   1.119   1.125   1.132   1.140
  1.143   1.151   1.162   1.170   1.178   1.181   1.191   1.195
  1.199   1.202   1.213   1.215   1.223   1.226   1.235   1.244
  1.246   1.253   1.266   1.270   1.282   1.286   1.292   1.301
  1.310   1.315   1.322   1.326   1.339   1.348   1.351   1.356
  1.360   1.369   1.375   1.376   1.379   1.382   1.386   1.392
  1.399   1.404   1.411   1.418   1.423   1.428   1.429   1.438
  1.442   1.446   1.454   1.459   1.466   1.473   1.480   1.482
  1.484   1.495   1.495   1.507   1.510   1.521   1.522   1.527
  1.534   1.557   1.567   1.575   1.579   1.583   1.586   1.591
  1.601   1.608   1.610   1.621   1.633   1.635   1.641   1.643
  1.649   1.662   1.664   1.666   1.674   1.677   1.686   1.695
  1.703   1.713   1.717   1.726   1.732   1.741   1.744   1.751
  1.757   1.761   1.772   1.773   1.784   1.790   1.794   1.805
  1.815   1.831   1.843   1.857   1.870   1.877   1.881   1.887
  1.892   1.897   1.909   1.917   1.924   1.931   1.937   1.947
  1.949   1.964   1.973   1.980   1.983   1.996   2.003   2.008
  2.016   2.021   2.031   2.039   2.042   2.048   2.058   2.070
  2.074   2.078   2.095   2.100   2.106   2.115   2.120   2.128
  2.139   2.150   2.162   2.174   2.176   2.178   2.188   2.190
  2.197   2.206   2.212   2.218   2.222   2.242   2.251   2.252
  2.259   2.267   2.279   2.287   2.292   2.295   2.296   2.300
  2.314   2.324   2.331   2.340   2.343   2.345   2.355   2.367
  2.372   2.380   2.393   2.396   2.404   2.412   2.419   2.420
  2.434   2.437   2.443   2.452   2.457   2.463   2.469   2.477
  2.478   2.487   2.499   2.511   2.522   2.527   2.531   2.533
  2.537   2.540   2.543   2.550   2.551   2.572   2.580   2.590
  2.598   2.615   2.616   2.622   2.632   2.642   2.647   2.657
  2.660   2.667   2.676   2.681   2.690   2.701   2.703   2.713
  2.726   2.731   2.735   2.751   2.756   2.773   2.776   2.780
  2.782   2.787   2.800   2.805   2.813   2.816   2.821   2.824
  2.829   2.839   2.852   2.856   2.867   2.873   2.877   2.878
  2.887   2.893   2.896   2.903   2.911   2.921   2.924   2.930
  2.936   2.939   2.942   2.951   2.962   2.966   2.968   2.981
  2.991   2.995   2.999   3.004   3.010   3.013   3.020   3.023
  3.028   3.033   3.039   3.042   3.044   3.051   3.061   3.063
  3.064   3.067   3.073   3.075   3.077   3.080   3.083   3.088
  3.095   3.099   3.102   3.109   3.114   3.117   3.123   3.131
  3.138   3.142   3.149   3.157   3.158   3.161   3.163   3.167
  3.173   3.178   3.184   3.192   3.193   3.197   3.205   3.208
  3.212   3.215   3.220   3.225   3.229   3.235   3.238   3.240
  3.245   3.247   3.250   3.258   3.260   3.266   3.271   3.275
  3.279   3.283   3.286   3.287   3.290   3.298   3.301   3.308
  3.311   3.316   3.321   3.324   3.328   3.331   3.341   3.347
  3.353   3.357   3.361   3.370   3.373   3.387   3.391   3.403
  3.405   3.410   3.411   3.414   3.418   3.426   3.428   3.434
  3.437   3.442   3.450   3.455   3.460   3.465   3.471   3.475
  3.479   3.489   3.490   3.493   3.501   3.508   3.513   3.517
  3.526   3.532   3.543   3.549   3.558   3.567   3.571   3.582
  3.584   3.600   3.609   3.613   3.618   3.625   3.629   3.641
  3.652   3.661   3.668   3.685   3.689   3.697   3.704   3.714
  3.715   3.719   3.726   3.738   3.742   3.746   3.748   3.761
  3.770   3.777   3.784   3.787   3.796   3.800   3.807   3.810
  3.816   3.819   3.826   3.846   3.848   3.863   3.869   3.878
  3.893   3.897   3.901   3.904   3.915   3.919   3.926   3.929
  3.933   3.934   3.941   3.950   3.952   3.961   3.969   3.973
  3.976   3.982   3.992   4.002   4.007   4.013   4.026   4.028
  4.040   4.048   4.052   4.062   4.075   4.081   4.091   4.099
  4.112   4.117   4.125   4.132   4.141   4.146   4.162   4.169
  4.177   4.185   4.195   4.200   4.206   4.210   4.215   4.225
  4.234   4.236   4.243   4.252   4.258   4.262   4.273   4.283
  4.293   4.297   4.303   4.314   4.315   4.324   4.328   4.339
  4.348   4.350   4.355   4.361   4.367   4.374   4.385   4.392
  4.402   4.410   4.426   4.427   4.437   4.443   4.454   4.459
  4.466   4.477   4.492   4.496   4.514   4.520   4.529   4.539
  4.543   4.556   4.558   4.561   4.587   4.590   4.605   4.610
  4.625   4.639   4.644   4.652   4.661   4.674   4.682   4.704
  4.708   4.713   4.730   4.739   4.756   4.769   4.771   4.778
  4.796   4.804   4.810   4.816   4.830   4.840   4.842   4.854
  4.862   4.870   4.883   4.891   4.904   4.910   4.919   4.925
  4.934   4.948   4.954   4.963   4.971   4.982   4.985   4.993
  4.995   5.004   5.010   5.011   5.018   5.032   5.039   5.041
  5.054   5.059   5.068   5.079   5.091   5.098   5.113   5.125
  5.129   5.138   5.144   5.153   5.163   5.169   5.183   5.187
  5.209   5.213   5.228   5.249   5.279   5.293   5.305   5.316
  5.326   5.335   5.348   5.363   5.372   5.383   5.398   5.427
  5.434   5.463   5.466   5.485   5.493   5.500   5.518   5.539
  5.558   5.573   5.578   5.584   5.595   5.603   5.630   5.653
  5.664   5.684   5.709   5.719   5.733   5.742   5.759   5.775
  5.802   5.831   5.835   5.856   5.867   5.876   5.894   5.914
  5.951   5.957   5.979   6.045   6.083   6.100   6.150   6.168
  6.200   6.225   6.241   6.270   6.295   6.312   6.376   6.431
  6.444   6.486   6.630   6.841   6.978   7.068   7.899   8.763
  9.782  10.085  10.631  11.054  11.233  11.694  11.974  12.000
 12.318  12.628  12.743  12.767  12.838  12.862  13.042  13.272
 13.409  13.509  13.574  13.758  14.290  14.698  15.032  15.070
 --------------------------------------------------------------
 
          Ground-State Mulliken Net Atomic Charges

     Atom                 Charge (a.u.)
  ----------------------------------------
      1 C                    -0.090033
      2 C                    -0.128347
      3 C                    -0.079682
      4 C                    -0.117780
      5 N                    -0.142239
      6 C                     0.080301
      7 C                     0.113895
      8 N                    -0.176348
      9 C                    -0.017213
     10 C                    -0.058435
     11 N                    -0.222370
     12 C                     0.067793
     13 C                     0.012337
     14 S                     0.410176
     15 N                    -0.272995
     16 C                    -0.105900
     17 S                     0.185462
     18 C                     0.062849
     19 C                    -0.058189
     20 N                    -0.147703
     21 C                     0.044955
     22 C                    -0.011220
     23 C                    -0.054231
     24 N                    -0.162543
     25 C                    -0.143391
     26 S                     0.099570
     27 C                    -0.049394
     28 C                    -0.156082
     29 C                    -0.183289
     30 H                     0.133394
     31 H                     0.120282
     32 H                     0.120092
     33 H                     0.136403
     34 H                     0.125851
     35 H                     0.133053
     36 H                     0.136635
     37 H                     0.128284
     38 H                     0.130110
     39 H                     0.135944
  ----------------------------------------
  Sum of atomic charges =     0.000000

 -----------------------------------------------------------------
                    Cartesian Multipole Moments
 -----------------------------------------------------------------
    Charge (ESU x 10^10)
                 0.0000
    Dipole Moment (Debye)
         X      -0.2687      Y      -0.0174      Z      -1.1978
       Tot       1.2277
    Quadrupole Moments (Debye-Ang)
        XX    -152.3701     XY       5.4703     YY    -171.2100
        XZ       4.4843     YZ       1.3713     ZZ    -179.3610
    Octopole Moments (Debye-Ang^2)
       XXX    -111.7225    XXY     -50.2975    XYY      61.9082
       YYY      52.6267    XXZ     -71.2964    XYZ     -18.6489
       YYZ      13.0363    XZZ     -44.6587    YZZ      -5.7132
       ZZZ      24.9616
    Hexadecapole Moments (Debye-Ang^3)
      XXXX  -15922.8924   XXXY    -114.3043   XXYY   -3428.5438
      XYYY     122.4293   YYYY   -2133.0770   XXXZ     248.7905
      XXYZ      70.6499   XYYZ       2.9817   YYYZ      -2.5855
      XXZZ   -3445.4031   XYZZ      82.0716   YYZZ    -735.4231
      XZZZ      -0.1759   YZZZ      -2.5286   ZZZZ   -1710.0771
 -----------------------------------------------------------------
 Calculating analytic gradient of the SCF energy
 K construction time:  CPU 2798.89 s  wall 177.41 s
 Gradient of SCF Energy
            1           2           3           4           5           6
    1  -0.0000071  -0.0000230  -0.0000125   0.0000594   0.0001005   0.0000623
    2   0.0000534  -0.0001217  -0.0000201   0.0008235  -0.0002121  -0.0013128
    3   0.0000882  -0.0000784  -0.0000201  -0.0003797  -0.0000634   0.0003778
            7           8           9          10          11          12
    1  -0.0000479   0.0011638  -0.0000273  -0.0007974   0.0009557   0.0001447
    2   0.0012868  -0.0003254  -0.0001059  -0.0006001   0.0002503  -0.0003879
    3   0.0005578  -0.0006240  -0.0012580   0.0007942   0.0000990  -0.0017007
           13          14          15          16          17          18
    1  -0.0010421   0.0000839  -0.0008956   0.0008162   0.0001179   0.0000237
    2   0.0010549  -0.0002990   0.0001154   0.0005321   0.0005917  -0.0002814
    3  -0.0004045   0.0022657   0.0003017   0.0010578  -0.0002041  -0.0004714
           19          20          21          22          23          24
    1  -0.0005629  -0.0005438   0.0003028   0.0002222   0.0006489  -0.0001465
    2  -0.0008970  -0.0011688   0.0008141   0.0002935   0.0003521  -0.0011940
    3  -0.0000869  -0.0001200   0.0001686   0.0002225   0.0000562  -0.0000535
           25          26          27          28          29          30
    1  -0.0000366   0.0000640  -0.0006719   0.0000073  -0.0002404   0.0000181
    2  -0.0003195  -0.0000749   0.0007839   0.0000248   0.0000450  -0.0000764
    3  -0.0003618   0.0000973   0.0000010   0.0001420  -0.0000293   0.0000233
           31          32          33          34          35          36
    1   0.0000078  -0.0000541  -0.0000525   0.0004292  -0.0000769   0.0000212
    2   0.0001260   0.0000319  -0.0000268   0.0002165  -0.0000484   0.0001630
    3   0.0000433  -0.0000115   0.0000240  -0.0004190   0.0000239  -0.0000073
           37          38          39
    1   0.0000114  -0.0000214  -0.0000009
    2  -0.0001038   0.0000071   0.0000100
    3   0.0000033  -0.0000530  -0.0000012
 Max gradient component =       2.266E-03
 RMS gradient           =       5.296E-04
 Gradient time:  CPU 3252.48 s  wall 208.39 s
 Geometry Optimization Parameters
   NAtoms,    NIC,     NZ,  NCons,   NDum,   NFix, NCnnct, MaxDiis
       39     293       0       3       0       0       0       0

 Cartesian Hessian Update
 Hessian Updated using BFGS Update


** CONSTRAINED OPTIMIZATION IN DELOCALIZED INTERNAL COORDINATES **
   Searching for a Minimum

   Optimization Cycle:   3

                       Coordinates (Angstroms)
     ATOM                X               Y               Z
      1  C        -7.5612477136   -0.4221525151   -1.0428783832
      2  C        -6.7345824451   -0.7287207726   -2.1111078828
      3  C        -6.9753704978   -0.0279022363    0.1492786153
      4  C        -5.3668854431   -0.6312530184   -1.9446095798
      5  N        -5.6639225593    0.0614641199    0.3257732841
      6  C        -4.8743814401   -0.2399343182   -0.7016875873
      7  C        -3.4064386626   -0.1185038309   -0.5018357903
      8  N        -2.6727247738    0.0453582313   -1.5685626000
      9  C        -2.7783085763   -0.2006198451    0.7862490788
     10  C        -1.3240415387    0.1721713628   -1.4803091690
     11  N        -3.3411234937   -0.4302464768    1.9759653747
     12  C        -1.3575358407   -0.0600788479    0.8628481932
     13  C        -0.6051484771    0.1454522603   -0.3234287998
     14  S        -2.1492085142   -0.4386077651    3.0494766121
     15  N        -0.8747207148   -0.1666370709    2.1018070117
     16  C         0.8538671900    0.3024819938   -0.2963224819
     17  S         1.9158238392   -1.0272936484   -0.4094123146
     18  C         1.5815727804    1.4642806819   -0.1800210786
     19  C         3.3423014706   -0.0910755666   -0.2904160428
     20  N         1.0421000157    2.7133856466   -0.0706486061
     21  C         2.9978513366    1.2486544392   -0.1765192132
     22  C         4.6617112956   -0.6861688027   -0.3296994039
[...]
   Point Group: c1    Number of degrees of freedom:   111


   Energy is  -2291.144906349

              Constraints and their Current Values
                                        Value     Constraint
   Dihedral:        4   6   7   8       21.822       21.822
   Dihedral:       10  13  16  17      -90.000      -90.000
   Dihedral:       17  19  22  25      156.395      156.395
 Hessian Updated using BFGS Update

106 Hessian modes will be used to form the next step
  Hessian Eigenvalues:
     0.006907    0.015562    0.041862    0.045000    0.045000    0.045000
     0.045000    0.045000    0.045000    0.045000    0.045000    0.045001
     0.045001    0.045001    0.045001    0.045001    0.045001    0.045002
     0.045002    0.045002    0.045003    0.045003    0.045005    0.045006
     0.045013    0.045023    0.045027    0.045088    0.045169    0.045207
     0.045807    0.155891    0.159884    0.159975    0.159995    0.160000
     0.160000    0.160015    0.160109    0.160178    0.160834    0.217368
     0.220406    0.221880    0.224159    0.224476    0.235872    0.239460
     0.242488    0.244248    0.244545    0.249378    0.249778    0.249952
     0.249986    0.249990    0.250495    0.250741    0.254315    0.270835
     0.290786    0.309852    0.316307    0.334594    0.335020    0.340979
     0.347037    0.354141    0.354480    0.355763    0.357046    0.359041
     0.360700    0.361038    0.363213    0.364004    0.364222    0.365791
     0.377547    0.391547    0.395698    0.404603    0.407690    0.420398
     0.432590    0.440692    0.456840    0.460543    0.465743    0.472376
     0.474023    0.483534    0.485227    0.486439    0.487650    0.507574
     0.519324    0.521300    0.527684    0.559293    0.572473    0.589793
     0.639116    0.655558    0.665353    0.684949

 Minimum Search - Taking Simple RFO Step
 Searching for Lamda that Minimizes Along All modes
 Value Taken    Lamda =   0.00000000
 Step Taken.  Stepsize is  0.005116

                             Maximum     Tolerance    Cnvgd?
         Gradient           0.000072      0.000300     YES
         Displacement       0.001794      0.001200      NO
         Energy change     -0.000001      0.000001     YES

 Final energy is   -2291.14490634905     


 ******************************
 **  OPTIMIZATION CONVERGED  **
 ******************************

                       Coordinates (Angstroms)
     ATOM                X               Y               Z
      1  C        -7.5700895793   -0.3643858065   -1.0226516468
      2  C        -6.7577687413   -0.7242317352   -2.0852192927
      3  C        -6.9672875159    0.0547702331    0.1525878740
      4  C        -5.3871622807   -0.6528322087   -1.9299573107
      5  N        -5.6530038752    0.1202432069    0.3182455045
      6  C        -4.8775518730   -0.2328712361   -0.7036248652
      7  C        -3.4058609735   -0.1353336575   -0.5184626489
      8  N        -2.6776403943   -0.0201712399   -1.5943195214
      9  C        -2.7690568266   -0.1913360524    0.7671120805
     10  C        -1.3255970292    0.0919166126   -1.5195656655
     11  N        -3.3285290039   -0.3826333232    1.9644248704
     12  C        -1.3449294098   -0.0741222794    0.8300848550
     13  C        -0.5973627369    0.0841810687   -0.3677969091
     14  S        -2.1273387691   -0.3853530139    3.0272925729
     15  N        -0.8535375844   -0.1601503291    2.0662447055
     16  C         0.8599298880    0.2558037946   -0.3498133393
     17  S         1.9415655177   -1.0594092657   -0.4549505392
     18  C         1.5708741168    1.4253794295   -0.1970576836
     19  C         3.3541778403   -0.1054425316   -0.2984217560
     20  N         1.0152108527    2.6668495196   -0.0728389468
     21  C         2.9895009268    1.2273553310   -0.1723680643
     22  C         4.6823484288   -0.6812777476   -0.3311652476
     23  C         1.8646121523    3.6338647329    0.0666577147
     24  N         3.8483687186    2.2771062936   -0.0264646622
     25  C         5.8572545034   -0.0626988874   -0.6580971365
     26  S         4.9610899429   -2.3446888789    0.0644619010
     27  C         3.2867585466    3.4389179319    0.0900978372
     28  C         6.9742257801   -0.9304479274   -0.5983467105
     29  C         6.6415915621   -2.1953182486   -0.2298590123
     30  H        -8.6474013943   -0.4043652364   -1.0996902963
     31  H        -7.1855820422   -1.0585721520   -3.0205078372
     32  H        -7.5693685517    0.3539385270    1.0027233141
     33  H        -4.7066051324   -0.9094730240   -2.7268528176
     34  H        -0.8193746227    0.1982593154   -2.4707300487
     35  H         1.4681483678    4.6384876772    0.1687052028
     36  H         5.9049680397    0.9810245357   -0.9231255152
     37  H         3.9351622800    4.2996394582    0.2124648935
     38  H         7.9846932900   -0.6260520364   -0.8244577159
     39  H         7.2893110073   -3.0462813973   -0.1071665974

Z-matrix Print:
$molecule
0 1
S 
C  1 1.706099
C  2 1.377201 1 109.525669
N  3 1.365811 2 124.889535 1 179.568525 0
C  4 1.294627 3 114.949486 2 -179.727266 0
H  5 1.084834 4 117.521095 3 -179.985465 0
C  3 1.432594 2 113.310512 1 -0.171645 0
N  7 1.364155 3 121.260665 2 179.924528 0
C  8 1.295685 7 115.260906 3 -0.244511 0
H  9 1.084547 8 117.557287 7 -179.739966 0
C  7 1.387526 3 113.046165 2 0.420336 0
C  11 1.447997 7 128.691098 3 -179.217116 0
C  12 1.367453 11 127.850673 7 22.217468 0
H  13 1.077903 12 122.332405 11 -1.044425 0
C  13 1.415692 12 112.987698 11 179.409638 0
H  15 1.079272 13 123.846971 12 -179.823893 0
C  15 1.358796 13 112.884857 12 -0.063741 0
H  17 1.076444 15 128.279250 13 -179.990631 0
C  2 1.467474 1 122.593254 3 177.588544 0
C  19 1.362702 2 122.710261 1 90.000006 0
H  20 1.082720 19 119.551833 2 -1.903328 0
N  20 1.358740 19 125.296216 2 177.831860 0
C  22 1.304238 20 121.164631 19 -0.694344 0
C  19 1.420858 2 121.680742 1 -91.336662 0
N  24 1.333026 19 126.516015 2 3.836057 0
C  24 1.430330 19 119.727050 2 -177.810728 0
N  26 1.335351 24 112.918256 19 -177.724031 0
C  23 1.486497 22 117.118421 20 -179.165035 0
N  28 1.330502 23 117.641567 22 156.677576 0
C  29 1.326300 28 117.938008 23 -179.000327 0
H  30 1.083851 29 116.032059 28 179.713906 0
C  30 1.385731 29 123.499321 28 -0.210729 0
H  32 1.080803 30 120.347446 29 -179.588361 0
C  32 1.385065 30 118.300141 29 0.534545 0
H  34 1.081468 32 120.782470 30 -179.912931 0
C  34 1.381219 32 118.836600 30 -0.096799 0
H  36 1.078918 34 122.046557 32 179.270407 0
S  27 1.603918 26 106.298406 24 -0.678658 0
S  17 1.712607 15 111.592696 13 0.527604 0
$end

 
 --------------------------------------------------------------
 
                    Orbital Energies (a.u.)
 --------------------------------------------------------------
 
 Alpha MOs
 -- Occupied --
-89.145 -89.100 -89.079 -14.482 -14.477 -14.460 -14.458 -14.449
-14.436 -10.359 -10.353 -10.351 -10.343 -10.342 -10.341 -10.339
-10.337 -10.336 -10.336 -10.335 -10.334 -10.328 -10.326 -10.318
-10.312 -10.303 -10.301 -10.294 -10.292  -8.155  -8.115  -8.094
 -6.105  -6.100  -6.099  -6.064  -6.060  -6.059  -6.043  -6.039
 -6.037  -1.142  -1.097  -1.072  -1.052  -1.026  -1.012  -1.003
 -0.986  -0.926  -0.914  -0.898  -0.878  -0.867  -0.854  -0.837
 -0.812  -0.777  -0.769  -0.748  -0.739  -0.728  -0.723  -0.709
 -0.671  -0.654  -0.646  -0.630  -0.629  -0.622  -0.604  -0.602
 -0.591  -0.578  -0.570  -0.562  -0.559  -0.544  -0.542  -0.526
 -0.513  -0.505  -0.502  -0.501  -0.495  -0.491  -0.486  -0.480
 -0.472  -0.468  -0.461  -0.455  -0.449  -0.436  -0.428  -0.424
 -0.422  -0.410  -0.397  -0.376  -0.368  -0.365  -0.358  -0.350
 -0.342  -0.339  -0.336  -0.333  -0.316  -0.276
 -- Virtual --
 -0.042  -0.033   0.026   0.032   0.040   0.056   0.067   0.072
  0.087   0.087   0.094   0.122   0.124   0.129   0.132   0.138
  0.143   0.146   0.154   0.156   0.165   0.175   0.176   0.189
  0.195   0.196   0.212   0.214   0.221   0.225   0.237   0.240
  0.254   0.261   0.266   0.274   0.280   0.284   0.290   0.293
  0.299   0.301   0.308   0.310   0.317   0.321   0.323   0.329
  0.332   0.333   0.336   0.342   0.345   0.348   0.354   0.359
  0.360   0.365   0.374   0.376   0.379   0.380   0.381   0.387
  0.388   0.392   0.395   0.400   0.403   0.407   0.409   0.414
  0.416   0.418   0.423   0.425   0.430   0.434   0.434   0.439
  0.440   0.445   0.450   0.457   0.458   0.460   0.462   0.463
  0.466   0.474   0.477   0.480   0.480   0.484   0.487   0.488
  0.493   0.498   0.503   0.504   0.511   0.513   0.518   0.519
  0.522   0.527   0.529   0.535   0.537   0.541   0.544   0.549
  0.556   0.560   0.566   0.568   0.575   0.580   0.584   0.595
  0.601   0.606   0.607   0.616   0.618   0.624   0.628   0.632
  0.640   0.643   0.646   0.648   0.656   0.660   0.667   0.670
  0.671   0.677   0.683   0.690   0.697   0.699   0.709   0.712
  0.714   0.717   0.726   0.733   0.737   0.740   0.742   0.748
  0.751   0.762   0.764   0.767   0.772   0.776   0.783   0.787
  0.791   0.795   0.797   0.804   0.806   0.811   0.819   0.821
  0.829   0.830   0.836   0.840   0.845   0.847   0.849   0.856
  0.860   0.866   0.870   0.872   0.878   0.886   0.892   0.897
  0.905   0.907   0.915   0.917   0.921   0.922   0.930   0.933
  0.936   0.942   0.946   0.950   0.954   0.956   0.962   0.973
  0.976   0.979   0.984   0.988   0.993   0.997   1.008   1.009
  1.019   1.023   1.026   1.032   1.044   1.051   1.053   1.057
  1.060   1.063   1.072   1.081   1.086   1.087   1.091   1.095
  1.100   1.102   1.109   1.116   1.120   1.125   1.132   1.140
  1.144   1.152   1.162   1.171   1.177   1.182   1.190   1.194
  1.200   1.205   1.215   1.216   1.224   1.225   1.236   1.244
  1.246   1.253   1.266   1.270   1.281   1.287   1.292   1.301
  1.309   1.315   1.323   1.326   1.339   1.348   1.350   1.357
  1.360   1.367   1.373   1.376   1.379   1.382   1.386   1.392
  1.399   1.404   1.411   1.418   1.424   1.429   1.431   1.439
  1.441   1.447   1.455   1.459   1.466   1.473   1.479   1.482
  1.484   1.495   1.495   1.507   1.511   1.519   1.523   1.527
  1.534   1.555   1.567   1.575   1.579   1.583   1.585   1.591
  1.599   1.606   1.610   1.620   1.632   1.636   1.640   1.643
  1.649   1.662   1.664   1.666   1.674   1.678   1.687   1.695
  1.704   1.711   1.717   1.726   1.732   1.740   1.744   1.750
  1.756   1.761   1.770   1.778   1.785   1.791   1.794   1.805
  1.816   1.829   1.842   1.857   1.871   1.875   1.881   1.887
  1.892   1.897   1.908   1.916   1.924   1.931   1.937   1.947
  1.949   1.964   1.974   1.980   1.983   1.996   2.002   2.008
  2.016   2.022   2.031   2.039   2.041   2.048   2.058   2.071
  2.074   2.078   2.095   2.100   2.106   2.115   2.119   2.128
  2.138   2.151   2.161   2.174   2.177   2.179   2.187   2.189
  2.196   2.205   2.213   2.218   2.222   2.243   2.251   2.253
  2.258   2.265   2.279   2.288   2.292   2.295   2.295   2.300
  2.315   2.323   2.332   2.340   2.344   2.344   2.355   2.370
  2.372   2.380   2.393   2.395   2.404   2.412   2.419   2.422
  2.434   2.437   2.445   2.451   2.457   2.464   2.469   2.477
  2.478   2.486   2.497   2.512   2.522   2.527   2.531   2.533
  2.536   2.540   2.542   2.550   2.551   2.572   2.578   2.592
  2.599   2.616   2.617   2.622   2.632   2.642   2.646   2.656
  2.659   2.666   2.677   2.679   2.689   2.702   2.703   2.713
  2.725   2.731   2.735   2.751   2.758   2.774   2.776   2.780
  2.783   2.787   2.798   2.806   2.814   2.816   2.822   2.824
  2.829   2.838   2.853   2.856   2.866   2.873   2.876   2.878
  2.889   2.893   2.898   2.903   2.911   2.920   2.924   2.929
  2.936   2.939   2.943   2.951   2.963   2.967   2.969   2.978
  2.991   2.994   3.000   3.004   3.009   3.013   3.019   3.022
  3.028   3.033   3.039   3.039   3.044   3.051   3.060   3.062
  3.064   3.068   3.073   3.075   3.078   3.080   3.083   3.087
  3.096   3.100   3.103   3.108   3.114   3.118   3.123   3.129
  3.136   3.143   3.148   3.156   3.157   3.162   3.163   3.167
  3.171   3.175   3.186   3.191   3.194   3.197   3.205   3.208
  3.212   3.215   3.221   3.226   3.229   3.235   3.239   3.241
  3.245   3.247   3.250   3.259   3.259   3.266   3.271   3.275
  3.279   3.282   3.287   3.287   3.291   3.298   3.301   3.309
  3.311   3.316   3.321   3.324   3.328   3.331   3.340   3.348
  3.352   3.357   3.360   3.371   3.372   3.387   3.391   3.402
  3.402   3.409   3.411   3.415   3.420   3.429   3.430   3.433
  3.436   3.442   3.450   3.454   3.459   3.465   3.470   3.476
  3.480   3.488   3.490   3.491   3.502   3.509   3.512   3.517
  3.525   3.532   3.541   3.548   3.560   3.566   3.571   3.579
  3.585   3.602   3.609   3.613   3.618   3.624   3.628   3.641
  3.651   3.661   3.669   3.685   3.689   3.696   3.704   3.713
  3.715   3.719   3.726   3.738   3.742   3.746   3.748   3.762
  3.770   3.777   3.783   3.787   3.796   3.799   3.806   3.810
  3.817   3.818   3.826   3.846   3.848   3.863   3.867   3.876
  3.893   3.899   3.900   3.904   3.915   3.917   3.924   3.929
  3.932   3.933   3.939   3.950   3.952   3.960   3.969   3.973
  3.977   3.984   3.992   4.004   4.006   4.013   4.026   4.027
  4.040   4.047   4.052   4.062   4.075   4.081   4.090   4.100
  4.112   4.117   4.124   4.132   4.140   4.146   4.163   4.170
  4.178   4.186   4.194   4.200   4.206   4.210   4.216   4.225
  4.234   4.236   4.242   4.251   4.259   4.262   4.273   4.281
  4.292   4.297   4.302   4.314   4.315   4.324   4.327   4.339
  4.348   4.350   4.355   4.361   4.366   4.374   4.386   4.393
  4.402   4.411   4.425   4.428   4.437   4.443   4.453   4.457
  4.467   4.475   4.493   4.494   4.515   4.518   4.528   4.535
  4.543   4.556   4.558   4.563   4.587   4.589   4.605   4.611
  4.625   4.640   4.644   4.653   4.661   4.674   4.682   4.702
  4.708   4.712   4.729   4.740   4.755   4.769   4.771   4.777
  4.796   4.804   4.810   4.815   4.830   4.840   4.841   4.855
  4.861   4.869   4.883   4.893   4.904   4.910   4.917   4.926
  4.934   4.947   4.954   4.961   4.972   4.982   4.985   4.993
  4.995   5.004   5.010   5.011   5.019   5.033   5.039   5.041
  5.055   5.060   5.068   5.078   5.090   5.098   5.113   5.125
  5.129   5.138   5.144   5.153   5.162   5.168   5.182   5.187
  5.209   5.213   5.227   5.249   5.279   5.294   5.305   5.315
  5.327   5.334   5.348   5.362   5.372   5.383   5.397   5.426
  5.438   5.463   5.466   5.484   5.493   5.499   5.517   5.537
  5.557   5.573   5.580   5.585   5.596   5.603   5.629   5.652
  5.664   5.686   5.709   5.718   5.734   5.742   5.759   5.774
  5.801   5.830   5.836   5.857   5.867   5.876   5.891   5.912
  5.951   5.956   5.978   6.044   6.082   6.100   6.151   6.168
  6.200   6.223   6.241   6.270   6.295   6.309   6.375   6.431
  6.443   6.485   6.627   6.840   6.977   7.067   7.892   8.753
  9.779  10.083  10.627  11.062  11.232  11.692  11.977  12.006
 12.314  12.626  12.738  12.767  12.836  12.867  13.032  13.268
 13.407  13.509  13.564  13.747  14.293  14.687  15.031  15.069
 --------------------------------------------------------------
 
          Ground-State Mulliken Net Atomic Charges

     Atom                 Charge (a.u.)
  ----------------------------------------
      1 C                    -0.090155
      2 C                    -0.127965
      3 C                    -0.079801
      4 C                    -0.117894
      5 N                    -0.142760
      6 C                     0.080401
      7 C                     0.114897
      8 N                    -0.176893
      9 C                    -0.017476
     10 C                    -0.059576
     11 N                    -0.222002
     12 C                     0.071807
     13 C                     0.008965
     14 S                     0.408947
     15 N                    -0.272384
     16 C                    -0.106427
     17 S                     0.185427
     18 C                     0.063528
     19 C                    -0.059453
     20 N                    -0.148310
     21 C                     0.046002
     22 C                    -0.009880
     23 C                    -0.054054
     24 N                    -0.162739
     25 C                    -0.142764
     26 S                     0.099232
     27 C                    -0.049344
     28 C                    -0.156465
     29 C                    -0.183041
     30 H                     0.133428
     31 H                     0.119945
     32 H                     0.120295
     33 H                     0.136592
     34 H                     0.125950
     35 H                     0.132920
     36 H                     0.136748
     37 H                     0.128084
     38 H                     0.130220
     39 H                     0.135991
  ----------------------------------------
  Sum of atomic charges =     0.000000

 -----------------------------------------------------------------
                    Cartesian Multipole Moments
 -----------------------------------------------------------------
    Charge (ESU x 10^10)
                 0.0000
    Dipole Moment (Debye)
         X      -0.2820      Y       0.0267      Z      -1.1359
       Tot       1.1707
    Quadrupole Moments (Debye-Ang)
        XX    -152.0806     XY       5.2995     YY    -171.1821
        XZ       4.5333     YZ       1.7833     ZZ    -179.6079
    Octopole Moments (Debye-Ang^2)
       XXX    -114.5863    XXY     -47.9976    XYY      59.1323
       YYY      53.1428    XXZ     -68.2824    XYZ     -18.2556
       YYZ      15.2431    XZZ     -44.9589    YZZ      -5.0555
       ZZZ      30.4766
    Hexadecapole Moments (Debye-Ang^3)
      XXXX  -15939.7556   XXXY    -100.0866   XXYY   -3435.7802
      XYYY     154.1297   YYYY   -2100.7936   XXXZ     249.5047
      XXYZ      67.4338   XYYZ       3.1867   YYYZ     -20.2114
      XXZZ   -3464.5774   XYZZ      93.3703   YYZZ    -725.2920
      XZZZ      -5.6942   YZZZ     -23.6404   ZZZZ   -1699.2979
 -----------------------------------------------------------------
Archival summary:
1\1\mn251\OPT\ProcedureUnspecified\BasisUnspecified\362010\afmv_a\FriJun1622:07:242017FriJun1622:07:242017\0\\#,OPT,ProcedureUnspecified,BasisUnspecified,\\0,1\S\C,1,1.7061\C,2,1.3772,1,109.526\N,3,1.36581,2,124.89,1,179.569,0\C,4,1.29463,3,114.949,2,-179.727,0\H,5,1.08483,4,117.521,3,-179.985,0\C,3,1.43259,2,113.311,1,-0.171645,0\N,7,1.36415,3,121.261,2,179.925,0\C,8,1.29568,7,115.261,3,-0.244511,0\H,9,1.08455,8,117.557,7,-179.74,0\C,7,1.38753,3,113.046,2,0.420336,0\C,11,1.448,7,128.691,3,-179.217,0\C,12,1.36745,11,127.851,7,22.2175,0\H,13,1.0779,12,122.332,11,-1.04443,0\C,13,1.41569,12,112.988,11,179.41,0\H,15,1.07927,13,123.847,12,-179.824,0\C,15,1.3588,13,112.885,12,-0.0637407,0\H,17,1.07644,15,128.279,13,-179.991,0\C,2,1.46747,1,122.593,3,177.589,0\C,19,1.3627,2,122.71,1,90,0\H,20,1.08272,19,119.552,2,-1.90333,0\N,20,1.35874,19,125.296,2,177.832,0\C,22,1.30424,20,121.165,19,-0.694344,0\C,19,1.42086,2,121.681,1,-91.3367,0\N,24,1.33303,19,126.516,2,3.83606,0\C,24,1.43033,19,119.727,2,-177.811,0\N,26,1.33535,24,112.918,19,-177.724,0\C,23,1.4865,22,117.118,20,-179.165,0\N,28,1.3305,23,117.642,22,156.678,0\C,29,1.3263,28,117.938,23,-179,0\H,30,1.08385,29,116.032,28,179.714,0\C,30,1.38573,29,123.499,28,-0.210729,0\H,32,1.0808,30,120.347,29,-179.588,0\C,32,1.38506,30,118.3,29,0.534545,0\H,34,1.08147,32,120.782,30,-179.913,0\C,34,1.38122,32,118.837,30,-0.0967988,0\H,36,1.07892,34,122.047,32,179.27,0\S,27,1.60392,26,106.298,24,-0.678658,0\S,17,1.71261,15,111.593,13,0.527604,0\\\@

 Total job time:  8217.92s(wall), 122482.50s(cpu) 
 Fri Jun 16 22:07:24 2017

        *************************************************************
        *                                                           *
        *  Thank you very much for using Q-Chem.  Have a nice day.  *
        *                                                           *
        *************************************************************


