
Running Job 1 of 1 C169_2/C169_150.qcin
qchem C169_2/C169_150.qcin_60370.0 /tmpu/cab_g/afmv_a/scratch_qchem/qchem60370/ 1
/tmpu/appuserlic/qchem4.4/serial-multicore/exe/qcprog.exe_s C169_2/C169_150.qcin_60370.0 /tmpu/cab_g/afmv_a/scratch_qchem/qchem60370/
Check license passed

                  Welcome to Q-Chem
     A Quantum Leap Into The Future Of Chemistry


 Q-Chem 4.4, Q-Chem, Inc., Pleasanton, CA (2016)

 Y. Shao,  Z. Gan,  E. Epifanovsky,  A. T. B. Gilbert,  M. Wormit,  
 J. Kussmann,  A. W. Lange,  A. Behn,  J. Deng,  X. Feng,  D. Ghosh,  
 M. Goldey,  P. R. Horn,  L. D. Jacobson,  I. Kaliman,  F. Rob,  
 R. Z. Khaliullin,  T. Kus,  A. Landau,  J. Liu,  E. I. Proynov,  Y. M. Rhee,  
 R. M. Richard,  M. A. Rohrdanz,  R. P. Steele,  E. J. Sundstrom,  
 H. L. Woodcock III,  P. M. Zimmerman,  D. Zuev,  B. Albrecht,  E. Alguire,  
 B. Austin,  S. A. Baeppler,  G. J. O. Beran,  Y. A. Bernard,  E. Berquist,  
 K. Brandhorst,  K. B. Bravaya,  S. T. Brown,  D. Casanova,  C.-M. Chang,  
 Y. Chen,  S. H. Chien,  K. D. Closser,  M. P. Coons,  D. L. Crittenden,  
 S. Dasgupta,  M. Diedenhofen,  R. A. DiStasio Jr.,  H. Do,  A. D. Dutoi,  
 R. G. Edgar,  P.-T. Fang,  S. Fatehi,  Q. Feng,  L. Fusti-Molnar,  
 A. Ghysels,  A. Golubeva-Zadorozhnaya,  J. Gomes,  A. Gunina,  
 M. W. D. Hanson-Heine,  P. H. P. Harbach,  A. W. Hauser,  J. E. Herr,  
 E. G. Hohenstein,  Z. C. Holden,  K. Hui,  T.-C. Jagau,  H. Ji,  B. Kaduk,  
 K. Khistyaev,  Jaehoon Kim,  Jihan Kim,  R. A. King,  P. Klunzinger,  
 K. Koh,  D. Kosenkov,  T. Kowalczyk,  C. M. Krauter,  A. Kunitsa,  
 K. U. Lao,  A. Laurent,  K. V. Lawler,  J. Lee,  D. Lefrancois,  S. Lehtola,  
 S. V. Levchenko,  C. Y. Lin,  Y.-S. Lin,  F. Liu,  E. Livshits,  
 R. C. Lochan,  A. Luenser,  P. Manohar,  S. F. Manzer,  S.-P. Mao,  Y. Mao,  
 N. Mardirossian,  A. V. Marenich,  L. A. Martinez-Martinez,  S. A. Maurer,  
 N. J. Mayhall,  J.-M. Mewes,  A. F. Morrison,  K. Nanda,  T. S. Nguyen-Beck,  
 C. M. Oana,  R. Olivares-Amaya,  D. P. O'Neill,  J. A. Parkhill,  
 T. M. Perrine,  R. Peverati,  P. A. Pieniazek,  F. Plasser,  A. Prociuk,  
 D. R. Rehn,  E. Rosta,  N. J. Russ,  N. Sergueev,  S. M. Sharada,  
 S. Sharma,  D. W. Small,  A. Sodt,  T. Stauch,  T. Stein,  D. Stuck,  
 Y.-C. Su,  A. J. W. Thom,  T. Tsuchimochi,  L. Vogt,  O. Vydrov,  T. Wang,  
 M. A. Watson,  J. Wenzel,  A. White,  C. F. Williams,  V. Vanovschi,  
 K. Yao,  S. Yeganeh,  S. R. Yost,  Z.-Q. You,  I. Y. Zhang,  X. Zhang,  
 Y. Zhao,  B. R. Brooks,  G. K. L. Chan,  D. M. Chipman,  C. J. Cramer,  
 W. A. Goddard III,  M. S. Gordon,  W. J. Hehre,  A. Klamt,  
 H. F. Schaefer III,  M. W. Schmidt,  C. D. Sherrill,  D. G. Truhlar,  
 A. Warshel,  X. Xu,  A. Aspuru-Guzik,  R. Baer,  A. T. Bell,  N. A. Besley,  
 J.-D. Chai,  A. Dreuw,  B. D. Dunietz,  T. R. Furlani,  S. R. Gwaltney,  
 C.-P. Hsu,  Y. Jung,  J. Kong,  D. S. Lambrecht,  W. Liang,  C. Ochsenfeld,  
 V. A. Rassolov,  L. V. Slipchenko,  J. E. Subotnik,  T. Van Voorhis,  
 J. M. Herbert,  A. I. Krylov,  P. M. W. Gill,  M. Head-Gordon

 Contributors to earlier versions of Q-Chem not listed above: 
 R. D. Adamson,  J. Baker,  E. F. C. Byrd,  A. K. Chakraborty,  C.-L. Cheng,  
 H. Dachsel,  R. J. Doerksen,  G. Hawkins,  A. Heyden,  S. Hirata,  
 G. Kedziora,  F. J. Keil,  C. Kelley,  P. P. Korambath,  W. Kurlancheek,  
 A. M. Lee,  M. S. Lee,  D. Liotard,  I. Lotan,  P. E. Maslen,  N. Nair,  
 D. Neuhauser,  R. Olson,  B. Peters,  J. Ritchie,  N. E. Schultz,  
 N. Shenvi,  A. C. Simmonett,  K. S. Thanthiriwatte,  Q. Wu,  W. Zhang

 Please cite Q-Chem as follows:
 Y. Shao et al., Mol. Phys. 113, 184-215 (2015)
 DOI: 10.1080/00268976.2014.952696

 Q-Chem 4.4.2 for Intel X86 Linux

 Parts of Q-Chem use Armadillo 5.200.1 (Boston Tea Smuggler).
 http://arma.sourceforge.net/

 Q-Chem begins on Sun Jun 18 20:52:48 2017  

Host: 
0

     Scratch files written to /tmpu/cab_g/afmv_a/scratch_qchem/qchem60370//
 Dec716 11556_ 22328  22283 4050   
Processing $rem in /tmpu/appuserlic/qchem4.4/serial-multicore/config/preferences.
 MEM_TOTAL  2000 
FILE_GEOM_ORG=        593

Checking the input file for inconsistencies... 	...done.

--------------------------------------------------------------
User input:
--------------------------------------------------------------
$comment
OPTIMIZATION
$end

$rem
JOBTYPE OPT
EXCHANGE omegaB97X-D
BASIS cc-pVTZ
$end

$molecule
0 1
C          0.00000        0.00000        0.00000
C         -0.65396       -1.22126       -0.00000
C          1.38563        0.00000        0.00000
C          0.09526       -2.37957        0.00866
N          2.11912       -1.10562        0.01199
C          1.48546       -2.27640        0.02149
C          2.30642       -3.51253        0.03449
N          1.74513       -4.60745       -0.39909
C          3.65824       -3.56714        0.50995
C          2.40434       -5.79109       -0.42442
N          4.38617       -2.58332        1.04242
C          4.35289       -4.81920        0.47143
C          3.70163       -5.99343       -0.01477
S          5.80914       -3.21778        1.41887
N          5.59255       -4.74484        0.95148
C          4.33823       -7.30129       -0.04468
S          6.02955       -7.50674       -0.27712
C          3.75569       -8.55932        0.11150
C          5.99517       -9.21043       -0.20650
N          2.43369       -8.80713        0.32890
C          4.69267       -9.63697        0.02369
C          7.18675      -10.01561       -0.35210
C          2.10137      -10.05598        0.43999
N          4.30764      -10.93591        0.14490
C          7.40111      -11.28801        0.10194
S          8.58703       -9.42701       -1.18977
C          3.04035      -11.12849        0.34684
C          8.69082      -11.77890       -0.21262
C          9.44363      -10.88153       -0.90250
H         -0.54853        0.93120        0.00000
H         -1.73532       -1.26909       -0.00410
H          1.93662        0.93286       -0.01167
H         -0.36319       -3.35650        0.00329
H          1.82722       -6.62671       -0.78554
H          1.05276      -10.27753        0.60824
H          6.64574      -11.84139        0.63392
H          2.69940      -12.15307        0.44830
H          9.04025      -12.75992        0.07119
H         10.45136      -11.00003       -1.26222
$end

$opt
CONSTRAINT
tors 4 6 7 8 21.82164
tors 10 13 16 17 150.00000
tors 17 19 22 25 156.39459
ENDCONSTRAINT
$end
--------------------------------------------------------------
 ----------------------------------------------------------------
             Standard Nuclear Orientation (Angstroms)
    I     Atom           X                Y                Z
 ----------------------------------------------------------------
    1      C       7.6646919018     0.3129489332    -0.4746741923
    2      C       6.9790268567     1.5147061055    -0.4055163001
    3      C       6.9291692530    -0.8613058810    -0.4645469299
    4      C       5.6022369865     1.4937324693    -0.3212701134
    5      N       5.6054721093    -0.8969737313    -0.3802818666
    6      C       4.9522457884     0.2605672089    -0.3045494476
    7      C       3.4718030412     0.2199477827    -0.2107356268
    8      N       2.8198648435     1.2874354595    -0.5813223687
    9      C       2.7342813739    -0.9090395137     0.2770258424
   10      C       1.4675574139     1.3570541280    -0.5301272568
   11      N       3.2092647480    -2.0614040229     0.7542626919
   12      C       1.3045720013    -0.8328333499     0.3194568101
   13      C       0.6304168965     0.3543185008    -0.0995079839
   14      S       1.9381410957    -2.9406595574     1.1788237363
   15      N       0.7359085918    -1.9352742712     0.8031718806
   16      C      -0.8151923775     0.5090830040    -0.0455290706
   17      S      -1.8995544034    -0.8092589170    -0.2527366347
   18      C      -1.5612462569     1.6657581589     0.1822662765
   19      C      -3.3181929194     0.1214033135    -0.0793545170
   20      N      -1.0570724752     2.9118448371     0.4046023833
   21      C      -2.9748136712     1.4454019994     0.1667109817
   22      C      -4.6396727317    -0.4576878396    -0.1672273262
   23      C      -1.9306733527     3.8527733534     0.5886646746
   24      N      -3.8622368526     2.4572966135     0.3635217423
   25      C      -5.8044545583     0.0235410996     0.3645680251
   26      S      -4.9314258839    -1.9347128083    -1.0287390251
   27      C      -3.3412502606     3.6281354763     0.5674827497
   28      C      -6.9215570943    -0.8009732254     0.0897391295
   29      C      -6.6003415511    -1.8968558935    -0.6476833952
   30      H       8.7433654892     0.2840448377    -0.5350600005
   31      H       7.5123609881     2.4565743880    -0.4146163654
   32      H       7.4249534898    -1.8225776058    -0.5286453709
   33      H       5.0191208605     2.4003908391    -0.2708355182
   34      H       1.0473067271     2.2985856782    -0.8442030970
   35      H      -1.5521254488     4.8545268619     0.7623505685
   36      H      -5.8421172191     0.9432954106     0.9235398608
   37      H      -4.0211397673     4.4577111582     0.7282921310
   38      H      -7.9210149275    -0.5842916331     0.4349677618
   39      H      -7.2553303152    -2.6786885857    -0.9921944133
 ----------------------------------------------------------------
 Molecular Point Group                 C1    NOp =  1
 Largest Abelian Subgroup              C1    NOp =  1
 Nuclear Repulsion Energy =  2926.4076563524 hartrees
 There are      110 alpha and      110 beta electrons
 Requested basis set is cc-pVTZ
 There are 356 shells and 1022 basis functions

 Total QAlloc Memory Limit   2000 MB
 Mega-Array Size        61 MB
 MEM_STATIC part        62 MB
 A cutoff of  1.0D-11 yielded  30920 shell pairs
 There are    243794 function pairs (    318112 Cartesian)
 
 -------------------------------------------------------
 OpenMP Integral Computing Module                       
 Release: version 1.0, May 2013, Q-Chem Inc. Pittsburgh 
 -------------------------------------------------------
 Integral Job Info:
 Integral job number is                      11
 Integral operator is                         1
 short-range coefficients              22203600
 long-range coefficients              100000000
 Omega coefficients                         200
 if combine SR and LR in K                    1
 Integral screening is                        0
 Integral computing path is                   2
 max size of driver memory is            800000
 size of driver memory is                776718
 size of scratch memory is             26248924
 max col of scratch BK array              10000
 max len of scratch array in speh3          662
 max len of scratch index in speh4           32
 max int batch size is                      520
 min int batch size is                       52
 fixed nKL is                                52
 max L of basis functions is                  3
 order of int derivative is                   0
 number of shells is                        356
 number of basis is                        1177
 number of cartesian basis is              1177
 number of contracted shell pairs         30920
 number of primitive shell pairs          93580
 maxK2 (contraction) of shell pair          121
 max number of K2 of shell pair               1
 max number of CS2 of shell pair           4274
 max number of PS2 of shell pair          13041
 mem total for path MDJ                  833952
 -------------------------------------------------------
 Smallest overlap matrix eigenvalue = 2.88E-05

 Scale SEOQF with 1.000000e-02/1.000000e-01/1.000000e-01

 Standard Electronic Orientation quadrupole field applied
 Nucleus-field energy     =     0.0000000583 hartrees
 Guess from superposition of atomic densities
 Warning:  Energy on first SCF cycle will be non-variational
 Long-range K will be added via erf
 Coulomb attenuation parameter = 0.2 bohr**(-1)
 A restricted hybrid HF-DFT SCF calculation will be
 performed using Pulay DIIS extrapolation
 Exchange:     0.2220 Hartree-Fock + 1.0000 wB97X-D + LR-HF
 Correlation:  1.0000 wB97X-D
 Using SG-2 standard quadrature grid
 Dispersion:   Grimme D
 SCF converges when DIIS error is below 1.0E-08
 using 16 threads for integral computing 
 using 16 threads for integral computing 
 K construction time:  CPU 70.72 s  wall 4.68 s
 -------------------------------------------------------
 OpenMP BLAS3 based DFT computing Module                
 Release: version 1.0, May 2013, Q-Chem Inc. Pittsburgh 
 -------------------------------------------------------
 ---------------------------------------
  Cycle       Energy         DIIS Error
 ---------------------------------------
    1   -2301.4658612917      1.84E-02
 K construction time:  CPU 1116.22 s  wall 73.78 s
    2   -2290.9015453761      1.33E-03
 K construction time:  CPU 1063.31 s  wall 70.33 s
    3   -2290.9362320261      1.33E-03
 K construction time:  CPU 1015.23 s  wall 67.16 s
    4   -2291.1432389585      2.06E-04
 K construction time:  CPU 943.49 s  wall 62.48 s
    5   -2291.1475626538      1.28E-04
 K construction time:  CPU 891.07 s  wall 58.88 s
    6   -2291.1494424728      4.75E-05
 K construction time:  CPU 833.38 s  wall 55.20 s
    7   -2291.1497291292      1.79E-05
 K construction time:  CPU 781.03 s  wall 51.66 s
    8   -2291.1497819380      5.49E-06
 K construction time:  CPU 752.11 s  wall 49.72 s
    9   -2291.1497935637      3.68E-06
 K construction time:  CPU 712.51 s  wall 47.13 s
   10   -2291.1497974333      1.29E-06
 K construction time:  CPU 647.36 s  wall 42.73 s
   11   -2291.1497979834      7.37E-07
 K construction time:  CPU 605.29 s  wall 39.91 s
   12   -2291.1497981445      2.13E-07
 K construction time:  CPU 534.39 s  wall 35.20 s
   13   -2291.1497981599      1.17E-07
 K construction time:  CPU 472.64 s  wall 31.07 s
   14   -2291.1497981622      3.40E-08
 K construction time:  CPU 399.82 s  wall 26.23 s
   15   -2291.1497981628      1.66E-08
 K construction time:  CPU 1114.94 s  wall 73.73 s
   16   -2291.1497981627      5.28E-09 Convergence criterion met
 ---------------------------------------
 SCF time:  CPU 15936.34 s  wall 1080.54 s
 SCF   energy in the final basis set = -2291.1497981627
 Total energy in the final basis set = -2291.1497981627
 
 --------------------------------------------------------------
 
                    Orbital Energies (a.u.)
 --------------------------------------------------------------
 
 Alpha MOs
 -- Occupied --
-89.146 -89.100 -89.080 -14.482 -14.478 -14.462 -14.461 -14.446
-14.434 -10.355 -10.353 -10.351 -10.345 -10.344 -10.343 -10.342
-10.341 -10.338 -10.337 -10.335 -10.330 -10.330 -10.324 -10.320
-10.310 -10.301 -10.298 -10.295 -10.293  -8.156  -8.115  -8.095
 -6.106  -6.100  -6.100  -6.064  -6.060  -6.058  -6.044  -6.040
 -6.038  -1.142  -1.101  -1.069  -1.049  -1.029  -1.013  -1.003
 -0.986  -0.925  -0.912  -0.896  -0.879  -0.869  -0.854  -0.838
 -0.812  -0.777  -0.771  -0.748  -0.738  -0.731  -0.717  -0.711
 -0.672  -0.655  -0.648  -0.629  -0.629  -0.621  -0.606  -0.603
 -0.589  -0.576  -0.569  -0.561  -0.558  -0.546  -0.543  -0.527
 -0.512  -0.507  -0.502  -0.500  -0.493  -0.492  -0.485  -0.483
 -0.473  -0.468  -0.460  -0.459  -0.450  -0.442  -0.428  -0.427
 -0.420  -0.412  -0.395  -0.376  -0.372  -0.361  -0.358  -0.350
 -0.343  -0.339  -0.335  -0.334  -0.319  -0.266
 -- Virtual --
 -0.052  -0.027   0.025   0.031   0.042   0.052   0.069   0.073
  0.085   0.087   0.111   0.123   0.124   0.128   0.132   0.137
  0.150   0.153   0.154   0.162   0.166   0.175   0.180   0.190
  0.197   0.204   0.210   0.215   0.220   0.230   0.244   0.248
  0.258   0.266   0.268   0.276   0.278   0.290   0.291   0.294
  0.300   0.301   0.308   0.315   0.318   0.321   0.322   0.331
  0.331   0.336   0.342   0.346   0.349   0.350   0.354   0.357
  0.363   0.369   0.371   0.376   0.379   0.383   0.384   0.390
  0.393   0.394   0.397   0.402   0.403   0.406   0.410   0.412
  0.415   0.418   0.423   0.428   0.431   0.433   0.434   0.441
  0.444   0.446   0.450   0.454   0.458   0.462   0.462   0.463
  0.468   0.473   0.474   0.478   0.481   0.483   0.488   0.491
  0.495   0.498   0.503   0.507   0.510   0.514   0.516   0.519
  0.524   0.531   0.532   0.536   0.537   0.541   0.547   0.551
  0.558   0.561   0.566   0.573   0.578   0.586   0.592   0.601
  0.602   0.609   0.610   0.613   0.620   0.622   0.634   0.637
  0.641   0.642   0.651   0.655   0.662   0.663   0.665   0.667
  0.678   0.682   0.688   0.691   0.698   0.704   0.710   0.713
  0.722   0.727   0.732   0.737   0.739   0.741   0.745   0.750
  0.752   0.764   0.769   0.772   0.776   0.781   0.785   0.788
  0.790   0.799   0.802   0.804   0.809   0.818   0.820   0.826
  0.829   0.832   0.836   0.841   0.844   0.849   0.852   0.856
  0.858   0.869   0.871   0.875   0.881   0.883   0.899   0.904
  0.907   0.916   0.918   0.920   0.923   0.927   0.931   0.933
  0.941   0.945   0.951   0.957   0.958   0.960   0.964   0.969
  0.973   0.982   0.984   0.989   0.992   1.004   1.013   1.018
  1.019   1.026   1.030   1.038   1.043   1.052   1.054   1.057
  1.065   1.069   1.079   1.085   1.089   1.091   1.095   1.097
  1.100   1.105   1.109   1.116   1.119   1.125   1.130   1.135
  1.146   1.149   1.163   1.166   1.177   1.183   1.187   1.194
  1.197   1.205   1.210   1.218   1.221   1.230   1.233   1.241
  1.252   1.253   1.262   1.269   1.271   1.282   1.293   1.301
  1.301   1.306   1.317   1.327   1.335   1.346   1.353   1.354
  1.359   1.367   1.368   1.375   1.380   1.383   1.388   1.389
  1.395   1.406   1.412   1.418   1.425   1.430   1.435   1.438
  1.443   1.446   1.449   1.454   1.464   1.472   1.480   1.485
  1.489   1.492   1.497   1.508   1.510   1.514   1.518   1.526
  1.542   1.559   1.563   1.567   1.575   1.578   1.584   1.586
  1.604   1.608   1.610   1.616   1.625   1.632   1.642   1.650
  1.651   1.658   1.666   1.670   1.677   1.686   1.689   1.696
  1.699   1.703   1.715   1.722   1.727   1.733   1.742   1.750
  1.752   1.764   1.768   1.773   1.781   1.797   1.801   1.806
  1.816   1.831   1.834   1.851   1.865   1.873   1.881   1.884
  1.894   1.895   1.907   1.917   1.927   1.930   1.936   1.940
  1.949   1.967   1.977   1.984   1.988   1.997   1.999   2.008
  2.014   2.023   2.028   2.038   2.040   2.050   2.060   2.070
  2.073   2.091   2.099   2.109   2.111   2.114   2.118   2.129
  2.139   2.157   2.163   2.171   2.177   2.179   2.186   2.191
  2.200   2.208   2.214   2.219   2.222   2.243   2.245   2.253
  2.262   2.264   2.280   2.293   2.294   2.301   2.305   2.313
  2.317   2.329   2.335   2.335   2.346   2.362   2.371   2.376
  2.378   2.393   2.397   2.402   2.404   2.416   2.421   2.427
  2.439   2.440   2.451   2.453   2.455   2.461   2.462   2.472
  2.483   2.494   2.505   2.515   2.523   2.526   2.527   2.532
  2.537   2.539   2.543   2.555   2.558   2.564   2.590   2.600
  2.608   2.615   2.620   2.633   2.637   2.642   2.646   2.654
  2.656   2.665   2.670   2.681   2.686   2.694   2.706   2.717
  2.723   2.733   2.738   2.752   2.755   2.772   2.774   2.779
  2.781   2.786   2.791   2.797   2.807   2.812   2.814   2.826
  2.831   2.834   2.842   2.847   2.854   2.858   2.871   2.873
  2.879   2.888   2.893   2.910   2.911   2.918   2.930   2.932
  2.939   2.941   2.944   2.949   2.954   2.967   2.974   2.984
  2.986   2.992   2.998   3.002   3.010   3.012   3.015   3.019
  3.027   3.028   3.038   3.041   3.049   3.054   3.058   3.064
  3.068   3.069   3.073   3.075   3.077   3.081   3.084   3.089
  3.092   3.098   3.102   3.109   3.112   3.118   3.122   3.125
  3.131   3.137   3.149   3.156   3.158   3.164   3.168   3.171
  3.173   3.177   3.182   3.192   3.195   3.197   3.201   3.208
  3.210   3.216   3.218   3.223   3.227   3.232   3.234   3.236
  3.242   3.247   3.256   3.259   3.263   3.263   3.266   3.271
  3.275   3.280   3.284   3.288   3.294   3.298   3.302   3.306
  3.308   3.312   3.317   3.320   3.324   3.329   3.334   3.341
  3.348   3.352   3.362   3.367   3.372   3.380   3.388   3.394
  3.397   3.403   3.408   3.412   3.416   3.419   3.425   3.434
  3.440   3.442   3.450   3.455   3.462   3.467   3.471   3.475
  3.482   3.486   3.487   3.495   3.503   3.506   3.512   3.520
  3.524   3.528   3.534   3.553   3.561   3.562   3.571   3.582
  3.586   3.599   3.605   3.615   3.621   3.630   3.639   3.642
  3.652   3.662   3.672   3.678   3.690   3.696   3.700   3.710
  3.714   3.723   3.727   3.734   3.737   3.748   3.752   3.756
  3.768   3.773   3.778   3.786   3.792   3.799   3.803   3.808
  3.817   3.827   3.830   3.837   3.841   3.859   3.867   3.877
  3.879   3.903   3.904   3.912   3.917   3.920   3.926   3.932
  3.933   3.935   3.946   3.948   3.951   3.960   3.964   3.975
  3.979   3.989   3.991   3.999   4.017   4.022   4.028   4.036
  4.047   4.055   4.062   4.071   4.078   4.087   4.094   4.096
  4.109   4.114   4.124   4.139   4.148   4.153   4.167   4.168
  4.186   4.191   4.195   4.203   4.211   4.216   4.216   4.224
  4.225   4.237   4.243   4.251   4.256   4.263   4.268   4.277
  4.287   4.294   4.299   4.307   4.317   4.325   4.329   4.337
  4.339   4.346   4.353   4.362   4.365   4.380   4.384   4.391
  4.394   4.409   4.421   4.430   4.435   4.441   4.449   4.462
  4.468   4.477   4.488   4.501   4.514   4.520   4.522   4.531
  4.543   4.549   4.562   4.567   4.574   4.589   4.601   4.603
  4.618   4.640   4.646   4.647   4.665   4.669   4.680   4.698
  4.711   4.721   4.726   4.745   4.752   4.770   4.773   4.783
  4.794   4.807   4.810   4.815   4.826   4.838   4.843   4.857
  4.865   4.874   4.885   4.897   4.901   4.915   4.919   4.928
  4.936   4.949   4.957   4.963   4.971   4.978   4.986   4.989
  4.996   5.005   5.011   5.019   5.020   5.039   5.043   5.051
  5.055   5.069   5.077   5.092   5.095   5.103   5.110   5.124
  5.134   5.141   5.148   5.156   5.167   5.168   5.183   5.197
  5.211   5.218   5.236   5.242   5.272   5.300   5.306   5.314
  5.324   5.336   5.350   5.367   5.379   5.391   5.408   5.423
  5.445   5.465   5.472   5.488   5.492   5.499   5.528   5.543
  5.559   5.574   5.576   5.592   5.596   5.599   5.624   5.647
  5.671   5.688   5.712   5.722   5.737   5.751   5.753   5.785
  5.790   5.831   5.839   5.857   5.875   5.888   5.902   5.927
  5.947   5.965   5.998   6.040   6.089   6.111   6.144   6.168
  6.199   6.240   6.250   6.296   6.300   6.333   6.379   6.430
  6.443   6.487   6.635   6.860   6.988   7.076   8.020   8.847
  9.816  10.152  10.654  11.096  11.242  11.687  11.999  12.054
 12.370  12.631  12.743  12.794  12.848  12.963  13.069  13.143
 13.318  13.430  13.537  13.946  14.307  14.626  15.051  15.073
 --------------------------------------------------------------
 
          Ground-State Mulliken Net Atomic Charges

     Atom                 Charge (a.u.)
  ----------------------------------------
      1 C                    -0.091068
      2 C                    -0.128792
      3 C                    -0.080318
      4 C                    -0.118337
      5 N                    -0.144623
      6 C                     0.081528
      7 C                     0.104174
      8 N                    -0.176694
      9 C                    -0.010875
     10 C                    -0.072193
     11 N                    -0.219939
     12 C                     0.037684
     13 C                     0.057808
     14 S                     0.408531
     15 N                    -0.295436
     16 C                    -0.074770
     17 S                     0.186736
     18 C                     0.045808
     19 C                    -0.054134
     20 N                    -0.166953
     21 C                     0.056426
     22 C                    -0.013010
     23 C                    -0.045069
     24 N                    -0.161667
     25 C                    -0.138931
     26 S                     0.101662
     27 C                    -0.049473
     28 C                    -0.156810
     29 C                    -0.181565
     30 H                     0.132823
     31 H                     0.119062
     32 H                     0.119670
     33 H                     0.138147
     34 H                     0.129819
     35 H                     0.130861
     36 H                     0.135265
     37 H                     0.127851
     38 H                     0.130478
     39 H                     0.136323
  ----------------------------------------
  Sum of atomic charges =     0.000000

 -----------------------------------------------------------------
                    Cartesian Multipole Moments
 -----------------------------------------------------------------
    Charge (ESU x 10^10)
                 0.0000
    Dipole Moment (Debye)
         X      -0.2047      Y       1.5747      Z       0.6048
       Tot       1.6992
    Quadrupole Moments (Debye-Ang)
        XX    -151.0736     XY       4.1970     YY    -166.1177
        XZ      -1.6907     YZ       3.0414     ZZ    -185.8834
    Octopole Moments (Debye-Ang^2)
       XXX     106.8052    XXY      13.2587    XYY     -30.4948
       YYY      39.7285    XXZ      -4.3352    XYZ     -23.1097
       YYZ      12.2472    XZZ      -3.7588    YZZ      -8.9701
       ZZZ       9.6565
    Hexadecapole Moments (Debye-Ang^3)
      XXXX  -15947.2266   XXXY     580.7061   XXYY   -3514.0361
      XYYY    -152.6679   YYYY   -3252.1294   XXXZ    -199.9459
      XXYZ     127.9111   XYYZ      15.1453   YYYZ      44.6427
      XXZZ   -3476.5074   XYZZ     -28.9011   YYZZ    -702.4879
      XZZZ      31.3294   YZZZ     -12.1286   ZZZZ    -565.9184
 -----------------------------------------------------------------
 Calculating analytic gradient of the SCF energy
 K construction time:  CPU 2880.12 s  wall 182.55 s
 Gradient of SCF Energy
            1           2           3           4           5           6
    1   0.0001148  -0.0014140   0.0008014   0.0017577   0.0003380  -0.0016464
    2  -0.0000489  -0.0006751  -0.0000988   0.0001903  -0.0003841  -0.0000153
    3  -0.0000355  -0.0000156   0.0001566  -0.0003896   0.0002428   0.0000920
            7           8           9          10          11          12
    1   0.0016769  -0.0001204  -0.0008328   0.0027345  -0.0004068   0.0007085
    2   0.0003262  -0.0009141  -0.0002111   0.0017208   0.0002079   0.0004980
    3  -0.0000753  -0.0002792  -0.0003046  -0.0024704   0.0001269   0.0009841
           13          14          15          16          17          18
    1  -0.0041875   0.0001620   0.0016682   0.0045825  -0.0024415  -0.0007203
    2  -0.0008601  -0.0013239   0.0011047  -0.0018093  -0.0010534   0.0013366
    3   0.0011391   0.0005426  -0.0007703  -0.0014765  -0.0014059   0.0020475
           19          20          21          22          23          24
    1  -0.0007845  -0.0024403   0.0002709   0.0006946  -0.0015424  -0.0002579
    2  -0.0006758   0.0003894   0.0016701   0.0015614  -0.0004211  -0.0011666
    3   0.0000689   0.0000672   0.0003537   0.0008983   0.0000274  -0.0004782
           25          26          27          28          29          30
    1   0.0000575  -0.0000380   0.0009533  -0.0006503   0.0005939   0.0000132
    2   0.0002109  -0.0002933   0.0012080  -0.0002226  -0.0006386   0.0002700
    3   0.0002862  -0.0003742   0.0002205  -0.0002464  -0.0003617   0.0002340
           31          32          33          34          35          36
    1   0.0002830  -0.0003487  -0.0001377   0.0005539   0.0003880   0.0002599
    2   0.0005757   0.0001371   0.0000230  -0.0010986   0.0000695  -0.0001650
    3  -0.0000685  -0.0001346   0.0001432   0.0012792  -0.0003974  -0.0002975
           37          38          39
    1  -0.0004495   0.0001397  -0.0003332
    2  -0.0000488   0.0003827   0.0002424
    3   0.0001346   0.0005338   0.0000028
 Max gradient component =       4.583E-03
 RMS gradient           =       1.048E-03
 Gradient time:  CPU 3336.82 s  wall 213.58 s
 Geometry Optimization Parameters
   NAtoms,    NIC,     NZ,  NCons,   NDum,   NFix, NCnnct, MaxDiis
       39     293       0       3       0       0       0       0


** CONSTRAINED OPTIMIZATION IN DELOCALIZED INTERNAL COORDINATES **
   Searching for a Minimum

   Optimization Cycle:   1

                       Coordinates (Angstroms)
     ATOM                X               Y               Z
      1  C         7.6646919018    0.3129489332   -0.4746741923
      2  C         6.9790268567    1.5147061055   -0.4055163001
      3  C         6.9291692530   -0.8613058810   -0.4645469299
      4  C         5.6022369865    1.4937324693   -0.3212701134
      5  N         5.6054721093   -0.8969737313   -0.3802818666
      6  C         4.9522457884    0.2605672089   -0.3045494476
      7  C         3.4718030412    0.2199477827   -0.2107356268
      8  N         2.8198648435    1.2874354595   -0.5813223687
      9  C         2.7342813739   -0.9090395137    0.2770258424
     10  C         1.4675574139    1.3570541280   -0.5301272568
     11  N         3.2092647480   -2.0614040229    0.7542626919
     12  C         1.3045720013   -0.8328333499    0.3194568101
     13  C         0.6304168965    0.3543185008   -0.0995079839
     14  S         1.9381410957   -2.9406595574    1.1788237363
     15  N         0.7359085918   -1.9352742712    0.8031718806
     16  C        -0.8151923775    0.5090830040   -0.0455290706
     17  S        -1.8995544034   -0.8092589170   -0.2527366347
     18  C        -1.5612462569    1.6657581589    0.1822662765
     19  C        -3.3181929194    0.1214033135   -0.0793545170
     20  N        -1.0570724752    2.9118448371    0.4046023833
     21  C        -2.9748136712    1.4454019994    0.1667109817
     22  C        -4.6396727317   -0.4576878396   -0.1672273262
     23  C        -1.9306733527    3.8527733534    0.5886646746
     24  N        -3.8622368526    2.4572966135    0.3635217423
     25  C        -5.8044545583    0.0235410996    0.3645680251
     26  S        -4.9314258839   -1.9347128083   -1.0287390251
     27  C        -3.3412502606    3.6281354763    0.5674827497
     28  C        -6.9215570943   -0.8009732254    0.0897391295
     29  C        -6.6003415511   -1.8968558935   -0.6476833952
     30  H         8.7433654892    0.2840448377   -0.5350600005
     31  H         7.5123609881    2.4565743880   -0.4146163654
     32  H         7.4249534898   -1.8225776058   -0.5286453709
     33  H         5.0191208605    2.4003908391   -0.2708355182
     34  H         1.0473067271    2.2985856782   -0.8442030970
     35  H        -1.5521254488    4.8545268619    0.7623505685
     36  H        -5.8421172191    0.9432954106    0.9235398608
     37  H        -4.0211397673    4.4577111582    0.7282921310
     38  H        -7.9210149275   -0.5842916331    0.4349677618
     39  H        -7.2553303152   -2.6786885857   -0.9921944133
   Point Group: c1    Number of degrees of freedom:   111


   Energy is  -2291.149798163

              Constraints and their Current Values
                                        Value     Constraint
   Dihedral:        4   6   7   8       21.915       21.822
   Dihedral:       10  13  16  17      150.000      150.000
   Dihedral:       17  19  22  25      156.426      156.395

 Attempting to Generate Delocalized Internal Coordinates

   Using Lagrange Multiplier Algorithm


114 Hessian modes will be used to form the next step
  Hessian Eigenvalues:
    -0.977753   -0.977753   -0.977753    0.045000    0.045000    0.045000
     0.045000    0.045000    0.045000    0.045000    0.045000    0.045000
     0.045000    0.045000    0.045000    0.045000    0.045001    0.045001
     0.045001    0.045001    0.045001    0.045001    0.045001    0.045002
     0.045002    0.045002    0.045002    0.045003    0.045003    0.045004
     0.045004    0.045007    0.045008    0.045011    0.045025    0.045042
     0.159985    0.159992    0.159996    0.159998    0.159999    0.159999
     0.160000    0.160000    0.160000    0.160000    0.219998    0.221296
     0.223765    0.224234    0.233056    0.237962    0.243336    0.244277
     0.249685    0.249909    0.249932    0.249960    0.249971    0.249981
     0.249981    0.249983    0.249989    0.249990    0.249993    0.249993
     0.249995    0.312593    0.327542    0.334457    0.341192    0.341258
     0.354105    0.354470    0.355757    0.357029    0.359040    0.360700
     0.360954    0.362567    0.363657    0.364144    0.369052    0.372792
     0.376138    0.388449    0.390986    0.406991    0.407226    0.418670
     0.432515    0.440847    0.460521    0.465833    0.471161    0.473690
     0.482797    0.484038    0.485870    0.485956    0.504406    0.517483
     0.518989    0.525383    0.557629    0.572590    0.582389    0.589743
     0.639523    0.655135    0.663899    1.022753    1.022753    1.022753

 Minimum Search - Taking P-RFO Step
 Searching for Lamda that Maximizes Along the Constraint modes Only
 Value Taken    Lamda =   0.00000499
 Searching for Lamda that Minimizes Along All other modes
 Value Taken    Lamda =  -0.00061180
 Step Taken.  Stepsize is  0.072830

                             Maximum     Tolerance    Cnvgd?
         Gradient            0.005443       0.000300      NO
         Displacement        0.036153       0.001200      NO
         Energy change     *********       0.000001      NO


 New Cartesian Coordinates Obtained by Inverse Iteration

 Displacement from previous Coordinates is:  0.504996
 ----------------------------------------------------------------
             Standard Nuclear Orientation (Angstroms)
    I     Atom           X                Y                Z
 ----------------------------------------------------------------
    1      C       7.6435276249     0.3045113100    -0.5259601746
    2      C       6.9677410446     1.5108538716    -0.4378825152
    3      C       6.9012604750    -0.8651106809    -0.5026922786
    4      C       5.5916351251     1.4982929320    -0.3247262328
    5      N       5.5800501905    -0.8926128600    -0.3899894166
    6      C       4.9367696294     0.2685047934    -0.2969412224
    7      C       3.4573476776     0.2311672957    -0.1818846034
    8      N       2.8025069432     1.3006637596    -0.5428248791
    9      C       2.7292806125    -0.9012972533     0.3120266395
   10      C       1.4506190404     1.3642366008    -0.4831483419
   11      N       3.2108549863    -2.0542972205     0.7802292953
   12      C       1.3000747373    -0.8300276474     0.3660818255
   13      C       0.6267329618     0.3566888324    -0.0487720368
   14      S       1.9426128975    -2.9338751035     1.2132127501
   15      N       0.7326858355    -1.9332465058     0.8516426176
   16      C      -0.8169251705     0.5074842139     0.0022791917
   17      S      -1.8939070028    -0.8112516772    -0.2004922552
   18      C      -1.5547016527     1.6656808021     0.2088787799
   19      C      -3.3130380092     0.1250833798    -0.0629949367
   20      N      -1.0336868666     2.9055982149     0.4270153924
   21      C      -2.9686390200     1.4509947584     0.1778750688
   22      C      -4.6322642665    -0.4593684409    -0.1717128374
   23      C      -1.9009304069     3.8546723033     0.5962814563
   24      N      -3.8472657129     2.4741823145     0.3563079590
   25      C      -5.8108107545     0.0204005732     0.3313450037
   26      S      -4.8969400333    -1.9472756611    -1.0213432343
   27      C      -3.3143344185     3.6399784172     0.5585126122
   28      C      -6.9167515084    -0.8133796524     0.0403447475
   29      C      -6.5734708697    -1.9151997927    -0.6769101857
   30      H       8.7202194857     0.2669406410    -0.6117762353
   31      H       7.5066475747     2.4483052383    -0.4565275284
   32      H       7.3912184911    -1.8289263289    -0.5791302716
   33      H       5.0151612989     2.4082801553    -0.2624905009
   34      H       1.0214655679     2.3017193378    -0.8049503409
   35      H      -1.5189292532     4.8543779918     0.7729328474
   36      H      -5.8674635191     0.9454741013     0.8807144630
   37      H      -3.9856844795     4.4783981717     0.7061396051
   38      H      -7.9261598001    -0.6016224667     0.3580454274
   39      H      -7.2141610662    -2.7064579372    -1.0266252284
 ----------------------------------------------------------------
 Molecular Point Group                 C1    NOp =  1
 Largest Abelian Subgroup              C1    NOp =  1
 Nuclear Repulsion Energy =  2929.6407534080 hartrees
 There are      110 alpha and      110 beta electrons
 Applying Cartesian multipole field
    Component          Value
    ---------          -----
     (2,0,0)        1.00000E-12
     (0,2,0)        2.00000E-11
     (0,0,2)       -3.00000E-11
 Nucleus-field energy     =     0.0000000582 hartrees
 Requested basis set is cc-pVTZ
 There are 356 shells and 1022 basis functions
 A cutoff of  1.0D-11 yielded  30961 shell pairs
 There are    244095 function pairs (    318513 Cartesian)
 Smallest overlap matrix eigenvalue = 2.81E-05
 Guess MOs from SCF MO coefficient file
 Reading MOs from coefficient file
 Reading MOs from coefficient file
 Long-range K will be added via erf
 Coulomb attenuation parameter = 0.2 bohr**(-1)
 A restricted hybrid HF-DFT SCF calculation will be
 performed using Pulay DIIS extrapolation
 Exchange:     0.2220 Hartree-Fock + 1.0000 wB97X-D + LR-HF
 Correlation:  1.0000 wB97X-D
 Using SG-2 standard quadrature grid
 Dispersion:   Grimme D
 SCF converges when DIIS error is below 1.0E-08
 Geometry optimization detected.  Setting ReadMinima to 0
 Setting SaveMinima to 0
 using 16 threads for integral computing 
 using 16 threads for integral computing 
 K construction time:  CPU 1115.23 s  wall 73.70 s
 -------------------------------------------------------
 OpenMP BLAS3 based DFT computing Module                
 Release: version 1.0, May 2013, Q-Chem Inc. Pittsburgh 
 -------------------------------------------------------
 ---------------------------------------
  Cycle       Energy         DIIS Error
 ---------------------------------------
    1   -2291.1485632281      2.56E-04
 K construction time:  CPU 1116.57 s  wall 73.78 s
    2   -2291.1498804095      2.62E-05
 K construction time:  CPU 830.27 s  wall 54.88 s
    3   -2291.1500272369      2.29E-05
 K construction time:  CPU 790.68 s  wall 52.31 s
    4   -2291.1500857068      1.12E-05
 K construction time:  CPU 740.66 s  wall 48.95 s
    5   -2291.1501047948      3.44E-06
 K construction time:  CPU 666.36 s  wall 44.00 s
    6   -2291.1501065020      1.69E-06
 K construction time:  CPU 604.94 s  wall 39.91 s
    7   -2291.1501069010      5.10E-07
 K construction time:  CPU 558.02 s  wall 36.80 s
    8   -2291.1501069566      2.55E-07
 K construction time:  CPU 510.93 s  wall 33.70 s
    9   -2291.1501069719      1.04E-07
 K construction time:  CPU 455.56 s  wall 29.93 s
   10   -2291.1501069755      4.00E-08
 K construction time:  CPU 422.03 s  wall 27.64 s
   11   -2291.1501069756      2.18E-08
 K construction time:  CPU 372.56 s  wall 24.41 s
   12   -2291.1501069769      7.57E-09 Convergence criterion met
 ---------------------------------------
 SCF time:  CPU 11023.09 s  wall 747.04 s
 SCF   energy in the final basis set = -2291.1501069769
 Total energy in the final basis set = -2291.1501069769
 
 --------------------------------------------------------------
 
                    Orbital Energies (a.u.)
 --------------------------------------------------------------
 
 Alpha MOs
 -- Occupied --
-89.146 -89.100 -89.079 -14.482 -14.479 -14.462 -14.461 -14.446
-14.434 -10.355 -10.353 -10.350 -10.345 -10.344 -10.343 -10.340
-10.340 -10.338 -10.336 -10.335 -10.329 -10.329 -10.324 -10.319
-10.310 -10.301 -10.298 -10.295 -10.293  -8.156  -8.114  -8.095
 -6.106  -6.100  -6.100  -6.063  -6.060  -6.058  -6.044  -6.040
 -6.038  -1.143  -1.101  -1.069  -1.049  -1.029  -1.013  -1.003
 -0.987  -0.925  -0.912  -0.896  -0.879  -0.869  -0.853  -0.838
 -0.812  -0.777  -0.772  -0.748  -0.738  -0.731  -0.717  -0.711
 -0.672  -0.655  -0.648  -0.629  -0.629  -0.621  -0.606  -0.603
 -0.589  -0.576  -0.569  -0.561  -0.558  -0.546  -0.543  -0.526
 -0.512  -0.507  -0.502  -0.500  -0.493  -0.492  -0.485  -0.483
 -0.473  -0.468  -0.460  -0.459  -0.451  -0.442  -0.428  -0.427
 -0.420  -0.412  -0.396  -0.376  -0.372  -0.361  -0.358  -0.350
 -0.342  -0.339  -0.335  -0.334  -0.319  -0.266
 -- Virtual --
 -0.051  -0.027   0.025   0.031   0.042   0.053   0.069   0.073
  0.086   0.087   0.111   0.123   0.124   0.128   0.132   0.137
  0.150   0.153   0.154   0.162   0.166   0.175   0.180   0.191
  0.197   0.203   0.210   0.215   0.221   0.231   0.244   0.248
  0.258   0.267   0.268   0.276   0.278   0.290   0.291   0.295
  0.300   0.301   0.308   0.315   0.319   0.322   0.322   0.330
  0.331   0.336   0.342   0.346   0.350   0.351   0.354   0.357
  0.363   0.369   0.371   0.376   0.379   0.382   0.384   0.390
  0.393   0.394   0.398   0.402   0.404   0.407   0.410   0.413
  0.415   0.418   0.423   0.428   0.431   0.434   0.434   0.441
  0.444   0.446   0.450   0.454   0.458   0.461   0.463   0.463
  0.468   0.474   0.475   0.478   0.481   0.484   0.488   0.492
  0.495   0.498   0.503   0.507   0.510   0.514   0.516   0.519
  0.524   0.531   0.533   0.536   0.537   0.541   0.547   0.551
  0.558   0.561   0.566   0.573   0.578   0.587   0.592   0.601
  0.602   0.608   0.610   0.614   0.621   0.622   0.634   0.637
  0.640   0.642   0.651   0.656   0.662   0.665   0.666   0.667
  0.679   0.682   0.689   0.693   0.699   0.705   0.710   0.713
  0.722   0.727   0.732   0.738   0.740   0.741   0.745   0.751
  0.752   0.764   0.770   0.772   0.776   0.781   0.784   0.789
  0.791   0.800   0.801   0.805   0.811   0.818   0.821   0.826
  0.829   0.833   0.836   0.842   0.844   0.851   0.852   0.856
  0.859   0.869   0.872   0.874   0.881   0.883   0.900   0.905
  0.908   0.915   0.919   0.919   0.923   0.927   0.931   0.934
  0.941   0.945   0.951   0.957   0.958   0.961   0.966   0.970
  0.974   0.984   0.984   0.989   0.993   1.004   1.014   1.018
  1.020   1.026   1.030   1.039   1.044   1.052   1.054   1.057
  1.066   1.071   1.078   1.085   1.088   1.090   1.095   1.097
  1.100   1.106   1.109   1.117   1.120   1.124   1.131   1.136
  1.147   1.148   1.163   1.167   1.176   1.184   1.187   1.195
  1.199   1.207   1.211   1.219   1.222   1.231   1.233   1.242
  1.253   1.254   1.262   1.270   1.272   1.283   1.294   1.300
  1.301   1.307   1.317   1.328   1.334   1.346   1.352   1.355
  1.359   1.367   1.368   1.375   1.380   1.384   1.387   1.389
  1.394   1.405   1.412   1.418   1.425   1.429   1.435   1.439
  1.443   1.445   1.451   1.454   1.465   1.474   1.480   1.485
  1.489   1.492   1.500   1.508   1.510   1.514   1.518   1.526
  1.542   1.561   1.564   1.567   1.576   1.579   1.585   1.586
  1.605   1.609   1.611   1.617   1.626   1.632   1.643   1.651
  1.652   1.659   1.666   1.671   1.677   1.686   1.691   1.696
  1.700   1.703   1.715   1.723   1.728   1.734   1.743   1.750
  1.753   1.765   1.769   1.775   1.781   1.797   1.802   1.807
  1.816   1.832   1.836   1.854   1.866   1.874   1.882   1.884
  1.895   1.896   1.908   1.917   1.929   1.931   1.936   1.941
  1.949   1.968   1.979   1.985   1.988   1.998   2.000   2.010
  2.014   2.023   2.029   2.036   2.040   2.051   2.060   2.070
  2.073   2.091   2.099   2.108   2.111   2.113   2.118   2.129
  2.140   2.157   2.163   2.171   2.175   2.179   2.189   2.190
  2.200   2.209   2.214   2.220   2.224   2.243   2.247   2.254
  2.261   2.265   2.280   2.293   2.294   2.300   2.305   2.314
  2.317   2.330   2.333   2.335   2.346   2.362   2.370   2.377
  2.378   2.392   2.397   2.402   2.403   2.417   2.421   2.428
  2.439   2.442   2.451   2.454   2.456   2.462   2.463   2.473
  2.484   2.495   2.506   2.515   2.524   2.527   2.529   2.533
  2.538   2.539   2.543   2.555   2.559   2.564   2.592   2.600
  2.607   2.614   2.622   2.633   2.638   2.643   2.648   2.654
  2.657   2.666   2.671   2.683   2.686   2.694   2.707   2.717
  2.723   2.733   2.737   2.753   2.756   2.772   2.774   2.779
  2.782   2.787   2.791   2.798   2.807   2.812   2.813   2.826
  2.832   2.835   2.844   2.846   2.854   2.858   2.872   2.874
  2.879   2.890   2.894   2.910   2.911   2.919   2.930   2.934
  2.940   2.942   2.944   2.949   2.955   2.968   2.974   2.985
  2.987   2.993   2.999   3.003   3.011   3.012   3.016   3.019
  3.027   3.029   3.040   3.042   3.049   3.054   3.059   3.064
  3.068   3.069   3.073   3.076   3.078   3.082   3.085   3.089
  3.093   3.098   3.103   3.110   3.113   3.119   3.123   3.126
  3.132   3.138   3.150   3.157   3.159   3.165   3.169   3.170
  3.175   3.177   3.183   3.193   3.195   3.197   3.201   3.209
  3.211   3.218   3.219   3.223   3.227   3.232   3.235   3.237
  3.242   3.247   3.256   3.260   3.264   3.265   3.266   3.273
  3.275   3.280   3.285   3.289   3.295   3.299   3.302   3.307
  3.309   3.312   3.318   3.321   3.323   3.330   3.334   3.341
  3.350   3.353   3.362   3.366   3.373   3.382   3.389   3.396
  3.399   3.403   3.408   3.413   3.416   3.420   3.425   3.433
  3.441   3.442   3.451   3.457   3.461   3.468   3.471   3.475
  3.483   3.485   3.489   3.497   3.503   3.506   3.512   3.520
  3.524   3.528   3.534   3.555   3.562   3.564   3.572   3.581
  3.587   3.601   3.606   3.616   3.622   3.631   3.640   3.643
  3.654   3.664   3.674   3.680   3.691   3.697   3.700   3.710
  3.712   3.725   3.728   3.736   3.737   3.748   3.752   3.757
  3.768   3.773   3.779   3.788   3.793   3.800   3.804   3.809
  3.820   3.828   3.831   3.837   3.843   3.859   3.868   3.878
  3.881   3.903   3.904   3.911   3.916   3.921   3.926   3.933
  3.934   3.935   3.948   3.950   3.952   3.962   3.965   3.976
  3.982   3.989   3.993   3.999   4.017   4.023   4.029   4.036
  4.048   4.055   4.063   4.071   4.079   4.087   4.097   4.100
  4.110   4.115   4.124   4.142   4.148   4.155   4.167   4.169
  4.188   4.195   4.195   4.205   4.211   4.216   4.218   4.224
  4.227   4.239   4.243   4.251   4.260   4.264   4.268   4.278
  4.287   4.296   4.300   4.307   4.318   4.327   4.328   4.339
  4.341   4.347   4.354   4.362   4.366   4.380   4.385   4.390
  4.397   4.409   4.421   4.431   4.435   4.442   4.450   4.461
  4.469   4.478   4.489   4.502   4.515   4.520   4.523   4.533
  4.544   4.549   4.561   4.566   4.575   4.588   4.600   4.605
  4.620   4.641   4.647   4.648   4.667   4.670   4.680   4.699
  4.713   4.723   4.728   4.746   4.753   4.771   4.774   4.786
  4.795   4.807   4.810   4.816   4.826   4.839   4.844   4.856
  4.865   4.876   4.887   4.898   4.902   4.916   4.918   4.930
  4.936   4.949   4.958   4.963   4.972   4.978   4.987   4.990
  4.997   5.006   5.012   5.017   5.025   5.040   5.045   5.050
  5.058   5.072   5.078   5.091   5.096   5.104   5.111   5.125
  5.135   5.141   5.150   5.155   5.168   5.169   5.183   5.195
  5.211   5.220   5.236   5.245   5.272   5.300   5.306   5.316
  5.325   5.339   5.352   5.369   5.380   5.393   5.411   5.424
  5.447   5.465   5.474   5.488   5.493   5.499   5.528   5.542
  5.559   5.574   5.577   5.594   5.596   5.600   5.626   5.648
  5.671   5.690   5.711   5.721   5.737   5.752   5.754   5.785
  5.793   5.833   5.839   5.858   5.874   5.887   5.904   5.928
  5.950   5.966   6.001   6.042   6.089   6.114   6.148   6.171
  6.202   6.241   6.252   6.301   6.303   6.334   6.380   6.430
  6.445   6.490   6.641   6.865   6.986   7.077   8.028   8.880
  9.822  10.157  10.659  11.103  11.239  11.695  12.006  12.056
 12.377  12.635  12.751  12.801  12.851  12.973  13.074  13.225
 13.327  13.433  13.541  14.008  14.302  14.663  15.060  15.077
 --------------------------------------------------------------
 
          Ground-State Mulliken Net Atomic Charges

     Atom                 Charge (a.u.)
  ----------------------------------------
      1 C                    -0.091299
      2 C                    -0.128580
      3 C                    -0.080693
      4 C                    -0.119488
      5 N                    -0.144438
      6 C                     0.082591
      7 C                     0.103408
      8 N                    -0.176555
      9 C                    -0.012061
     10 C                    -0.071628
     11 N                    -0.218617
     12 C                     0.037865
     13 C                     0.061482
     14 S                     0.407672
     15 N                    -0.296259
     16 C                    -0.071572
     17 S                     0.186170
     18 C                     0.048448
     19 C                    -0.056619
     20 N                    -0.167894
     21 C                     0.053337
     22 C                    -0.013242
     23 C                    -0.045133
     24 N                    -0.161366
     25 C                    -0.140046
     26 S                     0.101744
     27 C                    -0.049412
     28 C                    -0.156752
     29 C                    -0.181805
     30 H                     0.132790
     31 H                     0.119306
     32 H                     0.119424
     33 H                     0.138013
     34 H                     0.129495
     35 H                     0.130807
     36 H                     0.135773
     37 H                     0.128230
     38 H                     0.130479
     39 H                     0.136426
  ----------------------------------------
  Sum of atomic charges =     0.000000

 -----------------------------------------------------------------
                    Cartesian Multipole Moments
 -----------------------------------------------------------------
    Charge (ESU x 10^10)
                 0.0000
    Dipole Moment (Debye)
         X      -0.1625      Y       1.5657      Z       0.5324
       Tot       1.6617
    Quadrupole Moments (Debye-Ang)
        XX    -151.3595     XY       4.2532     YY    -165.9652
        XZ      -1.8273     YZ       3.0050     ZZ    -185.8774
    Octopole Moments (Debye-Ang^2)
       XXX     105.4239    XXY      11.4507    XYY     -30.6417
       YYY      39.8428    XXZ     -11.5720    XYZ     -23.1495
       YYZ       9.6849    XZZ      -3.0310    YZZ      -9.2520
       ZZZ       3.6402
    Hexadecapole Moments (Debye-Ang^3)
      XXXX  -15864.7314   XXXY     568.2550   XXYY   -3498.8884
      XYYY    -155.9798   YYYY   -3258.2122   XXXZ    -217.1074
      XXYZ     128.3072   XYYZ      15.2735   YYYZ      47.7600
      XXZZ   -3456.5876   XYZZ     -30.2753   YYZZ    -705.6033
      XZZZ      30.2416   YZZZ     -10.0575   ZZZZ    -575.9887
 -----------------------------------------------------------------
 Calculating analytic gradient of the SCF energy
 K construction time:  CPU 2873.46 s  wall 182.04 s
 Gradient of SCF Energy
            1           2           3           4           5           6
    1   0.0000876  -0.0003307   0.0001983   0.0002844  -0.0001233  -0.0003114
    2  -0.0002480   0.0000664   0.0001407   0.0002321   0.0000037  -0.0001339
    3  -0.0000942   0.0000878   0.0000856  -0.0004417   0.0001984   0.0005458
            7           8           9          10          11          12
    1   0.0006115  -0.0006828   0.0001359   0.0005778   0.0005046   0.0000378
    2  -0.0002751  -0.0000199  -0.0005928  -0.0004475   0.0004964  -0.0007956
    3  -0.0004253  -0.0001236   0.0003488  -0.0006716  -0.0004470   0.0011420
           13          14          15          16          17          18
    1  -0.0015286  -0.0002943  -0.0003398   0.0011927  -0.0009175   0.0000760
    2   0.0001269   0.0009384   0.0000872   0.0010258  -0.0001058   0.0003770
    3   0.0007161  -0.0002632  -0.0002669  -0.0008298  -0.0006643   0.0015893
           19          20          21          22          23          24
    1   0.0001726   0.0000851   0.0004472   0.0001908  -0.0003833   0.0003233
    2  -0.0013324  -0.0005239   0.0009875   0.0004840  -0.0001329  -0.0008099
    3  -0.0005105  -0.0005305   0.0005137   0.0000600  -0.0000024  -0.0003994
           25          26          27          28          29          30
    1  -0.0001904  -0.0001723   0.0007816  -0.0001893   0.0003410   0.0000027
    2  -0.0002050  -0.0000966   0.0006916  -0.0001673  -0.0000660   0.0000630
    3   0.0005280  -0.0001040   0.0000520  -0.0004138   0.0000118   0.0001535
           31          32          33          34          35          36
    1   0.0000144  -0.0000925  -0.0000706  -0.0004262   0.0002301  -0.0001374
    2  -0.0000084  -0.0000042  -0.0000119   0.0004745  -0.0000195  -0.0001755
    3  -0.0000888  -0.0000791   0.0000527   0.0002833  -0.0001912  -0.0001552
           37          38          39
    1  -0.0000913   0.0001215  -0.0001352
    2  -0.0001876   0.0000416   0.0001229
    3   0.0001112   0.0002560  -0.0000337
 Max gradient component =       1.589E-03
 RMS gradient           =       4.685E-04
 Gradient time:  CPU 3331.61 s  wall 213.12 s
 Geometry Optimization Parameters
   NAtoms,    NIC,     NZ,  NCons,   NDum,   NFix, NCnnct, MaxDiis
       39     293       0       3       0       0       0       0

 Cartesian Hessian Update
 Hessian Updated using BFGS Update


** CONSTRAINED OPTIMIZATION IN DELOCALIZED INTERNAL COORDINATES **
   Searching for a Minimum

   Optimization Cycle:   2

                       Coordinates (Angstroms)
     ATOM                X               Y               Z
      1  C         7.6435276249    0.3045113100   -0.5259601746
      2  C         6.9677410446    1.5108538716   -0.4378825152
      3  C         6.9012604750   -0.8651106809   -0.5026922786
      4  C         5.5916351251    1.4982929320   -0.3247262328
      5  N         5.5800501905   -0.8926128600   -0.3899894166
      6  C         4.9367696294    0.2685047934   -0.2969412224
      7  C         3.4573476776    0.2311672957   -0.1818846034
      8  N         2.8025069432    1.3006637596   -0.5428248791
      9  C         2.7292806125   -0.9012972533    0.3120266395
     10  C         1.4506190404    1.3642366008   -0.4831483419
     11  N         3.2108549863   -2.0542972205    0.7802292953
     12  C         1.3000747373   -0.8300276474    0.3660818255
     13  C         0.6267329618    0.3566888324   -0.0487720368
     14  S         1.9426128975   -2.9338751035    1.2132127501
     15  N         0.7326858355   -1.9332465058    0.8516426176
     16  C        -0.8169251705    0.5074842139    0.0022791917
     17  S        -1.8939070028   -0.8112516772   -0.2004922552
     18  C        -1.5547016527    1.6656808021    0.2088787799
     19  C        -3.3130380092    0.1250833798   -0.0629949367
     20  N        -1.0336868666    2.9055982149    0.4270153924
     21  C        -2.9686390200    1.4509947584    0.1778750688
     22  C        -4.6322642665   -0.4593684409   -0.1717128374
     23  C        -1.9009304069    3.8546723033    0.5962814563
     24  N        -3.8472657129    2.4741823145    0.3563079590
     25  C        -5.8108107545    0.0204005732    0.3313450037
     26  S        -4.8969400333   -1.9472756611   -1.0213432343
     27  C        -3.3143344185    3.6399784172    0.5585126122
     28  C        -6.9167515084   -0.8133796524    0.0403447475
     29  C        -6.5734708697   -1.9151997927   -0.6769101857
     30  H         8.7202194857    0.2669406410   -0.6117762353
     31  H         7.5066475747    2.4483052383   -0.4565275284
     32  H         7.3912184911   -1.8289263289   -0.5791302716
     33  H         5.0151612989    2.4082801553   -0.2624905009
     34  H         1.0214655679    2.3017193378   -0.8049503409
     35  H        -1.5189292532    4.8543779918    0.7729328474
     36  H        -5.8674635191    0.9454741013    0.8807144630
     37  H        -3.9856844795    4.4783981717    0.7061396051
     38  H        -7.9261598001   -0.6016224667    0.3580454274
     39  H        -7.2141610662   -2.7064579372   -1.0266252284
   Point Group: c1    Number of degrees of freedom:   111


   Energy is  -2291.150106977

              Constraints and their Current Values
                                        Value     Constraint
   Dihedral:        4   6   7   8       21.822       21.822
   Dihedral:       10  13  16  17      150.000      150.000
   Dihedral:       17  19  22  25      156.395      156.395
 Hessian Updated using BFGS Update

102 Hessian modes will be used to form the next step
  Hessian Eigenvalues:
     0.032646    0.045000    0.045000    0.045000    0.045000    0.045000
     0.045000    0.045000    0.045000    0.045001    0.045001    0.045001
     0.045001    0.045001    0.045001    0.045002    0.045002    0.045002
     0.045003    0.045003    0.045004    0.045006    0.045008    0.045010
     0.045025    0.045038    0.045502    0.157393    0.159989    0.159995
     0.159998    0.159999    0.160000    0.160000    0.160000    0.160000
     0.160290    0.219967    0.221294    0.223931    0.224184    0.232071
     0.237537    0.240898    0.244149    0.245178    0.249694    0.249926
     0.249946    0.249964    0.249976    0.249981    0.249984    0.249986
     0.249992    0.249993    0.249994    0.295556    0.312084    0.323219
     0.334780    0.340211    0.341549    0.354094    0.354501    0.355725
     0.356951    0.359040    0.360702    0.360945    0.363159    0.363832
     0.364144    0.369157    0.372907    0.385997    0.389985    0.394852
     0.405813    0.407639    0.418657    0.432506    0.459448    0.462267
     0.470448    0.473474    0.475350    0.482788    0.485110    0.485803
     0.500893    0.507127    0.518930    0.523849    0.534443    0.561875
     0.572770    0.589312    0.590384    0.640092    0.659574    0.663801

 Minimum Search - Taking Simple RFO Step
 Searching for Lamda that Minimizes Along All modes
 Value Taken    Lamda =  -0.00012621
 Step Taken.  Stepsize is  0.050331

                             Maximum     Tolerance    Cnvgd?
         Gradient           0.002104      0.000300      NO
         Displacement       0.017634      0.001200      NO
         Energy change     -0.000309      0.000001      NO


 New Cartesian Coordinates Obtained by Inverse Iteration

 Displacement from previous Coordinates is:  0.325962
 ----------------------------------------------------------------
             Standard Nuclear Orientation (Angstroms)
    I     Atom           X                Y                Z
 ----------------------------------------------------------------
    1      C       7.6411889688     0.2870335151    -0.5601315735
    2      C       6.9752119926     1.4973783406    -0.4556893950
    3      C       6.8915946133    -0.8778360130    -0.5318537947
    4      C       5.6002563125     1.4932853237    -0.3233865167
    5      N       5.5721747281    -0.8970184205    -0.4003934085
    6      C       4.9381178015     0.2677932505    -0.2921186408
    7      C       3.4589642467     0.2380428385    -0.1636444144
    8      N       2.8066536985     1.3117437068    -0.5163770310
    9      C       2.7303510192    -0.8933675917     0.3316654593
   10      C       1.4545616570     1.3778818221    -0.4531705670
   11      N       3.2093748884    -2.0503139451     0.7947826933
   12      C       1.3022580659    -0.8176599606     0.3922402146
   13      C       0.6309738937     0.3711578807    -0.0177880150
   14      S       1.9414939708    -2.9286171278     1.2310824729
   15      N       0.7341993588    -1.9212506963     0.8781993811
   16      C      -0.8151513522     0.5183451811     0.0314494661
   17      S      -1.8832560849    -0.8055331496    -0.1695832424
   18      C      -1.5596820551     1.6747009054     0.2233735264
   19      C      -3.3084126874     0.1265726343    -0.0574446323
   20      N      -1.0461626769     2.9178327851     0.4457757727
   21      C      -2.9730256331     1.4541190077     0.1793402859
   22      C      -4.6245451071    -0.4628889779    -0.1770524193
   23      C      -1.9199301871     3.8628639460     0.6052591338
   24      N      -3.8585930477     2.4741470986     0.3463574347
   25      C      -5.8088008241     0.0199734848     0.3087592480
   26      S      -4.8763265483    -1.9596772354    -1.0136478186
   27      C      -3.3325624197     3.6418810043     0.5517080031
   28      C      -6.9100578494    -0.8185561579     0.0139240743
   29      C      -6.5567499082    -1.9272361776    -0.6877700386
   30      H       8.7160898865     0.2418858635    -0.6632499178
   31      H       7.5199524394     2.4311638961    -0.4771509872
   32      H       7.3748470895    -1.8442260444    -0.6195290146
   33      H       5.0310840961     2.4069637261    -0.2502959450
   34      H       1.0275869193     2.3143730475    -0.7798020126
   35      H      -1.5466000281     4.8646709365     0.7878985733
   36      H      -5.8721779810     0.9506854976     0.8486099711
   37      H      -4.0075576186     4.4789747086     0.6901811009
   38      H      -7.9242527084    -0.6062866751     0.3156695737
   39      H      -7.1907425397    -2.7244614470    -1.0361065742
 ----------------------------------------------------------------
 Molecular Point Group                 C1    NOp =  1
 Largest Abelian Subgroup              C1    NOp =  1
 Nuclear Repulsion Energy =  2929.6830542927 hartrees
 There are      110 alpha and      110 beta electrons
 Applying Cartesian multipole field
    Component          Value
    ---------          -----
     (2,0,0)        1.00000E-12
     (0,2,0)        2.00000E-11
     (0,0,2)       -3.00000E-11
 Nucleus-field energy     =     0.0000000582 hartrees
 Requested basis set is cc-pVTZ
 There are 356 shells and 1022 basis functions
 A cutoff of  1.0D-11 yielded  30960 shell pairs
 There are    244126 function pairs (    318563 Cartesian)
 Smallest overlap matrix eigenvalue = 2.79E-05
 Guess MOs from SCF MO coefficient file
 Reading MOs from coefficient file
 Reading MOs from coefficient file
 Long-range K will be added via erf
 Coulomb attenuation parameter = 0.2 bohr**(-1)
 A restricted hybrid HF-DFT SCF calculation will be
 performed using Pulay DIIS extrapolation
 Exchange:     0.2220 Hartree-Fock + 1.0000 wB97X-D + LR-HF
 Correlation:  1.0000 wB97X-D
 Using SG-2 standard quadrature grid
 Dispersion:   Grimme D
 SCF converges when DIIS error is below 1.0E-08
 Geometry optimization detected.  Setting ReadMinima to 0
 Setting SaveMinima to 0
 using 16 threads for integral computing 
 using 16 threads for integral computing 
 K construction time:  CPU 1126.09 s  wall 74.41 s
 -------------------------------------------------------
 OpenMP BLAS3 based DFT computing Module                
 Release: version 1.0, May 2013, Q-Chem Inc. Pittsburgh 
 -------------------------------------------------------
 ---------------------------------------
  Cycle       Energy         DIIS Error
 ---------------------------------------
    1   -2291.1481826297      1.73E-04
 K construction time:  CPU 1117.43 s  wall 73.85 s
    2   -2291.1500880138      1.66E-05
 K construction time:  CPU 783.46 s  wall 51.82 s
    3   -2291.1501719951      9.23E-06
 K construction time:  CPU 736.74 s  wall 48.68 s
    4   -2291.1501815605      6.67E-06
 K construction time:  CPU 703.52 s  wall 46.45 s
    5   -2291.1501876472      2.41E-06
 K construction time:  CPU 635.12 s  wall 41.92 s
    6   -2291.1501884830      9.26E-07
 K construction time:  CPU 562.36 s  wall 37.08 s
    7   -2291.1501886114      2.97E-07
 K construction time:  CPU 527.72 s  wall 34.76 s
    8   -2291.1501886303      1.86E-07
 K construction time:  CPU 476.31 s  wall 31.37 s
    9   -2291.1501886373      6.14E-08
 K construction time:  CPU 416.11 s  wall 27.30 s
   10   -2291.1501886388      2.27E-08
 K construction time:  CPU 379.49 s  wall 24.92 s
   11   -2291.1501886370      1.23E-08
 K construction time:  CPU 326.93 s  wall 21.41 s
   12   -2291.1501886393      4.46E-09 Convergence criterion met
 ---------------------------------------
 SCF time:  CPU 10548.33 s  wall 715.04 s
 SCF   energy in the final basis set = -2291.1501886393
 Total energy in the final basis set = -2291.1501886393
 
 --------------------------------------------------------------
 
                    Orbital Energies (a.u.)
 --------------------------------------------------------------
 
 Alpha MOs
 -- Occupied --
-89.146 -89.099 -89.079 -14.482 -14.479 -14.462 -14.461 -14.446
-14.434 -10.355 -10.353 -10.351 -10.344 -10.344 -10.343 -10.340
-10.340 -10.338 -10.336 -10.334 -10.330 -10.329 -10.324 -10.319
-10.310 -10.301 -10.298 -10.295 -10.293  -8.156  -8.114  -8.095
 -6.106  -6.101  -6.100  -6.063  -6.059  -6.058  -6.044  -6.040
 -6.038  -1.143  -1.101  -1.069  -1.049  -1.029  -1.013  -1.003
 -0.987  -0.925  -0.912  -0.896  -0.879  -0.869  -0.854  -0.838
 -0.812  -0.777  -0.772  -0.748  -0.738  -0.731  -0.717  -0.711
 -0.672  -0.655  -0.648  -0.629  -0.629  -0.621  -0.606  -0.603
 -0.589  -0.576  -0.569  -0.561  -0.558  -0.546  -0.543  -0.526
 -0.512  -0.507  -0.501  -0.500  -0.493  -0.492  -0.485  -0.483
 -0.473  -0.468  -0.460  -0.459  -0.451  -0.442  -0.428  -0.427
 -0.420  -0.412  -0.395  -0.376  -0.372  -0.361  -0.358  -0.350
 -0.342  -0.339  -0.335  -0.334  -0.319  -0.266
 -- Virtual --
 -0.051  -0.027   0.025   0.031   0.042   0.052   0.069   0.073
  0.086   0.088   0.111   0.123   0.125   0.128   0.132   0.137
  0.150   0.154   0.155   0.162   0.166   0.175   0.180   0.191
  0.197   0.203   0.210   0.215   0.221   0.231   0.244   0.248
  0.258   0.267   0.268   0.276   0.278   0.290   0.291   0.295
  0.300   0.301   0.308   0.316   0.319   0.322   0.322   0.331
  0.331   0.336   0.342   0.346   0.350   0.351   0.354   0.357
  0.363   0.370   0.371   0.377   0.380   0.382   0.384   0.390
  0.393   0.394   0.398   0.402   0.404   0.407   0.410   0.413
  0.415   0.418   0.424   0.429   0.431   0.434   0.434   0.441
  0.444   0.446   0.449   0.455   0.458   0.461   0.463   0.463
  0.469   0.473   0.475   0.478   0.481   0.483   0.488   0.492
  0.495   0.497   0.503   0.507   0.510   0.514   0.516   0.519
  0.524   0.531   0.533   0.536   0.537   0.541   0.547   0.552
  0.558   0.561   0.566   0.574   0.578   0.587   0.592   0.601
  0.602   0.608   0.610   0.614   0.621   0.622   0.634   0.638
  0.640   0.642   0.651   0.656   0.662   0.665   0.666   0.667
  0.679   0.682   0.689   0.693   0.699   0.705   0.711   0.713
  0.722   0.727   0.732   0.738   0.739   0.741   0.744   0.752
  0.752   0.764   0.770   0.771   0.776   0.781   0.784   0.789
  0.791   0.800   0.801   0.805   0.811   0.818   0.821   0.826
  0.829   0.834   0.837   0.842   0.844   0.851   0.852   0.856
  0.859   0.870   0.872   0.874   0.882   0.883   0.900   0.905
  0.908   0.915   0.918   0.920   0.923   0.927   0.930   0.934
  0.941   0.946   0.950   0.957   0.958   0.961   0.965   0.970
  0.974   0.984   0.985   0.989   0.993   1.005   1.014   1.018
  1.020   1.026   1.030   1.039   1.044   1.052   1.055   1.057
  1.066   1.072   1.078   1.085   1.088   1.091   1.095   1.097
  1.100   1.106   1.108   1.117   1.120   1.124   1.130   1.136
  1.146   1.148   1.163   1.166   1.176   1.184   1.187   1.196
  1.199   1.206   1.211   1.218   1.222   1.232   1.232   1.241
  1.253   1.255   1.262   1.270   1.272   1.283   1.294   1.299
  1.301   1.307   1.317   1.329   1.334   1.346   1.353   1.355
  1.359   1.367   1.368   1.375   1.380   1.384   1.387   1.389
  1.394   1.406   1.412   1.418   1.425   1.429   1.435   1.439
  1.443   1.446   1.451   1.455   1.465   1.474   1.480   1.485
  1.488   1.492   1.500   1.508   1.510   1.514   1.519   1.526
  1.542   1.561   1.565   1.567   1.576   1.579   1.585   1.586
  1.606   1.609   1.611   1.618   1.626   1.631   1.643   1.651
  1.652   1.659   1.665   1.671   1.677   1.686   1.691   1.696
  1.700   1.703   1.715   1.723   1.727   1.734   1.743   1.750
  1.753   1.765   1.769   1.774   1.781   1.797   1.803   1.807
  1.817   1.832   1.836   1.854   1.866   1.873   1.882   1.883
  1.895   1.896   1.908   1.917   1.928   1.932   1.936   1.941
  1.949   1.968   1.979   1.985   1.989   1.998   2.000   2.010
  2.014   2.023   2.029   2.036   2.040   2.051   2.060   2.070
  2.073   2.091   2.099   2.108   2.111   2.113   2.118   2.128
  2.140   2.157   2.163   2.171   2.175   2.179   2.189   2.190
  2.200   2.209   2.215   2.220   2.223   2.243   2.247   2.254
  2.261   2.265   2.280   2.293   2.293   2.300   2.305   2.314
  2.317   2.330   2.333   2.336   2.346   2.362   2.369   2.377
  2.378   2.391   2.397   2.401   2.403   2.417   2.421   2.428
  2.439   2.442   2.451   2.453   2.456   2.462   2.463   2.473
  2.484   2.494   2.506   2.515   2.525   2.527   2.529   2.532
  2.538   2.540   2.543   2.555   2.560   2.564   2.592   2.600
  2.607   2.614   2.622   2.633   2.638   2.643   2.647   2.653
  2.657   2.666   2.670   2.684   2.686   2.694   2.707   2.716
  2.723   2.733   2.737   2.753   2.757   2.772   2.774   2.779
  2.783   2.787   2.791   2.798   2.807   2.812   2.813   2.826
  2.832   2.835   2.845   2.846   2.853   2.858   2.872   2.874
  2.879   2.889   2.894   2.910   2.911   2.919   2.929   2.933
  2.940   2.942   2.944   2.950   2.956   2.968   2.974   2.984
  2.986   2.994   2.998   3.003   3.010   3.011   3.016   3.019
  3.028   3.029   3.040   3.043   3.048   3.053   3.059   3.064
  3.068   3.069   3.073   3.076   3.078   3.082   3.085   3.089
  3.093   3.098   3.102   3.110   3.113   3.118   3.123   3.126
  3.133   3.138   3.149   3.157   3.159   3.165   3.169   3.170
  3.176   3.177   3.184   3.193   3.195   3.197   3.201   3.209
  3.211   3.217   3.219   3.223   3.227   3.232   3.235   3.238
  3.242   3.247   3.256   3.259   3.263   3.265   3.266   3.273
  3.275   3.280   3.285   3.289   3.295   3.300   3.302   3.307
  3.309   3.313   3.318   3.321   3.323   3.330   3.334   3.341
  3.350   3.354   3.362   3.366   3.372   3.382   3.389   3.396
  3.400   3.402   3.409   3.413   3.416   3.420   3.425   3.433
  3.441   3.442   3.450   3.457   3.461   3.468   3.470   3.475
  3.483   3.484   3.489   3.496   3.503   3.506   3.512   3.519
  3.523   3.528   3.534   3.555   3.563   3.564   3.573   3.580
  3.587   3.601   3.605   3.615   3.622   3.631   3.640   3.643
  3.654   3.664   3.674   3.680   3.690   3.697   3.700   3.710
  3.713   3.725   3.727   3.736   3.737   3.748   3.752   3.757
  3.768   3.773   3.779   3.788   3.792   3.800   3.804   3.809
  3.819   3.828   3.831   3.837   3.843   3.858   3.868   3.879
  3.881   3.903   3.904   3.911   3.915   3.922   3.926   3.933
  3.934   3.935   3.947   3.950   3.952   3.962   3.966   3.977
  3.982   3.989   3.993   3.999   4.017   4.022   4.029   4.036
  4.048   4.056   4.064   4.071   4.078   4.087   4.097   4.100
  4.111   4.115   4.123   4.143   4.148   4.155   4.167   4.169
  4.188   4.194   4.195   4.205   4.210   4.216   4.218   4.225
  4.227   4.238   4.243   4.251   4.260   4.264   4.267   4.278
  4.286   4.295   4.300   4.308   4.318   4.327   4.328   4.339
  4.341   4.347   4.354   4.361   4.367   4.380   4.385   4.391
  4.397   4.409   4.422   4.432   4.434   4.442   4.449   4.460
  4.469   4.478   4.488   4.502   4.515   4.520   4.523   4.533
  4.544   4.549   4.561   4.566   4.574   4.587   4.599   4.605
  4.620   4.641   4.647   4.648   4.667   4.670   4.680   4.699
  4.713   4.723   4.730   4.745   4.753   4.771   4.773   4.787
  4.795   4.807   4.809   4.816   4.826   4.838   4.844   4.856
  4.864   4.877   4.887   4.898   4.902   4.916   4.918   4.929
  4.936   4.949   4.957   4.963   4.971   4.978   4.987   4.990
  4.997   5.006   5.012   5.018   5.024   5.040   5.045   5.050
  5.057   5.072   5.077   5.091   5.096   5.104   5.112   5.124
  5.135   5.140   5.150   5.154   5.167   5.169   5.182   5.194
  5.211   5.220   5.236   5.245   5.271   5.300   5.306   5.317
  5.325   5.338   5.352   5.368   5.380   5.392   5.410   5.423
  5.447   5.465   5.474   5.488   5.493   5.498   5.527   5.541
  5.559   5.574   5.578   5.593   5.596   5.600   5.626   5.648
  5.670   5.691   5.712   5.720   5.737   5.751   5.754   5.784
  5.793   5.834   5.838   5.858   5.874   5.887   5.904   5.928
  5.950   5.966   6.001   6.041   6.087   6.114   6.149   6.170
  6.202   6.241   6.252   6.301   6.304   6.334   6.379   6.431
  6.445   6.489   6.641   6.866   6.984   7.077   8.028   8.878
  9.821  10.158  10.653  11.094  11.237  11.691  11.999  12.049
 12.377  12.636  12.754  12.798  12.849  12.963  13.064  13.220
 13.326  13.432  13.544  14.014  14.309  14.665  15.058  15.076
 --------------------------------------------------------------
 
          Ground-State Mulliken Net Atomic Charges

     Atom                 Charge (a.u.)
  ----------------------------------------
      1 C                    -0.091441
      2 C                    -0.128318
      3 C                    -0.080705
      4 C                    -0.119713
      5 N                    -0.144444
      6 C                     0.082718
      7 C                     0.103018
      8 N                    -0.176453
      9 C                    -0.011830
     10 C                    -0.071272
     11 N                    -0.219131
     12 C                     0.038888
     13 C                     0.061639
     14 S                     0.408609
     15 N                    -0.297570
     16 C                    -0.071194
     17 S                     0.185657
     18 C                     0.047904
     19 C                    -0.057361
     20 N                    -0.167919
     21 C                     0.054313
     22 C                    -0.013304
     23 C                    -0.045089
     24 N                    -0.161634
     25 C                    -0.139562
     26 S                     0.101650
     27 C                    -0.049176
     28 C                    -0.157057
     29 C                    -0.181815
     30 H                     0.132784
     31 H                     0.119368
     32 H                     0.119439
     33 H                     0.137863
     34 H                     0.129503
     35 H                     0.130899
     36 H                     0.135843
     37 H                     0.128076
     38 H                     0.130409
     39 H                     0.136409
  ----------------------------------------
  Sum of atomic charges =     0.000000

 -----------------------------------------------------------------
                    Cartesian Multipole Moments
 -----------------------------------------------------------------
    Charge (ESU x 10^10)
                 0.0000
    Dipole Moment (Debye)
         X      -0.1379      Y       1.5385      Z       0.4932
       Tot       1.6215
    Quadrupole Moments (Debye-Ang)
        XX    -151.3001     XY       4.0406     YY    -165.8756
        XZ      -1.9893     YZ       2.9359     ZZ    -185.8941
    Octopole Moments (Debye-Ang^2)
       XXX     105.7726    XXY      11.4554    XYY     -31.7835
       YYY      38.4881    XXZ     -15.6082    XYZ     -23.1591
       YYZ       8.4269    XZZ      -2.4910    YZZ      -9.5761
       ZZZ       0.2096
    Hexadecapole Moments (Debye-Ang^3)
      XXXX  -15852.1879   XXXY     564.0680   XXYY   -3492.3588
      XYYY    -152.5679   YYYY   -3263.5291   XXXZ    -227.6283
      XXYZ     129.3212   XYYZ      15.6888   YYYZ      47.5444
      XXZZ   -3453.1405   XYZZ     -28.0084   YYZZ    -707.6053
      XZZZ      33.2235   YZZZ     -10.5587   ZZZZ    -581.9163
 -----------------------------------------------------------------
 Calculating analytic gradient of the SCF energy
 K construction time:  CPU 2894.35 s  wall 183.41 s
 Gradient of SCF Energy
            1           2           3           4           5           6
    1   0.0000299   0.0000677   0.0000134  -0.0001987  -0.0000933   0.0002091
    2  -0.0001806   0.0001990   0.0001142   0.0001339   0.0001499  -0.0001050
    3  -0.0000818   0.0000888   0.0000300  -0.0005183   0.0000828   0.0008812
            7           8           9          10          11          12
    1  -0.0001564  -0.0003929   0.0001973   0.0000654  -0.0001742  -0.0001708
    2  -0.0003586   0.0003541   0.0003448  -0.0004411   0.0000903   0.0002999
    3  -0.0007513   0.0001608   0.0000782  -0.0004592  -0.0001857   0.0003472
           13          14          15          16          17          18
    1   0.0004201  -0.0001859   0.0000301  -0.0003438   0.0002984   0.0000973
    2   0.0000479  -0.0005010  -0.0001813   0.0002875   0.0004727  -0.0003008
    3   0.0005394   0.0002134  -0.0000739  -0.0005484  -0.0000539   0.0010198
           19          20          21          22          23          24
    1   0.0002061   0.0003549  -0.0001814  -0.0001923  -0.0001727   0.0000575
    2  -0.0002949  -0.0003958   0.0002333   0.0003421   0.0001951  -0.0003662
    3  -0.0004365  -0.0002803   0.0002987  -0.0002985   0.0000861  -0.0001333
           25          26          27          28          29          30
    1   0.0001657  -0.0000974   0.0001809  -0.0000184   0.0001374   0.0000049
    2  -0.0004375  -0.0000298   0.0002241   0.0000587   0.0000593  -0.0000106
    3   0.0004066  -0.0001268  -0.0000300  -0.0002631   0.0001291   0.0000784
           31          32          33          34          35          36
    1  -0.0000318   0.0000316  -0.0000243  -0.0000986   0.0000054  -0.0000934
    2  -0.0001287  -0.0000266  -0.0000396   0.0002180  -0.0000140   0.0001334
    3  -0.0000661  -0.0000399  -0.0000020  -0.0001251  -0.0001030   0.0000126
           37          38          39
    1   0.0000210   0.0000483  -0.0000162
    2  -0.0001063  -0.0000766   0.0000371
    3   0.0000643   0.0000914  -0.0000317
 Max gradient component =       1.020E-03
 RMS gradient           =       2.635E-04
 Gradient time:  CPU 3350.98 s  wall 214.46 s
 Geometry Optimization Parameters
   NAtoms,    NIC,     NZ,  NCons,   NDum,   NFix, NCnnct, MaxDiis
       39     293       0       3       0       0       0       0

 Cartesian Hessian Update
 Hessian Updated using BFGS Update


** CONSTRAINED OPTIMIZATION IN DELOCALIZED INTERNAL COORDINATES **
   Searching for a Minimum

   Optimization Cycle:   3

                       Coordinates (Angstroms)
     ATOM                X               Y               Z
      1  C         7.6411889688    0.2870335151   -0.5601315735
      2  C         6.9752119926    1.4973783406   -0.4556893950
      3  C         6.8915946133   -0.8778360130   -0.5318537947
      4  C         5.6002563125    1.4932853237   -0.3233865167
      5  N         5.5721747281   -0.8970184205   -0.4003934085
      6  C         4.9381178015    0.2677932505   -0.2921186408
      7  C         3.4589642467    0.2380428385   -0.1636444144
      8  N         2.8066536985    1.3117437068   -0.5163770310
      9  C         2.7303510192   -0.8933675917    0.3316654593
     10  C         1.4545616570    1.3778818221   -0.4531705670
     11  N         3.2093748884   -2.0503139451    0.7947826933
     12  C         1.3022580659   -0.8176599606    0.3922402146
     13  C         0.6309738937    0.3711578807   -0.0177880150
     14  S         1.9414939708   -2.9286171278    1.2310824729
     15  N         0.7341993588   -1.9212506963    0.8781993811
     16  C        -0.8151513522    0.5183451811    0.0314494661
     17  S        -1.8832560849   -0.8055331496   -0.1695832424
     18  C        -1.5596820551    1.6747009054    0.2233735264
     19  C        -3.3084126874    0.1265726343   -0.0574446323
     20  N        -1.0461626769    2.9178327851    0.4457757727
     21  C        -2.9730256331    1.4541190077    0.1793402859
     22  C        -4.6245451071   -0.4628889779   -0.1770524193
     23  C        -1.9199301871    3.8628639460    0.6052591338
     24  N        -3.8585930477    2.4741470986    0.3463574347
     25  C        -5.8088008241    0.0199734848    0.3087592480
     26  S        -4.8763265483   -1.9596772354   -1.0136478186
     27  C        -3.3325624197    3.6418810043    0.5517080031
[...]
   Point Group: c1    Number of degrees of freedom:   111


   Energy is  -2291.150240946

              Constraints and their Current Values
                                        Value     Constraint
   Dihedral:        4   6   7   8       21.822       21.822
   Dihedral:       10  13  16  17      150.000      150.000
   Dihedral:       17  19  22  25      156.395      156.395
 Hessian Updated using BFGS Update

104 Hessian modes will be used to form the next step
  Hessian Eigenvalues:
     0.010808    0.022137    0.044264    0.045000    0.045000    0.045000
     0.045000    0.045000    0.045000    0.045000    0.045000    0.045001
     0.045001    0.045001    0.045001    0.045001    0.045002    0.045002
     0.045002    0.045002    0.045003    0.045004    0.045007    0.045015
     0.045024    0.045031    0.045116    0.045914    0.046240    0.156890
     0.159778    0.159993    0.159998    0.159999    0.160000    0.160000
     0.160034    0.160277    0.160395    0.220005    0.221216    0.224022
     0.224231    0.233127    0.237569    0.242080    0.244201    0.244749
     0.247717    0.249056    0.249704    0.249955    0.249965    0.249976
     0.249986    0.249988    0.251180    0.279243    0.307353    0.313486
     0.333881    0.336328    0.339192    0.341965    0.354056    0.354473
     0.355748    0.357101    0.358658    0.359055    0.360715    0.360959
     0.364133    0.364320    0.366811    0.374782    0.386882    0.390303
     0.396488    0.404985    0.417287    0.420273    0.431838    0.437793
     0.459556    0.461270    0.473082    0.473613    0.476025    0.483414
     0.484439    0.486359    0.501982    0.508428    0.519383    0.524443
     0.533229    0.559796    0.572671    0.589470    0.637271    0.650578
     0.657642    0.666758

 Minimum Search - Taking Simple RFO Step
 Searching for Lamda that Minimizes Along All modes
 Value Taken    Lamda =   0.00000000
 Step Taken.  Stepsize is  0.002922

                             Maximum     Tolerance    Cnvgd?
         Gradient           0.000169      0.000300     YES
         Displacement       0.001148      0.001200     YES
         Energy change     -0.000001      0.000001     YES

 Final energy is   -2291.15024094578     


 ******************************
 **  OPTIMIZATION CONVERGED  **
 ******************************

                       Coordinates (Angstroms)
     ATOM                X               Y               Z
      1  C         7.6374018900    0.2731986624   -0.6015474032
      2  C         6.9814060563    1.4854341827   -0.4639544637
      3  C         6.8807111600   -0.8874302765   -0.5812731575
      4  C         5.6088620872    1.4876258037   -0.3089149789
      5  N         5.5635572920   -0.9006772399   -0.4286318385
      6  C         4.9389154508    0.2662780851   -0.2889626799
      7  C         3.4615776447    0.2423452405   -0.1423210246
      8  N         2.8098562805    1.3242694374   -0.4689347470
      9  C         2.7334561534   -0.8928446145    0.3448544930
     10  C         1.4578615044    1.3933749761   -0.3952927333
     11  N         3.2138981935   -2.0554905083    0.7916953193
     12  C         1.3064712194   -0.8125318119    0.4208636075
     13  C         0.6334811050    0.3833069538    0.0324199656
     14  S         1.9475116837   -2.9336699489    1.2314294975
     15  N         0.7399736577   -1.9189636720    0.9016445711
     16  C        -0.8133818711    0.5256181437    0.0795625749
     17  S        -1.8774298975   -0.8022865818   -0.1312749112
     18  C        -1.5642433953    1.6835480741    0.2404086189
     19  C        -3.3055536942    0.1293928974   -0.0539066187
     20  N        -1.0589121222    2.9299633201    0.4655820349
     21  C        -2.9759850278    1.4599380872    0.1722046894
     22  C        -4.6188200493   -0.4646024183   -0.1819530053
     23  C        -1.9371804616    3.8739238689    0.6017687822
     24  N        -3.8670929289    2.4795181849    0.3149904332
     25  C        -5.8104372951    0.0241645514    0.2797892894
     26  S        -4.8557443662   -1.9793404360   -0.9895509536
     27  C        -3.3481878905    3.6498201818    0.5214461031
     28  C        -6.9055661401   -0.8236965966   -0.0111263729
     29  C        -6.5405458075   -1.9452025743   -0.6862390618
     30  H         8.7099161558    0.2231496523   -0.7251246296
     31  H         7.5315588208    2.4164202878   -0.4767892830
     32  H         7.3559658228   -1.8552203951   -0.6933398352
     33  H         5.0474729475    2.4037890100   -0.2102441523
     34  H         1.0322526754    2.3357086715   -0.7050375281
     35  H        -1.5697085304    4.8771648992    0.7887846894
     36  H        -5.8820780462    0.9641290430    0.8018761068
     37  H        -4.0270222678    4.4871240368    0.6395482656
     38  H        -7.9243732549   -0.6070136736    0.2715587918
     39  H        -7.1674963647   -2.7516947226   -1.0259180295

Z-matrix Print:
$molecule
0 1
S 
C  1 1.706912
C  2 1.389278 1 109.369058
N  3 1.361618 2 125.377528 1 178.709935 0
C  4 1.296724 3 115.505974 2 -179.928909 0
H  5 1.084362 4 117.626734 3 -179.963578 0
C  5 1.430949 4 123.015756 3 0.215642 0
H  7 1.084667 5 119.248573 4 179.257103 0
N  7 1.296520 5 123.232863 4 -0.520586 0
C  9 1.363677 7 115.581095 5 0.183001 0
C  10 1.389412 9 125.491939 7 179.246077 0
C  2 1.447030 1 122.090621 3 178.625373 0
C  12 1.368229 2 127.872774 1 -156.394589 0
H  13 1.077609 12 122.208291 2 -0.961594 0
C  13 1.415206 12 112.988977 2 179.464483 0
H  15 1.079273 13 123.803979 12 179.936854 0
C  15 1.358967 13 112.873077 12 -0.088424 0
H  17 1.076512 15 128.212967 13 -179.798325 0
C  11 1.454609 10 128.522778 9 4.025903 0
C  19 1.372144 11 122.390166 10 27.432872 0
H  20 1.079388 19 119.683430 11 -0.411518 0
N  20 1.355761 19 125.347795 11 179.702725 0
C  22 1.304598 20 121.792336 19 -0.939343 0
C  19 1.426126 11 122.860612 10 -152.774172 0
N  24 1.332765 19 126.426894 11 2.012168 0
C  24 1.431263 19 120.203834 11 -179.665371 0
N  26 1.335004 24 112.948164 19 -177.539965 0
C  23 1.484791 22 117.319779 20 -178.696104 0
N  28 1.330966 23 117.593182 22 156.613094 0
C  29 1.326035 28 118.001336 23 -178.961822 0
H  30 1.083994 29 116.006572 28 179.929012 0
C  30 1.385659 29 123.537421 28 -0.063702 0
H  32 1.080770 30 120.318126 29 -179.739933 0
C  32 1.385199 30 118.225724 29 0.451240 0
H  34 1.081466 32 120.748674 30 179.828105 0
C  34 1.381274 32 118.889345 30 -0.199963 0
H  36 1.079004 34 121.911436 32 179.210201 0
S  27 1.602592 26 106.540117 24 -0.780066 0
S  17 1.712226 15 111.638882 13 0.463987 0
$end

 
 --------------------------------------------------------------
 
                    Orbital Energies (a.u.)
 --------------------------------------------------------------
 
 Alpha MOs
 -- Occupied --
-89.146 -89.099 -89.079 -14.482 -14.479 -14.462 -14.461 -14.446
-14.434 -10.355 -10.353 -10.351 -10.344 -10.344 -10.343 -10.341
-10.340 -10.338 -10.336 -10.334 -10.330 -10.329 -10.324 -10.319
-10.310 -10.301 -10.298 -10.295 -10.293  -8.156  -8.114  -8.095
 -6.106  -6.101  -6.100  -6.063  -6.059  -6.058  -6.044  -6.040
 -6.038  -1.143  -1.101  -1.069  -1.049  -1.029  -1.013  -1.003
 -0.987  -0.925  -0.912  -0.896  -0.879  -0.869  -0.854  -0.838
 -0.812  -0.777  -0.772  -0.748  -0.738  -0.731  -0.717  -0.711
 -0.672  -0.655  -0.648  -0.629  -0.629  -0.621  -0.606  -0.603
 -0.589  -0.576  -0.569  -0.561  -0.558  -0.546  -0.543  -0.526
 -0.512  -0.507  -0.501  -0.500  -0.493  -0.492  -0.485  -0.483
 -0.473  -0.467  -0.460  -0.459  -0.451  -0.442  -0.428  -0.427
 -0.420  -0.412  -0.395  -0.376  -0.372  -0.361  -0.358  -0.350
 -0.343  -0.339  -0.335  -0.334  -0.319  -0.266
 -- Virtual --
 -0.051  -0.027   0.025   0.031   0.042   0.052   0.069   0.073
  0.086   0.087   0.112   0.123   0.125   0.128   0.132   0.137
  0.150   0.153   0.155   0.162   0.166   0.175   0.180   0.191
  0.197   0.203   0.210   0.215   0.221   0.231   0.244   0.249
  0.258   0.267   0.268   0.277   0.278   0.289   0.291   0.295
  0.300   0.302   0.308   0.316   0.319   0.322   0.322   0.331
  0.331   0.336   0.342   0.346   0.350   0.351   0.355   0.357
  0.363   0.370   0.371   0.377   0.380   0.382   0.384   0.390
  0.393   0.394   0.398   0.401   0.404   0.407   0.410   0.413
  0.415   0.418   0.424   0.428   0.431   0.434   0.434   0.441
  0.444   0.446   0.449   0.455   0.458   0.461   0.463   0.463
  0.468   0.474   0.475   0.478   0.481   0.483   0.488   0.492
  0.495   0.498   0.502   0.507   0.511   0.514   0.516   0.519
  0.524   0.530   0.533   0.536   0.537   0.541   0.547   0.552
  0.558   0.561   0.566   0.574   0.578   0.588   0.592   0.601
  0.601   0.608   0.610   0.614   0.620   0.622   0.634   0.638
  0.640   0.643   0.651   0.657   0.662   0.665   0.666   0.668
  0.679   0.682   0.689   0.694   0.698   0.706   0.711   0.714
  0.722   0.727   0.732   0.739   0.739   0.741   0.745   0.752
  0.754   0.764   0.769   0.771   0.776   0.781   0.784   0.789
  0.792   0.800   0.801   0.806   0.812   0.818   0.821   0.825
  0.829   0.834   0.837   0.842   0.845   0.851   0.852   0.856
  0.859   0.870   0.873   0.874   0.882   0.883   0.901   0.905
  0.908   0.915   0.918   0.920   0.923   0.927   0.930   0.934
  0.942   0.947   0.950   0.955   0.958   0.961   0.966   0.970
  0.972   0.983   0.985   0.988   0.994   1.006   1.014   1.018
  1.020   1.026   1.030   1.039   1.044   1.053   1.055   1.057
  1.067   1.074   1.079   1.085   1.087   1.090   1.095   1.097
  1.100   1.106   1.108   1.118   1.120   1.124   1.130   1.136
  1.145   1.148   1.162   1.165   1.176   1.183   1.187   1.196
  1.201   1.206   1.213   1.218   1.223   1.231   1.232   1.241
  1.254   1.255   1.263   1.270   1.273   1.284   1.295   1.298
  1.301   1.307   1.317   1.329   1.333   1.345   1.353   1.355
  1.360   1.366   1.368   1.374   1.380   1.384   1.387   1.390
  1.394   1.406   1.412   1.418   1.425   1.429   1.435   1.440
  1.442   1.446   1.451   1.455   1.465   1.473   1.480   1.485
  1.488   1.492   1.501   1.507   1.510   1.513   1.519   1.526
  1.541   1.562   1.565   1.567   1.575   1.580   1.585   1.587
  1.606   1.609   1.610   1.619   1.627   1.631   1.642   1.651
  1.653   1.659   1.665   1.671   1.676   1.687   1.690   1.696
  1.701   1.703   1.715   1.723   1.727   1.735   1.743   1.750
  1.753   1.765   1.769   1.776   1.779   1.797   1.804   1.807
  1.817   1.832   1.835   1.854   1.866   1.873   1.882   1.883
  1.895   1.897   1.908   1.917   1.927   1.933   1.936   1.941
  1.949   1.969   1.979   1.984   1.989   1.998   2.000   2.010
  2.014   2.023   2.030   2.035   2.040   2.051   2.059   2.070
  2.072   2.092   2.098   2.107   2.111   2.113   2.118   2.128
  2.140   2.156   2.163   2.171   2.175   2.179   2.189   2.190
  2.200   2.209   2.215   2.220   2.222   2.243   2.247   2.254
  2.261   2.265   2.280   2.293   2.294   2.300   2.306   2.314
  2.317   2.330   2.333   2.336   2.346   2.362   2.368   2.377
  2.379   2.390   2.396   2.401   2.403   2.417   2.420   2.428
  2.438   2.443   2.451   2.453   2.456   2.462   2.463   2.473
  2.483   2.493   2.506   2.514   2.525   2.527   2.530   2.533
  2.537   2.541   2.542   2.555   2.560   2.564   2.592   2.599
  2.607   2.614   2.622   2.633   2.637   2.642   2.646   2.653
  2.656   2.665   2.670   2.684   2.686   2.693   2.708   2.715
  2.723   2.732   2.737   2.751   2.758   2.772   2.774   2.780
  2.783   2.788   2.791   2.797   2.806   2.813   2.813   2.826
  2.832   2.836   2.845   2.847   2.853   2.857   2.872   2.874
  2.879   2.889   2.894   2.910   2.911   2.919   2.928   2.934
  2.941   2.942   2.944   2.950   2.956   2.967   2.974   2.982
  2.986   2.994   2.997   3.002   3.010   3.011   3.016   3.019
  3.027   3.028   3.039   3.043   3.047   3.053   3.058   3.065
  3.067   3.069   3.073   3.076   3.078   3.082   3.083   3.089
  3.093   3.098   3.102   3.110   3.114   3.117   3.123   3.126
  3.133   3.136   3.149   3.157   3.159   3.165   3.168   3.170
  3.175   3.177   3.184   3.192   3.195   3.198   3.201   3.209
  3.211   3.217   3.219   3.223   3.226   3.233   3.235   3.239
  3.242   3.247   3.257   3.259   3.263   3.265   3.268   3.273
  3.275   3.280   3.285   3.289   3.295   3.299   3.302   3.307
  3.309   3.313   3.319   3.321   3.323   3.330   3.334   3.341
  3.351   3.355   3.362   3.365   3.372   3.381   3.388   3.396
  3.400   3.401   3.410   3.413   3.416   3.421   3.424   3.433
  3.441   3.443   3.449   3.457   3.461   3.467   3.470   3.474
  3.482   3.484   3.488   3.496   3.504   3.505   3.512   3.518
  3.522   3.527   3.533   3.555   3.564   3.565   3.573   3.579
  3.585   3.601   3.604   3.615   3.623   3.631   3.639   3.644
  3.654   3.665   3.674   3.680   3.689   3.696   3.699   3.710
  3.712   3.725   3.726   3.736   3.737   3.748   3.752   3.757
  3.770   3.773   3.778   3.789   3.791   3.801   3.804   3.810
  3.819   3.829   3.831   3.836   3.843   3.858   3.868   3.878
  3.883   3.903   3.904   3.912   3.914   3.922   3.926   3.932
  3.934   3.935   3.945   3.950   3.953   3.962   3.966   3.978
  3.982   3.988   3.993   3.998   4.017   4.022   4.029   4.036
  4.047   4.057   4.063   4.072   4.078   4.087   4.098   4.099
  4.111   4.115   4.123   4.143   4.149   4.155   4.167   4.169
  4.187   4.193   4.195   4.205   4.209   4.216   4.218   4.224
  4.227   4.238   4.244   4.251   4.261   4.264   4.266   4.277
  4.286   4.293   4.299   4.309   4.319   4.327   4.328   4.339
  4.340   4.348   4.354   4.361   4.367   4.380   4.384   4.390
  4.397   4.409   4.422   4.432   4.434   4.442   4.449   4.458
  4.468   4.478   4.488   4.501   4.514   4.520   4.523   4.533
  4.544   4.549   4.561   4.566   4.574   4.587   4.599   4.605
  4.620   4.641   4.646   4.648   4.667   4.670   4.679   4.698
  4.713   4.723   4.731   4.744   4.753   4.771   4.773   4.788
  4.795   4.807   4.809   4.815   4.825   4.838   4.844   4.857
  4.866   4.876   4.887   4.897   4.901   4.916   4.919   4.930
  4.936   4.949   4.958   4.963   4.972   4.978   4.986   4.990
  4.997   5.007   5.012   5.017   5.025   5.040   5.045   5.050
  5.058   5.071   5.078   5.092   5.096   5.104   5.113   5.125
  5.136   5.141   5.149   5.154   5.167   5.169   5.182   5.194
  5.211   5.220   5.236   5.244   5.271   5.300   5.306   5.317
  5.325   5.338   5.352   5.368   5.379   5.393   5.410   5.422
  5.447   5.465   5.473   5.487   5.493   5.499   5.527   5.540
  5.559   5.574   5.578   5.593   5.596   5.602   5.626   5.647
  5.670   5.691   5.712   5.720   5.737   5.751   5.753   5.783
  5.792   5.834   5.839   5.858   5.875   5.887   5.905   5.929
  5.949   5.967   6.002   6.041   6.085   6.115   6.149   6.170
  6.202   6.241   6.253   6.301   6.304   6.335   6.378   6.431
  6.445   6.488   6.642   6.866   6.984   7.076   8.030   8.878
  9.818  10.163  10.653  11.094  11.234  11.685  11.999  12.054
 12.375  12.633  12.748  12.797  12.852  12.950  13.061  13.212
 13.324  13.430  13.545  14.023  14.313  14.658  15.061  15.078
 --------------------------------------------------------------
 
          Ground-State Mulliken Net Atomic Charges

     Atom                 Charge (a.u.)
  ----------------------------------------
      1 C                    -0.091739
      2 C                    -0.127955
      3 C                    -0.080750
      4 C                    -0.119783
      5 N                    -0.144851
      6 C                     0.082701
      7 C                     0.103000
      8 N                    -0.176689
      9 C                    -0.012340
     10 C                    -0.071311
     11 N                    -0.219015
     12 C                     0.038670
     13 C                     0.061803
     14 S                     0.408310
     15 N                    -0.297613
     16 C                    -0.069289
     17 S                     0.184158
     18 C                     0.046732
     19 C                    -0.058711
     20 N                    -0.168398
     21 C                     0.056082
     22 C                    -0.012721
     23 C                    -0.044871
     24 N                    -0.161611
     25 C                    -0.139186
     26 S                     0.101645
     27 C                    -0.048696
     28 C                    -0.157258
     29 C                    -0.181718
     30 H                     0.132823
     31 H                     0.119272
     32 H                     0.119664
     33 H                     0.137771
     34 H                     0.130014
     35 H                     0.130945
     36 H                     0.136091
     37 H                     0.128006
     38 H                     0.130345
     39 H                     0.136475
  ----------------------------------------
  Sum of atomic charges =     0.000000

 -----------------------------------------------------------------
                    Cartesian Multipole Moments
 -----------------------------------------------------------------
    Charge (ESU x 10^10)
                 0.0000
    Dipole Moment (Debye)
         X      -0.1519      Y       1.5309      Z       0.4544
       Tot       1.6041
    Quadrupole Moments (Debye-Ang)
        XX    -151.1001     XY       3.8637     YY    -165.7480
        XZ      -2.1089     YZ       2.8931     ZZ    -186.0192
    Octopole Moments (Debye-Ang^2)
       XXX     104.4556    XXY      11.8899    XYY     -33.5539
       YYY      38.4766    XXZ     -19.2217    XYZ     -22.5017
       YYZ       6.8344    XZZ      -1.5527    YZZ      -9.6456
       ZZZ      -3.3885
    Hexadecapole Moments (Debye-Ang^3)
      XXXX  -15840.4849   XXXY     563.6587   XXYY   -3487.3176
      XYYY    -147.4884   YYYY   -3280.8929   XXXZ    -237.1462
      XXYZ     131.3035   XYYZ      18.5972   YYYZ      46.7488
      XXZZ   -3449.5458   XYZZ     -26.0557   YYZZ    -712.2848
      XZZZ      39.1286   YZZZ     -10.8520   ZZZZ    -578.4987
 -----------------------------------------------------------------
Archival summary:
1\1\mn251\OPT\ProcedureUnspecified\BasisUnspecified\362010\afmv_a\SunJun1822:41:212017SunJun1822:41:212017\0\\#,OPT,ProcedureUnspecified,BasisUnspecified,\\0,1\S\C,1,1.70691\C,2,1.38928,1,109.369\N,3,1.36162,2,125.378,1,178.71,0\C,4,1.29672,3,115.506,2,-179.929,0\H,5,1.08436,4,117.627,3,-179.964,0\C,5,1.43095,4,123.016,3,0.215642,0\H,7,1.08467,5,119.249,4,179.257,0\N,7,1.29652,5,123.233,4,-0.520586,0\C,9,1.36368,7,115.581,5,0.183001,0\C,10,1.38941,9,125.492,7,179.246,0\C,2,1.44703,1,122.091,3,178.625,0\C,12,1.36823,2,127.873,1,-156.395,0\H,13,1.07761,12,122.208,2,-0.961594,0\C,13,1.41521,12,112.989,2,179.464,0\H,15,1.07927,13,123.804,12,179.937,0\C,15,1.35897,13,112.873,12,-0.0884237,0\H,17,1.07651,15,128.213,13,-179.798,0\C,11,1.45461,10,128.523,9,4.0259,0\C,19,1.37214,11,122.39,10,27.4329,0\H,20,1.07939,19,119.683,11,-0.411518,0\N,20,1.35576,19,125.348,11,179.703,0\C,22,1.3046,20,121.792,19,-0.939343,0\C,19,1.42613,11,122.861,10,-152.774,0\N,24,1.33276,19,126.427,11,2.01217,0\C,24,1.43126,19,120.204,11,-179.665,0\N,26,1.335,24,112.948,19,-177.54,0\C,23,1.48479,22,117.32,20,-178.696,0\N,28,1.33097,23,117.593,22,156.613,0\C,29,1.32604,28,118.001,23,-178.962,0\H,30,1.08399,29,116.007,28,179.929,0\C,30,1.38566,29,123.537,28,-0.0637016,0\H,32,1.08077,30,120.318,29,-179.74,0\C,32,1.3852,30,118.226,29,0.45124,0\H,34,1.08147,32,120.749,30,179.828,0\C,34,1.38127,32,118.889,30,-0.199963,0\H,36,1.079,34,121.911,32,179.21,0\S,27,1.60259,26,106.54,24,-0.780066,0\S,17,1.71223,15,111.639,13,0.463987,0\\\@

 Total job time:  6513.24s(wall), 97148.49s(cpu) 
 Sun Jun 18 22:41:21 2017

        *************************************************************
        *                                                           *
        *  Thank you very much for using Q-Chem.  Have a nice day.  *
        *                                                           *
        *************************************************************


