
Running Job 1 of 1 C169_2/C169_120.qcin
qchem C169_2/C169_120.qcin_44946.0 /tmpu/cab_g/afmv_a/scratch_qchem/qchem44946/ 1
/tmpu/appuserlic/qchem4.4/serial-multicore/exe/qcprog.exe_s C169_2/C169_120.qcin_44946.0 /tmpu/cab_g/afmv_a/scratch_qchem/qchem44946/
Check license passed

                  Welcome to Q-Chem
     A Quantum Leap Into The Future Of Chemistry


 Q-Chem 4.4, Q-Chem, Inc., Pleasanton, CA (2016)

 Y. Shao,  Z. Gan,  E. Epifanovsky,  A. T. B. Gilbert,  M. Wormit,  
 J. Kussmann,  A. W. Lange,  A. Behn,  J. Deng,  X. Feng,  D. Ghosh,  
 M. Goldey,  P. R. Horn,  L. D. Jacobson,  I. Kaliman,  F. Rob,  
 R. Z. Khaliullin,  T. Kus,  A. Landau,  J. Liu,  E. I. Proynov,  Y. M. Rhee,  
 R. M. Richard,  M. A. Rohrdanz,  R. P. Steele,  E. J. Sundstrom,  
 H. L. Woodcock III,  P. M. Zimmerman,  D. Zuev,  B. Albrecht,  E. Alguire,  
 B. Austin,  S. A. Baeppler,  G. J. O. Beran,  Y. A. Bernard,  E. Berquist,  
 K. Brandhorst,  K. B. Bravaya,  S. T. Brown,  D. Casanova,  C.-M. Chang,  
 Y. Chen,  S. H. Chien,  K. D. Closser,  M. P. Coons,  D. L. Crittenden,  
 S. Dasgupta,  M. Diedenhofen,  R. A. DiStasio Jr.,  H. Do,  A. D. Dutoi,  
 R. G. Edgar,  P.-T. Fang,  S. Fatehi,  Q. Feng,  L. Fusti-Molnar,  
 A. Ghysels,  A. Golubeva-Zadorozhnaya,  J. Gomes,  A. Gunina,  
 M. W. D. Hanson-Heine,  P. H. P. Harbach,  A. W. Hauser,  J. E. Herr,  
 E. G. Hohenstein,  Z. C. Holden,  K. Hui,  T.-C. Jagau,  H. Ji,  B. Kaduk,  
 K. Khistyaev,  Jaehoon Kim,  Jihan Kim,  R. A. King,  P. Klunzinger,  
 K. Koh,  D. Kosenkov,  T. Kowalczyk,  C. M. Krauter,  A. Kunitsa,  
 K. U. Lao,  A. Laurent,  K. V. Lawler,  J. Lee,  D. Lefrancois,  S. Lehtola,  
 S. V. Levchenko,  C. Y. Lin,  Y.-S. Lin,  F. Liu,  E. Livshits,  
 R. C. Lochan,  A. Luenser,  P. Manohar,  S. F. Manzer,  S.-P. Mao,  Y. Mao,  
 N. Mardirossian,  A. V. Marenich,  L. A. Martinez-Martinez,  S. A. Maurer,  
 N. J. Mayhall,  J.-M. Mewes,  A. F. Morrison,  K. Nanda,  T. S. Nguyen-Beck,  
 C. M. Oana,  R. Olivares-Amaya,  D. P. O'Neill,  J. A. Parkhill,  
 T. M. Perrine,  R. Peverati,  P. A. Pieniazek,  F. Plasser,  A. Prociuk,  
 D. R. Rehn,  E. Rosta,  N. J. Russ,  N. Sergueev,  S. M. Sharada,  
 S. Sharma,  D. W. Small,  A. Sodt,  T. Stauch,  T. Stein,  D. Stuck,  
 Y.-C. Su,  A. J. W. Thom,  T. Tsuchimochi,  L. Vogt,  O. Vydrov,  T. Wang,  
 M. A. Watson,  J. Wenzel,  A. White,  C. F. Williams,  V. Vanovschi,  
 K. Yao,  S. Yeganeh,  S. R. Yost,  Z.-Q. You,  I. Y. Zhang,  X. Zhang,  
 Y. Zhao,  B. R. Brooks,  G. K. L. Chan,  D. M. Chipman,  C. J. Cramer,  
 W. A. Goddard III,  M. S. Gordon,  W. J. Hehre,  A. Klamt,  
 H. F. Schaefer III,  M. W. Schmidt,  C. D. Sherrill,  D. G. Truhlar,  
 A. Warshel,  X. Xu,  A. Aspuru-Guzik,  R. Baer,  A. T. Bell,  N. A. Besley,  
 J.-D. Chai,  A. Dreuw,  B. D. Dunietz,  T. R. Furlani,  S. R. Gwaltney,  
 C.-P. Hsu,  Y. Jung,  J. Kong,  D. S. Lambrecht,  W. Liang,  C. Ochsenfeld,  
 V. A. Rassolov,  L. V. Slipchenko,  J. E. Subotnik,  T. Van Voorhis,  
 J. M. Herbert,  A. I. Krylov,  P. M. W. Gill,  M. Head-Gordon

 Contributors to earlier versions of Q-Chem not listed above: 
 R. D. Adamson,  J. Baker,  E. F. C. Byrd,  A. K. Chakraborty,  C.-L. Cheng,  
 H. Dachsel,  R. J. Doerksen,  G. Hawkins,  A. Heyden,  S. Hirata,  
 G. Kedziora,  F. J. Keil,  C. Kelley,  P. P. Korambath,  W. Kurlancheek,  
 A. M. Lee,  M. S. Lee,  D. Liotard,  I. Lotan,  P. E. Maslen,  N. Nair,  
 D. Neuhauser,  R. Olson,  B. Peters,  J. Ritchie,  N. E. Schultz,  
 N. Shenvi,  A. C. Simmonett,  K. S. Thanthiriwatte,  Q. Wu,  W. Zhang

 Please cite Q-Chem as follows:
 Y. Shao et al., Mol. Phys. 113, 184-215 (2015)
 DOI: 10.1080/00268976.2014.952696

 Q-Chem 4.4.2 for Intel X86 Linux

 Parts of Q-Chem use Armadillo 5.200.1 (Boston Tea Smuggler).
 http://arma.sourceforge.net/

 Q-Chem begins on Sun Jun 18 01:28:26 2017  

Host: 
0

     Scratch files written to /tmpu/cab_g/afmv_a/scratch_qchem/qchem44946//
 Dec716 11556_ 22328  22283 4050   
Processing $rem in /tmpu/appuserlic/qchem4.4/serial-multicore/config/preferences.
 MEM_TOTAL  2000 
FILE_GEOM_ORG=        593

Checking the input file for inconsistencies... 	...done.

--------------------------------------------------------------
User input:
--------------------------------------------------------------
$comment
OPTIMIZATION
$end

$rem
JOBTYPE OPT
EXCHANGE omegaB97X-D
BASIS cc-pVTZ
$end

$molecule
0 1
C          0.00000        0.00000        0.00000
C         -0.65396       -1.22126       -0.00000
C          1.38563        0.00000        0.00000
C          0.09526       -2.37957        0.00866
N          2.11912       -1.10562        0.01199
C          1.48546       -2.27640        0.02149
C          2.30642       -3.51253        0.03449
N          1.74513       -4.60745       -0.39909
C          3.65824       -3.56714        0.50995
C          2.40434       -5.79109       -0.42442
N          4.38617       -2.58332        1.04242
C          4.35289       -4.81920        0.47143
C          3.70163       -5.99343       -0.01477
S          5.80914       -3.21778        1.41887
N          5.59255       -4.74484        0.95148
C          4.33823       -7.30129       -0.04468
S          5.75509       -7.62463       -0.96380
C          3.96804       -8.46771        0.62525
C          5.86338       -9.26744       -0.51862
N          2.90230       -8.60497        1.46293
C          4.83203       -9.57683        0.36002
C          6.91133      -10.13468       -1.00758
C          2.73443       -9.78304        1.97906
N          4.62484      -10.79923        0.91949
C          7.38614      -11.28300       -0.43572
S          7.74736       -9.80595       -2.49146
C          3.59748      -10.88842        1.70719
C          8.42605      -11.88558       -1.18322
C          8.73155      -11.19585       -2.31409
H         -0.54853        0.93120        0.00000
H         -1.73532       -1.26909       -0.00410
H          1.93662        0.93286       -0.01167
H         -0.36319       -3.35650        0.00329
H          1.82722       -6.62671       -0.78554
H          1.88878       -9.91718        2.64528
H          6.98591      -11.67241        0.48515
H          3.40348      -11.84975        2.17035
H          8.92664      -12.79340       -0.88269
H          9.47632      -11.43365       -3.05417
$end

$opt
CONSTRAINT
tors 4 6 7 8 21.82164
tors 10 13 16 17 120.00000
tors 17 19 22 25 156.39459
ENDCONSTRAINT
$end
--------------------------------------------------------------
 ----------------------------------------------------------------
             Standard Nuclear Orientation (Angstroms)
    I     Atom           X                Y                Z
 ----------------------------------------------------------------
    1      C       7.6214857771     0.1904313573    -0.8954848355
    2      C       6.9041296705     1.3338210061    -1.2072539755
    3      C       6.9232018059    -0.9153128288    -0.4375549421
    4      C       5.5345241068     1.3282201021    -1.0422179499
    5      N       5.6070434469    -0.9341012442    -0.2704588800
    6      C       4.9237349556     0.1704648828    -0.5626304575
    7      C       3.4517242563     0.1486198918    -0.3758980398
    8      N       2.7501451244     1.0138129214    -1.0549529935
    9      C       2.7739174999    -0.7488855447     0.5137781758
   10      C       1.4005933361     1.0819606201    -0.9536171939
   11      N       3.3067311507    -1.6585985276     1.3322157608
   12      C       1.3464591384    -0.6784563068     0.6090619890
   13      C       0.6166705559     0.2819116575    -0.1554300766
   14      S       2.0855312363    -2.3497425556     2.1068695005
   15      N       0.8362188980    -1.5506110741     1.4760886823
   16      C      -0.8284578584     0.4298421159    -0.0756028042
   17      S      -1.9168058521    -0.8329372257    -0.4971589318
   18      C      -1.5710007726     1.5351074956     0.3408115549
   19      C      -3.3326140574     0.0603983948    -0.1713134968
   20      N      -1.0630526376     2.7258122440     0.7657359384
   21      C      -2.9852247967     1.3244809206     0.2900207787
   22      C      -4.6558408077    -0.4923415959    -0.3527956492
   23      C      -1.9337965777     3.6259109326     1.1034440670
   24      N      -3.8695744110     2.2925067455     0.6520261642
   25      C      -5.8190680834    -0.1022590652     0.2520556899
   26      S      -4.9521897544    -1.8057551754    -1.4464278997
   27      C      -3.3450426031     3.4119879061     1.0463902460
   28      C      -6.9386909202    -0.8667238429    -0.1545276615
   29      C      -6.6209052734    -1.8265480600    -1.0631939559
   30      H       8.6961809573     0.1542561223    -1.0038371448
   31      H       7.4076424125     2.2197735112    -1.5722293799
   32      H       7.4439868541    -1.8335256826    -0.1933786998
   33      H       4.9275240778     2.1895133324    -1.2752896140
   34      H       0.9369334532     1.8512112290    -1.5494434664
   35      H      -1.5522096585     4.5840514463     1.4400814530
   36      H      -5.8538630111     0.7125390301     0.9554184233
   37      H      -4.0224180106     4.2055378175     1.3426159201
   38      H      -7.9374205856    -0.7071874954     0.2224776310
   39      H      -7.2783036781    -2.5387376945    -1.5317693087
 ----------------------------------------------------------------
 Molecular Point Group                 C1    NOp =  1
 Largest Abelian Subgroup              C1    NOp =  1
 Nuclear Repulsion Energy =  2919.8333178694 hartrees
 There are      110 alpha and      110 beta electrons
 Requested basis set is cc-pVTZ
 There are 356 shells and 1022 basis functions

 Total QAlloc Memory Limit   2000 MB
 Mega-Array Size        61 MB
 MEM_STATIC part        62 MB
 A cutoff of  1.0D-11 yielded  30884 shell pairs
 There are    243296 function pairs (    317418 Cartesian)
 
 -------------------------------------------------------
 OpenMP Integral Computing Module                       
 Release: version 1.0, May 2013, Q-Chem Inc. Pittsburgh 
 -------------------------------------------------------
 Integral Job Info:
 Integral job number is                      11
 Integral operator is                         1
 short-range coefficients              22203600
 long-range coefficients              100000000
 Omega coefficients                         200
 if combine SR and LR in K                    1
 Integral screening is                        0
 Integral computing path is                   2
 max size of driver memory is            800000
 size of driver memory is                776718
 size of scratch memory is             26248924
 max col of scratch BK array              10000
 max len of scratch array in speh3          662
 max len of scratch index in speh4           32
 max int batch size is                      520
 min int batch size is                       52
 fixed nKL is                                52
 max L of basis functions is                  3
 order of int derivative is                   0
 number of shells is                        356
 number of basis is                        1177
 number of cartesian basis is              1177
 number of contracted shell pairs         30884
 number of primitive shell pairs          93447
 maxK2 (contraction) of shell pair          121
 max number of K2 of shell pair               1
 max number of CS2 of shell pair           4296
 max number of PS2 of shell pair          13055
 mem total for path MDJ                  836024
 -------------------------------------------------------
 Smallest overlap matrix eigenvalue = 3.09E-05

 Scale SEOQF with 1.000000e-02/1.000000e-01/1.000000e-01

 Standard Electronic Orientation quadrupole field applied
 Nucleus-field energy     =     0.0000000323 hartrees
 Guess from superposition of atomic densities
 Warning:  Energy on first SCF cycle will be non-variational
 Long-range K will be added via erf
 Coulomb attenuation parameter = 0.2 bohr**(-1)
 A restricted hybrid HF-DFT SCF calculation will be
 performed using Pulay DIIS extrapolation
 Exchange:     0.2220 Hartree-Fock + 1.0000 wB97X-D + LR-HF
 Correlation:  1.0000 wB97X-D
 Using SG-2 standard quadrature grid
 Dispersion:   Grimme D
 SCF converges when DIIS error is below 1.0E-08
 using 16 threads for integral computing 
 using 16 threads for integral computing 
 K construction time:  CPU 70.23 s  wall 4.63 s
 -------------------------------------------------------
 OpenMP BLAS3 based DFT computing Module                
 Release: version 1.0, May 2013, Q-Chem Inc. Pittsburgh 
 -------------------------------------------------------
 ---------------------------------------
  Cycle       Energy         DIIS Error
 ---------------------------------------
    1   -2301.3921253388      1.83E-02
 K construction time:  CPU 1090.83 s  wall 72.26 s
    2   -2290.8954610361      1.34E-03
 K construction time:  CPU 1036.49 s  wall 68.63 s
    3   -2290.9336048154      1.34E-03
 K construction time:  CPU 991.49 s  wall 65.57 s
    4   -2291.1402734616      1.92E-04
 K construction time:  CPU 909.88 s  wall 60.21 s
    5   -2291.1444435716      1.05E-04
 K construction time:  CPU 861.02 s  wall 57.00 s
    6   -2291.1457640084      4.03E-05
 K construction time:  CPU 798.89 s  wall 53.00 s
    7   -2291.1459694524      1.69E-05
 K construction time:  CPU 747.55 s  wall 49.50 s
    8   -2291.1460152303      5.37E-06
 K construction time:  CPU 721.52 s  wall 47.73 s
    9   -2291.1460257700      3.48E-06
 K construction time:  CPU 676.18 s  wall 44.76 s
   10   -2291.1460290762      1.19E-06
 K construction time:  CPU 612.56 s  wall 40.50 s
   11   -2291.1460295578      7.44E-07
 K construction time:  CPU 572.89 s  wall 37.82 s
   12   -2291.1460297040      2.10E-07
 K construction time:  CPU 507.94 s  wall 33.43 s
   13   -2291.1460297185      1.08E-07
 K construction time:  CPU 442.47 s  wall 29.20 s
   14   -2291.1460297205      3.19E-08
 K construction time:  CPU 373.32 s  wall 24.50 s
   15   -2291.1460297217      1.57E-08
 K construction time:  CPU 1096.32 s  wall 72.57 s
   16   -2291.1460297210      4.81E-09 Convergence criterion met
 ---------------------------------------
 SCF time:  CPU 15408.06 s  wall 1046.17 s
 SCF   energy in the final basis set = -2291.1460297210
 Total energy in the final basis set = -2291.1460297210
 
 --------------------------------------------------------------
 
                    Orbital Energies (a.u.)
 --------------------------------------------------------------
 
 Alpha MOs
 -- Occupied --
-89.145 -89.101 -89.079 -14.481 -14.477 -14.460 -14.459 -14.448
-14.436 -10.357 -10.355 -10.351 -10.345 -10.342 -10.342 -10.340
-10.340 -10.338 -10.336 -10.335 -10.334 -10.330 -10.325 -10.319
-10.311 -10.303 -10.300 -10.295 -10.292  -8.156  -8.115  -8.095
 -6.106  -6.100  -6.100  -6.064  -6.061  -6.059  -6.044  -6.040
 -6.037  -1.142  -1.099  -1.071  -1.051  -1.027  -1.011  -1.002
 -0.986  -0.925  -0.913  -0.897  -0.879  -0.869  -0.854  -0.838
 -0.812  -0.778  -0.770  -0.748  -0.739  -0.730  -0.720  -0.711
 -0.672  -0.654  -0.646  -0.630  -0.629  -0.621  -0.605  -0.603
 -0.592  -0.577  -0.570  -0.562  -0.559  -0.545  -0.542  -0.527
 -0.513  -0.506  -0.502  -0.502  -0.494  -0.492  -0.486  -0.481
 -0.473  -0.468  -0.461  -0.455  -0.450  -0.438  -0.427  -0.425
 -0.422  -0.410  -0.395  -0.376  -0.368  -0.364  -0.359  -0.350
 -0.342  -0.338  -0.336  -0.333  -0.315  -0.273
 -- Virtual --
 -0.046  -0.032   0.026   0.031   0.040   0.056   0.065   0.071
  0.086   0.086   0.099   0.122   0.124   0.128   0.132   0.138
  0.146   0.149   0.154   0.158   0.164   0.175   0.177   0.190
  0.194   0.199   0.212   0.216   0.217   0.227   0.241   0.246
  0.256   0.263   0.268   0.272   0.278   0.288   0.290   0.296
  0.299   0.300   0.310   0.314   0.316   0.319   0.322   0.328
  0.330   0.335   0.342   0.345   0.346   0.348   0.353   0.356
  0.362   0.364   0.372   0.374   0.378   0.381   0.383   0.390
  0.391   0.394   0.397   0.400   0.402   0.406   0.408   0.410
  0.416   0.420   0.425   0.430   0.432   0.432   0.434   0.438
  0.441   0.447   0.450   0.455   0.458   0.459   0.460   0.463
  0.469   0.471   0.474   0.475   0.478   0.482   0.487   0.489
  0.492   0.496   0.498   0.503   0.509   0.512   0.519   0.521
  0.523   0.525   0.532   0.536   0.539   0.540   0.545   0.552
  0.553   0.560   0.565   0.570   0.576   0.581   0.589   0.598
  0.601   0.606   0.609   0.611   0.614   0.621   0.625   0.634
  0.638   0.641   0.646   0.654   0.658   0.661   0.665   0.668
  0.677   0.682   0.683   0.688   0.696   0.705   0.708   0.708
  0.712   0.722   0.729   0.732   0.735   0.736   0.744   0.745
  0.753   0.763   0.766   0.767   0.769   0.778   0.780   0.786
  0.789   0.791   0.798   0.801   0.805   0.810   0.814   0.824
  0.827   0.835   0.836   0.839   0.843   0.847   0.850   0.855
  0.861   0.864   0.871   0.877   0.879   0.884   0.891   0.896
  0.899   0.912   0.914   0.919   0.925   0.927   0.934   0.937
  0.938   0.940   0.946   0.953   0.955   0.958   0.967   0.969
  0.974   0.984   0.988   0.991   0.995   0.999   1.002   1.017
  1.019   1.020   1.028   1.037   1.039   1.044   1.053   1.056
  1.062   1.065   1.075   1.078   1.083   1.088   1.094   1.097
  1.100   1.105   1.109   1.110   1.121   1.125   1.129   1.144
  1.144   1.151   1.163   1.170   1.174   1.181   1.184   1.194
  1.197   1.211   1.215   1.223   1.224   1.228   1.236   1.242
  1.245   1.253   1.258   1.264   1.274   1.284   1.292   1.296
  1.308   1.315   1.324   1.328   1.337   1.342   1.352   1.356
  1.360   1.365   1.373   1.377   1.378   1.383   1.388   1.394
  1.403   1.405   1.407   1.411   1.423   1.427   1.430   1.434
  1.444   1.446   1.451   1.458   1.467   1.472   1.475   1.484
  1.487   1.495   1.496   1.500   1.508   1.510   1.518   1.522
  1.543   1.561   1.564   1.569   1.572   1.578   1.584   1.595
  1.598   1.609   1.613   1.616   1.625   1.634   1.639   1.649
  1.650   1.658   1.663   1.666   1.671   1.678   1.686   1.693
  1.695   1.704   1.713   1.721   1.731   1.741   1.743   1.749
  1.750   1.761   1.766   1.774   1.779   1.790   1.799   1.807
  1.818   1.828   1.842   1.845   1.860   1.870   1.878   1.886
  1.892   1.893   1.910   1.913   1.924   1.926   1.937   1.944
  1.950   1.965   1.975   1.979   1.981   1.989   2.003   2.010
  2.015   2.020   2.030   2.039   2.045   2.054   2.058   2.070
  2.074   2.084   2.094   2.105   2.108   2.115   2.117   2.127
  2.134   2.146   2.161   2.172   2.175   2.179   2.187   2.192
  2.202   2.207   2.213   2.217   2.239   2.245   2.247   2.254
  2.266   2.271   2.277   2.287   2.291   2.295   2.299   2.309
  2.310   2.314   2.333   2.337   2.346   2.352   2.363   2.374
  2.377   2.382   2.396   2.397   2.407   2.410   2.415   2.429
  2.436   2.440   2.447   2.455   2.458   2.462   2.471   2.476
  2.487   2.489   2.494   2.511   2.522   2.523   2.529   2.530
  2.534   2.539   2.542   2.549   2.561   2.573   2.582   2.586
  2.612   2.618   2.622   2.624   2.634   2.645   2.648   2.652
  2.661   2.668   2.672   2.683   2.686   2.695   2.700   2.713
  2.726   2.732   2.741   2.747   2.757   2.772   2.774   2.776
  2.781   2.787   2.796   2.803   2.812   2.814   2.819   2.821
  2.833   2.838   2.844   2.851   2.853   2.858   2.867   2.875
  2.880   2.886   2.893   2.905   2.913   2.917   2.927   2.932
  2.935   2.942   2.945   2.950   2.960   2.968   2.969   2.977
  2.986   2.993   3.001   3.006   3.010   3.013   3.016   3.020
  3.026   3.031   3.038   3.043   3.047   3.055   3.059   3.065
  3.067   3.070   3.072   3.075   3.079   3.080   3.085   3.092
  3.095   3.101   3.104   3.108   3.114   3.116   3.122   3.128
  3.137   3.140   3.144   3.152   3.154   3.161   3.164   3.167
  3.174   3.181   3.184   3.191   3.195   3.197   3.201   3.202
  3.210   3.215   3.218   3.220   3.230   3.231   3.236   3.238
  3.241   3.248   3.254   3.257   3.260   3.263   3.269   3.274
  3.276   3.277   3.282   3.288   3.295   3.298   3.301   3.303
  3.310   3.313   3.318   3.324   3.328   3.331   3.334   3.339
  3.344   3.352   3.359   3.370   3.377   3.384   3.387   3.391
  3.396   3.402   3.408   3.416   3.423   3.425   3.426   3.434
  3.437   3.439   3.452   3.453   3.463   3.468   3.473   3.476
  3.481   3.483   3.492   3.495   3.504   3.506   3.516   3.523
  3.531   3.534   3.536   3.549   3.555   3.562   3.569   3.577
  3.587   3.598   3.608   3.611   3.618   3.624   3.634   3.638
  3.650   3.663   3.668   3.686   3.691   3.699   3.701   3.713
  3.715   3.719   3.722   3.732   3.735   3.744   3.751   3.755
  3.765   3.770   3.778   3.786   3.795   3.799   3.806   3.810
  3.819   3.821   3.829   3.840   3.851   3.856   3.866   3.877
  3.880   3.899   3.903   3.907   3.919   3.921   3.926   3.928
  3.932   3.937   3.940   3.948   3.952   3.962   3.965   3.972
  3.979   3.984   3.993   4.003   4.009   4.018   4.030   4.042
  4.046   4.048   4.056   4.064   4.075   4.079   4.092   4.100
  4.107   4.113   4.120   4.126   4.143   4.153   4.160   4.167
  4.182   4.186   4.193   4.198   4.207   4.216   4.218   4.220
  4.228   4.240   4.243   4.247   4.250   4.266   4.268   4.288
  4.293   4.295   4.302   4.309   4.313   4.320   4.327   4.340
  4.341   4.347   4.350   4.361   4.367   4.376   4.379   4.388
  4.396   4.408   4.410   4.422   4.437   4.441   4.448   4.458
  4.470   4.481   4.489   4.499   4.514   4.519   4.531   4.540
  4.550   4.556   4.562   4.566   4.583   4.592   4.593   4.605
  4.612   4.632   4.642   4.648   4.668   4.673   4.687   4.703
  4.708   4.714   4.722   4.752   4.759   4.764   4.771   4.780
  4.798   4.803   4.808   4.810   4.831   4.837   4.842   4.852
  4.861   4.877   4.880   4.895   4.899   4.914   4.920   4.928
  4.938   4.946   4.955   4.959   4.972   4.980   4.985   4.990
  4.991   5.003   5.009   5.014   5.026   5.034   5.038   5.047
  5.055   5.058   5.071   5.082   5.090   5.098   5.109   5.120
  5.130   5.140   5.146   5.153   5.162   5.167   5.182   5.195
  5.210   5.214   5.231   5.244   5.275   5.300   5.304   5.314
  5.322   5.335   5.348   5.362   5.367   5.386   5.398   5.421
  5.442   5.464   5.466   5.485   5.492   5.501   5.527   5.543
  5.562   5.573   5.575   5.588   5.592   5.599   5.623   5.646
  5.669   5.680   5.710   5.721   5.735   5.747   5.758   5.777
  5.790   5.831   5.835   5.860   5.872   5.881   5.896   5.918
  5.948   5.954   5.984   6.042   6.093   6.094   6.131   6.166
  6.195   6.235   6.243   6.280   6.290   6.317   6.375   6.431
  6.442   6.486   6.626   6.842   6.989   7.071   7.938   8.769
  9.804  10.131  10.625  11.055  11.250  11.703  11.979  12.004
 12.343  12.619  12.753  12.756  12.846  12.904  13.074  13.261
 13.295  13.423  13.528  13.660  14.289  14.609  15.038  15.069
 --------------------------------------------------------------
 
          Ground-State Mulliken Net Atomic Charges

     Atom                 Charge (a.u.)
  ----------------------------------------
      1 C                    -0.090933
      2 C                    -0.128378
      3 C                    -0.079392
      4 C                    -0.117894
      5 N                    -0.143570
      6 C                     0.079767
      7 C                     0.112140
      8 N                    -0.176120
      9 C                    -0.010675
     10 C                    -0.055440
     11 N                    -0.222547
     12 C                     0.040531
     13 C                     0.025160
     14 S                     0.409568
     15 N                    -0.277394
     16 C                    -0.089215
     17 S                     0.191252
     18 C                     0.034337
     19 C                    -0.048645
     20 N                    -0.146098
     21 C                     0.048105
     22 C                    -0.015513
     23 C                    -0.049263
     24 N                    -0.163191
     25 C                    -0.139690
     26 S                     0.099938
     27 C                    -0.050253
     28 C                    -0.156626
     29 C                    -0.182040
     30 H                     0.133492
     31 H                     0.119749
     32 H                     0.120596
     33 H                     0.138783
     34 H                     0.127693
     35 H                     0.131228
     36 H                     0.136751
     37 H                     0.127241
     38 H                     0.130215
     39 H                     0.136329
  ----------------------------------------
  Sum of atomic charges =     0.000000

 -----------------------------------------------------------------
                    Cartesian Multipole Moments
 -----------------------------------------------------------------
    Charge (ESU x 10^10)
                 0.0000
    Dipole Moment (Debye)
         X       0.1468      Y       1.5483      Z       0.1670
       Tot       1.5642
    Quadrupole Moments (Debye-Ang)
        XX    -150.4868     XY       4.3261     YY    -169.4312
        XZ      -4.8079     YZ       2.6933     ZZ    -182.5743
    Octopole Moments (Debye-Ang^2)
       XXX     111.6819    XXY       5.5717    XYY     -24.0802
       YYY      38.5863    XXZ     -36.0646    XYZ     -43.8554
       YYZ      16.7169    XZZ      -2.1335    YZZ      -4.8445
       ZZZ      21.4346
    Hexadecapole Moments (Debye-Ang^3)
      XXXX  -15980.1392   XXXY     523.4571   XXYY   -3473.3927
      XYYY    -139.7550   YYYY   -2721.4805   XXXZ    -335.4911
      XXYZ      79.5833   XYYZ     -17.0963   YYYZ      67.0211
      XXZZ   -3489.1236   XYZZ      -6.5484   YYZZ    -653.6928
      XZZZ      63.5123   YZZZ     -24.4864   ZZZZ   -1263.4552
 -----------------------------------------------------------------
 Calculating analytic gradient of the SCF energy
 K construction time:  CPU 2666.01 s  wall 169.07 s
 Gradient of SCF Energy
            1           2           3           4           5           6
    1   0.0002660  -0.0017246   0.0007055   0.0017883   0.0004250  -0.0022621
    2  -0.0002357  -0.0005830   0.0000351   0.0000474  -0.0003196  -0.0001307
    3  -0.0000660   0.0001170   0.0000344  -0.0004438   0.0003400   0.0003827
            7           8           9          10          11          12
    1   0.0032799  -0.0014836  -0.0010554   0.0050017  -0.0013726   0.0020493
    2   0.0002161  -0.0017531  -0.0000196   0.0036254   0.0003527   0.0005293
    3  -0.0001949   0.0008237  -0.0004618  -0.0075889  -0.0001198   0.0011365
           13          14          15          16          17          18
    1  -0.0135971   0.0008135   0.0033259   0.0137648  -0.0051801  -0.0030618
    2  -0.0006687  -0.0022158   0.0012498  -0.0050869  -0.0023384   0.0039307
    3   0.0041206   0.0020238  -0.0019698  -0.0030593  -0.0016971   0.0036103
           19          20          21          22          23          24
    1  -0.0002467  -0.0042527   0.0007040   0.0015300  -0.0034177   0.0002518
    2  -0.0010793  -0.0006659   0.0036082   0.0016227   0.0006787  -0.0021879
    3  -0.0014149   0.0001892   0.0016565   0.0011259   0.0006243  -0.0006767
           25          26          27          28          29          30
    1  -0.0005652  -0.0000943   0.0020375  -0.0006769   0.0010460   0.0000332
    2   0.0001223  -0.0000830   0.0021527  -0.0001088  -0.0005967   0.0003470
    3   0.0004676  -0.0004527   0.0002980  -0.0001724  -0.0007805   0.0001443
           31          32          33          34          35          36
    1   0.0004576  -0.0002804   0.0000674   0.0017870   0.0003443   0.0002982
    2   0.0005111   0.0001354   0.0001248  -0.0016274   0.0001710  -0.0002720
    3  -0.0001159  -0.0000836   0.0000278   0.0019848  -0.0005378  -0.0003198
           37          38          39
    1  -0.0003822   0.0001411  -0.0004647
    2  -0.0001012   0.0003733   0.0002398
    3   0.0003055   0.0004829   0.0002599
 Max gradient component =       1.376E-02
 RMS gradient           =       2.528E-03
 Gradient time:  CPU 3111.29 s  wall 199.44 s
 Geometry Optimization Parameters
   NAtoms,    NIC,     NZ,  NCons,   NDum,   NFix, NCnnct, MaxDiis
       39     293       0       3       0       0       0       0


** CONSTRAINED OPTIMIZATION IN DELOCALIZED INTERNAL COORDINATES **
   Searching for a Minimum

   Optimization Cycle:   1

                       Coordinates (Angstroms)
     ATOM                X               Y               Z
      1  C         7.6214857771    0.1904313573   -0.8954848355
      2  C         6.9041296705    1.3338210061   -1.2072539755
      3  C         6.9232018059   -0.9153128288   -0.4375549421
      4  C         5.5345241068    1.3282201021   -1.0422179499
      5  N         5.6070434469   -0.9341012442   -0.2704588800
      6  C         4.9237349556    0.1704648828   -0.5626304575
      7  C         3.4517242563    0.1486198918   -0.3758980398
      8  N         2.7501451244    1.0138129214   -1.0549529935
      9  C         2.7739174999   -0.7488855447    0.5137781758
     10  C         1.4005933361    1.0819606201   -0.9536171939
     11  N         3.3067311507   -1.6585985276    1.3322157608
     12  C         1.3464591384   -0.6784563068    0.6090619890
     13  C         0.6166705559    0.2819116575   -0.1554300766
     14  S         2.0855312363   -2.3497425556    2.1068695005
     15  N         0.8362188980   -1.5506110741    1.4760886823
     16  C        -0.8284578584    0.4298421159   -0.0756028042
     17  S        -1.9168058521   -0.8329372257   -0.4971589318
     18  C        -1.5710007726    1.5351074956    0.3408115549
     19  C        -3.3326140574    0.0603983948   -0.1713134968
     20  N        -1.0630526376    2.7258122440    0.7657359384
     21  C        -2.9852247967    1.3244809206    0.2900207787
     22  C        -4.6558408077   -0.4923415959   -0.3527956492
     23  C        -1.9337965777    3.6259109326    1.1034440670
     24  N        -3.8695744110    2.2925067455    0.6520261642
     25  C        -5.8190680834   -0.1022590652    0.2520556899
     26  S        -4.9521897544   -1.8057551754   -1.4464278997
     27  C        -3.3450426031    3.4119879061    1.0463902460
     28  C        -6.9386909202   -0.8667238429   -0.1545276615
     29  C        -6.6209052734   -1.8265480600   -1.0631939559
     30  H         8.6961809573    0.1542561223   -1.0038371448
     31  H         7.4076424125    2.2197735112   -1.5722293799
     32  H         7.4439868541   -1.8335256826   -0.1933786998
     33  H         4.9275240778    2.1895133324   -1.2752896140
     34  H         0.9369334532    1.8512112290   -1.5494434664
     35  H        -1.5522096585    4.5840514463    1.4400814530
     36  H        -5.8538630111    0.7125390301    0.9554184233
     37  H        -4.0224180106    4.2055378175    1.3426159201
     38  H        -7.9374205856   -0.7071874954    0.2224776310
     39  H        -7.2783036781   -2.5387376945   -1.5317693087
   Point Group: c1    Number of degrees of freedom:   111


   Energy is  -2291.146029721

              Constraints and their Current Values
                                        Value     Constraint
   Dihedral:        4   6   7   8       21.915       21.822
   Dihedral:       10  13  16  17      120.001      120.000
   Dihedral:       17  19  22  25      156.426      156.395

 Attempting to Generate Delocalized Internal Coordinates

   Using Lagrange Multiplier Algorithm


114 Hessian modes will be used to form the next step
  Hessian Eigenvalues:
    -0.977753   -0.977753   -0.977753    0.045000    0.045000    0.045000
     0.045000    0.045000    0.045000    0.045000    0.045000    0.045000
     0.045000    0.045000    0.045000    0.045000    0.045001    0.045001
     0.045001    0.045001    0.045001    0.045001    0.045001    0.045002
     0.045002    0.045002    0.045002    0.045003    0.045003    0.045004
     0.045004    0.045007    0.045008    0.045011    0.045025    0.045042
     0.159985    0.159992    0.159996    0.159998    0.159999    0.159999
     0.160000    0.160000    0.160000    0.160000    0.219998    0.221296
     0.223765    0.224234    0.233056    0.237962    0.243336    0.244277
     0.249685    0.249909    0.249932    0.249960    0.249971    0.249981
     0.249981    0.249983    0.249989    0.249990    0.249993    0.249993
     0.249995    0.312597    0.327536    0.334458    0.341192    0.341256
     0.354110    0.354469    0.355757    0.357029    0.359040    0.360702
     0.360954    0.362567    0.363651    0.364150    0.369052    0.372792
     0.376138    0.388444    0.390986    0.406991    0.407227    0.418671
     0.432515    0.440850    0.460521    0.465840    0.471161    0.473690
     0.482796    0.484038    0.485870    0.485956    0.504406    0.517480
     0.518992    0.525383    0.557629    0.572590    0.582389    0.589743
     0.639523    0.655126    0.663888    1.022753    1.022753    1.022753

 Minimum Search - Taking P-RFO Step
 Searching for Lamda that Maximizes Along the Constraint modes Only
 Value Taken    Lamda =   0.00001552
 Searching for Lamda that Minimizes Along All other modes
 Value Taken    Lamda =  -0.00160267
 Step Taken.  Stepsize is  0.089323

                             Maximum     Tolerance    Cnvgd?
         Gradient            0.007331       0.000300      NO
         Displacement        0.029375       0.001200      NO
         Energy change     *********       0.000001      NO


 New Cartesian Coordinates Obtained by Inverse Iteration

 Displacement from previous Coordinates is:  0.423239
 ----------------------------------------------------------------
             Standard Nuclear Orientation (Angstroms)
    I     Atom           X                Y                Z
 ----------------------------------------------------------------
    1      C       7.5945394259     0.1938127280    -0.9200453476
    2      C       6.8791634174     1.3441347447    -1.2107644241
    3      C       6.8978027628    -0.9133742410    -0.4631686123
    4      C       5.5105478445     1.3423669115    -1.0281273257
    5      N       5.5844128624    -0.9280166034    -0.2789324070
    6      C       4.9037397847     0.1822882952    -0.5514935335
    7      C       3.4322751613     0.1593156093    -0.3539938149
    8      N       2.7308256388     1.0323746460    -1.0238248693
    9      C       2.7642434256    -0.7490898474     0.5338197154
   10      C       1.3813719934     1.0887359608    -0.9161671748
   11      N       3.3012544950    -1.6646221937     1.3423081637
   12      C       1.3370412238    -0.6849125824     0.6340053843
   13      C       0.6162621250     0.2791557264    -0.1241873889
   14      S       2.0762961088    -2.3577861681     2.1104611625
   15      N       0.8195263726    -1.5607486405     1.4944930667
   16      C      -0.8322143517     0.4204333452    -0.0489075463
   17      S      -1.9091883070    -0.8382047626    -0.4770189599
   18      C      -1.5581794273     1.5272011994     0.3460689591
   19      C      -3.3269621398     0.0605463687    -0.1670440788
   20      N      -1.0197936208     2.7077879683     0.7621341508
   21      C      -2.9741879045     1.3269590213     0.2859765127
   22      C      -4.6501093002    -0.4955277758    -0.3569134455
   23      C      -1.8796026196     3.6196597052     1.0906985699
   24      N      -3.8435516903     2.3134198443     0.6365720420
   25      C      -5.8193462516    -0.1042829589     0.2353693072
   26      S      -4.9321307911    -1.8212051777    -1.4381758430
   27      C      -3.2970075692     3.4236946621     1.0265099111
   28      C      -6.9327078224    -0.8763540963    -0.1744184253
   29      C      -6.6041063382    -1.8435978712    -1.0703039671
   30      H       8.6671720368     0.1510310241    -1.0450476082
   31      H       7.3803833608     2.2302463436    -1.5755739191
   32      H       7.4188901809    -1.8360900394    -0.2353937947
   33      H       4.9025186128     2.2065365527    -1.2470584260
   34      H       0.9017209033     1.8558099745    -1.5101124846
   35      H      -1.4894757491     4.5732853102     1.4298595957
   36      H      -5.8648456899     0.7167583370     0.9317670139
   37      H      -3.9601441870     4.2319335572     1.3137547683
   38      H      -7.9366610788    -0.7191292887     0.1890471324
   39      H      -7.2518735337    -2.5640978244    -1.5395474412
 ----------------------------------------------------------------
 Molecular Point Group                 C1    NOp =  1
 Largest Abelian Subgroup              C1    NOp =  1
 Nuclear Repulsion Energy =  2924.5372535102 hartrees
 There are      110 alpha and      110 beta electrons
 Applying Cartesian multipole field
    Component          Value
    ---------          -----
     (2,0,0)        1.00000E-12
     (0,2,0)        2.00000E-11
     (0,0,2)       -3.00000E-11
 Nucleus-field energy     =     0.0000000326 hartrees
 Requested basis set is cc-pVTZ
 There are 356 shells and 1022 basis functions
 A cutoff of  1.0D-11 yielded  30953 shell pairs
 There are    243995 function pairs (    318367 Cartesian)
 Smallest overlap matrix eigenvalue = 3.03E-05
 Guess MOs from SCF MO coefficient file
 Reading MOs from coefficient file
 Reading MOs from coefficient file
 Long-range K will be added via erf
 Coulomb attenuation parameter = 0.2 bohr**(-1)
 A restricted hybrid HF-DFT SCF calculation will be
 performed using Pulay DIIS extrapolation
 Exchange:     0.2220 Hartree-Fock + 1.0000 wB97X-D + LR-HF
 Correlation:  1.0000 wB97X-D
 Using SG-2 standard quadrature grid
 Dispersion:   Grimme D
 SCF converges when DIIS error is below 1.0E-08
 Geometry optimization detected.  Setting ReadMinima to 0
 Setting SaveMinima to 0
 using 16 threads for integral computing 
 using 16 threads for integral computing 
 K construction time:  CPU 1098.74 s  wall 72.82 s
 -------------------------------------------------------
 OpenMP BLAS3 based DFT computing Module                
 Release: version 1.0, May 2013, Q-Chem Inc. Pittsburgh 
 -------------------------------------------------------
 ---------------------------------------
  Cycle       Energy         DIIS Error
 ---------------------------------------
    1   -2291.1425043062      2.42E-04
 K construction time:  CPU 1097.28 s  wall 72.59 s
    2   -2291.1467052853      2.60E-05
 K construction time:  CPU 814.96 s  wall 53.95 s
    3   -2291.1467836651      2.64E-05
 K construction time:  CPU 775.80 s  wall 51.30 s
    4   -2291.1468669806      9.15E-06
 K construction time:  CPU 713.63 s  wall 47.28 s
    5   -2291.1468791238      3.90E-06
 K construction time:  CPU 650.19 s  wall 42.98 s
    6   -2291.1468813327      1.71E-06
 K construction time:  CPU 598.07 s  wall 39.49 s
    7   -2291.1468817911      5.68E-07
 K construction time:  CPU 541.88 s  wall 35.73 s
    8   -2291.1468818598      2.49E-07
 K construction time:  CPU 512.25 s  wall 33.70 s
    9   -2291.1468818820      1.23E-07
 K construction time:  CPU 451.66 s  wall 29.70 s
   10   -2291.1468818873      5.28E-08
 K construction time:  CPU 409.86 s  wall 26.95 s
   11   -2291.1468818884      2.49E-08
 K construction time:  CPU 369.66 s  wall 24.23 s
   12   -2291.1468818893      9.12E-09 Convergence criterion met
 ---------------------------------------
 SCF time:  CPU 10834.92 s  wall 736.42 s
 SCF   energy in the final basis set = -2291.1468818893
 Total energy in the final basis set = -2291.1468818893
 
 --------------------------------------------------------------
 
                    Orbital Energies (a.u.)
 --------------------------------------------------------------
 
 Alpha MOs
 -- Occupied --
-89.145 -89.100 -89.079 -14.482 -14.478 -14.461 -14.459 -14.448
-14.436 -10.357 -10.354 -10.351 -10.345 -10.343 -10.342 -10.338
-10.338 -10.337 -10.336 -10.334 -10.334 -10.327 -10.325 -10.319
-10.311 -10.303 -10.300 -10.295 -10.292  -8.156  -8.115  -8.094
 -6.106  -6.100  -6.100  -6.064  -6.060  -6.058  -6.044  -6.040
 -6.037  -1.143  -1.099  -1.071  -1.051  -1.028  -1.013  -1.004
 -0.986  -0.926  -0.913  -0.897  -0.879  -0.868  -0.854  -0.838
 -0.812  -0.777  -0.770  -0.748  -0.739  -0.730  -0.720  -0.711
 -0.672  -0.654  -0.647  -0.630  -0.629  -0.622  -0.605  -0.603
 -0.592  -0.577  -0.569  -0.562  -0.559  -0.545  -0.543  -0.526
 -0.513  -0.506  -0.502  -0.501  -0.494  -0.492  -0.486  -0.481
 -0.472  -0.468  -0.461  -0.456  -0.450  -0.439  -0.428  -0.425
 -0.422  -0.412  -0.398  -0.376  -0.369  -0.364  -0.359  -0.350
 -0.342  -0.339  -0.336  -0.333  -0.316  -0.273
 -- Virtual --
 -0.045  -0.032   0.026   0.031   0.040   0.057   0.066   0.071
  0.086   0.087   0.100   0.122   0.124   0.129   0.132   0.138
  0.146   0.148   0.154   0.157   0.164   0.175   0.177   0.190
  0.195   0.199   0.212   0.217   0.218   0.227   0.241   0.246
  0.256   0.262   0.267   0.271   0.278   0.287   0.290   0.295
  0.299   0.300   0.310   0.315   0.316   0.319   0.322   0.327
  0.330   0.335   0.341   0.345   0.346   0.349   0.353   0.356
  0.363   0.364   0.372   0.374   0.378   0.381   0.383   0.390
  0.391   0.395   0.398   0.400   0.404   0.407   0.408   0.411
  0.416   0.420   0.425   0.430   0.432   0.433   0.435   0.439
  0.441   0.448   0.450   0.456   0.459   0.459   0.461   0.463
  0.469   0.471   0.475   0.475   0.479   0.483   0.488   0.488
  0.493   0.496   0.498   0.504   0.509   0.512   0.519   0.521
  0.523   0.526   0.532   0.536   0.540   0.541   0.545   0.552
  0.552   0.560   0.565   0.570   0.576   0.581   0.589   0.599
  0.601   0.606   0.609   0.611   0.614   0.622   0.625   0.634
  0.639   0.641   0.647   0.655   0.658   0.662   0.665   0.668
  0.678   0.683   0.684   0.688   0.697   0.706   0.708   0.709
  0.712   0.722   0.729   0.732   0.735   0.736   0.744   0.745
  0.754   0.763   0.767   0.769   0.770   0.778   0.780   0.787
  0.790   0.791   0.798   0.801   0.807   0.811   0.814   0.824
  0.828   0.835   0.838   0.839   0.843   0.847   0.849   0.856
  0.861   0.865   0.871   0.877   0.880   0.884   0.892   0.894
  0.900   0.913   0.914   0.919   0.925   0.928   0.934   0.937
  0.938   0.941   0.946   0.955   0.957   0.959   0.967   0.970
  0.976   0.984   0.988   0.991   0.997   1.001   1.003   1.019
  1.019   1.021   1.029   1.038   1.040   1.045   1.053   1.056
  1.062   1.066   1.077   1.079   1.082   1.088   1.094   1.099
  1.101   1.106   1.110   1.111   1.122   1.125   1.129   1.144
  1.147   1.151   1.164   1.171   1.173   1.183   1.184   1.195
  1.198   1.211   1.216   1.223   1.224   1.230   1.236   1.243
  1.245   1.254   1.260   1.265   1.275   1.284   1.292   1.296
  1.309   1.315   1.324   1.329   1.338   1.342   1.352   1.357
  1.360   1.365   1.374   1.378   1.379   1.383   1.389   1.396
  1.403   1.404   1.409   1.410   1.423   1.427   1.431   1.435
  1.444   1.445   1.451   1.458   1.467   1.472   1.475   1.484
  1.486   1.496   1.497   1.501   1.507   1.511   1.517   1.523
  1.545   1.562   1.565   1.568   1.573   1.579   1.585   1.594
  1.599   1.610   1.612   1.618   1.626   1.635   1.639   1.650
  1.651   1.659   1.664   1.666   1.671   1.679   1.687   1.694
  1.696   1.705   1.712   1.722   1.733   1.741   1.743   1.751
  1.751   1.763   1.766   1.776   1.782   1.791   1.801   1.809
  1.819   1.828   1.845   1.847   1.862   1.872   1.879   1.887
  1.892   1.893   1.911   1.912   1.926   1.928   1.939   1.945
  1.951   1.967   1.977   1.981   1.982   1.990   2.004   2.011
  2.015   2.020   2.031   2.039   2.044   2.054   2.058   2.069
  2.076   2.084   2.095   2.104   2.107   2.115   2.116   2.128
  2.136   2.147   2.163   2.172   2.176   2.177   2.185   2.192
  2.202   2.207   2.213   2.218   2.239   2.246   2.250   2.255
  2.267   2.272   2.277   2.288   2.292   2.293   2.300   2.307
  2.310   2.312   2.334   2.335   2.346   2.353   2.364   2.375
  2.376   2.382   2.395   2.396   2.406   2.410   2.413   2.429
  2.438   2.442   2.446   2.455   2.458   2.463   2.472   2.478
  2.487   2.491   2.497   2.513   2.523   2.525   2.530   2.531
  2.536   2.539   2.541   2.550   2.561   2.574   2.583   2.589
  2.611   2.619   2.623   2.626   2.634   2.647   2.648   2.652
  2.663   2.669   2.674   2.683   2.686   2.695   2.704   2.714
  2.727   2.733   2.741   2.748   2.759   2.772   2.774   2.777
  2.782   2.788   2.796   2.804   2.810   2.814   2.818   2.821
  2.833   2.837   2.845   2.851   2.852   2.860   2.868   2.876
  2.879   2.888   2.894   2.906   2.915   2.918   2.928   2.933
  2.936   2.942   2.946   2.951   2.961   2.968   2.970   2.978
  2.987   2.995   3.001   3.007   3.010   3.014   3.017   3.020
  3.027   3.034   3.042   3.043   3.048   3.054   3.059   3.066
  3.069   3.071   3.073   3.076   3.080   3.082   3.087   3.092
  3.096   3.101   3.105   3.109   3.112   3.118   3.122   3.128
  3.139   3.142   3.145   3.153   3.155   3.162   3.165   3.169
  3.173   3.181   3.187   3.193   3.196   3.198   3.203   3.203
  3.210   3.215   3.219   3.222   3.231   3.232   3.236   3.238
  3.241   3.249   3.254   3.257   3.261   3.265   3.270   3.275
  3.277   3.277   3.283   3.288   3.295   3.298   3.301   3.305
  3.310   3.315   3.319   3.323   3.329   3.331   3.334   3.340
  3.345   3.353   3.358   3.373   3.378   3.386   3.389   3.392
  3.398   3.404   3.410   3.415   3.424   3.425   3.427   3.437
  3.437   3.440   3.452   3.453   3.465   3.469   3.472   3.477
  3.482   3.483   3.491   3.497   3.505   3.508   3.517   3.524
  3.532   3.535   3.536   3.550   3.557   3.562   3.569   3.581
  3.588   3.599   3.610   3.613   3.619   3.626   3.636   3.638
  3.651   3.663   3.670   3.687   3.691   3.699   3.705   3.713
  3.714   3.718   3.723   3.734   3.738   3.746   3.750   3.755
  3.766   3.770   3.781   3.788   3.797   3.800   3.806   3.809
  3.821   3.823   3.829   3.842   3.854   3.855   3.870   3.880
  3.881   3.898   3.903   3.906   3.919   3.922   3.927   3.929
  3.933   3.938   3.941   3.950   3.953   3.962   3.966   3.977
  3.981   3.986   3.993   4.003   4.011   4.017   4.032   4.042
  4.050   4.051   4.057   4.067   4.076   4.079   4.093   4.103
  4.108   4.117   4.126   4.129   4.142   4.154   4.160   4.169
  4.183   4.189   4.196   4.200   4.209   4.213   4.219   4.221
  4.228   4.241   4.244   4.250   4.254   4.264   4.269   4.291
  4.292   4.300   4.301   4.310   4.316   4.324   4.327   4.342
  4.344   4.348   4.351   4.361   4.371   4.376   4.382   4.391
  4.396   4.410   4.412   4.424   4.438   4.442   4.450   4.459
  4.471   4.481   4.489   4.502   4.515   4.520   4.536   4.542
  4.550   4.557   4.563   4.565   4.586   4.592   4.596   4.603
  4.614   4.635   4.643   4.649   4.668   4.674   4.690   4.705
  4.710   4.717   4.724   4.753   4.760   4.763   4.771   4.781
  4.802   4.804   4.808   4.811   4.829   4.838   4.842   4.851
  4.863   4.881   4.882   4.894   4.903   4.914   4.919   4.930
  4.938   4.947   4.954   4.959   4.971   4.980   4.989   4.990
  4.993   5.003   5.012   5.014   5.026   5.035   5.039   5.046
  5.054   5.062   5.070   5.081   5.093   5.099   5.111   5.120
  5.131   5.140   5.147   5.153   5.163   5.167   5.182   5.192
  5.210   5.218   5.231   5.250   5.276   5.299   5.304   5.316
  5.324   5.339   5.350   5.362   5.368   5.387   5.401   5.422
  5.442   5.464   5.467   5.486   5.491   5.501   5.524   5.540
  5.563   5.574   5.577   5.589   5.594   5.598   5.627   5.647
  5.669   5.681   5.709   5.721   5.734   5.748   5.760   5.778
  5.794   5.834   5.835   5.861   5.869   5.879   5.897   5.921
  5.950   5.954   5.986   6.048   6.090   6.102   6.135   6.170
  6.198   6.237   6.242   6.280   6.294   6.316   6.377   6.431
  6.444   6.489   6.633   6.849   6.984   7.071   7.942   8.810
  9.810  10.127  10.626  11.060  11.240  11.710  11.980  12.005
 12.343  12.626  12.766  12.777  12.854  12.917  13.061  13.302
 13.393  13.482  13.537  13.768  14.282  14.681  15.054  15.072
 --------------------------------------------------------------
 
          Ground-State Mulliken Net Atomic Charges

     Atom                 Charge (a.u.)
  ----------------------------------------
      1 C                    -0.091079
      2 C                    -0.128291
      3 C                    -0.079653
      4 C                    -0.118852
      5 N                    -0.144104
      6 C                     0.081161
      7 C                     0.110675
      8 N                    -0.175598
      9 C                    -0.013191
     10 C                    -0.058723
     11 N                    -0.220474
     12 C                     0.040872
     13 C                     0.034090
     14 S                     0.407690
     15 N                    -0.276972
     16 C                    -0.081640
     17 S                     0.190524
     18 C                     0.036945
     19 C                    -0.051979
     20 N                    -0.146119
     21 C                     0.040241
     22 C                    -0.015443
     23 C                    -0.050298
     24 N                    -0.161627
     25 C                    -0.139376
     26 S                     0.099680
     27 C                    -0.050261
     28 C                    -0.156558
     29 C                    -0.181961
     30 H                     0.133374
     31 H                     0.119989
     32 H                     0.120400
     33 H                     0.138891
     34 H                     0.126258
     35 H                     0.131176
     36 H                     0.135802
     37 H                     0.127877
     38 H                     0.130254
     39 H                     0.136300
  ----------------------------------------
  Sum of atomic charges =     0.000000

 -----------------------------------------------------------------
                    Cartesian Multipole Moments
 -----------------------------------------------------------------
    Charge (ESU x 10^10)
                 0.0000
    Dipole Moment (Debye)
         X       0.1756      Y       1.5512      Z       0.1332
       Tot       1.5667
    Quadrupole Moments (Debye-Ang)
        XX    -151.1911     XY       4.5583     YY    -169.2872
        XZ      -4.8363     YZ       2.8120     ZZ    -182.6554
    Octopole Moments (Debye-Ang^2)
       XXX     109.3473    XXY       3.3924    XYY     -23.4971
       YYY      39.8832    XXZ     -39.4300    XYZ     -42.9086
       YYZ      15.3303    XZZ      -1.5881    YZZ      -4.5301
       ZZZ      18.6120
    Hexadecapole Moments (Debye-Ang^3)
      XXXX  -15892.5149   XXXY     506.7050   XXYY   -3457.1145
      XYYY    -150.9542   YYYY   -2735.3263   XXXZ    -350.5270
      XXYZ      81.5348   XYYZ     -17.4058   YYYZ      71.3361
      XXZZ   -3465.0441   XYZZ     -10.9471   YYZZ    -657.3634
      XZZZ      54.7749   YZZZ     -20.6372   ZZZZ   -1259.0438
 -----------------------------------------------------------------
 Calculating analytic gradient of the SCF energy
 K construction time:  CPU 2686.95 s  wall 170.39 s
 Gradient of SCF Energy
            1           2           3           4           5           6
    1   0.0001102  -0.0004154   0.0000913   0.0002107   0.0000862  -0.0006017
    2  -0.0002781   0.0001015   0.0001623  -0.0000161   0.0000270   0.0001643
    3  -0.0000297  -0.0000228  -0.0000276  -0.0004228   0.0000710   0.0004542
            7           8           9          10          11          12
    1   0.0012415  -0.0011255   0.0003482   0.0016853   0.0007609   0.0007130
    2  -0.0003363  -0.0003017  -0.0009889  -0.0015504   0.0005807  -0.0010594
    3  -0.0002962   0.0001559   0.0009067  -0.0021422  -0.0007633   0.0021980
           13          14          15          16          17          18
    1  -0.0037548  -0.0005608  -0.0010455   0.0036766  -0.0022455  -0.0004182
    2   0.0014493   0.0018152   0.0002462   0.0007798   0.0005009   0.0011561
    3   0.0021643  -0.0016177  -0.0004072   0.0001900  -0.0013433   0.0020831
           19          20          21          22          23          24
    1   0.0003681  -0.0005861   0.0007447   0.0002710  -0.0011956   0.0004659
    2  -0.0021176  -0.0012826   0.0020209   0.0006210  -0.0002330  -0.0019010
    3  -0.0012049  -0.0005562   0.0009662   0.0001753  -0.0000193  -0.0007815
           25          26          27          28          29          30
    1  -0.0005959  -0.0003048   0.0014802  -0.0000645   0.0004772   0.0000044
    2  -0.0004354  -0.0001053   0.0010761  -0.0000876  -0.0000824   0.0001299
    3   0.0004837  -0.0001349   0.0002146  -0.0002699  -0.0003018   0.0001146
           31          32          33          34          35          36
    1   0.0000371  -0.0000932  -0.0000379  -0.0000889   0.0004504   0.0001574
    2   0.0000051  -0.0000381   0.0000629   0.0002182  -0.0000906  -0.0000313
    3   0.0000320   0.0000062  -0.0000118   0.0001519  -0.0002753  -0.0001263
           37          38          39
    1  -0.0001564   0.0000958  -0.0001854
    2  -0.0003051   0.0000386   0.0000852
    3   0.0001209   0.0001881   0.0000783
 Max gradient component =       3.755E-03
 RMS gradient           =       9.485E-04
 Gradient time:  CPU 3135.50 s  wall 201.04 s
 Geometry Optimization Parameters
   NAtoms,    NIC,     NZ,  NCons,   NDum,   NFix, NCnnct, MaxDiis
       39     293       0       3       0       0       0       0

 Cartesian Hessian Update
 Hessian Updated using BFGS Update


** CONSTRAINED OPTIMIZATION IN DELOCALIZED INTERNAL COORDINATES **
   Searching for a Minimum

   Optimization Cycle:   2

                       Coordinates (Angstroms)
     ATOM                X               Y               Z
      1  C         7.5945394259    0.1938127280   -0.9200453476
      2  C         6.8791634174    1.3441347447   -1.2107644241
      3  C         6.8978027628   -0.9133742410   -0.4631686123
      4  C         5.5105478445    1.3423669115   -1.0281273257
      5  N         5.5844128624   -0.9280166034   -0.2789324070
      6  C         4.9037397847    0.1822882952   -0.5514935335
      7  C         3.4322751613    0.1593156093   -0.3539938149
      8  N         2.7308256388    1.0323746460   -1.0238248693
      9  C         2.7642434256   -0.7490898474    0.5338197154
     10  C         1.3813719934    1.0887359608   -0.9161671748
     11  N         3.3012544950   -1.6646221937    1.3423081637
     12  C         1.3370412238   -0.6849125824    0.6340053843
     13  C         0.6162621250    0.2791557264   -0.1241873889
     14  S         2.0762961088   -2.3577861681    2.1104611625
     15  N         0.8195263726   -1.5607486405    1.4944930667
     16  C        -0.8322143517    0.4204333452   -0.0489075463
     17  S        -1.9091883070   -0.8382047626   -0.4770189599
     18  C        -1.5581794273    1.5272011994    0.3460689591
     19  C        -3.3269621398    0.0605463687   -0.1670440788
     20  N        -1.0197936208    2.7077879683    0.7621341508
     21  C        -2.9741879045    1.3269590213    0.2859765127
     22  C        -4.6501093002   -0.4955277758   -0.3569134455
     23  C        -1.8796026196    3.6196597052    1.0906985699
     24  N        -3.8435516903    2.3134198443    0.6365720420
     25  C        -5.8193462516   -0.1042829589    0.2353693072
     26  S        -4.9321307911   -1.8212051777   -1.4381758430
     27  C        -3.2970075692    3.4236946621    1.0265099111
     28  C        -6.9327078224   -0.8763540963   -0.1744184253
     29  C        -6.6041063382   -1.8435978712   -1.0703039671
     30  H         8.6671720368    0.1510310241   -1.0450476082
     31  H         7.3803833608    2.2302463436   -1.5755739191
     32  H         7.4188901809   -1.8360900394   -0.2353937947
     33  H         4.9025186128    2.2065365527   -1.2470584260
     34  H         0.9017209033    1.8558099745   -1.5101124846
     35  H        -1.4894757491    4.5732853102    1.4298595957
     36  H        -5.8648456899    0.7167583370    0.9317670139
     37  H        -3.9601441870    4.2319335572    1.3137547683
     38  H        -7.9366610788   -0.7191292887    0.1890471324
     39  H        -7.2518735337   -2.5640978244   -1.5395474412
   Point Group: c1    Number of degrees of freedom:   111


   Energy is  -2291.146881889

              Constraints and their Current Values
                                        Value     Constraint
   Dihedral:        4   6   7   8       21.822       21.822
   Dihedral:       10  13  16  17      120.000      120.000
   Dihedral:       17  19  22  25      156.395      156.395
 Hessian Updated using BFGS Update

   Using Lagrange Multiplier Algorithm


110 Hessian modes will be used to form the next step
  Hessian Eigenvalues:
    -0.977747    0.039152    0.045000    0.045000    0.045000    0.045000
     0.045000    0.045000    0.045000    0.045000    0.045000    0.045000
     0.045000    0.045000    0.045001    0.045001    0.045001    0.045001
     0.045001    0.045001    0.045001    0.045002    0.045002    0.045002
     0.045002    0.045003    0.045003    0.045004    0.045005    0.045008
     0.045011    0.045025    0.045040    0.045174    0.157694    0.159991
     0.159992    0.159996    0.159999    0.159999    0.160000    0.160000
     0.160000    0.160215    0.219236    0.220483    0.221309    0.224178
     0.225251    0.234464    0.238052    0.244039    0.244418    0.249708
     0.249909    0.249946    0.249961    0.249975    0.249983    0.249985
     0.249990    0.249993    0.249993    0.249994    0.288083    0.311980
     0.317342    0.334588    0.338209    0.341317    0.354110    0.354495
     0.355754    0.357013    0.359040    0.360703    0.360938    0.362027
     0.363634    0.364150    0.369904    0.371359    0.376330    0.388826
     0.392288    0.405303    0.408032    0.418670    0.432515    0.457743
     0.460427    0.463155    0.473149    0.473641    0.482198    0.483676
     0.485741    0.486575    0.505300    0.518936    0.524180    0.532442
     0.560345    0.572600    0.589738    0.593740    0.639544    0.658247
     0.664293    1.022766

 Minimum Search - Taking P-RFO Step
 Searching for Lamda that Maximizes Along the Constraint modes Only
 Value Taken    Lamda =   0.00000001
 Searching for Lamda that Minimizes Along All other modes
 Value Taken    Lamda =  -0.00024619
 Step Taken.  Stepsize is  0.057410

                             Maximum     Tolerance    Cnvgd?
         Gradient            0.002378       0.000300      NO
         Displacement        0.027983       0.001200      NO
         Energy change     -0.000852       0.000001      NO


 New Cartesian Coordinates Obtained by Inverse Iteration

 Displacement from previous Coordinates is:  0.236514
 ----------------------------------------------------------------
             Standard Nuclear Orientation (Angstroms)
    I     Atom           X                Y                Z
 ----------------------------------------------------------------
    1      C       7.5881364319     0.1865517356    -0.9408049216
    2      C       6.8779826075     1.3441938907    -1.2140012621
    3      C       6.8887471897    -0.9201213668    -0.4866097513
    4      C       5.5106460461     1.3494725244    -1.0184207319
    5      N       5.5771785358    -0.9278340653    -0.2900588059
    6      C       4.9012982339     0.1891109706    -0.5465262645
    7      C       3.4296915733     0.1690816015    -0.3411670325
    8      N       2.7262089220     1.0484388181    -1.0010081204
    9      C       2.7681877066    -0.7471775159     0.5434768486
   10      C       1.3757524873     1.0982804694    -0.8888656683
   11      N       3.3090918164    -1.6691323205     1.3446148186
   12      C       1.3427477458    -0.6869928752     0.6492955017
   13      C       0.6197266951     0.2804254944    -0.1000578080
   14      S       2.0924781477    -2.3737227977     2.1160181511
   15      N       0.8337905793    -1.5717169376     1.5081860614
   16      C      -0.8336556123     0.4136677962    -0.0246651229
   17      S      -1.9032748513    -0.8450220452    -0.4564329436
   18      C      -1.5594864747     1.5239336774     0.3539617316
   19      C      -3.3249756046     0.0587017460    -0.1636296689
   20      N      -1.0194282604     2.7065128998     0.7687729964
   21      C      -2.9763387630     1.3265962666     0.2830205460
   22      C      -4.6473560326    -0.4973599501    -0.3599118317
   23      C      -1.8803101099     3.6213912912     1.0863283774
   24      N      -3.8464758052     2.3191650601     0.6210970305
   25      C      -5.8191584265    -0.0987445741     0.2216278310
   26      S      -4.9231693369    -1.8334963621    -1.4286902485
   27      C      -3.2992863060     3.4285679307     1.0099127772
   28      C      -6.9310956399    -0.8733414560    -0.1875642388
   29      C      -6.5977917508    -1.8502979962    -1.0709277941
   30      H       8.6589262611     0.1363028596    -1.0783753115
   31      H       7.3809740925     2.2298696691    -1.5769432043
   32      H       7.4066959491    -1.8480003781    -0.2727064392
   33      H       4.9057983269     2.2186616321    -1.2253223347
   34      H       0.8895979604     1.8646399564    -1.4792935655
   35      H      -1.4947544323     4.5759182727     1.4281233611
   36      H      -5.8690817392     0.7289435804     0.9102217266
   37      H      -3.9604639781     4.2423943251     1.2860881626
   38      H      -7.9379613475    -0.7117965718     0.1658433879
   39      H      -7.2416934730    -2.5756174918    -1.5379816216
 ----------------------------------------------------------------
 Molecular Point Group                 C1    NOp =  1
 Largest Abelian Subgroup              C1    NOp =  1
 Nuclear Repulsion Energy =  2924.1257064897 hartrees
 There are      110 alpha and      110 beta electrons
 Applying Cartesian multipole field
    Component          Value
    ---------          -----
     (2,0,0)        1.00000E-12
     (0,2,0)        2.00000E-11
     (0,0,2)       -3.00000E-11
 Nucleus-field energy     =     0.0000000330 hartrees
 Requested basis set is cc-pVTZ
 There are 356 shells and 1022 basis functions
 A cutoff of  1.0D-11 yielded  30956 shell pairs
 There are    243980 function pairs (    318343 Cartesian)
 Smallest overlap matrix eigenvalue = 3.03E-05
 Guess MOs from SCF MO coefficient file
 Reading MOs from coefficient file
 Reading MOs from coefficient file
 Long-range K will be added via erf
 Coulomb attenuation parameter = 0.2 bohr**(-1)
 A restricted hybrid HF-DFT SCF calculation will be
 performed using Pulay DIIS extrapolation
 Exchange:     0.2220 Hartree-Fock + 1.0000 wB97X-D + LR-HF
 Correlation:  1.0000 wB97X-D
 Using SG-2 standard quadrature grid
 Dispersion:   Grimme D
 SCF converges when DIIS error is below 1.0E-08
 Geometry optimization detected.  Setting ReadMinima to 0
 Setting SaveMinima to 0
 using 16 threads for integral computing 
 using 16 threads for integral computing 
 K construction time:  CPU 1096.63 s  wall 72.55 s
 -------------------------------------------------------
 OpenMP BLAS3 based DFT computing Module                
 Release: version 1.0, May 2013, Q-Chem Inc. Pittsburgh 
 -------------------------------------------------------
 ---------------------------------------
  Cycle       Energy         DIIS Error
 ---------------------------------------
    1   -2291.1401659722      1.67E-04
 K construction time:  CPU 1096.60 s  wall 72.57 s
    2   -2291.1469152754      1.81E-05
 K construction time:  CPU 780.64 s  wall 51.65 s
    3   -2291.1469827419      1.57E-05
 K construction time:  CPU 725.82 s  wall 48.06 s
    4   -2291.1470091339      6.69E-06
 K construction time:  CPU 689.22 s  wall 45.62 s
    5   -2291.1470153280      3.41E-06
 K construction time:  CPU 632.23 s  wall 41.87 s
    6   -2291.1470169793      1.06E-06
 K construction time:  CPU 566.72 s  wall 37.43 s
    7   -2291.1470171707      2.51E-07
 K construction time:  CPU 510.05 s  wall 33.74 s
    8   -2291.1470171946      1.50E-07
 K construction time:  CPU 463.06 s  wall 30.48 s
    9   -2291.1470172020      5.35E-08
 K construction time:  CPU 410.20 s  wall 26.96 s
   10   -2291.1470172033      2.33E-08
 K construction time:  CPU 367.14 s  wall 24.16 s
   11   -2291.1470172032      1.14E-08
 K construction time:  CPU 312.55 s  wall 20.59 s
   12   -2291.1470172042      4.60E-09 Convergence criterion met
 ---------------------------------------
 SCF time:  CPU 10374.87 s  wall 704.89 s
 SCF   energy in the final basis set = -2291.1470172042
 Total energy in the final basis set = -2291.1470172042
 
 --------------------------------------------------------------
 
                    Orbital Energies (a.u.)
 --------------------------------------------------------------
 
 Alpha MOs
 -- Occupied --
-89.146 -89.100 -89.079 -14.482 -14.478 -14.461 -14.460 -14.448
-14.436 -10.357 -10.354 -10.351 -10.344 -10.343 -10.342 -10.338
-10.338 -10.337 -10.336 -10.334 -10.334 -10.327 -10.325 -10.319
-10.311 -10.303 -10.300 -10.294 -10.292  -8.156  -8.115  -8.094
 -6.106  -6.100  -6.100  -6.063  -6.060  -6.058  -6.044  -6.040
 -6.037  -1.142  -1.099  -1.071  -1.051  -1.028  -1.012  -1.003
 -0.986  -0.926  -0.913  -0.897  -0.879  -0.868  -0.854  -0.838
 -0.812  -0.777  -0.770  -0.748  -0.739  -0.730  -0.720  -0.710
 -0.671  -0.654  -0.647  -0.630  -0.629  -0.621  -0.605  -0.603
 -0.592  -0.577  -0.569  -0.562  -0.559  -0.544  -0.543  -0.526
 -0.512  -0.506  -0.502  -0.501  -0.494  -0.491  -0.486  -0.481
 -0.473  -0.468  -0.461  -0.456  -0.450  -0.439  -0.428  -0.425
 -0.422  -0.412  -0.397  -0.376  -0.369  -0.365  -0.359  -0.350
 -0.342  -0.339  -0.336  -0.333  -0.316  -0.273
 -- Virtual --
 -0.045  -0.031   0.026   0.031   0.040   0.057   0.066   0.071
  0.086   0.086   0.101   0.123   0.125   0.129   0.132   0.138
  0.146   0.148   0.154   0.157   0.164   0.175   0.177   0.191
  0.195   0.199   0.212   0.217   0.218   0.227   0.241   0.246
  0.256   0.262   0.267   0.271   0.277   0.287   0.290   0.296
  0.299   0.300   0.310   0.315   0.316   0.319   0.322   0.327
  0.330   0.335   0.341   0.345   0.346   0.349   0.353   0.356
  0.363   0.364   0.372   0.374   0.378   0.381   0.383   0.390
  0.391   0.395   0.397   0.400   0.404   0.407   0.408   0.411
  0.416   0.420   0.425   0.430   0.432   0.433   0.435   0.439
  0.441   0.448   0.450   0.456   0.459   0.459   0.461   0.463
  0.469   0.471   0.475   0.475   0.479   0.482   0.488   0.488
  0.493   0.496   0.498   0.504   0.509   0.512   0.519   0.521
  0.523   0.526   0.532   0.536   0.540   0.541   0.545   0.552
  0.553   0.560   0.566   0.570   0.576   0.581   0.589   0.599
  0.601   0.606   0.609   0.611   0.615   0.622   0.625   0.634
  0.639   0.641   0.646   0.655   0.658   0.661   0.665   0.668
  0.678   0.683   0.685   0.688   0.697   0.706   0.708   0.710
  0.711   0.722   0.730   0.732   0.735   0.736   0.743   0.745
  0.754   0.763   0.767   0.769   0.770   0.778   0.780   0.787
  0.790   0.792   0.799   0.801   0.807   0.812   0.814   0.824
  0.828   0.835   0.838   0.839   0.844   0.846   0.849   0.856
  0.860   0.865   0.871   0.877   0.880   0.884   0.892   0.894
  0.900   0.913   0.914   0.919   0.925   0.928   0.934   0.937
  0.938   0.942   0.946   0.955   0.958   0.960   0.967   0.970
  0.976   0.984   0.989   0.991   0.997   1.001   1.003   1.019
  1.019   1.021   1.029   1.038   1.040   1.045   1.053   1.056
  1.063   1.066   1.077   1.080   1.082   1.088   1.093   1.099
  1.101   1.107   1.110   1.111   1.122   1.125   1.129   1.144
  1.147   1.152   1.164   1.170   1.172   1.182   1.185   1.195
  1.198   1.210   1.216   1.222   1.224   1.230   1.237   1.242
  1.245   1.254   1.260   1.265   1.275   1.283   1.292   1.296
  1.309   1.315   1.324   1.330   1.338   1.342   1.352   1.358
  1.360   1.365   1.373   1.378   1.379   1.383   1.389   1.396
  1.403   1.404   1.410   1.410   1.422   1.427   1.431   1.436
  1.445   1.445   1.450   1.459   1.467   1.473   1.475   1.484
  1.486   1.496   1.497   1.501   1.507   1.510   1.517   1.522
  1.545   1.562   1.565   1.568   1.573   1.579   1.585   1.594
  1.600   1.609   1.612   1.618   1.625   1.634   1.639   1.650
  1.651   1.659   1.663   1.666   1.671   1.679   1.686   1.693
  1.695   1.705   1.711   1.722   1.732   1.741   1.743   1.751
  1.751   1.762   1.766   1.775   1.782   1.791   1.801   1.808
  1.819   1.827   1.844   1.846   1.861   1.871   1.879   1.886
  1.892   1.894   1.911   1.912   1.927   1.928   1.938   1.945
  1.950   1.967   1.977   1.981   1.982   1.990   2.004   2.011
  2.015   2.019   2.031   2.039   2.043   2.054   2.058   2.069
  2.076   2.085   2.095   2.104   2.107   2.115   2.116   2.128
  2.135   2.147   2.163   2.172   2.176   2.176   2.185   2.191
  2.200   2.207   2.213   2.218   2.239   2.246   2.250   2.256
  2.268   2.272   2.277   2.287   2.292   2.293   2.301   2.307
  2.310   2.312   2.333   2.334   2.345   2.353   2.364   2.374
  2.376   2.382   2.394   2.395   2.406   2.410   2.413   2.428
  2.438   2.442   2.446   2.455   2.458   2.463   2.472   2.478
  2.487   2.492   2.497   2.513   2.524   2.525   2.530   2.532
  2.537   2.539   2.541   2.550   2.561   2.574   2.583   2.588
  2.612   2.618   2.623   2.627   2.634   2.647   2.648   2.651
  2.663   2.670   2.674   2.683   2.686   2.695   2.704   2.714
  2.726   2.733   2.741   2.748   2.759   2.772   2.774   2.777
  2.782   2.788   2.795   2.804   2.809   2.814   2.818   2.822
  2.833   2.837   2.844   2.851   2.851   2.859   2.868   2.875
  2.878   2.887   2.893   2.905   2.914   2.919   2.929   2.932
  2.936   2.942   2.945   2.951   2.961   2.967   2.969   2.978
  2.986   2.995   3.000   3.007   3.010   3.014   3.017   3.020
  3.027   3.034   3.043   3.043   3.048   3.054   3.059   3.066
  3.069   3.071   3.073   3.076   3.080   3.082   3.087   3.092
  3.096   3.101   3.105   3.108   3.112   3.119   3.122   3.128
  3.138   3.143   3.145   3.153   3.156   3.163   3.165   3.170
  3.172   3.181   3.187   3.193   3.196   3.198   3.203   3.203
  3.210   3.215   3.219   3.221   3.231   3.232   3.236   3.238
  3.241   3.250   3.254   3.257   3.260   3.265   3.270   3.274
  3.276   3.277   3.283   3.288   3.294   3.298   3.301   3.305
  3.310   3.315   3.319   3.323   3.329   3.331   3.334   3.340
  3.346   3.353   3.358   3.374   3.378   3.386   3.389   3.392
  3.399   3.404   3.411   3.415   3.423   3.424   3.427   3.436
  3.437   3.440   3.451   3.453   3.465   3.468   3.472   3.478
  3.482   3.483   3.491   3.496   3.505   3.508   3.516   3.524
  3.531   3.535   3.536   3.549   3.559   3.562   3.570   3.582
  3.588   3.599   3.609   3.613   3.619   3.626   3.636   3.638
  3.651   3.663   3.671   3.687   3.691   3.699   3.705   3.712
  3.714   3.719   3.723   3.734   3.738   3.747   3.749   3.754
  3.766   3.770   3.782   3.787   3.797   3.801   3.806   3.809
  3.820   3.824   3.828   3.841   3.852   3.855   3.870   3.879
  3.880   3.897   3.903   3.906   3.919   3.922   3.927   3.929
  3.934   3.938   3.940   3.950   3.954   3.962   3.967   3.978
  3.981   3.986   3.992   4.002   4.011   4.017   4.032   4.041
  4.049   4.052   4.057   4.068   4.076   4.079   4.093   4.104
  4.108   4.116   4.127   4.130   4.141   4.154   4.160   4.169
  4.182   4.190   4.195   4.200   4.208   4.212   4.219   4.222
  4.228   4.240   4.244   4.250   4.255   4.263   4.270   4.290
  4.291   4.299   4.301   4.309   4.316   4.323   4.327   4.341
  4.344   4.348   4.350   4.361   4.370   4.376   4.381   4.391
  4.396   4.410   4.411   4.423   4.437   4.441   4.449   4.459
  4.470   4.481   4.487   4.501   4.515   4.521   4.536   4.542
  4.549   4.556   4.563   4.565   4.585   4.591   4.595   4.602
  4.613   4.635   4.643   4.648   4.667   4.673   4.689   4.703
  4.710   4.717   4.725   4.753   4.760   4.763   4.771   4.782
  4.802   4.805   4.807   4.811   4.829   4.836   4.840   4.848
  4.862   4.879   4.881   4.894   4.904   4.914   4.918   4.929
  4.938   4.946   4.954   4.957   4.970   4.980   4.989   4.990
  4.994   5.002   5.012   5.014   5.026   5.034   5.038   5.045
  5.053   5.062   5.070   5.081   5.091   5.099   5.111   5.120
  5.131   5.139   5.146   5.152   5.162   5.167   5.180   5.190
  5.209   5.217   5.230   5.250   5.274   5.299   5.303   5.316
  5.324   5.338   5.351   5.362   5.367   5.387   5.400   5.421
  5.442   5.464   5.468   5.486   5.492   5.500   5.523   5.538
  5.562   5.572   5.578   5.589   5.593   5.597   5.627   5.646
  5.667   5.680   5.708   5.719   5.734   5.748   5.760   5.777
  5.793   5.835   5.835   5.862   5.868   5.877   5.897   5.919
  5.950   5.953   5.986   6.046   6.085   6.102   6.134   6.169
  6.199   6.235   6.242   6.279   6.295   6.315   6.377   6.431
  6.445   6.488   6.633   6.848   6.979   7.071   7.938   8.808
  9.810  10.125  10.609  11.041  11.236  11.709  11.971  11.978
 12.346  12.627  12.759  12.780  12.847  12.905  13.037  13.296
 13.395  13.491  13.543  13.781  14.287  14.691  15.041  15.070
 --------------------------------------------------------------
 
          Ground-State Mulliken Net Atomic Charges

     Atom                 Charge (a.u.)
  ----------------------------------------
      1 C                    -0.090993
      2 C                    -0.128139
      3 C                    -0.079904
      4 C                    -0.119436
      5 N                    -0.143950
      6 C                     0.081411
      7 C                     0.110438
      8 N                    -0.176028
      9 C                    -0.012067
     10 C                    -0.058744
     11 N                    -0.221832
     12 C                     0.040551
     13 C                     0.034916
     14 S                     0.409954
     15 N                    -0.278863
     16 C                    -0.077787
     17 S                     0.190047
     18 C                     0.035783
     19 C                    -0.053400
     20 N                    -0.146610
     21 C                     0.040353
     22 C                    -0.015126
     23 C                    -0.050227
     24 N                    -0.162065
     25 C                    -0.139174
     26 S                     0.099356
     27 C                    -0.049886
     28 C                    -0.156967
     29 C                    -0.181865
     30 H                     0.133277
     31 H                     0.120058
     32 H                     0.120282
     33 H                     0.138908
     34 H                     0.126428
     35 H                     0.131055
     36 H                     0.135829
     37 H                     0.127917
     38 H                     0.130269
     39 H                     0.136228
  ----------------------------------------
  Sum of atomic charges =     0.000000

 -----------------------------------------------------------------
                    Cartesian Multipole Moments
 -----------------------------------------------------------------
    Charge (ESU x 10^10)
                 0.0000
    Dipole Moment (Debye)
         X       0.1943      Y       1.5373      Z       0.1195
       Tot       1.5541
    Quadrupole Moments (Debye-Ang)
        XX    -151.3106     XY       4.3287     YY    -169.0546
        XZ      -4.8834     YZ       2.7477     ZZ    -182.6788
    Octopole Moments (Debye-Ang^2)
       XXX     108.1079    XXY       3.3915    XYY     -23.8650
       YYY      40.6230    XXZ     -41.5675    XYZ     -42.8857
       YYZ      14.8319    XZZ      -1.0328    YZZ      -4.6484
       ZZZ      16.6468
    Hexadecapole Moments (Debye-Ang^3)
      XXXX  -15893.7001   XXXY     500.2119   XXYY   -3453.2523
      XYYY    -150.9482   YYYY   -2747.4578   XXXZ    -361.8007
      XXYZ      83.7775   XYYZ     -16.3902   YYYZ      72.6887
      XXZZ   -3461.3129   XYZZ     -11.1219   YYZZ    -659.5361
      XZZZ      53.8872   YZZZ     -19.1459   ZZZZ   -1255.0427
 -----------------------------------------------------------------
 Calculating analytic gradient of the SCF energy
 K construction time:  CPU 2679.91 s  wall 170.00 s
 Gradient of SCF Energy
            1           2           3           4           5           6
    1  -0.0000019   0.0000817   0.0000513  -0.0001594  -0.0000724   0.0001326
    2  -0.0001745   0.0001292   0.0000640   0.0000256   0.0001177   0.0001904
    3  -0.0000296  -0.0000038  -0.0000386  -0.0004259   0.0000726   0.0006788
            7           8           9          10          11          12
    1  -0.0001817  -0.0007048   0.0000546   0.0000587  -0.0007208  -0.0000220
    2  -0.0006160   0.0004823   0.0007406  -0.0022604  -0.0000326   0.0011555
    3  -0.0003554  -0.0000778  -0.0004336  -0.0012619  -0.0001347  -0.0002152
           13          14          15          16          17          18
    1   0.0011047  -0.0001317   0.0006924  -0.0007201  -0.0000922   0.0001711
    2   0.0021628  -0.0013617  -0.0002418   0.0000699   0.0010464  -0.0007182
    3   0.0013957   0.0012373   0.0000381   0.0008566  -0.0013784   0.0009891
           19          20          21          22          23          24
    1   0.0004897   0.0006214  -0.0003115  -0.0002519  -0.0005068   0.0001656
    2  -0.0008547  -0.0008713   0.0006214   0.0005263   0.0003010  -0.0008417
    3  -0.0004514  -0.0005352   0.0003084  -0.0002737   0.0000944  -0.0003667
           25          26          27          28          29          30
    1   0.0000052  -0.0000964   0.0005218   0.0000350   0.0001863   0.0000030
    2  -0.0005287  -0.0000580   0.0006416   0.0001103   0.0000900   0.0000221
    3   0.0003673  -0.0001056   0.0002191  -0.0001210  -0.0000283   0.0000664
           31          32          33          34          35          36
    1  -0.0000464   0.0000198  -0.0000074  -0.0003783   0.0000284  -0.0000199
    2  -0.0000781  -0.0000310  -0.0000549   0.0003477  -0.0000144   0.0000836
    3   0.0000290   0.0000168  -0.0000159  -0.0002163  -0.0000610   0.0000345
           37          38          39
    1  -0.0000081   0.0000240  -0.0000133
    2  -0.0001344  -0.0000735   0.0000174
    3   0.0000524   0.0000693   0.0000043
 Max gradient component =       2.260E-03
 RMS gradient           =       5.506E-04
 Gradient time:  CPU 3130.17 s  wall 200.53 s
 Geometry Optimization Parameters
   NAtoms,    NIC,     NZ,  NCons,   NDum,   NFix, NCnnct, MaxDiis
       39     293       0       3       0       0       0       0

 Cartesian Hessian Update
 Hessian Updated using BFGS Update


** CONSTRAINED OPTIMIZATION IN DELOCALIZED INTERNAL COORDINATES **
   Searching for a Minimum

   Optimization Cycle:   3

                       Coordinates (Angstroms)
     ATOM                X               Y               Z
      1  C         7.5881364319    0.1865517356   -0.9408049216
      2  C         6.8779826075    1.3441938907   -1.2140012621
      3  C         6.8887471897   -0.9201213668   -0.4866097513
      4  C         5.5106460461    1.3494725244   -1.0184207319
      5  N         5.5771785358   -0.9278340653   -0.2900588059
      6  C         4.9012982339    0.1891109706   -0.5465262645
      7  C         3.4296915733    0.1690816015   -0.3411670325
      8  N         2.7262089220    1.0484388181   -1.0010081204
      9  C         2.7681877066   -0.7471775159    0.5434768486
     10  C         1.3757524873    1.0982804694   -0.8888656683
     11  N         3.3090918164   -1.6691323205    1.3446148186
     12  C         1.3427477458   -0.6869928752    0.6492955017
     13  C         0.6197266951    0.2804254944   -0.1000578080
     14  S         2.0924781477   -2.3737227977    2.1160181511
     15  N         0.8337905793   -1.5717169376    1.5081860614
     16  C        -0.8336556123    0.4136677962   -0.0246651229
     17  S        -1.9032748513   -0.8450220452   -0.4564329436
     18  C        -1.5594864747    1.5239336774    0.3539617316
     19  C        -3.3249756046    0.0587017460   -0.1636296689
     20  N        -1.0194282604    2.7065128998    0.7687729964
     21  C        -2.9763387630    1.3265962666    0.2830205460
     22  C        -4.6473560326   -0.4973599501   -0.3599118317
     23  C        -1.8803101099    3.6213912912    1.0863283774
[...]
   Point Group: c1    Number of degrees of freedom:   111


   Energy is  -2291.147164498

              Constraints and their Current Values
                                        Value     Constraint
   Dihedral:        4   6   7   8       21.822       21.822
   Dihedral:       10  13  16  17      120.000      120.000
   Dihedral:       17  19  22  25      156.395      156.395
 Hessian Updated using BFGS Update

108 Hessian modes will be used to form the next step
  Hessian Eigenvalues:
     0.007390    0.018320    0.042851    0.045000    0.045000    0.045000
     0.045000    0.045000    0.045000    0.045000    0.045000    0.045001
     0.045001    0.045001    0.045001    0.045001    0.045001    0.045001
     0.045001    0.045002    0.045002    0.045003    0.045003    0.045003
     0.045006    0.045009    0.045010    0.045013    0.045028    0.045036
     0.045123    0.045164    0.045329    0.154594    0.159808    0.159976
     0.159998    0.160000    0.160001    0.160010    0.160075    0.160143
     0.160747    0.217220    0.220169    0.221666    0.224283    0.224401
     0.234296    0.238610    0.244025    0.244486    0.248644    0.249628
     0.249833    0.249940    0.249966    0.249986    0.250014    0.250075
     0.254672    0.259275    0.284979    0.310430    0.314291    0.333370
     0.335096    0.341114    0.344973    0.354116    0.354476    0.355766
     0.357051    0.359041    0.360708    0.361041    0.363477    0.364077
     0.364164    0.372363    0.375357    0.389466    0.396856    0.401999
     0.404185    0.419689    0.432345    0.435045    0.452967    0.460389
     0.465345    0.473687    0.474127    0.483048    0.485115    0.487182
     0.489660    0.504974    0.518919    0.519681    0.526168    0.559474
     0.572462    0.589784    0.635768    0.652615    0.655277    0.675206

 Minimum Search - Taking Simple RFO Step
 Searching for Lamda that Minimizes Along All modes
 Value Taken    Lamda =   0.00000000
 Step Taken.  Stepsize is  0.001654

                             Maximum     Tolerance    Cnvgd?
         Gradient           0.000043      0.000300     YES
         Displacement       0.000706      0.001200     YES
         Energy change      0.000000      0.000001     YES

 Final energy is   -2291.14716449790     


 ******************************
 **  OPTIMIZATION CONVERGED  **
 ******************************

                       Coordinates (Angstroms)
     ATOM                X               Y               Z
      1  C         7.5713979993    0.1526379925   -1.0227298472
      2  C         6.8751148731    1.3328623054   -1.2249152025
      3  C         6.8662580647   -0.9591700971   -0.5901754272
      4  C         5.5151283442    1.3539900011   -0.9844011227
      5  N         5.5619413364   -0.9518457478   -0.3504934311
      6  C         4.8994817333    0.1867270161   -0.5388323291
      7  C         3.4333885447    0.1788422552   -0.2976534531
      8  N         2.7259689667    1.0898789907   -0.9076604163
      9  C         2.7808667146   -0.7602847451    0.5693929892
     10  C         1.3773827672    1.1451084791   -0.7718893479
     11  N         3.3304982892   -1.7112270368    1.3290342795
     12  C         1.3582370714   -0.6906323177    0.7063405466
     13  C         0.6279842808    0.3085875531    0.0059196036
     14  S         2.1219520992   -2.4287060049    2.1004879806
     15  N         0.8574865275   -1.5977348615    1.5459215589
     16  C        -0.8261171671    0.4238668225    0.0843592003
     17  S        -1.8787444657   -0.8451378545   -0.3654444487
     18  C        -1.5688508832    1.5446267206    0.4007319693
     19  C        -3.3120355970    0.0631047348   -0.1466095172
     20  N        -1.0498664598    2.7406596167    0.8060654712
     21  C        -2.9815243787    1.3414694098    0.2813580010
     22  C        -4.6264267536   -0.5044536857   -0.3615927301
     23  C        -1.9242464733    3.6597835139    1.0670594983
     24  N        -3.8674966434    2.3387721876    0.5635207723
     25  C        -5.8148586533   -0.0881370196    0.1721361485
     26  S        -4.8689676589   -1.8825880420   -1.3834295948
     27  C        -3.3392354737    3.4595491340    0.9431126996
     28  C        -6.9132239388   -0.8820990588   -0.2366694755
     29  C        -6.5530010425   -1.8920230255   -1.0711624353
     30  H         8.6356360901    0.0882909279   -1.1995998502
     31  H         7.3830669049    2.2235408516   -1.5686576372
     32  H         7.3728467655   -1.9046591655   -0.4343436308
     33  H         4.9216105830    2.2424295522   -1.1347160757
     34  H         0.8891655126    1.9327577639   -1.3301781751
     35  H        -1.5545668870    4.6237689158    1.3998886883
     36  H        -5.8839411177    0.7656051823    0.8262231325
     37  H        -4.0123572679    4.2777056825    1.1746109284
     38  H        -7.9304914438   -0.7079820829    0.0789745598
     39  H        -7.1815617988   -2.6374371000   -1.5273592627

Z-matrix Print:
$molecule
0 1
S 
C  1 1.709012
C  2 1.381249 1 109.365105
N  3 1.365333 2 125.057413 1 -179.791049 0
C  4 1.295163 3 115.142167 2 179.291047 0
H  5 1.084761 4 117.542213 3 -179.543015 0
C  3 1.432190 2 113.341333 1 -0.531878 0
N  7 1.363516 3 121.326543 2 -179.546221 0
C  8 1.295875 7 115.361630 3 0.153291 0
H  9 1.084465 8 117.516192 7 -179.876284 0
C  7 1.388024 3 113.030115 2 0.852076 0
C  11 1.447745 7 128.537457 3 -179.080778 0
C  12 1.367683 11 127.706587 7 21.742349 0
H  13 1.077719 12 122.254420 11 -1.311977 0
C  13 1.415593 12 113.003653 11 179.270646 0
H  15 1.079250 13 123.806999 12 179.912330 0
C  15 1.358707 13 112.864382 12 -0.129888 0
H  17 1.076497 15 128.328264 13 179.982247 0
C  2 1.460771 1 122.709764 3 174.994719 0
C  19 1.366145 2 121.890325 1 -119.999999 0
H  20 1.081866 19 119.476080 2 -1.486735 0
N  20 1.356528 19 125.267345 2 179.185185 0
C  22 1.304814 20 121.374039 19 -1.318498 0
C  19 1.422076 2 122.695223 1 58.714070 0
N  24 1.333598 19 126.526805 2 2.866722 0
C  24 1.430902 19 119.841814 2 -179.049101 0
N  26 1.335455 24 112.917815 19 -177.344775 0
C  23 1.485819 22 117.088917 20 -178.598026 0
N  28 1.330666 23 117.627166 22 156.312149 0
C  29 1.326176 28 117.955134 23 -178.651063 0
H  30 1.083912 29 116.008289 28 179.517803 0
C  30 1.385800 29 123.533643 28 -0.088587 0
H  32 1.080753 30 120.289645 29 -179.834071 0
C  32 1.385142 30 118.253746 29 0.478068 0
H  34 1.081426 32 120.800801 30 179.569427 0
C  34 1.381252 32 118.852541 30 -0.200313 0
H  36 1.078973 34 122.001702 32 179.365026 0
S  27 1.603278 26 106.386916 24 -0.774424 0
S  17 1.712766 15 111.626568 13 0.512549 0
$end

 
 --------------------------------------------------------------
 
                    Orbital Energies (a.u.)
 --------------------------------------------------------------
 
 Alpha MOs
 -- Occupied --
-89.146 -89.100 -89.079 -14.482 -14.478 -14.461 -14.460 -14.448
-14.436 -10.357 -10.354 -10.351 -10.345 -10.343 -10.342 -10.338
-10.338 -10.337 -10.337 -10.334 -10.334 -10.328 -10.325 -10.319
-10.311 -10.302 -10.300 -10.295 -10.292  -8.156  -8.115  -8.094
 -6.106  -6.100  -6.100  -6.064  -6.060  -6.058  -6.044  -6.040
 -6.037  -1.142  -1.099  -1.071  -1.051  -1.028  -1.012  -1.003
 -0.986  -0.926  -0.913  -0.897  -0.879  -0.868  -0.854  -0.838
 -0.812  -0.777  -0.770  -0.748  -0.739  -0.730  -0.720  -0.711
 -0.672  -0.654  -0.647  -0.630  -0.629  -0.621  -0.605  -0.603
 -0.591  -0.577  -0.569  -0.562  -0.559  -0.544  -0.543  -0.526
 -0.512  -0.506  -0.502  -0.501  -0.494  -0.492  -0.486  -0.481
 -0.473  -0.468  -0.461  -0.456  -0.450  -0.439  -0.428  -0.425
 -0.422  -0.412  -0.397  -0.376  -0.369  -0.365  -0.359  -0.350
 -0.342  -0.339  -0.337  -0.333  -0.316  -0.272
 -- Virtual --
 -0.045  -0.031   0.026   0.031   0.040   0.056   0.066   0.071
  0.086   0.086   0.102   0.123   0.125   0.128   0.132   0.138
  0.147   0.149   0.153   0.157   0.164   0.175   0.177   0.191
  0.195   0.199   0.211   0.216   0.219   0.228   0.241   0.247
  0.257   0.263   0.267   0.271   0.278   0.287   0.290   0.296
  0.299   0.300   0.309   0.315   0.317   0.319   0.322   0.327
  0.330   0.334   0.341   0.345   0.346   0.349   0.353   0.356
  0.362   0.364   0.372   0.375   0.378   0.382   0.383   0.389
  0.392   0.395   0.397   0.400   0.404   0.407   0.408   0.411
  0.416   0.419   0.426   0.430   0.432   0.433   0.435   0.439
  0.442   0.448   0.450   0.456   0.459   0.459   0.461   0.463
  0.469   0.471   0.474   0.475   0.479   0.483   0.488   0.489
  0.493   0.496   0.498   0.505   0.509   0.511   0.519   0.520
  0.522   0.526   0.531   0.535   0.539   0.540   0.546   0.551
  0.552   0.560   0.566   0.570   0.576   0.581   0.587   0.600
  0.602   0.606   0.609   0.612   0.616   0.622   0.625   0.635
  0.640   0.641   0.647   0.655   0.659   0.660   0.665   0.668
  0.678   0.683   0.685   0.690   0.698   0.706   0.708   0.711
  0.712   0.722   0.730   0.732   0.735   0.737   0.743   0.744
  0.753   0.763   0.768   0.769   0.770   0.777   0.781   0.788
  0.789   0.792   0.800   0.801   0.807   0.811   0.814   0.824
  0.828   0.835   0.839   0.840   0.843   0.846   0.849   0.855
  0.860   0.867   0.871   0.878   0.880   0.883   0.891   0.895
  0.902   0.913   0.914   0.919   0.924   0.929   0.934   0.937
  0.938   0.941   0.945   0.954   0.957   0.961   0.967   0.971
  0.977   0.984   0.988   0.992   0.998   1.000   1.006   1.017
  1.019   1.022   1.030   1.035   1.040   1.046   1.053   1.056
  1.064   1.069   1.079   1.081   1.084   1.088   1.093   1.099
  1.100   1.107   1.110   1.112   1.120   1.126   1.128   1.144
  1.147   1.153   1.167   1.170   1.173   1.183   1.188   1.196
  1.197   1.208   1.216   1.219   1.223   1.232   1.238   1.244
  1.248   1.254   1.262   1.264   1.273   1.283   1.292   1.297
  1.308   1.315   1.325   1.330   1.337   1.343   1.352   1.358
  1.360   1.365   1.372   1.378   1.379   1.382   1.389   1.394
  1.401   1.404   1.409   1.411   1.422   1.427   1.431   1.436
  1.444   1.446   1.450   1.458   1.466   1.473   1.475   1.484
  1.486   1.495   1.497   1.501   1.506   1.510   1.517   1.522
  1.546   1.558   1.565   1.567   1.574   1.578   1.585   1.592
  1.600   1.608   1.613   1.618   1.622   1.631   1.638   1.649
  1.654   1.659   1.664   1.666   1.671   1.680   1.685   1.693
  1.696   1.704   1.711   1.723   1.731   1.739   1.743   1.752
  1.754   1.762   1.765   1.772   1.785   1.792   1.800   1.808
  1.819   1.826   1.843   1.844   1.861   1.870   1.880   1.886
  1.891   1.894   1.909   1.913   1.927   1.928   1.939   1.945
  1.949   1.967   1.978   1.981   1.982   1.990   2.003   2.010
  2.015   2.019   2.032   2.038   2.041   2.054   2.057   2.069
  2.075   2.085   2.093   2.104   2.108   2.116   2.116   2.126
  2.136   2.147   2.164   2.171   2.174   2.175   2.184   2.190
  2.200   2.207   2.213   2.218   2.238   2.246   2.251   2.257
  2.267   2.272   2.278   2.288   2.291   2.293   2.304   2.306
  2.310   2.314   2.332   2.334   2.344   2.355   2.364   2.372
  2.377   2.381   2.393   2.396   2.407   2.410   2.414   2.428
  2.436   2.443   2.446   2.453   2.458   2.462   2.472   2.478
  2.488   2.495   2.498   2.511   2.524   2.525   2.529   2.530
  2.536   2.539   2.542   2.551   2.557   2.575   2.583   2.588
  2.612   2.617   2.623   2.628   2.634   2.647   2.648   2.651
  2.662   2.669   2.673   2.681   2.685   2.694   2.704   2.712
  2.725   2.733   2.741   2.746   2.759   2.772   2.774   2.777
  2.782   2.788   2.793   2.804   2.807   2.816   2.819   2.822
  2.831   2.837   2.844   2.847   2.853   2.857   2.868   2.874
  2.877   2.886   2.893   2.906   2.914   2.918   2.929   2.932
  2.937   2.941   2.947   2.951   2.960   2.965   2.968   2.977
  2.985   2.996   2.999   3.006   3.011   3.014   3.017   3.021
  3.026   3.035   3.041   3.043   3.048   3.054   3.060   3.064
  3.069   3.070   3.073   3.075   3.081   3.082   3.086   3.091
  3.094   3.102   3.105   3.108   3.112   3.119   3.121   3.126
  3.136   3.142   3.147   3.154   3.157   3.162   3.165   3.170
  3.172   3.180   3.187   3.194   3.195   3.198   3.203   3.204
  3.211   3.216   3.218   3.222   3.229   3.233   3.235   3.238
  3.240   3.251   3.255   3.256   3.260   3.266   3.270   3.272
  3.276   3.277   3.281   3.288   3.293   3.299   3.301   3.303
  3.310   3.316   3.318   3.321   3.328   3.331   3.334   3.339
  3.347   3.355   3.358   3.372   3.379   3.384   3.388   3.391
  3.401   3.404   3.411   3.416   3.421   3.424   3.427   3.435
  3.437   3.440   3.450   3.454   3.465   3.468   3.472   3.478
  3.483   3.484   3.490   3.494   3.503   3.508   3.516   3.523
  3.529   3.533   3.538   3.548   3.560   3.562   3.570   3.584
  3.587   3.597   3.607   3.614   3.618   3.626   3.636   3.637
  3.652   3.662   3.671   3.686   3.692   3.696   3.703   3.711
  3.715   3.719   3.724   3.734   3.739   3.748   3.749   3.755
  3.765   3.772   3.782   3.787   3.797   3.801   3.804   3.810
  3.819   3.823   3.828   3.839   3.846   3.856   3.873   3.876
  3.883   3.897   3.903   3.906   3.918   3.921   3.927   3.930
  3.934   3.938   3.938   3.949   3.953   3.962   3.967   3.976
  3.980   3.984   3.991   3.999   4.012   4.018   4.031   4.039
  4.050   4.054   4.058   4.071   4.076   4.080   4.092   4.104
  4.111   4.115   4.127   4.134   4.142   4.153   4.159   4.169
  4.180   4.189   4.193   4.201   4.206   4.210   4.218   4.223
  4.228   4.241   4.245   4.250   4.257   4.263   4.270   4.285
  4.291   4.297   4.304   4.310   4.316   4.325   4.326   4.339
  4.344   4.349   4.351   4.360   4.367   4.377   4.380   4.393
  4.395   4.409   4.412   4.423   4.436   4.441   4.449   4.460
  4.472   4.477   4.484   4.500   4.516   4.521   4.536   4.542
  4.547   4.554   4.563   4.566   4.585   4.590   4.594   4.601
  4.612   4.634   4.643   4.647   4.666   4.673   4.688   4.702
  4.710   4.721   4.726   4.753   4.759   4.762   4.770   4.782
  4.800   4.806   4.807   4.811   4.827   4.836   4.840   4.850
  4.861   4.879   4.882   4.893   4.905   4.914   4.918   4.930
  4.937   4.946   4.955   4.956   4.970   4.980   4.988   4.990
  4.993   5.001   5.011   5.014   5.024   5.035   5.039   5.046
  5.052   5.063   5.070   5.082   5.091   5.100   5.111   5.120
  5.131   5.140   5.146   5.151   5.162   5.166   5.179   5.190
  5.209   5.218   5.230   5.248   5.272   5.299   5.304   5.316
  5.324   5.336   5.350   5.360   5.368   5.386   5.401   5.420
  5.442   5.465   5.466   5.484   5.490   5.501   5.523   5.537
  5.560   5.572   5.578   5.589   5.594   5.598   5.626   5.645
  5.666   5.680   5.709   5.719   5.733   5.747   5.758   5.774
  5.791   5.834   5.836   5.862   5.868   5.878   5.898   5.918
  5.950   5.953   5.988   6.045   6.084   6.102   6.132   6.167
  6.198   6.237   6.243   6.280   6.295   6.316   6.376   6.431
  6.444   6.486   6.635   6.849   6.978   7.070   7.946   8.813
  9.813  10.137  10.613  11.038  11.232  11.696  11.967  11.979
 12.343  12.622  12.756  12.774  12.851  12.893  13.022  13.298
 13.380  13.460  13.543  13.800  14.293  14.679  15.048  15.072
 --------------------------------------------------------------
 
          Ground-State Mulliken Net Atomic Charges

     Atom                 Charge (a.u.)
  ----------------------------------------
      1 C                    -0.091179
      2 C                    -0.127663
      3 C                    -0.080086
      4 C                    -0.119940
      5 N                    -0.144778
      6 C                     0.082095
      7 C                     0.110418
      8 N                    -0.176074
      9 C                    -0.012916
     10 C                    -0.059437
     11 N                    -0.221220
     12 C                     0.033936
     13 C                     0.043034
     14 S                     0.409332
     15 N                    -0.278284
     16 C                    -0.071119
     17 S                     0.188587
     18 C                     0.028201
     19 C                    -0.054071
     20 N                    -0.147121
     21 C                     0.041846
     22 C                    -0.014431
     23 C                    -0.048988
     24 N                    -0.162468
     25 C                    -0.139283
     26 S                     0.099414
     27 C                    -0.049789
     28 C                    -0.157326
     29 C                    -0.181666
     30 H                     0.133199
     31 H                     0.120125
     32 H                     0.120085
     33 H                     0.138628
     34 H                     0.126780
     35 H                     0.131280
     36 H                     0.136578
     37 H                     0.127630
     38 H                     0.130279
     39 H                     0.136389
  ----------------------------------------
  Sum of atomic charges =     0.000000

 -----------------------------------------------------------------
                    Cartesian Multipole Moments
 -----------------------------------------------------------------
    Charge (ESU x 10^10)
                 0.0000
    Dipole Moment (Debye)
         X       0.1531      Y       1.5393      Z       0.0254
       Tot       1.5471
    Quadrupole Moments (Debye-Ang)
        XX    -151.1101     XY       3.8805     YY    -168.5415
        XZ      -5.0543     YZ       2.6991     ZZ    -183.1863
    Octopole Moments (Debye-Ang^2)
       XXX     101.8303    XXY       5.2550    XYY     -27.5561
       YYY      43.9598    XXZ     -48.8634    XYZ     -41.7442
       YYZ      11.3018    XZZ       0.2590    YZZ      -4.6830
       ZZZ       8.5737
    Hexadecapole Moments (Debye-Ang^3)
      XXXX  -15862.6253   XXXY     502.7185   XXYY   -3437.6669
      XYYY    -129.7697   YYYY   -2819.3904   XXXZ    -376.5367
      XXYZ      93.7123   XYYZ      -8.2677   YYYZ      72.3398
      XXZZ   -3445.3719   XYZZ      -3.0475   YYZZ    -674.9416
      XZZZ      70.4656   YZZZ     -18.0140   ZZZZ   -1230.8426
 -----------------------------------------------------------------
Archival summary:
1\1\mn251\OPT\ProcedureUnspecified\BasisUnspecified\362010\afmv_a\SunJun1803:40:562017SunJun1803:40:562017\0\\#,OPT,ProcedureUnspecified,BasisUnspecified,\\0,1\S\C,1,1.70901\C,2,1.38125,1,109.365\N,3,1.36533,2,125.057,1,-179.791,0\C,4,1.29516,3,115.142,2,179.291,0\H,5,1.08476,4,117.542,3,-179.543,0\C,3,1.43219,2,113.341,1,-0.531878,0\N,7,1.36352,3,121.327,2,-179.546,0\C,8,1.29587,7,115.362,3,0.153291,0\H,9,1.08447,8,117.516,7,-179.876,0\C,7,1.38802,3,113.03,2,0.852076,0\C,11,1.44774,7,128.537,3,-179.081,0\C,12,1.36768,11,127.707,7,21.7423,0\H,13,1.07772,12,122.254,11,-1.31198,0\C,13,1.41559,12,113.004,11,179.271,0\H,15,1.07925,13,123.807,12,179.912,0\C,15,1.35871,13,112.864,12,-0.129888,0\H,17,1.0765,15,128.328,13,179.982,0\C,2,1.46077,1,122.71,3,174.995,0\C,19,1.36614,2,121.89,1,-120,0\H,20,1.08187,19,119.476,2,-1.48673,0\N,20,1.35653,19,125.267,2,179.185,0\C,22,1.30481,20,121.374,19,-1.3185,0\C,19,1.42208,2,122.695,1,58.7141,0\N,24,1.3336,19,126.527,2,2.86672,0\C,24,1.4309,19,119.842,2,-179.049,0\N,26,1.33546,24,112.918,19,-177.345,0\C,23,1.48582,22,117.089,20,-178.598,0\N,28,1.33067,23,117.627,22,156.312,0\C,29,1.32618,28,117.955,23,-178.651,0\H,30,1.08391,29,116.008,28,179.518,0\C,30,1.3858,29,123.534,28,-0.0885869,0\H,32,1.08075,30,120.29,29,-179.834,0\C,32,1.38514,30,118.254,29,0.478068,0\H,34,1.08143,32,120.801,30,179.569,0\C,34,1.38125,32,118.853,30,-0.200313,0\H,36,1.07897,34,122.002,32,179.365,0\S,27,1.60328,26,106.387,24,-0.774424,0\S,17,1.71277,15,111.627,13,0.512549,0\\\@

 Total job time:  7949.70s(wall), 118343.81s(cpu) 
 Sun Jun 18 03:40:56 2017

        *************************************************************
        *                                                           *
        *  Thank you very much for using Q-Chem.  Have a nice day.  *
        *                                                           *
        *************************************************************


