
Running Job 1 of 1 C169_2/C169_180.qcin
qchem C169_2/C169_180.qcin_24994.0 /tmpu/cab_g/afmv_a/scratch_qchem/qchem24994/ 1
/tmpu/appuserlic/qchem4.4/serial-multicore/exe/qcprog.exe_s C169_2/C169_180.qcin_24994.0 /tmpu/cab_g/afmv_a/scratch_qchem/qchem24994/
Check license passed

                  Welcome to Q-Chem
     A Quantum Leap Into The Future Of Chemistry


 Q-Chem 4.4, Q-Chem, Inc., Pleasanton, CA (2016)

 Y. Shao,  Z. Gan,  E. Epifanovsky,  A. T. B. Gilbert,  M. Wormit,  
 J. Kussmann,  A. W. Lange,  A. Behn,  J. Deng,  X. Feng,  D. Ghosh,  
 M. Goldey,  P. R. Horn,  L. D. Jacobson,  I. Kaliman,  F. Rob,  
 R. Z. Khaliullin,  T. Kus,  A. Landau,  J. Liu,  E. I. Proynov,  Y. M. Rhee,  
 R. M. Richard,  M. A. Rohrdanz,  R. P. Steele,  E. J. Sundstrom,  
 H. L. Woodcock III,  P. M. Zimmerman,  D. Zuev,  B. Albrecht,  E. Alguire,  
 B. Austin,  S. A. Baeppler,  G. J. O. Beran,  Y. A. Bernard,  E. Berquist,  
 K. Brandhorst,  K. B. Bravaya,  S. T. Brown,  D. Casanova,  C.-M. Chang,  
 Y. Chen,  S. H. Chien,  K. D. Closser,  M. P. Coons,  D. L. Crittenden,  
 S. Dasgupta,  M. Diedenhofen,  R. A. DiStasio Jr.,  H. Do,  A. D. Dutoi,  
 R. G. Edgar,  P.-T. Fang,  S. Fatehi,  Q. Feng,  L. Fusti-Molnar,  
 A. Ghysels,  A. Golubeva-Zadorozhnaya,  J. Gomes,  A. Gunina,  
 M. W. D. Hanson-Heine,  P. H. P. Harbach,  A. W. Hauser,  J. E. Herr,  
 E. G. Hohenstein,  Z. C. Holden,  K. Hui,  T.-C. Jagau,  H. Ji,  B. Kaduk,  
 K. Khistyaev,  Jaehoon Kim,  Jihan Kim,  R. A. King,  P. Klunzinger,  
 K. Koh,  D. Kosenkov,  T. Kowalczyk,  C. M. Krauter,  A. Kunitsa,  
 K. U. Lao,  A. Laurent,  K. V. Lawler,  J. Lee,  D. Lefrancois,  S. Lehtola,  
 S. V. Levchenko,  C. Y. Lin,  Y.-S. Lin,  F. Liu,  E. Livshits,  
 R. C. Lochan,  A. Luenser,  P. Manohar,  S. F. Manzer,  S.-P. Mao,  Y. Mao,  
 N. Mardirossian,  A. V. Marenich,  L. A. Martinez-Martinez,  S. A. Maurer,  
 N. J. Mayhall,  J.-M. Mewes,  A. F. Morrison,  K. Nanda,  T. S. Nguyen-Beck,  
 C. M. Oana,  R. Olivares-Amaya,  D. P. O'Neill,  J. A. Parkhill,  
 T. M. Perrine,  R. Peverati,  P. A. Pieniazek,  F. Plasser,  A. Prociuk,  
 D. R. Rehn,  E. Rosta,  N. J. Russ,  N. Sergueev,  S. M. Sharada,  
 S. Sharma,  D. W. Small,  A. Sodt,  T. Stauch,  T. Stein,  D. Stuck,  
 Y.-C. Su,  A. J. W. Thom,  T. Tsuchimochi,  L. Vogt,  O. Vydrov,  T. Wang,  
 M. A. Watson,  J. Wenzel,  A. White,  C. F. Williams,  V. Vanovschi,  
 K. Yao,  S. Yeganeh,  S. R. Yost,  Z.-Q. You,  I. Y. Zhang,  X. Zhang,  
 Y. Zhao,  B. R. Brooks,  G. K. L. Chan,  D. M. Chipman,  C. J. Cramer,  
 W. A. Goddard III,  M. S. Gordon,  W. J. Hehre,  A. Klamt,  
 H. F. Schaefer III,  M. W. Schmidt,  C. D. Sherrill,  D. G. Truhlar,  
 A. Warshel,  X. Xu,  A. Aspuru-Guzik,  R. Baer,  A. T. Bell,  N. A. Besley,  
 J.-D. Chai,  A. Dreuw,  B. D. Dunietz,  T. R. Furlani,  S. R. Gwaltney,  
 C.-P. Hsu,  Y. Jung,  J. Kong,  D. S. Lambrecht,  W. Liang,  C. Ochsenfeld,  
 V. A. Rassolov,  L. V. Slipchenko,  J. E. Subotnik,  T. Van Voorhis,  
 J. M. Herbert,  A. I. Krylov,  P. M. W. Gill,  M. Head-Gordon

 Contributors to earlier versions of Q-Chem not listed above: 
 R. D. Adamson,  J. Baker,  E. F. C. Byrd,  A. K. Chakraborty,  C.-L. Cheng,  
 H. Dachsel,  R. J. Doerksen,  G. Hawkins,  A. Heyden,  S. Hirata,  
 G. Kedziora,  F. J. Keil,  C. Kelley,  P. P. Korambath,  W. Kurlancheek,  
 A. M. Lee,  M. S. Lee,  D. Liotard,  I. Lotan,  P. E. Maslen,  N. Nair,  
 D. Neuhauser,  R. Olson,  B. Peters,  J. Ritchie,  N. E. Schultz,  
 N. Shenvi,  A. C. Simmonett,  K. S. Thanthiriwatte,  Q. Wu,  W. Zhang

 Please cite Q-Chem as follows:
 Y. Shao et al., Mol. Phys. 113, 184-215 (2015)
 DOI: 10.1080/00268976.2014.952696

 Q-Chem 4.4.2 for Intel X86 Linux

 Parts of Q-Chem use Armadillo 5.200.1 (Boston Tea Smuggler).
 http://arma.sourceforge.net/

 Q-Chem begins on Sat Jun 17 00:20:58 2017  

Host: 
0

     Scratch files written to /tmpu/cab_g/afmv_a/scratch_qchem/qchem24994//
 Dec716 11556_ 22328  22283 4050   
Processing $rem in /tmpu/appuserlic/qchem4.4/serial-multicore/config/preferences.
 MEM_TOTAL  2000 
FILE_GEOM_ORG=        593

Checking the input file for inconsistencies... 	...done.

--------------------------------------------------------------
User input:
--------------------------------------------------------------
$comment
OPTIMIZATION
$end

$rem
JOBTYPE OPT
EXCHANGE omegaB97X-D
BASIS cc-pVTZ
$end

$molecule
0 1
C          0.00000        0.00000        0.00000
C         -0.65396       -1.22126       -0.00000
C          1.38563        0.00000        0.00000
C          0.09526       -2.37957        0.00866
N          2.11912       -1.10562        0.01199
C          1.48546       -2.27640        0.02149
C          2.30642       -3.51253        0.03449
N          1.74513       -4.60745       -0.39909
C          3.65824       -3.56714        0.50995
C          2.40434       -5.79109       -0.42442
N          4.38617       -2.58332        1.04242
C          4.35289       -4.81920        0.47143
C          3.70163       -5.99343       -0.01477
S          5.80914       -3.21778        1.41887
N          5.59255       -4.74484        0.95148
C          4.33823       -7.30129       -0.04468
S          5.95981       -7.55770        0.46672
C          3.80177       -8.52407       -0.44890
C          5.96960       -9.23070        0.13551
N          2.53551       -8.72927       -0.90806
C          4.72254       -9.61403       -0.34338
C          7.13188      -10.05873        0.36540
C          2.24209       -9.94913       -1.23714
N          4.37969      -10.88155       -0.69840
C          7.17237      -11.41013        0.57320
S          8.73303       -9.39226        0.39785
C          3.16684      -11.03305       -1.13421
C          8.48496      -11.90158        0.77028
C          9.42907      -10.92547        0.70881
H         -0.54853        0.93120        0.00000
H         -1.73532       -1.26909       -0.00410
H          1.93662        0.93286       -0.01167
H         -0.36319       -3.35650        0.00329
H          1.82722       -6.62671       -0.78554
H          1.24064      -10.13532       -1.61050
H          6.28254      -12.01678        0.57288
H          2.86056      -12.03176       -1.42586
H          8.71024      -12.94078        0.95567
H         10.49479      -11.02658        0.82278
$end

$opt
CONSTRAINT
tors 4 6 7 8 21.82164
tors 10 13 16 17 180.00000
tors 17 19 22 25 156.39459
ENDCONSTRAINT
$end
--------------------------------------------------------------
 ----------------------------------------------------------------
             Standard Nuclear Orientation (Angstroms)
    I     Atom           X                Y                Z
 ----------------------------------------------------------------
    1      C       7.6817905632     0.3474672142    -0.0440204874
    2      C       6.9935288785     1.4846158050     0.3462724858
    3      C       6.9466590500    -0.7632547708    -0.4259220812
    4      C       5.6141809623     1.4625671173     0.3471899326
    5      N       5.6203182106    -0.8002205212    -0.4265822744
    6      C       4.9640721198     0.2922339993    -0.0415819589
    7      C       3.4806964109     0.2503253025    -0.0429479243
    8      N       2.8505607683     1.3906422503    -0.1099868498
    9      C       2.7169948513    -0.9603535000     0.0435306341
   10      C       1.4975109914     1.4645010609    -0.1120508031
   11      N       3.1645012439    -2.2106168905     0.1772753950
   12      C       1.2871518678    -0.8762791968     0.0309922725
   13      C       0.6375449504     0.3930575086    -0.0473741852
   14      S       1.8715812703    -3.1551444833     0.2502362278
   15      N       0.6922762484    -2.0632699487     0.1305426623
   16      C      -0.8088035711     0.5488727863    -0.0261727426
   17      S      -1.8866976729    -0.7884412956     0.0546548286
   18      C      -1.5605077182     1.7239187381    -0.0502964833
   19      C      -3.3098758631     0.1509701559     0.0264613531
   20      N      -1.0624371179     2.9911121646    -0.1002547674
   21      C      -2.9729763095     1.4985837366    -0.0168109519
   22      C      -4.6285041896    -0.4398237357     0.0659557277
   23      C      -1.9406427031     3.9454601670    -0.1208023442
   24      N      -3.8653449712     2.5249021285    -0.0400704288
   25      C      -5.7956083277     0.1384588930     0.4837587581
   26      S      -4.9130523861    -2.0683412610    -0.4592866731
   27      C      -3.3501017935     3.7147448374    -0.0919021234
   28      C      -6.9086616643    -0.7310892486     0.3929048292
   29      C      -6.5821118550    -1.9578145211    -0.0933289756
   30      H       8.7621484708     0.3198126265    -0.0529991380
   31      H       7.5266914130     2.3767719741     0.6486613916
   32      H       7.4450905530    -1.6693271596    -0.7492683530
   33      H       5.0293047231     2.3221134485     0.6364948819
   34      H       1.0955389925     2.4638274723    -0.1507957213
   35      H      -1.5669893987     4.9629662347    -0.1658702756
   36      H      -5.8377511527     1.1563205986     0.8330484434
   37      H      -4.0340416904     4.5562490262    -0.1115424583
   38      H      -7.9091545121    -0.4503428129     0.6848854291
   39      H      -7.2332773558    -2.7983771459    -0.2618800832
 ----------------------------------------------------------------
 Molecular Point Group                 C1    NOp =  1
 Largest Abelian Subgroup              C1    NOp =  1
 Nuclear Repulsion Energy =  2930.7620367693 hartrees
 There are      110 alpha and      110 beta electrons
 Requested basis set is cc-pVTZ
 There are 356 shells and 1022 basis functions

 Total QAlloc Memory Limit   2000 MB
 Mega-Array Size        61 MB
 MEM_STATIC part        62 MB
 A cutoff of  1.0D-11 yielded  30939 shell pairs
 There are    244041 function pairs (    318519 Cartesian)
 
 -------------------------------------------------------
 OpenMP Integral Computing Module                       
 Release: version 1.0, May 2013, Q-Chem Inc. Pittsburgh 
 -------------------------------------------------------
 Integral Job Info:
 Integral job number is                      11
 Integral operator is                         1
 short-range coefficients              22203600
 long-range coefficients              100000000
 Omega coefficients                         200
 if combine SR and LR in K                    1
 Integral screening is                        0
 Integral computing path is                   2
 max size of driver memory is            800000
 size of driver memory is                776718
 size of scratch memory is             26248924
 max col of scratch BK array              10000
 max len of scratch array in speh3          662
 max len of scratch index in speh4           32
 max int batch size is                      520
 min int batch size is                       52
 fixed nKL is                                52
 max L of basis functions is                  3
 order of int derivative is                   0
 number of shells is                        356
 number of basis is                        1177
 number of cartesian basis is              1177
 number of contracted shell pairs         30939
 number of primitive shell pairs          93755
 maxK2 (contraction) of shell pair          121
 max number of K2 of shell pair               1
 max number of CS2 of shell pair           4273
 max number of PS2 of shell pair          13034
 mem total for path MDJ                  837060
 -------------------------------------------------------
 Smallest overlap matrix eigenvalue = 2.36E-05

 Scale SEOQF with 1.000000e-02/1.000000e-01/1.000000e+00

 Standard Electronic Orientation quadrupole field applied
 Nucleus-field energy     =     0.0000000554 hartrees
 Guess from superposition of atomic densities
 Warning:  Energy on first SCF cycle will be non-variational
 Long-range K will be added via erf
 Coulomb attenuation parameter = 0.2 bohr**(-1)
 A restricted hybrid HF-DFT SCF calculation will be
 performed using Pulay DIIS extrapolation
 Exchange:     0.2220 Hartree-Fock + 1.0000 wB97X-D + LR-HF
 Correlation:  1.0000 wB97X-D
 Using SG-2 standard quadrature grid
 Dispersion:   Grimme D
 SCF converges when DIIS error is below 1.0E-08
 using 16 threads for integral computing 
 using 16 threads for integral computing 
 K construction time:  CPU 70.71 s  wall 4.70 s
 -------------------------------------------------------
 OpenMP BLAS3 based DFT computing Module                
 Release: version 1.0, May 2013, Q-Chem Inc. Pittsburgh 
 -------------------------------------------------------
 ---------------------------------------
  Cycle       Energy         DIIS Error
 ---------------------------------------
    1   -2301.5235306663      1.84E-02
 K construction time:  CPU 1125.51 s  wall 74.44 s
    2   -2290.9041905520      1.32E-03
 K construction time:  CPU 1077.42 s  wall 71.23 s
    3   -2290.9369917738      1.33E-03
 K construction time:  CPU 1030.59 s  wall 68.06 s
    4   -2291.1433412906      2.14E-04
 K construction time:  CPU 954.83 s  wall 63.09 s
    5   -2291.1478073521      1.38E-04
 K construction time:  CPU 901.43 s  wall 59.66 s
    6   -2291.1499920128      4.89E-05
 K construction time:  CPU 848.33 s  wall 56.12 s
    7   -2291.1502980250      1.78E-05
 K construction time:  CPU 797.46 s  wall 52.73 s
    8   -2291.1503515704      5.53E-06
 K construction time:  CPU 763.76 s  wall 50.49 s
    9   -2291.1503634506      3.70E-06
 K construction time:  CPU 727.29 s  wall 48.01 s
   10   -2291.1503674134      1.30E-06
 K construction time:  CPU 657.12 s  wall 43.34 s
   11   -2291.1503679688      7.34E-07
 K construction time:  CPU 619.21 s  wall 40.80 s
   12   -2291.1503681299      2.11E-07
 K construction time:  CPU 541.20 s  wall 35.75 s
   13   -2291.1503681447      1.18E-07
 K construction time:  CPU 482.54 s  wall 31.70 s
   14   -2291.1503681466      3.31E-08
 K construction time:  CPU 412.18 s  wall 27.01 s
   15   -2291.1503681461      1.65E-08
 K construction time:  CPU 1128.21 s  wall 74.64 s
   16   -2291.1503681470      5.24E-09 Convergence criterion met
 ---------------------------------------
 SCF time:  CPU 16147.43 s  wall 1094.31 s
 SCF   energy in the final basis set = -2291.1503681470
 Total energy in the final basis set = -2291.1503681470
 
 --------------------------------------------------------------
 
                    Orbital Energies (a.u.)
 --------------------------------------------------------------
 
 Alpha MOs
 -- Occupied --
-89.146 -89.099 -89.080 -14.482 -14.479 -14.463 -14.462 -14.444
-14.433 -10.354 -10.351 -10.350 -10.346 -10.344 -10.343 -10.342
-10.341 -10.338 -10.336 -10.334 -10.330 -10.325 -10.323 -10.320
-10.309 -10.300 -10.297 -10.295 -10.293  -8.156  -8.114  -8.095
 -6.106  -6.100  -6.100  -6.063  -6.059  -6.057  -6.044  -6.040
 -6.038  -1.143  -1.102  -1.068  -1.048  -1.030  -1.013  -1.003
 -0.986  -0.925  -0.911  -0.895  -0.879  -0.869  -0.853  -0.838
 -0.811  -0.777  -0.772  -0.748  -0.738  -0.731  -0.716  -0.711
 -0.672  -0.656  -0.649  -0.629  -0.628  -0.620  -0.607  -0.603
 -0.586  -0.576  -0.567  -0.561  -0.557  -0.548  -0.543  -0.526
 -0.512  -0.507  -0.501  -0.498  -0.493  -0.492  -0.486  -0.483
 -0.474  -0.466  -0.463  -0.461  -0.451  -0.443  -0.429  -0.426
 -0.418  -0.411  -0.391  -0.377  -0.372  -0.359  -0.357  -0.351
 -0.344  -0.339  -0.334  -0.334  -0.321  -0.263
 -- Virtual --
 -0.056  -0.024   0.024   0.032   0.043   0.051   0.071   0.074
  0.085   0.089   0.119   0.123   0.125   0.126   0.131   0.136
  0.151   0.153   0.156   0.165   0.170   0.176   0.183   0.190
  0.200   0.206   0.211   0.217   0.224   0.232   0.243   0.248
  0.259   0.266   0.267   0.276   0.284   0.287   0.294   0.296
  0.300   0.304   0.308   0.314   0.318   0.324   0.325   0.332
  0.334   0.341   0.343   0.346   0.351   0.353   0.354   0.359
  0.366   0.369   0.370   0.381   0.381   0.385   0.387   0.389
  0.392   0.394   0.397   0.398   0.404   0.407   0.409   0.411
  0.414   0.417   0.421   0.427   0.431   0.433   0.437   0.440
  0.445   0.449   0.450   0.456   0.459   0.461   0.463   0.464
  0.468   0.473   0.475   0.479   0.484   0.484   0.487   0.493
  0.494   0.501   0.505   0.508   0.512   0.517   0.517   0.522
  0.526   0.531   0.533   0.536   0.539   0.542   0.550   0.558
  0.560   0.563   0.567   0.576   0.581   0.590   0.596   0.601
  0.604   0.608   0.611   0.617   0.618   0.632   0.634   0.641
  0.647   0.647   0.653   0.657   0.662   0.667   0.669   0.674
  0.681   0.690   0.693   0.700   0.704   0.711   0.713   0.723
  0.725   0.730   0.733   0.733   0.740   0.743   0.746   0.758
  0.759   0.767   0.770   0.775   0.779   0.783   0.787   0.789
  0.794   0.800   0.802   0.810   0.812   0.820   0.822   0.824
  0.831   0.835   0.837   0.844   0.847   0.848   0.852   0.858
  0.863   0.868   0.870   0.874   0.883   0.888   0.896   0.903
  0.907   0.914   0.916   0.922   0.926   0.931   0.935   0.943
  0.949   0.950   0.955   0.958   0.961   0.969   0.971   0.975
  0.981   0.982   0.997   1.000   1.000   1.008   1.014   1.018
  1.027   1.033   1.033   1.042   1.051   1.052   1.057   1.061
  1.064   1.068   1.081   1.082   1.089   1.091   1.098   1.105
  1.107   1.108   1.114   1.117   1.125   1.130   1.140   1.145
  1.151   1.162   1.165   1.173   1.177   1.187   1.188   1.192
  1.203   1.209   1.217   1.219   1.230   1.237   1.241   1.245
  1.256   1.263   1.267   1.271   1.283   1.298   1.301   1.304
  1.312   1.317   1.325   1.329   1.340   1.347   1.353   1.356
  1.357   1.367   1.373   1.377   1.380   1.383   1.388   1.390
  1.402   1.406   1.415   1.419   1.423   1.427   1.435   1.438
  1.447   1.449   1.454   1.459   1.472   1.478   1.480   1.483
  1.488   1.496   1.505   1.509   1.512   1.517   1.525   1.534
  1.548   1.566   1.569   1.573   1.579   1.583   1.588   1.603
  1.605   1.612   1.621   1.628   1.632   1.634   1.645   1.649
  1.657   1.662   1.663   1.668   1.674   1.692   1.695   1.702
  1.707   1.714   1.723   1.729   1.735   1.738   1.742   1.749
  1.758   1.769   1.777   1.786   1.794   1.801   1.809   1.811
  1.822   1.833   1.851   1.855   1.869   1.879   1.881   1.890
  1.896   1.904   1.910   1.918   1.924   1.934   1.946   1.952
  1.965   1.971   1.973   1.979   1.987   1.988   1.999   2.013
  2.014   2.018   2.032   2.041   2.044   2.056   2.063   2.072
  2.079   2.089   2.093   2.108   2.111   2.120   2.121   2.126
  2.140   2.153   2.162   2.175   2.180   2.186   2.189   2.199
  2.207   2.211   2.212   2.219   2.234   2.245   2.253   2.256
  2.266   2.280   2.291   2.294   2.295   2.304   2.313   2.317
  2.321   2.331   2.336   2.345   2.352   2.369   2.372   2.377
  2.386   2.392   2.396   2.401   2.414   2.420   2.422   2.426
  2.437   2.443   2.453   2.457   2.463   2.467   2.474   2.481
  2.496   2.500   2.510   2.518   2.523   2.529   2.531   2.534
  2.541   2.543   2.548   2.554   2.562   2.569   2.584   2.601
  2.608   2.616   2.625   2.634   2.639   2.644   2.653   2.659
  2.663   2.671   2.677   2.683   2.687   2.701   2.718   2.723
  2.729   2.735   2.744   2.759   2.768   2.772   2.776   2.780
  2.784   2.786   2.790   2.804   2.811   2.815   2.820   2.833
  2.836   2.845   2.848   2.856   2.867   2.874   2.879   2.882
  2.888   2.890   2.897   2.908   2.918   2.924   2.931   2.937
  2.938   2.945   2.947   2.950   2.955   2.970   2.973   2.978
  2.987   2.989   2.998   3.007   3.008   3.012   3.015   3.020
  3.024   3.027   3.036   3.038   3.047   3.050   3.056   3.060
  3.063   3.069   3.072   3.078   3.080   3.082   3.085   3.089
  3.091   3.097   3.102   3.103   3.116   3.123   3.125   3.132
  3.142   3.145   3.148   3.154   3.158   3.163   3.167   3.167
  3.175   3.181   3.186   3.191   3.196   3.201   3.204   3.208
  3.213   3.218   3.220   3.224   3.230   3.232   3.235   3.240
  3.243   3.245   3.250   3.254   3.262   3.266   3.269   3.272
  3.281   3.284   3.290   3.295   3.297   3.300   3.307   3.309
  3.310   3.313   3.317   3.322   3.329   3.336   3.339   3.341
  3.354   3.358   3.364   3.372   3.379   3.382   3.387   3.393
  3.394   3.402   3.407   3.413   3.421   3.422   3.426   3.435
  3.440   3.444   3.447   3.459   3.460   3.467   3.474   3.478
  3.482   3.487   3.490   3.497   3.508   3.514   3.515   3.522
  3.524   3.533   3.535   3.554   3.563   3.566   3.571   3.583
  3.586   3.598   3.611   3.621   3.624   3.639   3.642   3.645
  3.653   3.670   3.675   3.687   3.689   3.694   3.702   3.713
  3.715   3.720   3.734   3.737   3.740   3.750   3.754   3.757
  3.771   3.775   3.781   3.788   3.792   3.798   3.803   3.810
  3.814   3.832   3.836   3.844   3.853   3.858   3.876   3.882
  3.893   3.901   3.905   3.911   3.916   3.922   3.928   3.933
  3.935   3.936   3.939   3.953   3.959   3.961   3.969   3.982
  3.984   3.990   4.002   4.010   4.018   4.025   4.033   4.036
  4.050   4.059   4.069   4.076   4.080   4.092   4.095   4.108
  4.113   4.116   4.128   4.144   4.152   4.161   4.170   4.173
  4.189   4.193   4.199   4.203   4.205   4.217   4.220   4.226
  4.235   4.237   4.241   4.245   4.251   4.264   4.268   4.286
  4.286   4.295   4.299   4.314   4.322   4.329   4.330   4.336
  4.346   4.357   4.358   4.363   4.373   4.381   4.394   4.398
  4.410   4.412   4.430   4.432   4.438   4.444   4.448   4.451
  4.459   4.484   4.494   4.502   4.517   4.526   4.530   4.531
  4.550   4.558   4.563   4.572   4.588   4.597   4.600   4.616
  4.622   4.642   4.645   4.652   4.661   4.679   4.682   4.689
  4.715   4.727   4.737   4.745   4.760   4.769   4.779   4.793
  4.798   4.806   4.811   4.818   4.827   4.845   4.853   4.871
  4.877   4.885   4.885   4.887   4.905   4.916   4.922   4.938
  4.941   4.948   4.956   4.967   4.975   4.979   4.986   4.993
  5.001   5.004   5.010   5.020   5.031   5.047   5.052   5.057
  5.071   5.084   5.101   5.104   5.110   5.117   5.124   5.134
  5.142   5.146   5.150   5.155   5.176   5.178   5.184   5.192
  5.213   5.223   5.244   5.253   5.266   5.302   5.309   5.314
  5.320   5.347   5.355   5.377   5.386   5.407   5.430   5.432
  5.456   5.466   5.479   5.488   5.500   5.503   5.529   5.540
  5.564   5.576   5.578   5.590   5.598   5.617   5.630   5.649
  5.679   5.701   5.722   5.730   5.745   5.757   5.758   5.793
  5.805   5.832   5.840   5.859   5.882   5.903   5.919   5.930
  5.955   5.979   6.025   6.048   6.092   6.145   6.155   6.191
  6.206   6.245   6.255   6.306   6.331   6.364   6.386   6.431
  6.447   6.494   6.640   6.879   6.989   7.080   8.086   8.904
  9.820  10.226  10.679  11.152  11.276  11.686  12.028  12.162
 12.436  12.641  12.775  12.851  12.860  12.974  13.090  13.231
 13.333  13.432  13.554  14.205  14.431  14.682  15.070  15.145
 --------------------------------------------------------------
 
          Ground-State Mulliken Net Atomic Charges

     Atom                 Charge (a.u.)
  ----------------------------------------
      1 C                    -0.092834
      2 C                    -0.129601
      3 C                    -0.080020
      4 C                    -0.117246
      5 N                    -0.145081
      6 C                     0.082613
      7 C                     0.096091
      8 N                    -0.177419
      9 C                    -0.022815
     10 C                    -0.087682
     11 N                    -0.217020
     12 C                     0.056261
     13 C                     0.062735
     14 S                     0.404116
     15 N                    -0.306678
     16 C                    -0.070862
     17 S                     0.175746
     18 C                     0.061119
     19 C                    -0.056193
     20 N                    -0.167069
     21 C                     0.061836
     22 C                    -0.009161
     23 C                    -0.047760
     24 N                    -0.160790
     25 C                    -0.141941
     26 S                     0.102594
     27 C                    -0.044601
     28 C                    -0.156313
     29 C                    -0.181922
     30 H                     0.132890
     31 H                     0.119689
     32 H                     0.119651
     33 H                     0.137688
     34 H                     0.140825
     35 H                     0.127268
     36 H                     0.137074
     37 H                     0.128356
     38 H                     0.130289
     39 H                     0.136167
  ----------------------------------------
  Sum of atomic charges =     0.000000

 -----------------------------------------------------------------
                    Cartesian Multipole Moments
 -----------------------------------------------------------------
    Charge (ESU x 10^10)
                 0.0000
    Dipole Moment (Debye)
         X      -0.3923      Y       1.5311      Z       0.8345
       Tot       1.7873
    Quadrupole Moments (Debye-Ang)
        XX    -151.9278     XY       2.8937     YY    -164.7012
        XZ       1.1301     YZ       2.1810     ZZ    -186.7836
    Octopole Moments (Debye-Ang^2)
       XXX     103.3805    XXY      14.3638    XYY     -42.4346
       YYY      36.4047    XXZ      27.2382    XYZ       2.7155
       YYZ       0.3083    XZZ       4.2997    YZZ      -5.7747
       ZZZ      -0.5842
    Hexadecapole Moments (Debye-Ang^3)
      XXXX  -15953.5401   XXXY     552.3282   XXYY   -3547.3176
      XYYY    -167.2399   YYYY   -3461.6409   XXXZ     -81.2905
      XXYZ     136.9416   XYYZ      50.1085   YYYZ       1.4873
      XXZZ   -3443.1010   XYZZ     -27.1388   YYZZ    -727.2683
      XZZZ       6.2131   YZZZ      -1.2219   ZZZZ    -277.2195
 -----------------------------------------------------------------
 Calculating analytic gradient of the SCF energy
 K construction time:  CPU 2990.31 s  wall 189.51 s
 Gradient of SCF Energy
            1           2           3           4           5           6
    1   0.0000303  -0.0012581   0.0004518   0.0013397   0.0001639  -0.0009409
    2  -0.0000402  -0.0005348  -0.0001928   0.0000239  -0.0002800   0.0001059
    3   0.0000225  -0.0001729  -0.0002243  -0.0001187   0.0000882  -0.0001309
            7           8           9          10          11          12
    1   0.0007243  -0.0007624  -0.0005838  -0.0006116   0.0001441  -0.0001537
    2   0.0004803   0.0008500  -0.0001512  -0.0009481   0.0000564  -0.0004579
    3   0.0004153  -0.0000862  -0.0002957  -0.0014476   0.0001565   0.0000853
           13          14          15          16          17          18
    1  -0.0001665  -0.0001829   0.0004392   0.0001106   0.0005576   0.0004925
    2   0.0004176  -0.0001009   0.0003264  -0.0008782   0.0006786   0.0009437
    3  -0.0000770   0.0001155  -0.0004395   0.0003651   0.0008768  -0.0002223
           19          20          21          22          23          24
    1  -0.0013252   0.0012529   0.0006331   0.0002495  -0.0001200  -0.0007505
    2  -0.0010397  -0.0003990   0.0004757   0.0013533  -0.0011913  -0.0005151
    3  -0.0007401   0.0003083   0.0002573   0.0004529   0.0002756   0.0001675
           25          26          27          28          29          30
    1   0.0002598  -0.0002102   0.0005981  -0.0006233   0.0004319   0.0000032
    2   0.0004112  -0.0001888   0.0008181  -0.0006577  -0.0004675   0.0001895
    3   0.0004988  -0.0004217  -0.0003504  -0.0004467  -0.0002994   0.0002912
           31          32          33          34          35          36
    1   0.0002918  -0.0001860  -0.0000129   0.0000604   0.0002842   0.0003178
    2   0.0005382   0.0001549   0.0000533   0.0000794   0.0000713  -0.0003840
    3   0.0000137   0.0002159   0.0000450   0.0007745  -0.0003047  -0.0004223
           37          38          39
    1  -0.0007539   0.0001419  -0.0003367
    2  -0.0002819   0.0005018   0.0001798
    3   0.0002162   0.0003887   0.0001694
 Max gradient component =       1.448E-03
 RMS gradient           =       5.284E-04
 Gradient time:  CPU 3454.84 s  wall 221.01 s
 Geometry Optimization Parameters
   NAtoms,    NIC,     NZ,  NCons,   NDum,   NFix, NCnnct, MaxDiis
       39     293       0       3       0       0       0       0


** CONSTRAINED OPTIMIZATION IN DELOCALIZED INTERNAL COORDINATES **
   Searching for a Minimum

   Optimization Cycle:   1

                       Coordinates (Angstroms)
     ATOM                X               Y               Z
      1  C         7.6817905632    0.3474672142   -0.0440204874
      2  C         6.9935288785    1.4846158050    0.3462724858
      3  C         6.9466590500   -0.7632547708   -0.4259220812
      4  C         5.6141809623    1.4625671173    0.3471899326
      5  N         5.6203182106   -0.8002205212   -0.4265822744
      6  C         4.9640721198    0.2922339993   -0.0415819589
      7  C         3.4806964109    0.2503253025   -0.0429479243
      8  N         2.8505607683    1.3906422503   -0.1099868498
      9  C         2.7169948513   -0.9603535000    0.0435306341
     10  C         1.4975109914    1.4645010609   -0.1120508031
     11  N         3.1645012439   -2.2106168905    0.1772753950
     12  C         1.2871518678   -0.8762791968    0.0309922725
     13  C         0.6375449504    0.3930575086   -0.0473741852
     14  S         1.8715812703   -3.1551444833    0.2502362278
     15  N         0.6922762484   -2.0632699487    0.1305426623
     16  C        -0.8088035711    0.5488727863   -0.0261727426
     17  S        -1.8866976729   -0.7884412956    0.0546548286
     18  C        -1.5605077182    1.7239187381   -0.0502964833
     19  C        -3.3098758631    0.1509701559    0.0264613531
     20  N        -1.0624371179    2.9911121646   -0.1002547674
     21  C        -2.9729763095    1.4985837366   -0.0168109519
     22  C        -4.6285041896   -0.4398237357    0.0659557277
     23  C        -1.9406427031    3.9454601670   -0.1208023442
     24  N        -3.8653449712    2.5249021285   -0.0400704288
     25  C        -5.7956083277    0.1384588930    0.4837587581
     26  S        -4.9130523861   -2.0683412610   -0.4592866731
     27  C        -3.3501017935    3.7147448374   -0.0919021234
     28  C        -6.9086616643   -0.7310892486    0.3929048292
     29  C        -6.5821118550   -1.9578145211   -0.0933289756
     30  H         8.7621484708    0.3198126265   -0.0529991380
     31  H         7.5266914130    2.3767719741    0.6486613916
     32  H         7.4450905530   -1.6693271596   -0.7492683530
     33  H         5.0293047231    2.3221134485    0.6364948819
     34  H         1.0955389925    2.4638274723   -0.1507957213
     35  H        -1.5669893987    4.9629662347   -0.1658702756
     36  H        -5.8377511527    1.1563205986    0.8330484434
     37  H        -4.0340416904    4.5562490262   -0.1115424583
     38  H        -7.9091545121   -0.4503428129    0.6848854291
     39  H        -7.2332773558   -2.7983771459   -0.2618800832
   Point Group: c1    Number of degrees of freedom:   111


   Energy is  -2291.150368147

              Constraints and their Current Values
                                        Value     Constraint
   Dihedral:        4   6   7   8       21.915       21.822
   Dihedral:       10  13  16  17     -179.999      180.000
   Dihedral:       17  19  22  25      156.426      156.395

 Attempting to Generate Delocalized Internal Coordinates

   Using Lagrange Multiplier Algorithm


114 Hessian modes will be used to form the next step
  Hessian Eigenvalues:
    -0.977753   -0.977753   -0.977753    0.045000    0.045000    0.045000
     0.045000    0.045000    0.045000    0.045000    0.045000    0.045000
     0.045000    0.045000    0.045000    0.045000    0.045001    0.045001
     0.045001    0.045001    0.045001    0.045001    0.045001    0.045002
     0.045002    0.045002    0.045002    0.045003    0.045003    0.045004
     0.045004    0.045007    0.045008    0.045011    0.045025    0.045042
     0.159985    0.159992    0.159996    0.159998    0.159999    0.159999
     0.160000    0.160000    0.160000    0.160000    0.219998    0.221296
     0.223765    0.224234    0.233056    0.237962    0.243336    0.244277
     0.249685    0.249909    0.249932    0.249960    0.249971    0.249981
     0.249981    0.249983    0.249989    0.249990    0.249993    0.249993
     0.249995    0.312595    0.327543    0.334462    0.341192    0.341259
     0.354110    0.354479    0.355757    0.357029    0.359040    0.360696
     0.360954    0.362567    0.363653    0.364137    0.369052    0.372794
     0.376138    0.388448    0.390986    0.406991    0.407226    0.418679
     0.432515    0.440849    0.460521    0.465833    0.471161    0.473690
     0.482801    0.484038    0.485870    0.485956    0.504407    0.517482
     0.518998    0.525383    0.557629    0.572590    0.582389    0.589743
     0.639523    0.655119    0.663874    1.022753    1.022753    1.022753

 Minimum Search - Taking P-RFO Step
 Searching for Lamda that Maximizes Along the Constraint modes Only
 Value Taken    Lamda =   0.00000395
 Searching for Lamda that Minimizes Along All other modes
 Value Taken    Lamda =  -0.00041986
 Step Taken.  Stepsize is  0.061280

                             Maximum     Tolerance    Cnvgd?
         Gradient            0.007433       0.000300      NO
         Displacement        0.029365       0.001200      NO
         Energy change     *********       0.000001      NO


 New Cartesian Coordinates Obtained by Inverse Iteration

 Displacement from previous Coordinates is:  0.742722
 ----------------------------------------------------------------
             Standard Nuclear Orientation (Angstroms)
    I     Atom           X                Y                Z
 ----------------------------------------------------------------
    1      C       7.6843763572     0.2872349895    -0.0795391459
    2      C       7.0232725403     1.4333122503     0.3318510565
    3      C       6.9234499679    -0.8081851111    -0.4544346021
    4      C       5.6427777764     1.4354696634     0.3561930964
    5      N       5.5972638017    -0.8224741711    -0.4309341568
    6      C       4.9672785295     0.2783257303    -0.0277272941
    7      C       3.4832671527     0.2620539824    -0.0156776177
    8      N       2.8712107889     1.4125842900    -0.0736015566
    9      C       2.7017367548    -0.9354937364     0.0726654702
   10      C       1.5187154846     1.5106316522    -0.0743150217
   11      N       3.1292120724    -2.1932752391     0.2004489419
   12      C       1.2737734720    -0.8274005138     0.0626507559
   13      C       0.6419487308     0.4508869773    -0.0182518164
   14      S       1.8212414516    -3.1164005973     0.2749516359
   15      N       0.6595442940    -2.0050949519     0.1612179088
   16      C      -0.8060973903     0.6086715312    -0.0115875959
   17      S      -1.8667964623    -0.7430730294     0.0593750212
   18      C      -1.5754581919     1.7737445327    -0.0450500855
   19      C      -3.3015222958     0.1753793312     0.0230585802
   20      N      -1.0995067607     3.0502491980    -0.0945216005
   21      C      -2.9854121539     1.5276339481    -0.0233902962
   22      C      -4.6078161239    -0.4441669267     0.0574836836
   23      C      -1.9906074306     3.9924614129    -0.1241232783
   24      N      -3.8919900473     2.5413809517    -0.0572603882
   25      C      -5.7916426779     0.1052453461     0.4690792143
   26      S      -4.8458689275    -2.0820865107    -0.4586244071
   27      C      -3.3955063559     3.7389951101    -0.1068064047
   28      C      -6.8803488917    -0.7939482581     0.3765009846
   29      C      -6.5188120008    -2.0134590140    -0.1023490075
   30      H       8.7636276091     0.2400700213    -0.1115358139
   31      H       7.5768199203     2.3132405244     0.6302873786
   32      H       7.4007469489    -1.7197099844    -0.7952592341
   33      H       5.0774675640     2.3033666874     0.6588226639
   34      H       1.1326881478     2.5157868673    -0.1223719103
   35      H      -1.6335677487     5.0158012911    -0.1651996532
   36      H      -5.8641952242     1.1228974745     0.8162784399
   37      H      -4.0884269794     4.5723577460    -0.1357569656
   38      H      -7.8907797615    -0.5422076658     0.6600244914
   39      H      -7.1444616541    -2.8730070445    -0.2714543023
 ----------------------------------------------------------------
 Molecular Point Group                 C1    NOp =  1
 Largest Abelian Subgroup              C1    NOp =  1
 Nuclear Repulsion Energy =  2932.5085982481 hartrees
 There are      110 alpha and      110 beta electrons
 Applying Cartesian multipole field
    Component          Value
    ---------          -----
     (2,0,0)        1.00000E-12
     (0,2,0)        2.00000E-11
     (0,0,2)       -3.00000E-10
 Nucleus-field energy     =     0.0000000553 hartrees
 Requested basis set is cc-pVTZ
 There are 356 shells and 1022 basis functions
 A cutoff of  1.0D-11 yielded  30908 shell pairs
 There are    243840 function pairs (    318288 Cartesian)
 Smallest overlap matrix eigenvalue = 2.32E-05
 Guess MOs from SCF MO coefficient file
 Reading MOs from coefficient file
 Reading MOs from coefficient file
 Long-range K will be added via erf
 Coulomb attenuation parameter = 0.2 bohr**(-1)
 A restricted hybrid HF-DFT SCF calculation will be
 performed using Pulay DIIS extrapolation
 Exchange:     0.2220 Hartree-Fock + 1.0000 wB97X-D + LR-HF
 Correlation:  1.0000 wB97X-D
 Using SG-2 standard quadrature grid
 Dispersion:   Grimme D
 SCF converges when DIIS error is below 1.0E-08
 Geometry optimization detected.  Setting ReadMinima to 0
 Setting SaveMinima to 0
 using 16 threads for integral computing 
 using 16 threads for integral computing 
 K construction time:  CPU 1124.27 s  wall 74.34 s
 -------------------------------------------------------
 OpenMP BLAS3 based DFT computing Module                
 Release: version 1.0, May 2013, Q-Chem Inc. Pittsburgh 
 -------------------------------------------------------
 ---------------------------------------
  Cycle       Energy         DIIS Error
 ---------------------------------------
    1   -2291.1504225565      3.14E-04
 K construction time:  CPU 1123.94 s  wall 74.36 s
    2   -2291.1501660450      3.82E-05
 K construction time:  CPU 859.96 s  wall 56.82 s
    3   -2291.1501748153      4.76E-05
 K construction time:  CPU 812.33 s  wall 53.74 s
    4   -2291.1504342335      1.03E-05
 K construction time:  CPU 744.73 s  wall 49.39 s
    5   -2291.1504468870      5.16E-06
 K construction time:  CPU 689.71 s  wall 45.62 s
    6   -2291.1504503555      1.26E-06
 K construction time:  CPU 622.46 s  wall 41.18 s
    7   -2291.1504506186      5.64E-07
 K construction time:  CPU 570.96 s  wall 37.72 s
    8   -2291.1504506754      2.26E-07
 K construction time:  CPU 521.47 s  wall 34.39 s
    9   -2291.1504506865      1.04E-07
 K construction time:  CPU 461.46 s  wall 30.26 s
   10   -2291.1504506882      4.21E-08
 K construction time:  CPU 403.23 s  wall 26.54 s
   11   -2291.1504506884      1.71E-08
 K construction time:  CPU 370.92 s  wall 24.38 s
   12   -2291.1504506846      7.61E-09 Convergence criterion met
 ---------------------------------------
 SCF time:  CPU 11168.36 s  wall 757.20 s
 SCF   energy in the final basis set = -2291.1504506846
 Total energy in the final basis set = -2291.1504506846
 
 --------------------------------------------------------------
 
                    Orbital Energies (a.u.)
 --------------------------------------------------------------
 
 Alpha MOs
 -- Occupied --
-89.146 -89.098 -89.079 -14.483 -14.479 -14.462 -14.462 -14.445
-14.434 -10.355 -10.352 -10.351 -10.345 -10.343 -10.343 -10.343
-10.342 -10.338 -10.336 -10.334 -10.331 -10.326 -10.323 -10.319
-10.309 -10.301 -10.298 -10.295 -10.293  -8.156  -8.113  -8.095
 -6.107  -6.101  -6.100  -6.062  -6.058  -6.056  -6.044  -6.040
 -6.038  -1.143  -1.101  -1.068  -1.048  -1.029  -1.014  -1.003
 -0.986  -0.925  -0.911  -0.896  -0.879  -0.869  -0.853  -0.838
 -0.811  -0.777  -0.772  -0.749  -0.738  -0.731  -0.716  -0.710
 -0.672  -0.656  -0.648  -0.629  -0.628  -0.621  -0.607  -0.603
 -0.587  -0.576  -0.567  -0.561  -0.557  -0.548  -0.543  -0.526
 -0.512  -0.507  -0.501  -0.498  -0.493  -0.492  -0.486  -0.483
 -0.473  -0.466  -0.463  -0.462  -0.451  -0.442  -0.429  -0.426
 -0.418  -0.411  -0.390  -0.378  -0.372  -0.359  -0.357  -0.351
 -0.343  -0.338  -0.334  -0.334  -0.321  -0.263
 -- Virtual --
 -0.056  -0.023   0.024   0.032   0.042   0.050   0.071   0.074
  0.085   0.090   0.119   0.123   0.125   0.126   0.132   0.136
  0.151   0.153   0.156   0.165   0.171   0.176   0.183   0.190
  0.201   0.206   0.210   0.216   0.223   0.231   0.243   0.247
  0.259   0.267   0.268   0.276   0.283   0.287   0.293   0.296
  0.301   0.304   0.308   0.314   0.317   0.324   0.324   0.332
  0.333   0.341   0.343   0.346   0.351   0.354   0.354   0.360
  0.365   0.369   0.371   0.381   0.382   0.386   0.387   0.389
  0.392   0.394   0.397   0.398   0.403   0.407   0.409   0.411
  0.414   0.417   0.421   0.427   0.432   0.434   0.437   0.440
  0.445   0.449   0.450   0.456   0.459   0.461   0.463   0.464
  0.468   0.472   0.476   0.479   0.483   0.484   0.486   0.493
  0.494   0.501   0.505   0.508   0.512   0.517   0.517   0.522
  0.526   0.530   0.533   0.536   0.538   0.542   0.550   0.558
  0.560   0.564   0.568   0.576   0.582   0.588   0.596   0.601
  0.604   0.608   0.611   0.617   0.619   0.632   0.634   0.641
  0.647   0.647   0.653   0.657   0.662   0.668   0.669   0.675
  0.681   0.690   0.694   0.699   0.706   0.711   0.713   0.724
  0.725   0.729   0.733   0.733   0.740   0.742   0.746   0.758
  0.759   0.766   0.770   0.776   0.778   0.782   0.787   0.789
  0.795   0.800   0.802   0.809   0.811   0.820   0.822   0.824
  0.830   0.834   0.836   0.844   0.845   0.848   0.851   0.857
  0.863   0.869   0.870   0.874   0.882   0.886   0.896   0.904
  0.907   0.914   0.917   0.922   0.926   0.930   0.935   0.944
  0.948   0.950   0.955   0.958   0.962   0.968   0.971   0.975
  0.981   0.982   0.996   1.000   1.001   1.007   1.014   1.021
  1.027   1.033   1.033   1.042   1.051   1.053   1.057   1.062
  1.065   1.068   1.080   1.084   1.089   1.092   1.098   1.104
  1.106   1.108   1.114   1.116   1.125   1.129   1.138   1.143
  1.151   1.162   1.164   1.172   1.175   1.187   1.188   1.191
  1.203   1.208   1.216   1.218   1.231   1.238   1.243   1.246
  1.256   1.263   1.267   1.271   1.283   1.297   1.300   1.304
  1.311   1.316   1.324   1.327   1.339   1.347   1.352   1.355
  1.357   1.367   1.373   1.377   1.381   1.384   1.388   1.389
  1.401   1.406   1.415   1.419   1.422   1.427   1.436   1.440
  1.447   1.448   1.454   1.459   1.466   1.477   1.480   1.483
  1.487   1.495   1.504   1.508   1.511   1.516   1.525   1.534
  1.548   1.566   1.567   1.571   1.579   1.583   1.589   1.600
  1.605   1.613   1.619   1.626   1.632   1.633   1.645   1.648
  1.658   1.662   1.665   1.668   1.675   1.692   1.696   1.701
  1.705   1.713   1.721   1.727   1.735   1.738   1.740   1.749
  1.759   1.769   1.777   1.786   1.796   1.801   1.805   1.812
  1.824   1.834   1.854   1.857   1.868   1.879   1.882   1.889
  1.895   1.905   1.910   1.920   1.924   1.934   1.945   1.952
  1.965   1.974   1.978   1.979   1.987   1.989   1.998   2.013
  2.014   2.019   2.034   2.042   2.045   2.056   2.063   2.072
  2.076   2.089   2.093   2.108   2.111   2.119   2.121   2.125
  2.140   2.152   2.161   2.173   2.179   2.185   2.189   2.197
  2.207   2.211   2.212   2.220   2.233   2.244   2.254   2.258
  2.267   2.281   2.292   2.293   2.296   2.305   2.312   2.316
  2.320   2.328   2.335   2.345   2.351   2.369   2.372   2.373
  2.385   2.391   2.395   2.401   2.413   2.421   2.423   2.427
  2.436   2.443   2.453   2.457   2.463   2.468   2.475   2.480
  2.496   2.502   2.511   2.518   2.524   2.529   2.531   2.534
  2.541   2.543   2.548   2.553   2.562   2.568   2.584   2.599
  2.608   2.615   2.624   2.632   2.639   2.644   2.653   2.659
  2.663   2.670   2.676   2.683   2.686   2.700   2.718   2.722
  2.729   2.736   2.741   2.758   2.768   2.772   2.777   2.781
  2.784   2.787   2.792   2.804   2.811   2.815   2.821   2.832
  2.836   2.843   2.847   2.855   2.867   2.874   2.880   2.882
  2.888   2.890   2.897   2.908   2.918   2.923   2.930   2.935
  2.940   2.943   2.947   2.951   2.956   2.967   2.972   2.978
  2.986   2.988   2.998   3.005   3.008   3.011   3.016   3.021
  3.023   3.028   3.035   3.037   3.047   3.050   3.055   3.059
  3.063   3.068   3.073   3.078   3.080   3.083   3.084   3.088
  3.091   3.097   3.103   3.103   3.116   3.123   3.127   3.132
  3.141   3.146   3.148   3.154   3.158   3.162   3.167   3.168
  3.175   3.182   3.185   3.191   3.197   3.199   3.203   3.208
  3.212   3.218   3.221   3.224   3.230   3.231   3.236   3.239
  3.242   3.246   3.249   3.254   3.262   3.265   3.268   3.273
  3.281   3.284   3.290   3.292   3.298   3.299   3.306   3.309
  3.311   3.312   3.317   3.322   3.329   3.335   3.339   3.341
  3.353   3.357   3.363   3.370   3.380   3.382   3.387   3.392
  3.395   3.403   3.407   3.412   3.421   3.422   3.424   3.435
  3.439   3.442   3.446   3.459   3.460   3.467   3.474   3.478
  3.480   3.486   3.490   3.497   3.508   3.512   3.515   3.522
  3.523   3.533   3.536   3.554   3.562   3.566   3.570   3.584
  3.586   3.596   3.613   3.621   3.623   3.639   3.642   3.645
  3.653   3.670   3.676   3.686   3.688   3.694   3.700   3.714
  3.714   3.720   3.733   3.737   3.738   3.749   3.755   3.757
  3.770   3.774   3.780   3.787   3.792   3.797   3.804   3.811
  3.813   3.832   3.836   3.844   3.851   3.858   3.873   3.882
  3.893   3.900   3.904   3.912   3.915   3.922   3.927   3.931
  3.934   3.935   3.939   3.952   3.957   3.960   3.968   3.982
  3.985   3.990   4.002   4.008   4.016   4.024   4.027   4.036
  4.050   4.058   4.067   4.076   4.078   4.090   4.094   4.106
  4.111   4.116   4.125   4.143   4.152   4.161   4.170   4.173
  4.188   4.193   4.198   4.201   4.205   4.217   4.220   4.226
  4.233   4.236   4.241   4.246   4.251   4.264   4.267   4.286
  4.286   4.291   4.299   4.313   4.321   4.329   4.332   4.335
  4.344   4.356   4.356   4.362   4.372   4.380   4.394   4.396
  4.407   4.410   4.429   4.431   4.438   4.443   4.446   4.450
  4.459   4.485   4.494   4.501   4.517   4.525   4.526   4.532
  4.548   4.556   4.561   4.570   4.587   4.595   4.598   4.613
  4.622   4.640   4.645   4.651   4.661   4.679   4.682   4.690
  4.714   4.727   4.738   4.745   4.761   4.766   4.778   4.793
  4.797   4.806   4.810   4.817   4.827   4.844   4.853   4.870
  4.876   4.884   4.886   4.887   4.903   4.915   4.922   4.936
  4.941   4.947   4.955   4.966   4.975   4.977   4.986   4.991
  5.000   5.003   5.010   5.017   5.031   5.047   5.048   5.055
  5.072   5.082   5.101   5.104   5.111   5.116   5.122   5.134
  5.137   5.144   5.149   5.154   5.175   5.177   5.185   5.193
  5.212   5.222   5.244   5.253   5.265   5.304   5.309   5.317
  5.320   5.347   5.355   5.377   5.385   5.405   5.428   5.430
  5.453   5.465   5.479   5.488   5.500   5.502   5.530   5.540
  5.563   5.575   5.577   5.590   5.598   5.615   5.629   5.650
  5.679   5.699   5.721   5.722   5.744   5.757   5.760   5.792
  5.800   5.834   5.839   5.860   5.882   5.901   5.919   5.931
  5.954   5.979   6.022   6.045   6.087   6.138   6.153   6.194
  6.206   6.246   6.257   6.304   6.332   6.362   6.383   6.432
  6.447   6.490   6.644   6.878   6.991   7.080   8.086   8.893
  9.818  10.212  10.665  11.149  11.268  11.677  12.026  12.160
 12.436  12.639  12.773  12.846  12.866  12.979  13.085  13.181
 13.335  13.428  13.558  14.198  14.421  14.668  15.068  15.128
 --------------------------------------------------------------
 
          Ground-State Mulliken Net Atomic Charges

     Atom                 Charge (a.u.)
  ----------------------------------------
      1 C                    -0.092578
      2 C                    -0.129559
      3 C                    -0.080115
      4 C                    -0.118138
      5 N                    -0.145065
      6 C                     0.082673
      7 C                     0.098038
      8 N                    -0.176723
      9 C                    -0.022598
     10 C                    -0.087107
     11 N                    -0.216732
     12 C                     0.058078
     13 C                     0.061264
     14 S                     0.403381
     15 N                    -0.306638
     16 C                    -0.071268
     17 S                     0.175033
     18 C                     0.062184
     19 C                    -0.055291
     20 N                    -0.168886
     21 C                     0.061558
     22 C                    -0.008466
     23 C                    -0.047085
     24 N                    -0.160588
     25 C                    -0.141810
     26 S                     0.102494
     27 C                    -0.044961
     28 C                    -0.156504
     29 C                    -0.182014
     30 H                     0.132936
     31 H                     0.120088
     32 H                     0.119282
     33 H                     0.137643
     34 H                     0.138304
     35 H                     0.127537
     36 H                     0.136849
     37 H                     0.128276
     38 H                     0.130224
     39 H                     0.136284
  ----------------------------------------
  Sum of atomic charges =     0.000000

 -----------------------------------------------------------------
                    Cartesian Multipole Moments
 -----------------------------------------------------------------
    Charge (ESU x 10^10)
                 0.0000
    Dipole Moment (Debye)
         X      -0.3073      Y       1.4045      Z       0.7900
       Tot       1.6404
    Quadrupole Moments (Debye-Ang)
        XX    -151.6389     XY       2.7846     YY    -164.6836
        XZ       0.8470     YZ       2.1164     ZZ    -186.7678
    Octopole Moments (Debye-Ang^2)
       XXX     110.2407    XXY      10.7549    XYY     -45.4039
       YYY      30.0693    XXZ      23.9953    XYZ       3.2182
       YYZ      -1.2171    XZZ       4.6771    YZZ      -7.7138
       ZZZ      -3.2036
    Hexadecapole Moments (Debye-Ang^3)
      XXXX  -15874.9311   XXXY     552.3811   XXYY   -3530.5198
      XYYY    -155.7654   YYYY   -3479.4625   XXXZ    -107.9107
      XXYZ     137.7621   XYYZ      47.4643   YYYZ       4.6555
      XXZZ   -3427.0877   XYZZ     -22.0078   YYZZ    -732.1255
      XZZZ      -0.4815   YZZZ       3.1781   ZZZZ    -278.6585
 -----------------------------------------------------------------
 Calculating analytic gradient of the SCF energy
 K construction time:  CPU 2981.71 s  wall 188.90 s
 Gradient of SCF Energy
            1           2           3           4           5           6
    1   0.0001634  -0.0002018   0.0000700   0.0002461  -0.0000001  -0.0002737
    2  -0.0002581   0.0000150   0.0001392   0.0003295   0.0000169  -0.0003593
    3  -0.0001583   0.0000366   0.0000094  -0.0002324   0.0001564   0.0004612
            7           8           9          10          11          12
    1   0.0004371   0.0001658  -0.0000175   0.0004854   0.0001958  -0.0004725
    2  -0.0002122  -0.0001250   0.0000921   0.0006555   0.0000793   0.0000292
    3  -0.0004310   0.0000173   0.0001967  -0.0002291  -0.0001526   0.0001175
           13          14          15          16          17          18
    1   0.0003185  -0.0001055  -0.0010546  -0.0002958   0.0016827   0.0000628
    2  -0.0004368   0.0000200   0.0004487  -0.0011250   0.0004073   0.0000999
    3  -0.0002960   0.0000719  -0.0003074   0.0004161   0.0003414   0.0000296
           19          20          21          22          23          24
    1  -0.0005037  -0.0014581   0.0002663   0.0001954  -0.0003621  -0.0000300
    2  -0.0008040   0.0006872   0.0000314   0.0003603   0.0002712  -0.0000554
    3  -0.0003870   0.0001176  -0.0000759   0.0000198   0.0000110  -0.0000051
           25          26          27          28          29          30
    1  -0.0002089  -0.0000519   0.0002550  -0.0001107   0.0002308   0.0000014
    2  -0.0001061  -0.0001528   0.0005406  -0.0001545   0.0000427   0.0000216
    3   0.0005712  -0.0000931  -0.0001900  -0.0003412  -0.0001310   0.0001591
           31          32          33          34          35          36
    1  -0.0000182  -0.0000044  -0.0000706   0.0004704  -0.0000173  -0.0000241
    2   0.0000298  -0.0000145  -0.0000065  -0.0006030   0.0000173  -0.0000697
    3  -0.0000676   0.0000584  -0.0000558   0.0001169  -0.0001101  -0.0000879
           37          38          39
    1   0.0000135   0.0001262  -0.0001049
    2  -0.0000549   0.0001083   0.0000947
    3   0.0001590   0.0002477   0.0000367
 Max gradient component =       1.683E-03
 RMS gradient           =       3.557E-04
 Gradient time:  CPU 3442.49 s  wall 220.26 s
 Geometry Optimization Parameters
   NAtoms,    NIC,     NZ,  NCons,   NDum,   NFix, NCnnct, MaxDiis
       39     293       0       3       0       0       0       0

 Cartesian Hessian Update
 Hessian Updated using BFGS Update


** CONSTRAINED OPTIMIZATION IN DELOCALIZED INTERNAL COORDINATES **
   Searching for a Minimum

   Optimization Cycle:   2

                       Coordinates (Angstroms)
     ATOM                X               Y               Z
      1  C         7.6843763572    0.2872349895   -0.0795391459
      2  C         7.0232725403    1.4333122503    0.3318510565
      3  C         6.9234499679   -0.8081851111   -0.4544346021
      4  C         5.6427777764    1.4354696634    0.3561930964
      5  N         5.5972638017   -0.8224741711   -0.4309341568
      6  C         4.9672785295    0.2783257303   -0.0277272941
      7  C         3.4832671527    0.2620539824   -0.0156776177
      8  N         2.8712107889    1.4125842900   -0.0736015566
      9  C         2.7017367548   -0.9354937364    0.0726654702
     10  C         1.5187154846    1.5106316522   -0.0743150217
     11  N         3.1292120724   -2.1932752391    0.2004489419
     12  C         1.2737734720   -0.8274005138    0.0626507559
     13  C         0.6419487308    0.4508869773   -0.0182518164
     14  S         1.8212414516   -3.1164005973    0.2749516359
     15  N         0.6595442940   -2.0050949519    0.1612179088
     16  C        -0.8060973903    0.6086715312   -0.0115875959
     17  S        -1.8667964623   -0.7430730294    0.0593750212
     18  C        -1.5754581919    1.7737445327   -0.0450500855
     19  C        -3.3015222958    0.1753793312    0.0230585802
     20  N        -1.0995067607    3.0502491980   -0.0945216005
     21  C        -2.9854121539    1.5276339481   -0.0233902962
     22  C        -4.6078161239   -0.4441669267    0.0574836836
     23  C        -1.9906074306    3.9924614129   -0.1241232783
     24  N        -3.8919900473    2.5413809517   -0.0572603882
     25  C        -5.7916426779    0.1052453461    0.4690792143
     26  S        -4.8458689275   -2.0820865107   -0.4586244071
     27  C        -3.3955063559    3.7389951101   -0.1068064047
     28  C        -6.8803488917   -0.7939482581    0.3765009846
     29  C        -6.5188120008   -2.0134590140   -0.1023490075
     30  H         8.7636276091    0.2400700213   -0.1115358139
     31  H         7.5768199203    2.3132405244    0.6302873786
     32  H         7.4007469489   -1.7197099844   -0.7952592341
     33  H         5.0774675640    2.3033666874    0.6588226639
     34  H         1.1326881478    2.5157868673   -0.1223719103
     35  H        -1.6335677487    5.0158012911   -0.1651996532
     36  H        -5.8641952242    1.1228974745    0.8162784399
     37  H        -4.0884269794    4.5723577460   -0.1357569656
     38  H        -7.8907797615   -0.5422076658    0.6600244914
     39  H        -7.1444616541   -2.8730070445   -0.2714543023
   Point Group: c1    Number of degrees of freedom:   111


   Energy is  -2291.150450685

              Constraints and their Current Values
                                        Value     Constraint
   Dihedral:        4   6   7   8       21.822       21.822
   Dihedral:       10  13  16  17     -180.000      180.000
   Dihedral:       17  19  22  25      156.395      156.395
 Hessian Updated using BFGS Update

105 Hessian modes will be used to form the next step
  Hessian Eigenvalues:
     0.032491    0.045000    0.045000    0.045000    0.045000    0.045000
     0.045000    0.045000    0.045000    0.045000    0.045000    0.045001
     0.045001    0.045001    0.045001    0.045001    0.045001    0.045001
     0.045002    0.045002    0.045002    0.045003    0.045003    0.045004
     0.045004    0.045004    0.045007    0.045011    0.045025    0.045038
     0.045287    0.155404    0.159990    0.159994    0.159996    0.159999
     0.159999    0.160000    0.160000    0.160000    0.160083    0.219985
     0.221252    0.222603    0.224178    0.232897    0.235921    0.238587
     0.243628    0.244492    0.249687    0.249929    0.249945    0.249970
     0.249979    0.249983    0.249985    0.249989    0.249990    0.249994
     0.312168    0.325709    0.334307    0.339023    0.341166    0.354054
     0.354407    0.355640    0.356667    0.359040    0.360682    0.360947
     0.361539    0.363320    0.364136    0.367485    0.371639    0.374839
     0.387727    0.389374    0.404252    0.407152    0.418535    0.432180
     0.433059    0.459086    0.460998    0.471131    0.473367    0.480512
     0.483006    0.484956    0.485642    0.503764    0.515719    0.518987
     0.524210    0.557513    0.572341    0.582213    0.589636    0.635033
     0.652673    0.656075    0.672902

 Minimum Search - Taking Simple RFO Step
 Searching for Lamda that Minimizes Along All modes
 Value Taken    Lamda =  -0.00023393
 Step Taken.  Stepsize is  0.039215

                             Maximum     Tolerance    Cnvgd?
         Gradient           0.008422      0.000300      NO
         Displacement       0.020906      0.001200      NO
         Energy change     -0.000083      0.000001      NO


 New Cartesian Coordinates Obtained by Inverse Iteration

 Displacement from previous Coordinates is:  0.365535
 ----------------------------------------------------------------
             Standard Nuclear Orientation (Angstroms)
    I     Atom           X                Y                Z
 ----------------------------------------------------------------
    1      C       7.6793947376     0.3127236328    -0.1114661827
    2      C       7.0166414030     1.4512522709     0.3177734741
    3      C       6.9209429242    -0.7859928997    -0.4816766915
    4      C       5.6361779426     1.4435637682     0.3616111062
    5      N       5.5955839938    -0.8099970419    -0.4385082060
    6      C       4.9640090896     0.2837701672    -0.0193821056
    7      C       3.4801466320     0.2576243064     0.0054316282
    8      N       2.8601919970     1.4040050999    -0.0440164193
    9      C       2.7081468706    -0.9455396346     0.0953998154
   10      C       1.5071188539     1.4922380882    -0.0424891606
   11      N       3.1464825839    -2.2000148164     0.2188088202
   12      C       1.2791861506    -0.8482694641     0.0897812025
   13      C       0.6376581036     0.4263834368     0.0085555111
   14      S       1.8469670920    -3.1342393229     0.2962621517
   15      N       0.6761687481    -2.0319951693     0.1886710972
   16      C      -0.8105849469     0.5850728839     0.0052812573
   17      S      -1.8837610795    -0.7585795652     0.0695672157
   18      C      -1.5702328403     1.7550216478    -0.0361762257
   19      C      -3.3094769768     0.1729469673     0.0225488158
   20      N      -1.0797026898     3.0258173599    -0.0850781185
   21      C      -2.9822450248     1.5221499496    -0.0251525632
   22      C      -4.6200909189    -0.4385134515     0.0500865484
   23      C      -1.9609988040     3.9767922807    -0.1231787590
   24      N      -3.8781326632     2.5447583456    -0.0686185830
   25      C      -5.8036083681     0.1180673682     0.4531736594
   26      S      -4.8618933417    -2.0778122969    -0.4581524365
   27      C      -3.3685826862     3.7367882698    -0.1165175258
   28      C      -6.8955340893    -0.7770497291     0.3589146272
   29      C      -6.5363462433    -2.0005059075    -0.1114513961
   30      H       8.7582560207     0.2732487674    -0.1619099371
   31      H       7.5682813421     2.3328831149     0.6136522015
   32      H       7.3997830389    -1.6913307252    -0.8369879909
   33      H       5.0692126044     2.3059077325     0.6766060374
   34      H       1.1127094057     2.4947125618    -0.0932973439
   35      H      -1.5941063801     4.9966116884    -0.1621889676
   36      H      -5.8741438668     1.1375897707     0.7963236086
   37      H      -4.0512371148     4.5781304757    -0.1543721081
   38      H      -7.9073749532    -0.5213540153     0.6336424943
   39      H      -7.1634042601    -2.8590671601    -0.2803533822
 ----------------------------------------------------------------
 Molecular Point Group                 C1    NOp =  1
 Largest Abelian Subgroup              C1    NOp =  1
 Nuclear Repulsion Energy =  2931.5123256264 hartrees
 There are      110 alpha and      110 beta electrons
 Applying Cartesian multipole field
    Component          Value
    ---------          -----
     (2,0,0)        1.00000E-12
     (0,2,0)        2.00000E-11
     (0,0,2)       -3.00000E-10
 Nucleus-field energy     =     0.0000000549 hartrees
 Requested basis set is cc-pVTZ
 There are 356 shells and 1022 basis functions
 A cutoff of  1.0D-11 yielded  30916 shell pairs
 There are    243782 function pairs (    318197 Cartesian)
 Smallest overlap matrix eigenvalue = 2.34E-05
 Guess MOs from SCF MO coefficient file
 Reading MOs from coefficient file
 Reading MOs from coefficient file
 Long-range K will be added via erf
 Coulomb attenuation parameter = 0.2 bohr**(-1)
 A restricted hybrid HF-DFT SCF calculation will be
 performed using Pulay DIIS extrapolation
 Exchange:     0.2220 Hartree-Fock + 1.0000 wB97X-D + LR-HF
 Correlation:  1.0000 wB97X-D
 Using SG-2 standard quadrature grid
 Dispersion:   Grimme D
 SCF converges when DIIS error is below 1.0E-08
 Geometry optimization detected.  Setting ReadMinima to 0
 Setting SaveMinima to 0
 using 16 threads for integral computing 
 using 16 threads for integral computing 
 K construction time:  CPU 1123.93 s  wall 74.23 s
 -------------------------------------------------------
 OpenMP BLAS3 based DFT computing Module                
 Release: version 1.0, May 2013, Q-Chem Inc. Pittsburgh 
 -------------------------------------------------------
 ---------------------------------------
  Cycle       Energy         DIIS Error
 ---------------------------------------
    1   -2291.1486396870      1.75E-04
 K construction time:  CPU 1128.40 s  wall 74.49 s
    2   -2291.1504642820      2.00E-05
 K construction time:  CPU 814.96 s  wall 53.92 s
    3   -2291.1505092775      2.17E-05
 K construction time:  CPU 766.71 s  wall 50.70 s
    4   -2291.1505615112      6.74E-06
 K construction time:  CPU 713.11 s  wall 47.16 s
    5   -2291.1505680217      2.82E-06
 K construction time:  CPU 660.40 s  wall 43.59 s
    6   -2291.1505691030      1.04E-06
 K construction time:  CPU 596.55 s  wall 39.42 s
    7   -2291.1505692657      3.44E-07
 K construction time:  CPU 535.40 s  wall 35.27 s
    8   -2291.1505692880      1.58E-07
 K construction time:  CPU 489.12 s  wall 32.09 s
    9   -2291.1505692937      6.92E-08
 K construction time:  CPU 431.92 s  wall 28.29 s
   10   -2291.1505692965      2.84E-08
 K construction time:  CPU 393.50 s  wall 25.76 s
   11   -2291.1505692967      1.17E-08
 K construction time:  CPU 352.95 s  wall 23.07 s
   12   -2291.1505692978      5.47E-09 Convergence criterion met
 ---------------------------------------
 SCF time:  CPU 10799.07 s  wall 730.86 s
 SCF   energy in the final basis set = -2291.1505692978
 Total energy in the final basis set = -2291.1505692978
 
 --------------------------------------------------------------
 
                    Orbital Energies (a.u.)
 --------------------------------------------------------------
 
 Alpha MOs
 -- Occupied --
-89.146 -89.099 -89.079 -14.482 -14.479 -14.463 -14.462 -14.444
-14.433 -10.355 -10.351 -10.350 -10.345 -10.343 -10.343 -10.343
-10.341 -10.338 -10.336 -10.335 -10.331 -10.325 -10.323 -10.319
-10.309 -10.300 -10.298 -10.295 -10.294  -8.156  -8.113  -8.095
 -6.106  -6.101  -6.100  -6.062  -6.058  -6.057  -6.044  -6.040
 -6.038  -1.143  -1.102  -1.068  -1.048  -1.030  -1.013  -1.003
 -0.986  -0.924  -0.911  -0.895  -0.879  -0.869  -0.853  -0.839
 -0.811  -0.777  -0.772  -0.748  -0.738  -0.731  -0.716  -0.710
 -0.672  -0.656  -0.648  -0.629  -0.628  -0.620  -0.607  -0.603
 -0.586  -0.576  -0.567  -0.561  -0.557  -0.548  -0.543  -0.526
 -0.512  -0.508  -0.501  -0.498  -0.493  -0.492  -0.486  -0.483
 -0.473  -0.465  -0.463  -0.461  -0.451  -0.443  -0.429  -0.426
 -0.418  -0.411  -0.391  -0.377  -0.372  -0.359  -0.357  -0.351
 -0.343  -0.338  -0.334  -0.334  -0.321  -0.263
 -- Virtual --
 -0.055  -0.023   0.024   0.032   0.042   0.051   0.071   0.074
  0.085   0.089   0.119   0.123   0.125   0.126   0.132   0.136
  0.151   0.153   0.156   0.165   0.170   0.176   0.183   0.190
  0.201   0.206   0.210   0.216   0.224   0.231   0.243   0.247
  0.259   0.267   0.268   0.276   0.283   0.287   0.293   0.296
  0.301   0.304   0.308   0.314   0.318   0.324   0.325   0.332
  0.333   0.341   0.343   0.347   0.351   0.353   0.354   0.360
  0.366   0.369   0.371   0.381   0.381   0.385   0.387   0.389
  0.392   0.394   0.397   0.398   0.404   0.407   0.409   0.412
  0.414   0.417   0.421   0.427   0.432   0.434   0.437   0.440
  0.445   0.449   0.450   0.456   0.459   0.461   0.463   0.464
  0.468   0.473   0.476   0.479   0.484   0.484   0.486   0.493
  0.494   0.501   0.505   0.508   0.512   0.517   0.517   0.522
  0.526   0.530   0.534   0.536   0.538   0.542   0.550   0.558
  0.560   0.564   0.568   0.576   0.581   0.589   0.596   0.600
  0.604   0.608   0.611   0.617   0.619   0.632   0.635   0.641
  0.646   0.647   0.653   0.657   0.662   0.667   0.669   0.674
  0.681   0.690   0.693   0.700   0.705   0.711   0.713   0.724
  0.725   0.729   0.732   0.733   0.740   0.742   0.746   0.758
  0.759   0.766   0.770   0.776   0.779   0.782   0.787   0.790
  0.794   0.800   0.801   0.810   0.811   0.820   0.822   0.824
  0.830   0.835   0.836   0.844   0.845   0.847   0.852   0.858
  0.863   0.869   0.870   0.874   0.882   0.886   0.895   0.905
  0.906   0.914   0.917   0.922   0.927   0.930   0.935   0.943
  0.948   0.950   0.955   0.958   0.961   0.968   0.971   0.974
  0.982   0.982   0.996   1.001   1.001   1.008   1.014   1.020
  1.026   1.032   1.033   1.042   1.051   1.053   1.057   1.061
  1.064   1.068   1.080   1.083   1.089   1.091   1.098   1.104
  1.106   1.108   1.114   1.116   1.125   1.129   1.139   1.144
  1.150   1.163   1.164   1.172   1.174   1.186   1.188   1.192
  1.203   1.208   1.216   1.218   1.231   1.237   1.242   1.245
  1.255   1.262   1.267   1.271   1.283   1.297   1.301   1.304
  1.311   1.316   1.325   1.327   1.339   1.347   1.352   1.356
  1.357   1.367   1.373   1.376   1.381   1.383   1.388   1.389
  1.401   1.405   1.415   1.419   1.422   1.426   1.436   1.439
  1.448   1.448   1.454   1.460   1.469   1.478   1.480   1.483
  1.487   1.496   1.504   1.507   1.511   1.516   1.525   1.535
  1.548   1.566   1.569   1.572   1.579   1.583   1.588   1.601
  1.604   1.613   1.620   1.626   1.632   1.634   1.645   1.648
  1.658   1.661   1.664   1.668   1.675   1.691   1.696   1.702
  1.706   1.713   1.722   1.728   1.734   1.738   1.741   1.749
  1.759   1.769   1.777   1.786   1.794   1.802   1.806   1.811
  1.824   1.834   1.853   1.856   1.869   1.880   1.882   1.890
  1.896   1.905   1.910   1.919   1.924   1.934   1.946   1.952
  1.965   1.973   1.974   1.979   1.987   1.989   1.998   2.013
  2.014   2.019   2.034   2.041   2.044   2.055   2.063   2.072
  2.076   2.089   2.093   2.108   2.111   2.119   2.121   2.125
  2.140   2.152   2.161   2.173   2.179   2.185   2.189   2.198
  2.207   2.210   2.212   2.220   2.233   2.244   2.254   2.257
  2.265   2.280   2.291   2.294   2.296   2.304   2.313   2.316
  2.320   2.328   2.335   2.345   2.351   2.368   2.371   2.374
  2.385   2.391   2.395   2.402   2.414   2.421   2.424   2.426
  2.436   2.443   2.454   2.458   2.463   2.468   2.474   2.479
  2.497   2.500   2.511   2.519   2.524   2.528   2.531   2.534
  2.541   2.543   2.548   2.553   2.562   2.568   2.584   2.600
  2.608   2.615   2.624   2.633   2.639   2.644   2.653   2.659
  2.663   2.671   2.677   2.683   2.686   2.701   2.717   2.721
  2.729   2.735   2.742   2.758   2.768   2.772   2.777   2.780
  2.785   2.787   2.792   2.803   2.811   2.815   2.820   2.832
  2.836   2.843   2.848   2.855   2.866   2.874   2.879   2.882
  2.888   2.891   2.897   2.908   2.918   2.923   2.930   2.935
  2.939   2.944   2.947   2.951   2.955   2.968   2.973   2.978
  2.986   2.988   2.998   3.006   3.007   3.012   3.016   3.020
  3.023   3.028   3.035   3.037   3.047   3.051   3.055   3.060
  3.063   3.068   3.073   3.078   3.081   3.083   3.085   3.089
  3.091   3.097   3.103   3.103   3.116   3.123   3.126   3.132
  3.141   3.146   3.148   3.154   3.158   3.162   3.167   3.168
  3.175   3.182   3.185   3.191   3.196   3.199   3.203   3.208
  3.213   3.218   3.221   3.224   3.229   3.232   3.235   3.240
  3.242   3.245   3.250   3.254   3.262   3.266   3.268   3.273
  3.281   3.284   3.290   3.293   3.297   3.299   3.306   3.309
  3.310   3.313   3.317   3.322   3.329   3.335   3.339   3.342
  3.353   3.357   3.363   3.371   3.380   3.382   3.386   3.392
  3.395   3.403   3.407   3.412   3.421   3.422   3.424   3.434
  3.439   3.443   3.446   3.458   3.461   3.467   3.475   3.478
  3.480   3.486   3.490   3.497   3.508   3.513   3.514   3.522
  3.523   3.533   3.536   3.554   3.562   3.567   3.571   3.583
  3.586   3.597   3.612   3.620   3.623   3.639   3.642   3.645
  3.653   3.670   3.676   3.686   3.688   3.695   3.701   3.713
  3.714   3.719   3.733   3.737   3.739   3.749   3.754   3.757
  3.770   3.774   3.780   3.787   3.792   3.798   3.804   3.811
  3.813   3.832   3.835   3.844   3.852   3.858   3.874   3.882
  3.893   3.900   3.904   3.912   3.915   3.923   3.927   3.932
  3.934   3.935   3.938   3.952   3.957   3.960   3.969   3.983
  3.984   3.990   4.001   4.009   4.017   4.024   4.030   4.036
  4.050   4.058   4.068   4.077   4.078   4.090   4.093   4.106
  4.112   4.115   4.125   4.143   4.152   4.161   4.170   4.173
  4.188   4.193   4.199   4.202   4.206   4.217   4.220   4.226
  4.232   4.235   4.241   4.244   4.251   4.264   4.267   4.284
  4.286   4.292   4.298   4.313   4.321   4.329   4.331   4.336
  4.345   4.356   4.357   4.362   4.373   4.380   4.394   4.397
  4.408   4.411   4.429   4.431   4.438   4.443   4.446   4.450
  4.459   4.484   4.494   4.502   4.516   4.525   4.527   4.532
  4.548   4.556   4.561   4.570   4.586   4.595   4.598   4.615
  4.622   4.640   4.645   4.652   4.661   4.678   4.682   4.690
  4.714   4.727   4.738   4.746   4.761   4.766   4.779   4.793
  4.797   4.806   4.810   4.818   4.826   4.845   4.853   4.869
  4.876   4.885   4.886   4.887   4.903   4.915   4.922   4.936
  4.941   4.947   4.954   4.967   4.975   4.978   4.987   4.991
  5.000   5.004   5.010   5.018   5.031   5.048   5.050   5.055
  5.073   5.082   5.101   5.104   5.111   5.117   5.123   5.134
  5.140   5.144   5.149   5.154   5.174   5.177   5.184   5.192
  5.212   5.222   5.244   5.252   5.265   5.304   5.309   5.318
  5.320   5.347   5.355   5.377   5.385   5.406   5.429   5.431
  5.456   5.466   5.479   5.489   5.499   5.502   5.529   5.540
  5.563   5.575   5.578   5.590   5.598   5.615   5.630   5.650
  5.679   5.700   5.720   5.725   5.745   5.757   5.758   5.792
  5.801   5.834   5.839   5.860   5.882   5.901   5.920   5.930
  5.954   5.979   6.024   6.046   6.088   6.140   6.154   6.192
  6.206   6.247   6.256   6.305   6.331   6.363   6.385   6.432
  6.448   6.491   6.644   6.878   6.991   7.080   8.085   8.895
  9.817  10.213  10.667  11.147  11.268  11.677  12.019  12.158
 12.435  12.638  12.776  12.847  12.868  12.973  13.084  13.202
 13.337  13.426  13.562  14.196  14.423  14.668  15.068  15.136
 --------------------------------------------------------------
 
          Ground-State Mulliken Net Atomic Charges

     Atom                 Charge (a.u.)
  ----------------------------------------
      1 C                    -0.092552
      2 C                    -0.129592
      3 C                    -0.080354
      4 C                    -0.118351
      5 N                    -0.144923
      6 C                     0.083053
      7 C                     0.097493
      8 N                    -0.176948
      9 C                    -0.022108
     10 C                    -0.087063
     11 N                    -0.217106
     12 C                     0.056277
     13 C                     0.061076
     14 S                     0.404199
     15 N                    -0.306657
     16 C                    -0.070715
     17 S                     0.174710
     18 C                     0.062441
     19 C                    -0.056515
     20 N                    -0.168014
     21 C                     0.061544
     22 C                    -0.008396
     23 C                    -0.047812
     24 N                    -0.160445
     25 C                    -0.141619
     26 S                     0.102474
     27 C                    -0.043896
     28 C                    -0.156654
     29 C                    -0.181847
     30 H                     0.132893
     31 H                     0.120153
     32 H                     0.119110
     33 H                     0.137495
     34 H                     0.139664
     35 H                     0.127456
     36 H                     0.136701
     37 H                     0.128212
     38 H                     0.130280
     39 H                     0.136336
  ----------------------------------------
  Sum of atomic charges =     0.000000

 -----------------------------------------------------------------
                    Cartesian Multipole Moments
 -----------------------------------------------------------------
    Charge (ESU x 10^10)
                 0.0000
    Dipole Moment (Debye)
         X      -0.3382      Y       1.4513      Z       0.7488
       Tot       1.6677
    Quadrupole Moments (Debye-Ang)
        XX    -151.6525     XY       2.9466     YY    -164.5871
        XZ       0.6542     YZ       2.0853     ZZ    -186.7538
    Octopole Moments (Debye-Ang^2)
       XXX     107.6080    XXY      11.7570    XYY     -44.3706
       YYY      32.4801    XXZ      20.2572    XYZ       3.1532
       YYZ      -2.1945    XZZ       5.1551    YZZ      -7.0987
       ZZZ      -5.6953
    Hexadecapole Moments (Debye-Ang^3)
      XXXX  -15894.5272   XXXY     559.6242   XXYY   -3537.0980
      XYYY    -159.7133   YYYY   -3474.7112   XXXZ    -128.6803
      XXYZ     139.8595   XYYZ      46.3546   YYYZ       6.3641
      XXZZ   -3430.8379   XYZZ     -24.9165   YYZZ    -731.4409
      XZZZ      -4.5779   YZZZ       6.0011   ZZZZ    -280.4460
 -----------------------------------------------------------------
 Calculating analytic gradient of the SCF energy
 K construction time:  CPU 2982.46 s  wall 189.05 s
 Gradient of SCF Energy
            1           2           3           4           5           6
    1   0.0000827   0.0002167  -0.0000619  -0.0002014  -0.0000971   0.0000924
    2  -0.0001953   0.0001938   0.0001596   0.0003976   0.0001409  -0.0004588
    3  -0.0001771   0.0001373   0.0001359  -0.0003978   0.0001606   0.0008461
            7           8           9          10          11          12
    1   0.0000557   0.0000064   0.0000923   0.0001098  -0.0000187   0.0001500
    2  -0.0002312  -0.0001812   0.0000803   0.0002219  -0.0000840   0.0002212
    3  -0.0009182   0.0001808   0.0003802   0.0003413  -0.0002462   0.0001984
           13          14          15          16          17          18
    1  -0.0000140   0.0001529   0.0003439  -0.0003109  -0.0004214  -0.0002224
    2   0.0000673  -0.0003297  -0.0000286  -0.0000455   0.0000747  -0.0000289
    3  -0.0003683   0.0000475  -0.0001962   0.0002981   0.0001272   0.0001323
           19          20          21          22          23          24
    1   0.0002054  -0.0003357  -0.0000644   0.0000671  -0.0001646   0.0002380
    2  -0.0002982  -0.0000628   0.0000951   0.0000458   0.0004136  -0.0000566
    3  -0.0002598   0.0000120  -0.0002172  -0.0002021  -0.0000648  -0.0000407
           25          26          27          28          29          30
    1  -0.0001930   0.0000275   0.0001695   0.0000322   0.0000881  -0.0000092
    2  -0.0003322  -0.0000350   0.0001989   0.0000388   0.0001911  -0.0000576
    3   0.0005763   0.0000076  -0.0000413  -0.0002201  -0.0000313   0.0000704
           31          32          33          34          35          36
    1  -0.0001063   0.0000540  -0.0000527  -0.0000512  -0.0000732  -0.0000950
    2  -0.0001407  -0.0000600  -0.0000228   0.0000586  -0.0000174   0.0001099
    3  -0.0001042  -0.0000608  -0.0000635  -0.0002251  -0.0000236   0.0000299
           37          38          39
    1   0.0002254   0.0000657   0.0000174
    2   0.0000146  -0.0000644   0.0000071
    3   0.0000669   0.0001109  -0.0000013
 Max gradient component =       9.182E-04
 RMS gradient           =       2.170E-04
 Gradient time:  CPU 3445.19 s  wall 220.39 s
 Geometry Optimization Parameters
   NAtoms,    NIC,     NZ,  NCons,   NDum,   NFix, NCnnct, MaxDiis
       39     293       0       3       0       0       0       0

 Cartesian Hessian Update
 Hessian Updated using BFGS Update


** CONSTRAINED OPTIMIZATION IN DELOCALIZED INTERNAL COORDINATES **
   Searching for a Minimum

   Optimization Cycle:   3

                       Coordinates (Angstroms)
     ATOM                X               Y               Z
      1  C         7.6793947376    0.3127236328   -0.1114661827
      2  C         7.0166414030    1.4512522709    0.3177734741
      3  C         6.9209429242   -0.7859928997   -0.4816766915
      4  C         5.6361779426    1.4435637682    0.3616111062
      5  N         5.5955839938   -0.8099970419   -0.4385082060
      6  C         4.9640090896    0.2837701672   -0.0193821056
      7  C         3.4801466320    0.2576243064    0.0054316282
      8  N         2.8601919970    1.4040050999   -0.0440164193
      9  C         2.7081468706   -0.9455396346    0.0953998154
     10  C         1.5071188539    1.4922380882   -0.0424891606
     11  N         3.1464825839   -2.2000148164    0.2188088202
     12  C         1.2791861506   -0.8482694641    0.0897812025
     13  C         0.6376581036    0.4263834368    0.0085555111
     14  S         1.8469670920   -3.1342393229    0.2962621517
     15  N         0.6761687481   -2.0319951693    0.1886710972
     16  C        -0.8105849469    0.5850728839    0.0052812573
     17  S        -1.8837610795   -0.7585795652    0.0695672157
     18  C        -1.5702328403    1.7550216478   -0.0361762257
     19  C        -3.3094769768    0.1729469673    0.0225488158
     20  N        -1.0797026898    3.0258173599   -0.0850781185
     21  C        -2.9822450248    1.5221499496   -0.0251525632
     22  C        -4.6200909189   -0.4385134515    0.0500865484
     23  C        -1.9609988040    3.9767922807   -0.1231787590
     24  N        -3.8781326632    2.5447583456   -0.0686185830
     25  C        -5.8036083681    0.1180673682    0.4531736594
     26  S        -4.8618933417   -2.0778122969   -0.4581524365
[...]
   Point Group: c1    Number of degrees of freedom:   111


   Energy is  -2291.150609679

              Constraints and their Current Values
                                        Value     Constraint
   Dihedral:        4   6   7   8       21.822       21.822
   Dihedral:       10  13  16  17     -180.000      180.000
   Dihedral:       17  19  22  25      156.395      156.395
 Hessian Updated using BFGS Update

105 Hessian modes will be used to form the next step
  Hessian Eigenvalues:
     0.009773    0.018245    0.040579    0.045000    0.045000    0.045000
     0.045000    0.045000    0.045000    0.045000    0.045001    0.045001
     0.045001    0.045001    0.045001    0.045001    0.045002    0.045002
     0.045002    0.045003    0.045003    0.045004    0.045006    0.045009
     0.045012    0.045022    0.045026    0.045226    0.045571    0.047110
     0.155886    0.159535    0.159984    0.159998    0.160000    0.160001
     0.160020    0.160050    0.160081    0.160515    0.219982    0.221328
     0.223858    0.224308    0.232700    0.237948    0.242380    0.244570
     0.247561    0.248759    0.249715    0.249814    0.249966    0.249977
     0.249981    0.249992    0.250614    0.266780    0.290584    0.312041
     0.325552    0.334257    0.338445    0.342290    0.343426    0.354056
     0.354702    0.355738    0.357011    0.359046    0.360724    0.361016
     0.361801    0.363673    0.364143    0.373196    0.381927    0.388687
     0.399389    0.403813    0.413569    0.419412    0.427216    0.432372
     0.453654    0.460332    0.469531    0.473929    0.477797    0.482833
     0.484725    0.485702    0.492632    0.504465    0.518913    0.524437
     0.533133    0.560695    0.572123    0.589390    0.636052    0.648539
     0.652414    0.669626    0.683481

 Minimum Search - Taking Simple RFO Step
 Searching for Lamda that Minimizes Along All modes
 Value Taken    Lamda =   0.00000000
 Step Taken.  Stepsize is  0.001928

                             Maximum     Tolerance    Cnvgd?
         Gradient           0.000051      0.000300     YES
         Displacement       0.000843      0.001200     YES
         Energy change      0.000000      0.000001     YES

 Final energy is   -2291.15060967906     


 ******************************
 **  OPTIMIZATION CONVERGED  **
 ******************************

                       Coordinates (Angstroms)
     ATOM                X               Y               Z
      1  C         7.6745687297    0.3106270654   -0.1769078215
      2  C         7.0259697498    1.4444912836    0.2842593708
      3  C         6.9045592672   -0.7827340685   -0.5396983723
      4  C         5.6473250016    1.4384060711    0.3649574672
      5  N         5.5807481551   -0.8049365172   -0.4618310983
      6  C         4.9627835719    0.2849596998   -0.0121678041
      7  C         3.4797991150    0.2623641085    0.0416763983
      8  N         2.8608138522    1.4099142306    0.0144403602
      9  C         2.7082397029   -0.9410416176    0.1354780356
     10  C         1.5076346688    1.4972281762    0.0245444131
     11  N         3.1477482312   -2.1947555070    0.2615160322
     12  C         1.2796609454   -0.8441652762    0.1421200289
     13  C         0.6388975060    0.4305933722    0.0666216785
     14  S         1.8485804111   -3.1284041299    0.3535608383
     15  N         0.6766266247   -2.0269221204    0.2512372812
     16  C        -0.8086238934    0.5871129565    0.0490743664
     17  S        -1.8798723257   -0.7587375300    0.1023461941
     18  C        -1.5691460688    1.7551581418   -0.0108122224
     19  C        -3.3066016700    0.1700268058    0.0236979695
     20  N        -1.0800653213    3.0266750940   -0.0578230349
     21  C        -2.9806667884    1.5192371497   -0.0236548161
     22  C        -4.6177635116   -0.4406885431    0.0320577611
     23  C        -1.9632421444    3.9746579010   -0.1174650161
     24  N        -3.8785221990    2.5390307311   -0.0901876027
     25  C        -5.8067053167    0.1211952857    0.4106812541
     26  S        -4.8523112150   -2.0872636290   -0.4553859447
     27  C        -3.3707931265    3.7317004483   -0.1360293501
     28  C        -6.8973774571   -0.7753610906    0.3141383953
     29  C        -6.5316630274   -2.0056153611   -0.1332099748
     30  H         8.7515176096    0.2710035916   -0.2587754268
     31  H         7.5873473561    2.3215349443    0.5764675585
     32  H         7.3719953795   -1.6847694390   -0.9173953081
     33  H         5.0918433031    2.2981530186    0.7064465023
     34  H         1.1127359829    2.4999961723   -0.0116550759
     35  H        -1.5979628433    4.9951855160   -0.1554227605
     36  H        -5.8810199698    1.1451358687    0.7388940868
     37  H        -4.0556332735    4.5703277792   -0.1940495616
     38  H        -7.9134125003   -0.5150997384    0.5686698051
     39  H        -7.1564102250   -2.8664220891   -0.2992974375

Z-matrix Print:
$molecule
0 1
S 
C  1 1.704214
C  2 1.388828 1 109.544367
N  3 1.360349 2 125.102653 1 179.939716 0
C  4 1.297055 3 115.638425 2 179.516327 0
H  5 1.084282 4 117.764912 3 -179.737281 0
C  5 1.428486 4 122.795624 3 0.054269 0
H  7 1.084595 5 119.434726 4 179.833578 0
N  7 1.297008 5 123.177901 4 -0.228002 0
C  9 1.363145 7 116.042930 5 0.078864 0
C  10 1.395102 9 125.934510 7 -179.638144 0
C  2 1.446440 1 121.904973 3 179.096761 0
C  12 1.368449 2 128.010358 1 -156.394588 0
H  13 1.077822 12 122.291754 2 -1.433977 0
C  13 1.415168 12 112.991900 2 178.938841 0
H  15 1.079282 13 123.826303 12 -179.993951 0
C  15 1.359188 13 112.862305 12 -0.065600 0
H  17 1.076514 15 128.199250 13 179.874220 0
C  11 1.456065 10 129.231545 9 0.459484 0
C  19 1.376294 11 122.945002 10 -0.076682 0
H  20 1.078332 19 119.377690 11 -0.737479 0
N  20 1.356031 19 125.465541 11 178.764800 0
C  22 1.304130 20 122.014862 19 -0.168538 0
C  19 1.428736 11 122.847033 10 -179.452630 0
N  24 1.332093 19 126.406177 11 2.471695 0
C  24 1.431875 19 120.502138 11 -179.039050 0
N  26 1.334486 24 113.061092 19 -177.667476 0
C  23 1.484134 22 117.394368 20 -178.288716 0
N  28 1.331147 23 117.623874 22 156.318052 0
C  29 1.326285 28 118.001526 23 -178.605789 0
H  30 1.083891 29 115.911357 28 179.538372 0
C  30 1.385630 29 123.539493 28 -0.102521 0
H  32 1.080783 30 120.329892 29 -179.812640 0
C  32 1.385281 30 118.218555 29 0.409855 0
H  34 1.081543 32 120.707991 30 179.878416 0
C  34 1.381018 32 118.897826 30 -0.090940 0
H  36 1.079046 34 121.930291 32 179.296261 0
S  27 1.602501 26 106.605183 24 -0.776292 0
S  17 1.711925 15 111.657576 13 0.429343 0
$end

 
 --------------------------------------------------------------
 
                    Orbital Energies (a.u.)
 --------------------------------------------------------------
 
 Alpha MOs
 -- Occupied --
-89.146 -89.098 -89.079 -14.482 -14.479 -14.463 -14.462 -14.444
-14.434 -10.355 -10.351 -10.350 -10.346 -10.343 -10.343 -10.342
-10.341 -10.338 -10.336 -10.334 -10.330 -10.325 -10.323 -10.319
-10.309 -10.301 -10.298 -10.295 -10.293  -8.156  -8.113  -8.095
 -6.106  -6.101  -6.100  -6.062  -6.058  -6.057  -6.044  -6.040
 -6.038  -1.143  -1.102  -1.068  -1.048  -1.030  -1.013  -1.003
 -0.986  -0.924  -0.911  -0.896  -0.879  -0.869  -0.853  -0.838
 -0.811  -0.777  -0.772  -0.748  -0.738  -0.731  -0.716  -0.710
 -0.672  -0.656  -0.648  -0.629  -0.628  -0.620  -0.607  -0.603
 -0.586  -0.576  -0.567  -0.561  -0.557  -0.548  -0.543  -0.526
 -0.512  -0.508  -0.501  -0.498  -0.493  -0.492  -0.486  -0.483
 -0.473  -0.465  -0.463  -0.461  -0.451  -0.443  -0.429  -0.426
 -0.418  -0.411  -0.391  -0.377  -0.372  -0.359  -0.357  -0.351
 -0.343  -0.338  -0.334  -0.334  -0.321  -0.263
 -- Virtual --
 -0.055  -0.023   0.024   0.032   0.042   0.051   0.071   0.074
  0.085   0.090   0.119   0.124   0.125   0.126   0.132   0.136
  0.150   0.153   0.156   0.165   0.171   0.176   0.183   0.190
  0.201   0.206   0.210   0.217   0.224   0.231   0.243   0.247
  0.259   0.267   0.268   0.276   0.283   0.287   0.293   0.296
  0.301   0.304   0.308   0.314   0.318   0.324   0.325   0.332
  0.333   0.341   0.343   0.347   0.351   0.353   0.354   0.360
  0.366   0.369   0.371   0.381   0.382   0.386   0.387   0.389
  0.393   0.394   0.398   0.398   0.404   0.407   0.409   0.412
  0.414   0.417   0.421   0.427   0.432   0.434   0.437   0.440
  0.445   0.449   0.450   0.456   0.459   0.461   0.463   0.465
  0.468   0.473   0.476   0.479   0.484   0.484   0.486   0.493
  0.494   0.500   0.505   0.508   0.513   0.516   0.517   0.522
  0.526   0.530   0.534   0.536   0.538   0.542   0.551   0.558
  0.560   0.564   0.567   0.576   0.582   0.589   0.596   0.600
  0.603   0.607   0.611   0.617   0.619   0.632   0.635   0.641
  0.645   0.647   0.654   0.657   0.662   0.667   0.669   0.674
  0.680   0.690   0.694   0.700   0.706   0.711   0.713   0.724
  0.724   0.729   0.732   0.734   0.741   0.741   0.747   0.758
  0.760   0.766   0.770   0.776   0.779   0.781   0.786   0.790
  0.794   0.800   0.802   0.809   0.811   0.820   0.821   0.823
  0.831   0.834   0.836   0.844   0.844   0.848   0.853   0.858
  0.863   0.869   0.871   0.873   0.882   0.886   0.895   0.906
  0.907   0.914   0.917   0.922   0.927   0.930   0.934   0.943
  0.948   0.950   0.956   0.959   0.961   0.968   0.971   0.974
  0.982   0.983   0.997   1.002   1.002   1.008   1.014   1.020
  1.026   1.032   1.033   1.042   1.051   1.054   1.057   1.061
  1.064   1.069   1.080   1.084   1.088   1.092   1.098   1.103
  1.106   1.108   1.114   1.116   1.124   1.128   1.139   1.146
  1.150   1.163   1.165   1.170   1.175   1.186   1.188   1.192
  1.204   1.208   1.216   1.219   1.231   1.238   1.243   1.246
  1.255   1.262   1.267   1.271   1.282   1.297   1.301   1.303
  1.312   1.317   1.325   1.328   1.339   1.348   1.352   1.356
  1.358   1.367   1.374   1.376   1.381   1.383   1.388   1.389
  1.401   1.405   1.415   1.420   1.421   1.426   1.436   1.439
  1.448   1.449   1.454   1.459   1.469   1.478   1.480   1.482
  1.487   1.496   1.505   1.507   1.511   1.517   1.525   1.535
  1.548   1.566   1.569   1.572   1.578   1.583   1.588   1.601
  1.604   1.613   1.620   1.626   1.633   1.634   1.645   1.649
  1.659   1.661   1.664   1.668   1.675   1.691   1.696   1.702
  1.706   1.713   1.722   1.729   1.735   1.739   1.741   1.748
  1.759   1.769   1.777   1.785   1.795   1.802   1.805   1.812
  1.824   1.834   1.853   1.856   1.868   1.880   1.881   1.890
  1.895   1.905   1.910   1.919   1.925   1.934   1.947   1.952
  1.965   1.973   1.975   1.980   1.987   1.989   1.998   2.012
  2.014   2.019   2.034   2.041   2.044   2.055   2.063   2.072
  2.075   2.087   2.093   2.108   2.111   2.119   2.121   2.126
  2.140   2.152   2.160   2.174   2.179   2.185   2.190   2.198
  2.208   2.209   2.213   2.221   2.232   2.244   2.254   2.258
  2.265   2.280   2.291   2.294   2.296   2.305   2.312   2.317
  2.320   2.329   2.335   2.345   2.350   2.368   2.372   2.374
  2.385   2.392   2.395   2.401   2.414   2.420   2.424   2.426
  2.437   2.442   2.454   2.457   2.463   2.470   2.473   2.479
  2.496   2.500   2.511   2.519   2.524   2.528   2.531   2.534
  2.541   2.543   2.549   2.554   2.564   2.568   2.584   2.599
  2.608   2.615   2.624   2.633   2.640   2.644   2.653   2.659
  2.663   2.671   2.678   2.684   2.686   2.700   2.718   2.721
  2.729   2.734   2.741   2.759   2.768   2.771   2.777   2.780
  2.784   2.788   2.792   2.804   2.811   2.815   2.821   2.832
  2.836   2.843   2.848   2.856   2.867   2.874   2.878   2.881
  2.888   2.891   2.897   2.909   2.918   2.923   2.929   2.934
  2.940   2.945   2.947   2.952   2.956   2.967   2.973   2.979
  2.986   2.988   2.997   3.006   3.007   3.011   3.016   3.020
  3.023   3.027   3.035   3.037   3.047   3.051   3.055   3.060
  3.063   3.067   3.072   3.078   3.081   3.082   3.085   3.089
  3.091   3.097   3.103   3.103   3.116   3.123   3.126   3.133
  3.142   3.146   3.148   3.154   3.158   3.161   3.167   3.168
  3.175   3.182   3.185   3.192   3.196   3.199   3.204   3.209
  3.214   3.218   3.221   3.224   3.229   3.232   3.236   3.240
  3.242   3.245   3.250   3.254   3.262   3.266   3.269   3.273
  3.281   3.284   3.290   3.293   3.298   3.299   3.307   3.309
  3.310   3.313   3.318   3.322   3.331   3.335   3.339   3.342
  3.353   3.356   3.363   3.371   3.379   3.382   3.386   3.393
  3.395   3.403   3.408   3.412   3.421   3.423   3.425   3.435
  3.439   3.443   3.446   3.458   3.461   3.466   3.475   3.478
  3.480   3.486   3.490   3.497   3.508   3.511   3.513   3.522
  3.525   3.533   3.536   3.554   3.562   3.568   3.571   3.584
  3.586   3.597   3.612   3.620   3.623   3.639   3.642   3.645
  3.654   3.669   3.676   3.686   3.688   3.695   3.700   3.713
  3.714   3.720   3.734   3.737   3.739   3.749   3.754   3.756
  3.771   3.773   3.780   3.788   3.793   3.798   3.804   3.811
  3.813   3.832   3.835   3.843   3.852   3.859   3.875   3.881
  3.893   3.900   3.904   3.912   3.915   3.923   3.927   3.932
  3.934   3.935   3.938   3.952   3.958   3.961   3.969   3.983
  3.984   3.990   4.002   4.009   4.018   4.025   4.030   4.035
  4.051   4.058   4.069   4.078   4.079   4.091   4.093   4.106
  4.112   4.115   4.125   4.143   4.151   4.162   4.170   4.174
  4.187   4.193   4.200   4.201   4.206   4.217   4.219   4.226
  4.233   4.235   4.242   4.245   4.251   4.264   4.267   4.284
  4.287   4.292   4.298   4.313   4.322   4.330   4.331   4.336
  4.345   4.356   4.357   4.362   4.373   4.380   4.394   4.397
  4.409   4.412   4.429   4.431   4.439   4.443   4.447   4.451
  4.459   4.484   4.493   4.502   4.517   4.525   4.527   4.533
  4.549   4.557   4.561   4.569   4.586   4.596   4.598   4.616
  4.623   4.639   4.645   4.652   4.662   4.679   4.682   4.691
  4.713   4.727   4.738   4.746   4.762   4.766   4.780   4.793
  4.797   4.805   4.810   4.818   4.826   4.845   4.853   4.868
  4.877   4.885   4.886   4.887   4.903   4.915   4.923   4.935
  4.941   4.946   4.955   4.967   4.976   4.978   4.987   4.991
  5.000   5.004   5.010   5.018   5.031   5.048   5.050   5.055
  5.073   5.083   5.101   5.105   5.111   5.118   5.125   5.134
  5.141   5.144   5.148   5.154   5.174   5.177   5.184   5.192
  5.212   5.223   5.244   5.253   5.265   5.304   5.309   5.317
  5.320   5.347   5.355   5.377   5.384   5.406   5.428   5.431
  5.456   5.466   5.478   5.489   5.499   5.502   5.528   5.541
  5.562   5.576   5.579   5.590   5.599   5.616   5.629   5.649
  5.680   5.700   5.720   5.725   5.745   5.758   5.758   5.791
  5.801   5.834   5.839   5.861   5.882   5.902   5.920   5.930
  5.955   5.979   6.024   6.046   6.089   6.140   6.155   6.193
  6.206   6.247   6.256   6.307   6.332   6.363   6.384   6.431
  6.447   6.490   6.643   6.878   6.990   7.079   8.084   8.897
  9.815  10.216  10.669  11.148  11.269  11.678  12.022  12.161
 12.436  12.639  12.776  12.849  12.867  12.974  13.086  13.209
 13.337  13.427  13.563  14.201  14.429  14.672  15.069  15.140
 --------------------------------------------------------------
 
          Ground-State Mulliken Net Atomic Charges

     Atom                 Charge (a.u.)
  ----------------------------------------
      1 C                    -0.092501
      2 C                    -0.129333
      3 C                    -0.080268
      4 C                    -0.118486
      5 N                    -0.145484
      6 C                     0.083858
      7 C                     0.097191
      8 N                    -0.176605
      9 C                    -0.022174
     10 C                    -0.087077
     11 N                    -0.217319
     12 C                     0.056602
     13 C                     0.061486
     14 S                     0.403999
     15 N                    -0.306707
     16 C                    -0.070595
     17 S                     0.174282
     18 C                     0.062049
     19 C                    -0.056829
     20 N                    -0.167991
     21 C                     0.061800
     22 C                    -0.007726
     23 C                    -0.047609
     24 N                    -0.160563
     25 C                    -0.141014
     26 S                     0.101937
     27 C                    -0.044273
     28 C                    -0.157326
     29 C                    -0.181408
     30 H                     0.132872
     31 H                     0.120101
     32 H                     0.118992
     33 H                     0.137262
     34 H                     0.139523
     35 H                     0.127435
     36 H                     0.137119
     37 H                     0.128163
     38 H                     0.130202
     39 H                     0.136411
  ----------------------------------------
  Sum of atomic charges =     0.000000

 -----------------------------------------------------------------
                    Cartesian Multipole Moments
 -----------------------------------------------------------------
    Charge (ESU x 10^10)
                 0.0000
    Dipole Moment (Debye)
         X      -0.3203      Y       1.4486      Z       0.6805
       Tot       1.6322
    Quadrupole Moments (Debye-Ang)
        XX    -151.4138     XY       2.8688     YY    -164.6334
        XZ       0.4129     YZ       1.9489     ZZ    -186.7572
    Octopole Moments (Debye-Ang^2)
       XXX     107.5836    XXY      12.7625    XYY     -44.9805
       YYY      31.9106    XXZ      13.0192    XYZ       3.3656
       YYZ      -4.5051    XZZ       6.0851    YZZ      -7.2695
       ZZZ     -11.4087
    Hexadecapole Moments (Debye-Ang^3)
      XXXX  -15872.0203   XXXY     556.9701   XXYY   -3532.8531
      XYYY    -162.7376   YYYY   -3472.9504   XXXZ    -157.4169
      XXYZ     142.1224   XYYZ      44.6328   YYYZ       9.7699
      XXZZ   -3429.1750   XYZZ     -26.7178   YYZZ    -731.2521
      XZZZ     -11.1309   YZZZ      12.1774   ZZZZ    -286.5029
 -----------------------------------------------------------------
Archival summary:
1\1\mn251\OPT\ProcedureUnspecified\BasisUnspecified\362010\afmv_a\SatJun1702:22:162017SatJun1702:22:162017\0\\#,OPT,ProcedureUnspecified,BasisUnspecified,\\0,1\S\C,1,1.70421\C,2,1.38883,1,109.544\N,3,1.36035,2,125.103,1,179.94,0\C,4,1.29705,3,115.638,2,179.516,0\H,5,1.08428,4,117.765,3,-179.737,0\C,5,1.42849,4,122.796,3,0.0542693,0\H,7,1.0846,5,119.435,4,179.834,0\N,7,1.29701,5,123.178,4,-0.228002,0\C,9,1.36315,7,116.043,5,0.0788641,0\C,10,1.3951,9,125.935,7,-179.638,0\C,2,1.44644,1,121.905,3,179.097,0\C,12,1.36845,2,128.01,1,-156.395,0\H,13,1.07782,12,122.292,2,-1.43398,0\C,13,1.41517,12,112.992,2,178.939,0\H,15,1.07928,13,123.826,12,-179.994,0\C,15,1.35919,13,112.862,12,-0.0655999,0\H,17,1.07651,15,128.199,13,179.874,0\C,11,1.45606,10,129.232,9,0.459484,0\C,19,1.37629,11,122.945,10,-0.0766817,0\H,20,1.07833,19,119.378,11,-0.737479,0\N,20,1.35603,19,125.466,11,178.765,0\C,22,1.30413,20,122.015,19,-0.168538,0\C,19,1.42874,11,122.847,10,-179.453,0\N,24,1.33209,19,126.406,11,2.47169,0\C,24,1.43188,19,120.502,11,-179.039,0\N,26,1.33449,24,113.061,19,-177.667,0\C,23,1.48413,22,117.394,20,-178.289,0\N,28,1.33115,23,117.624,22,156.318,0\C,29,1.32629,28,118.002,23,-178.606,0\H,30,1.08389,29,115.911,28,179.538,0\C,30,1.38563,29,123.539,28,-0.102521,0\H,32,1.08078,30,120.33,29,-179.813,0\C,32,1.38528,30,118.219,29,0.409855,0\H,34,1.08154,32,120.708,30,179.878,0\C,34,1.38102,32,118.898,30,-0.0909405,0\H,36,1.07905,34,121.93,32,179.296,0\S,27,1.6025,26,106.605,24,-0.776292,0\S,17,1.71192,15,111.658,13,0.429343,0\\\@

 Total job time:  7278.06s(wall), 108710.80s(cpu) 
 Sat Jun 17 02:22:16 2017

        *************************************************************
        *                                                           *
        *  Thank you very much for using Q-Chem.  Have a nice day.  *
        *                                                           *
        *************************************************************


