
Running Job 1 of 1 C169_2/C169_240.qcin
qchem C169_2/C169_240.qcin_23175.0 /tmpu/cab_g/afmv_a/scratch_qchem/qchem23175/ 1
/tmpu/appuserlic/qchem4.4/serial-multicore/exe/qcprog.exe_s C169_2/C169_240.qcin_23175.0 /tmpu/cab_g/afmv_a/scratch_qchem/qchem23175/
Check license passed

                  Welcome to Q-Chem
     A Quantum Leap Into The Future Of Chemistry


 Q-Chem 4.4, Q-Chem, Inc., Pleasanton, CA (2016)

 Y. Shao,  Z. Gan,  E. Epifanovsky,  A. T. B. Gilbert,  M. Wormit,  
 J. Kussmann,  A. W. Lange,  A. Behn,  J. Deng,  X. Feng,  D. Ghosh,  
 M. Goldey,  P. R. Horn,  L. D. Jacobson,  I. Kaliman,  F. Rob,  
 R. Z. Khaliullin,  T. Kus,  A. Landau,  J. Liu,  E. I. Proynov,  Y. M. Rhee,  
 R. M. Richard,  M. A. Rohrdanz,  R. P. Steele,  E. J. Sundstrom,  
 H. L. Woodcock III,  P. M. Zimmerman,  D. Zuev,  B. Albrecht,  E. Alguire,  
 B. Austin,  S. A. Baeppler,  G. J. O. Beran,  Y. A. Bernard,  E. Berquist,  
 K. Brandhorst,  K. B. Bravaya,  S. T. Brown,  D. Casanova,  C.-M. Chang,  
 Y. Chen,  S. H. Chien,  K. D. Closser,  M. P. Coons,  D. L. Crittenden,  
 S. Dasgupta,  M. Diedenhofen,  R. A. DiStasio Jr.,  H. Do,  A. D. Dutoi,  
 R. G. Edgar,  P.-T. Fang,  S. Fatehi,  Q. Feng,  L. Fusti-Molnar,  
 A. Ghysels,  A. Golubeva-Zadorozhnaya,  J. Gomes,  A. Gunina,  
 M. W. D. Hanson-Heine,  P. H. P. Harbach,  A. W. Hauser,  J. E. Herr,  
 E. G. Hohenstein,  Z. C. Holden,  K. Hui,  T.-C. Jagau,  H. Ji,  B. Kaduk,  
 K. Khistyaev,  Jaehoon Kim,  Jihan Kim,  R. A. King,  P. Klunzinger,  
 K. Koh,  D. Kosenkov,  T. Kowalczyk,  C. M. Krauter,  A. Kunitsa,  
 K. U. Lao,  A. Laurent,  K. V. Lawler,  J. Lee,  D. Lefrancois,  S. Lehtola,  
 S. V. Levchenko,  C. Y. Lin,  Y.-S. Lin,  F. Liu,  E. Livshits,  
 R. C. Lochan,  A. Luenser,  P. Manohar,  S. F. Manzer,  S.-P. Mao,  Y. Mao,  
 N. Mardirossian,  A. V. Marenich,  L. A. Martinez-Martinez,  S. A. Maurer,  
 N. J. Mayhall,  J.-M. Mewes,  A. F. Morrison,  K. Nanda,  T. S. Nguyen-Beck,  
 C. M. Oana,  R. Olivares-Amaya,  D. P. O'Neill,  J. A. Parkhill,  
 T. M. Perrine,  R. Peverati,  P. A. Pieniazek,  F. Plasser,  A. Prociuk,  
 D. R. Rehn,  E. Rosta,  N. J. Russ,  N. Sergueev,  S. M. Sharada,  
 S. Sharma,  D. W. Small,  A. Sodt,  T. Stauch,  T. Stein,  D. Stuck,  
 Y.-C. Su,  A. J. W. Thom,  T. Tsuchimochi,  L. Vogt,  O. Vydrov,  T. Wang,  
 M. A. Watson,  J. Wenzel,  A. White,  C. F. Williams,  V. Vanovschi,  
 K. Yao,  S. Yeganeh,  S. R. Yost,  Z.-Q. You,  I. Y. Zhang,  X. Zhang,  
 Y. Zhao,  B. R. Brooks,  G. K. L. Chan,  D. M. Chipman,  C. J. Cramer,  
 W. A. Goddard III,  M. S. Gordon,  W. J. Hehre,  A. Klamt,  
 H. F. Schaefer III,  M. W. Schmidt,  C. D. Sherrill,  D. G. Truhlar,  
 A. Warshel,  X. Xu,  A. Aspuru-Guzik,  R. Baer,  A. T. Bell,  N. A. Besley,  
 J.-D. Chai,  A. Dreuw,  B. D. Dunietz,  T. R. Furlani,  S. R. Gwaltney,  
 C.-P. Hsu,  Y. Jung,  J. Kong,  D. S. Lambrecht,  W. Liang,  C. Ochsenfeld,  
 V. A. Rassolov,  L. V. Slipchenko,  J. E. Subotnik,  T. Van Voorhis,  
 J. M. Herbert,  A. I. Krylov,  P. M. W. Gill,  M. Head-Gordon

 Contributors to earlier versions of Q-Chem not listed above: 
 R. D. Adamson,  J. Baker,  E. F. C. Byrd,  A. K. Chakraborty,  C.-L. Cheng,  
 H. Dachsel,  R. J. Doerksen,  G. Hawkins,  A. Heyden,  S. Hirata,  
 G. Kedziora,  F. J. Keil,  C. Kelley,  P. P. Korambath,  W. Kurlancheek,  
 A. M. Lee,  M. S. Lee,  D. Liotard,  I. Lotan,  P. E. Maslen,  N. Nair,  
 D. Neuhauser,  R. Olson,  B. Peters,  J. Ritchie,  N. E. Schultz,  
 N. Shenvi,  A. C. Simmonett,  K. S. Thanthiriwatte,  Q. Wu,  W. Zhang

 Please cite Q-Chem as follows:
 Y. Shao et al., Mol. Phys. 113, 184-215 (2015)
 DOI: 10.1080/00268976.2014.952696

 Q-Chem 4.4.2 for Intel X86 Linux

 Parts of Q-Chem use Armadillo 5.200.1 (Boston Tea Smuggler).
 http://arma.sourceforge.net/

 Q-Chem begins on Fri Jun 16 22:07:34 2017  

Host: 
0

     Scratch files written to /tmpu/cab_g/afmv_a/scratch_qchem/qchem23175//
 Dec716 11556_ 22328  22283 4050   
Processing $rem in /tmpu/appuserlic/qchem4.4/serial-multicore/config/preferences.
 MEM_TOTAL  2000 
FILE_GEOM_ORG=        593

Checking the input file for inconsistencies... 	...done.

--------------------------------------------------------------
User input:
--------------------------------------------------------------
$comment
OPTIMIZATION
$end

$rem
JOBTYPE OPT
EXCHANGE omegaB97X-D
BASIS cc-pVTZ
$end

$molecule
0 1
C          0.00000        0.00000        0.00000
C         -0.65396       -1.22126       -0.00000
C          1.38563        0.00000        0.00000
C          0.09526       -2.37957        0.00866
N          2.11912       -1.10562        0.01199
C          1.48546       -2.27640        0.02149
C          2.30642       -3.51253        0.03449
N          1.74513       -4.60745       -0.39909
C          3.65824       -3.56714        0.50995
C          2.40434       -5.79109       -0.42442
N          4.38617       -2.58332        1.04242
C          4.35289       -4.81920        0.47143
C          3.70163       -5.99343       -0.01477
S          5.80914       -3.21778        1.41887
N          5.59255       -4.74484        0.95148
C          4.33823       -7.30129       -0.04468
S          4.94970       -8.06996        1.36672
C          4.55388       -8.14225       -1.13677
C          5.51411       -9.46209        0.55918
N          4.19576       -7.88642       -2.42621
C          5.21474       -9.36414       -0.79440
C          6.17462      -10.54496        1.25237
C          4.49682       -8.80464       -3.29146
N          5.51520      -10.30526       -1.72940
C          6.27776      -11.85221        0.86306
S          6.98386      -10.29785        2.76663
C          5.16101      -10.02096       -2.94497
C          6.99330      -12.65091        1.78683
C          7.42927      -11.94821        2.86576
H         -0.54853        0.93120        0.00000
H         -1.73532       -1.26909       -0.00410
H          1.93662        0.93286       -0.01167
H         -0.36319       -3.35650        0.00329
H          1.82722       -6.62671       -0.78554
H          4.22588       -8.62015       -4.32564
H          5.85642      -12.20969       -0.06133
H          5.38556      -10.75033       -3.71561
H          7.16823      -13.70725        1.65053
H          7.99301      -12.31033        3.70839
$end

$opt
CONSTRAINT
tors 4 6 7 8 21.82164
tors 10 13 16 17 -120.00000
tors 17 19 22 25 156.39459
ENDCONSTRAINT
$end
--------------------------------------------------------------
 ----------------------------------------------------------------
             Standard Nuclear Orientation (Angstroms)
    I     Atom           X                Y                Z
 ----------------------------------------------------------------
    1      C      -7.6314854181     0.2586183240    -0.8118897703
    2      C      -6.8479594002     0.9351083441    -1.7325351424
    3      C      -6.9976635902    -0.3852483746     0.2386701099
    4      C      -5.4777863168     0.9331716291    -1.5721929123
    5      N      -5.6811641596    -0.3987197919     0.4035782502
    6      C      -4.9324416253     0.2450387307    -0.4893554456
    7      C      -3.4601619486     0.2299018322    -0.3040850315
    8      N      -2.7764621064     1.1852002766    -0.8714009000
    9      C      -2.7602611654    -0.7768222161     0.4396268485
   10      C      -1.4273750189     1.2610716340    -0.7693683068
   11      N      -3.2623529772    -1.8578599742     1.0401011246
   12      C      -1.3352268028    -0.6855793982     0.5520033148
   13      C      -0.6260388657     0.3794643868    -0.0820947270
   14      S      -2.0227608722    -2.6384281001     1.6906566788
   15      N      -0.8006446277    -1.6833503379     1.2530092902
   16      C       0.8225094170     0.5075492380    -0.0378896238
   17      S       1.8819996383    -0.7152976632    -0.6200622931
   18      C       1.5905743905     1.5717307663     0.4353683225
   19      C       3.3180444993     0.1184539970    -0.2310394624
   20      N       1.1101111354     2.7319419032     0.9639698880
   21      C       2.9999482064     1.3528522341     0.3225589086
   22      C       4.6284616486    -0.4342992750    -0.4892331656
   23      C       2.0015439581     3.5914454790     1.3500058712
   24      N       3.9065472738     2.2776017178     0.7386413395
   25      C       5.8074067563     0.2402386091    -0.6510657157
   26      S       4.8850816641    -2.1444667495    -0.6248408873
   27      C       3.4077902165     3.3658953694     1.2393865807
   28      C       6.9071431659    -0.6164585343    -0.8958513937
   29      C       6.5587978203    -1.9303080920    -0.9158997343
   30      H      -8.7079182914     0.2293930777    -0.9038503879
   31      H      -7.3004842738     1.4555898742    -2.5667798213
   32      H      -7.5734333333    -0.9161980424     0.9873593657
   33      H      -4.8218052217     1.4487309067    -2.2566524789
   34      H      -0.9757399018     2.0843794217    -1.2984485852
   35      H       1.6419904546     4.5207256323     1.7791130734
   36      H       5.8671709560     1.3134993518    -0.5850669527
   37      H       4.1034001538     4.1246869646     1.5809293147
   38      H       7.9141224354    -0.2621498045    -1.0555087310
   39      H       7.1964088101    -2.7822218358    -1.0791608675
 ----------------------------------------------------------------
 Molecular Point Group                 C1    NOp =  1
 Largest Abelian Subgroup              C1    NOp =  1
 Nuclear Repulsion Energy =  2921.7290718298 hartrees
 There are      110 alpha and      110 beta electrons
 Requested basis set is cc-pVTZ
 There are 356 shells and 1022 basis functions

 Total QAlloc Memory Limit   2000 MB
 Mega-Array Size        61 MB
 MEM_STATIC part        62 MB
 A cutoff of  1.0D-11 yielded  30840 shell pairs
 There are    243084 function pairs (    317204 Cartesian)
 
 -------------------------------------------------------
 OpenMP Integral Computing Module                       
 Release: version 1.0, May 2013, Q-Chem Inc. Pittsburgh 
 -------------------------------------------------------
 Integral Job Info:
 Integral job number is                      11
 Integral operator is                         1
 short-range coefficients              22203600
 long-range coefficients              100000000
 Omega coefficients                         200
 if combine SR and LR in K                    1
 Integral screening is                        0
 Integral computing path is                   2
 max size of driver memory is            800000
 size of driver memory is                776718
 size of scratch memory is             26248924
 max col of scratch BK array              10000
 max len of scratch array in speh3          662
 max len of scratch index in speh4           32
 max int batch size is                      520
 min int batch size is                       52
 fixed nKL is                                52
 max L of basis functions is                  3
 order of int derivative is                   0
 number of shells is                        356
 number of basis is                        1177
 number of cartesian basis is              1177
 number of contracted shell pairs         30840
 number of primitive shell pairs          93392
 maxK2 (contraction) of shell pair          121
 max number of K2 of shell pair               1
 max number of CS2 of shell pair           4286
 max number of PS2 of shell pair          13027
 mem total for path MDJ                  836024
 -------------------------------------------------------
 Smallest overlap matrix eigenvalue = 3.11E-05

 Scale SEOQF with 1.000000e-02/1.000000e-01/1.000000e-01

 Standard Electronic Orientation quadrupole field applied
 Nucleus-field energy     =     0.0000000369 hartrees
 Guess from superposition of atomic densities
 Warning:  Energy on first SCF cycle will be non-variational
 Long-range K will be added via erf
 Coulomb attenuation parameter = 0.2 bohr**(-1)
 A restricted hybrid HF-DFT SCF calculation will be
 performed using Pulay DIIS extrapolation
 Exchange:     0.2220 Hartree-Fock + 1.0000 wB97X-D + LR-HF
 Correlation:  1.0000 wB97X-D
 Using SG-2 standard quadrature grid
 Dispersion:   Grimme D
 SCF converges when DIIS error is below 1.0E-08
 using 16 threads for integral computing 
 using 16 threads for integral computing 
 K construction time:  CPU 70.76 s  wall 4.66 s
 -------------------------------------------------------
 OpenMP BLAS3 based DFT computing Module                
 Release: version 1.0, May 2013, Q-Chem Inc. Pittsburgh 
 -------------------------------------------------------
 ---------------------------------------
  Cycle       Energy         DIIS Error
 ---------------------------------------
    1   -2301.3320165853      1.83E-02
 K construction time:  CPU 1098.41 s  wall 72.71 s
    2   -2290.8930072291      1.35E-03
 K construction time:  CPU 1043.66 s  wall 69.01 s
    3   -2290.9299758246      1.34E-03
 K construction time:  CPU 994.55 s  wall 65.74 s
    4   -2291.1401184193      1.97E-04
 K construction time:  CPU 918.48 s  wall 60.74 s
    5   -2291.1444758310      1.09E-04
 K construction time:  CPU 864.75 s  wall 57.18 s
    6   -2291.1459077820      4.13E-05
 K construction time:  CPU 807.61 s  wall 53.46 s
    7   -2291.1461254041      1.72E-05
 K construction time:  CPU 752.08 s  wall 49.78 s
    8   -2291.1461728930      5.49E-06
 K construction time:  CPU 726.82 s  wall 48.01 s
    9   -2291.1461838671      3.58E-06
 K construction time:  CPU 685.41 s  wall 45.37 s
   10   -2291.1461873454      1.23E-06
 K construction time:  CPU 623.15 s  wall 41.02 s
   11   -2291.1461878483      7.64E-07
 K construction time:  CPU 579.18 s  wall 38.21 s
   12   -2291.1461880055      2.10E-07
 K construction time:  CPU 511.53 s  wall 33.75 s
   13   -2291.1461880207      1.13E-07
 K construction time:  CPU 443.92 s  wall 29.30 s
   14   -2291.1461880228      3.29E-08
 K construction time:  CPU 379.85 s  wall 24.99 s
   15   -2291.1461880232      1.61E-08
 K construction time:  CPU 1090.71 s  wall 72.14 s
   16   -2291.1461880243      4.88E-09 Convergence criterion met
 ---------------------------------------
 SCF time:  CPU 15492.00 s  wall 1050.98 s
 SCF   energy in the final basis set = -2291.1461880243
 Total energy in the final basis set = -2291.1461880243
 
 --------------------------------------------------------------
 
                    Orbital Energies (a.u.)
 --------------------------------------------------------------
 
 Alpha MOs
 -- Occupied --
-89.145 -89.101 -89.079 -14.481 -14.477 -14.460 -14.459 -14.448
-14.436 -10.357 -10.355 -10.351 -10.345 -10.342 -10.341 -10.340
-10.340 -10.338 -10.336 -10.335 -10.334 -10.330 -10.325 -10.319
-10.311 -10.303 -10.300 -10.295 -10.292  -8.156  -8.116  -8.095
 -6.106  -6.100  -6.100  -6.064  -6.061  -6.059  -6.044  -6.040
 -6.038  -1.142  -1.099  -1.071  -1.051  -1.027  -1.012  -1.002
 -0.986  -0.925  -0.913  -0.897  -0.879  -0.868  -0.854  -0.838
 -0.812  -0.778  -0.770  -0.748  -0.739  -0.730  -0.719  -0.711
 -0.672  -0.654  -0.646  -0.630  -0.629  -0.621  -0.605  -0.603
 -0.591  -0.577  -0.568  -0.563  -0.559  -0.544  -0.543  -0.527
 -0.513  -0.506  -0.502  -0.501  -0.494  -0.492  -0.486  -0.480
 -0.473  -0.468  -0.461  -0.457  -0.449  -0.438  -0.427  -0.425
 -0.422  -0.410  -0.396  -0.376  -0.370  -0.362  -0.357  -0.351
 -0.342  -0.338  -0.336  -0.333  -0.317  -0.271
 -- Virtual --
 -0.046  -0.031   0.025   0.031   0.040   0.058   0.065   0.070
  0.085   0.090   0.096   0.122   0.124   0.129   0.131   0.138
  0.146   0.148   0.154   0.158   0.165   0.175   0.177   0.189
  0.196   0.199   0.210   0.216   0.224   0.226   0.241   0.244
  0.256   0.261   0.268   0.272   0.279   0.287   0.293   0.296
  0.299   0.301   0.310   0.311   0.315   0.319   0.322   0.328
  0.330   0.333   0.340   0.344   0.346   0.347   0.353   0.360
  0.363   0.365   0.373   0.376   0.379   0.380   0.384   0.386
  0.389   0.391   0.398   0.400   0.404   0.406   0.409   0.413
  0.416   0.418   0.423   0.428   0.430   0.434   0.437   0.439
  0.442   0.443   0.451   0.455   0.457   0.460   0.463   0.463
  0.466   0.471   0.475   0.479   0.480   0.483   0.486   0.488
  0.491   0.495   0.498   0.505   0.509   0.510   0.518   0.521
  0.524   0.527   0.531   0.534   0.536   0.541   0.545   0.549
  0.554   0.562   0.567   0.574   0.575   0.581   0.583   0.597
  0.601   0.606   0.609   0.615   0.621   0.623   0.629   0.635
  0.639   0.640   0.645   0.654   0.657   0.658   0.666   0.672
  0.672   0.681   0.684   0.688   0.695   0.699   0.707   0.714
  0.716   0.720   0.729   0.731   0.733   0.736   0.740   0.749
  0.754   0.761   0.765   0.771   0.773   0.779   0.782   0.785
  0.789   0.791   0.796   0.800   0.806   0.812   0.816   0.821
  0.826   0.832   0.837   0.838   0.843   0.847   0.853   0.854
  0.862   0.865   0.869   0.870   0.875   0.890   0.895   0.899
  0.901   0.913   0.915   0.920   0.922   0.927   0.929   0.934
  0.937   0.946   0.948   0.952   0.953   0.957   0.965   0.969
  0.976   0.982   0.989   0.991   0.998   0.999   1.004   1.010
  1.017   1.025   1.028   1.032   1.045   1.047   1.049   1.057
  1.061   1.066   1.070   1.079   1.083   1.088   1.089   1.094
  1.100   1.106   1.108   1.109   1.123   1.126   1.129   1.141
  1.147   1.157   1.164   1.170   1.175   1.182   1.185   1.193
  1.201   1.204   1.208   1.217   1.225   1.233   1.238   1.244
  1.247   1.255   1.262   1.268   1.274   1.286   1.287   1.296
  1.310   1.315   1.318   1.327   1.334   1.352   1.354   1.355
  1.358   1.371   1.372   1.376   1.382   1.384   1.387   1.392
  1.400   1.404   1.406   1.415   1.418   1.423   1.433   1.438
  1.440   1.447   1.449   1.457   1.462   1.472   1.476   1.482
  1.485   1.488   1.501   1.505   1.508   1.512   1.517   1.528
  1.541   1.558   1.562   1.567   1.572   1.579   1.584   1.593
  1.601   1.606   1.610   1.616   1.626   1.637   1.646   1.651
  1.652   1.658   1.663   1.668   1.671   1.677   1.686   1.692
  1.700   1.707   1.712   1.721   1.728   1.736   1.743   1.746
  1.749   1.763   1.765   1.772   1.780   1.794   1.799   1.802
  1.820   1.829   1.834   1.847   1.862   1.875   1.879   1.886
  1.890   1.893   1.903   1.908   1.922   1.933   1.939   1.943
  1.953   1.967   1.976   1.983   1.985   1.993   2.003   2.010
  2.015   2.018   2.032   2.038   2.040   2.053   2.057   2.064
  2.076   2.080   2.097   2.104   2.109   2.115   2.123   2.126
  2.137   2.149   2.158   2.170   2.173   2.180   2.186   2.191
  2.202   2.206   2.213   2.218   2.242   2.245   2.248   2.256
  2.261   2.269   2.280   2.290   2.295   2.297   2.298   2.302
  2.315   2.318   2.330   2.339   2.344   2.350   2.358   2.370
  2.375   2.388   2.391   2.399   2.410   2.412   2.415   2.427
  2.439   2.444   2.449   2.450   2.458   2.463   2.465   2.468
  2.479   2.496   2.512   2.515   2.521   2.529   2.532   2.537
  2.539   2.541   2.545   2.551   2.554   2.565   2.578   2.582
  2.601   2.610   2.619   2.626   2.632   2.644   2.648   2.659
  2.662   2.667   2.672   2.680   2.685   2.701   2.706   2.715
  2.728   2.732   2.736   2.739   2.752   2.772   2.774   2.776
  2.782   2.789   2.796   2.801   2.808   2.817   2.822   2.825
  2.829   2.838   2.844   2.850   2.856   2.864   2.868   2.876
  2.882   2.885   2.894   2.907   2.911   2.918   2.926   2.928
  2.936   2.938   2.950   2.954   2.961   2.968   2.976   2.980
  2.986   2.989   3.001   3.006   3.008   3.016   3.018   3.022
  3.024   3.031   3.036   3.043   3.045   3.053   3.057   3.061
  3.067   3.069   3.072   3.074   3.077   3.084   3.089   3.093
  3.097   3.102   3.104   3.109   3.111   3.119   3.122   3.130
  3.136   3.144   3.150   3.153   3.155   3.158   3.164   3.168
  3.171   3.176   3.179   3.185   3.195   3.198   3.202   3.207
  3.210   3.215   3.220   3.223   3.226   3.227   3.235   3.238
  3.240   3.246   3.256   3.258   3.262   3.264   3.266   3.271
  3.276   3.281   3.283   3.287   3.289   3.295   3.300   3.306
  3.310   3.312   3.318   3.323   3.326   3.332   3.339   3.344
  3.347   3.352   3.359   3.368   3.368   3.386   3.388   3.391
  3.400   3.404   3.413   3.414   3.420   3.425   3.427   3.431
  3.435   3.442   3.450   3.453   3.460   3.467   3.472   3.473
  3.478   3.485   3.489   3.498   3.502   3.509   3.514   3.525
  3.532   3.540   3.544   3.546   3.556   3.565   3.568   3.577
  3.587   3.596   3.601   3.610   3.620   3.627   3.638   3.644
  3.649   3.658   3.665   3.683   3.693   3.695   3.700   3.709
  3.719   3.720   3.721   3.733   3.737   3.742   3.750   3.755
  3.769   3.778   3.780   3.787   3.799   3.802   3.807   3.810
  3.815   3.820   3.823   3.836   3.848   3.856   3.868   3.881
  3.886   3.897   3.904   3.907   3.918   3.924   3.925   3.932
  3.933   3.938   3.940   3.941   3.953   3.961   3.965   3.970
  3.976   3.982   3.991   3.996   4.011   4.021   4.028   4.038
  4.041   4.050   4.061   4.066   4.076   4.087   4.091   4.102
  4.108   4.116   4.122   4.124   4.143   4.148   4.160   4.173
  4.176   4.180   4.195   4.195   4.206   4.215   4.221   4.223
  4.232   4.235   4.242   4.246   4.252   4.269   4.273   4.282
  4.295   4.296   4.301   4.307   4.311   4.321   4.329   4.332
  4.341   4.351   4.354   4.361   4.369   4.372   4.378   4.394
  4.396   4.403   4.412   4.428   4.435   4.440   4.444   4.460
  4.460   4.480   4.487   4.500   4.516   4.520   4.528   4.540
  4.552   4.557   4.561   4.566   4.578   4.593   4.596   4.608
  4.617   4.641   4.644   4.646   4.662   4.675   4.679   4.698
  4.710   4.717   4.735   4.747   4.752   4.763   4.774   4.781
  4.796   4.804   4.807   4.814   4.825   4.840   4.847   4.850
  4.860   4.875   4.884   4.890   4.899   4.911   4.920   4.932
  4.934   4.945   4.954   4.969   4.972   4.974   4.984   4.989
  4.994   5.004   5.008   5.014   5.023   5.037   5.038   5.050
  5.052   5.058   5.070   5.084   5.092   5.099   5.115   5.122
  5.130   5.139   5.144   5.147   5.161   5.165   5.185   5.194
  5.210   5.215   5.233   5.243   5.276   5.302   5.305   5.313
  5.324   5.331   5.348   5.363   5.372   5.385   5.397   5.427
  5.433   5.460   5.467   5.486   5.492   5.504   5.525   5.544
  5.563   5.574   5.575   5.588   5.592   5.602   5.623   5.645
  5.671   5.681   5.710   5.721   5.737   5.747   5.758   5.775
  5.792   5.832   5.836   5.858   5.871   5.882   5.896   5.918
  5.945   5.954   5.984   6.042   6.093   6.094   6.130   6.167
  6.195   6.235   6.243   6.278   6.291   6.318   6.375   6.431
  6.442   6.486   6.628   6.843   6.989   7.071   7.952   8.777
  9.805  10.141  10.628  11.046  11.253  11.695  11.979  12.001
 12.349  12.626  12.752  12.756  12.850  12.901  13.075  13.260
 13.296  13.419  13.525  13.681  14.290  14.608  15.043  15.069
 --------------------------------------------------------------
 
          Ground-State Mulliken Net Atomic Charges

     Atom                 Charge (a.u.)
  ----------------------------------------
      1 C                    -0.091424
      2 C                    -0.128151
      3 C                    -0.079151
      4 C                    -0.116772
      5 N                    -0.143460
      6 C                     0.080877
      7 C                     0.112197
      8 N                    -0.176268
      9 C                    -0.011453
     10 C                    -0.054583
     11 N                    -0.222625
     12 C                     0.038385
     13 C                     0.031749
     14 S                     0.409669
     15 N                    -0.277137
     16 C                    -0.090827
     17 S                     0.191626
     18 C                     0.032120
     19 C                    -0.050965
     20 N                    -0.144765
     21 C                     0.048281
     22 C                    -0.015310
     23 C                    -0.048769
     24 N                    -0.162605
     25 C                    -0.142485
     26 S                     0.101410
     27 C                    -0.049916
     28 C                    -0.156215
     29 C                    -0.182525
     30 H                     0.133410
     31 H                     0.119310
     32 H                     0.119881
     33 H                     0.136096
     34 H                     0.127154
     35 H                     0.131308
     36 H                     0.137645
     37 H                     0.127277
     38 H                     0.130598
     39 H                     0.136411
  ----------------------------------------
  Sum of atomic charges =     0.000000

 -----------------------------------------------------------------
                    Cartesian Multipole Moments
 -----------------------------------------------------------------
    Charge (ESU x 10^10)
                 0.0000
    Dipole Moment (Debye)
         X       0.0173      Y       0.9429      Z      -1.1747
       Tot       1.5064
    Quadrupole Moments (Debye-Ang)
        XX    -151.5688     XY       0.7542     YY    -170.1585
        XZ       5.7635     YZ       1.0329     ZZ    -180.9087
    Octopole Moments (Debye-Ang^2)
       XXX    -107.1491    XXY       2.0582    XYY      56.8441
       YYY      16.2984    XXZ     -77.1359    XYZ      37.4298
       YYZ      24.8514    XZZ     -26.8045    YZZ       7.2020
       ZZZ      13.0043
    Hexadecapole Moments (Debye-Ang^3)
      XXXX  -15952.9286   XXXY    -358.4003   XXYY   -3550.1296
      XYYY     144.0072   YYYY   -2849.7445   XXXZ     121.1833
      XXYZ     -28.0124   XYYZ      30.0576   YYYZ      81.2541
      XXZZ   -3372.3161   XYZZ       7.9612   YYZZ    -655.2425
      XZZZ      56.7626   YZZZ     -38.2459   ZZZZ   -1144.2883
 -----------------------------------------------------------------
 Calculating analytic gradient of the SCF energy
 K construction time:  CPU 2699.01 s  wall 171.18 s
 Gradient of SCF Energy
            1           2           3           4           5           6
    1  -0.0003213   0.0014381  -0.0005554  -0.0017786  -0.0005957   0.0021123
    2  -0.0001343  -0.0004187  -0.0001749   0.0005136  -0.0004154   0.0000770
    3   0.0001057   0.0006669  -0.0002039  -0.0001663   0.0001909   0.0006170
            7           8           9          10          11          12
    1  -0.0031340   0.0012211   0.0010368  -0.0050056   0.0014135  -0.0020466
    2  -0.0004735  -0.0020405   0.0005990   0.0062091   0.0001928   0.0006145
    3  -0.0012847   0.0003415   0.0003335  -0.0039020  -0.0001328   0.0012039
           13          14          15          16          17          18
    1   0.0128308  -0.0008260  -0.0033307  -0.0129322   0.0050310   0.0027877
    2  -0.0010537  -0.0026638   0.0021323  -0.0058661  -0.0013244   0.0030933
    3   0.0037772   0.0011410  -0.0009231  -0.0038079  -0.0035861   0.0043359
           19          20          21          22          23          24
    1   0.0001024   0.0041813  -0.0005245  -0.0013032   0.0032829  -0.0003917
    2  -0.0018637  -0.0003621   0.0037276   0.0019119   0.0007517  -0.0019139
    3   0.0004421  -0.0006001   0.0011369   0.0005702  -0.0001228  -0.0012625
           25          26          27          28          29          30
    1   0.0002963   0.0000603  -0.0019932   0.0006920  -0.0005779   0.0000257
    2   0.0005330  -0.0004650   0.0019232  -0.0003312  -0.0007222  -0.0000072
    3  -0.0001003   0.0000903   0.0011424   0.0000635  -0.0000261  -0.0002754
           31          32          33          34          35          36
    1  -0.0002109   0.0002305   0.0002127  -0.0015827  -0.0001374  -0.0003338
    2   0.0005047   0.0001545  -0.0002091  -0.0027369  -0.0000251  -0.0005046
    3  -0.0003839  -0.0000190  -0.0001423   0.0004846   0.0002762   0.0000897
           37          38          39
    1   0.0003993  -0.0001461   0.0003724
    2  -0.0000340   0.0006162   0.0001856
    3   0.0000018  -0.0001625   0.0000906
 Max gradient component =       1.293E-02
 RMS gradient           =       2.443E-03
 Gradient time:  CPU 3145.43 s  wall 201.61 s
 Geometry Optimization Parameters
   NAtoms,    NIC,     NZ,  NCons,   NDum,   NFix, NCnnct, MaxDiis
       39     293       0       3       0       0       0       0


** CONSTRAINED OPTIMIZATION IN DELOCALIZED INTERNAL COORDINATES **
   Searching for a Minimum

   Optimization Cycle:   1

                       Coordinates (Angstroms)
     ATOM                X               Y               Z
      1  C        -7.6314854181    0.2586183240   -0.8118897703
      2  C        -6.8479594002    0.9351083441   -1.7325351424
      3  C        -6.9976635902   -0.3852483746    0.2386701099
      4  C        -5.4777863168    0.9331716291   -1.5721929123
      5  N        -5.6811641596   -0.3987197919    0.4035782502
      6  C        -4.9324416253    0.2450387307   -0.4893554456
      7  C        -3.4601619486    0.2299018322   -0.3040850315
      8  N        -2.7764621064    1.1852002766   -0.8714009000
      9  C        -2.7602611654   -0.7768222161    0.4396268485
     10  C        -1.4273750189    1.2610716340   -0.7693683068
     11  N        -3.2623529772   -1.8578599742    1.0401011246
     12  C        -1.3352268028   -0.6855793982    0.5520033148
     13  C        -0.6260388657    0.3794643868   -0.0820947270
     14  S        -2.0227608722   -2.6384281001    1.6906566788
     15  N        -0.8006446277   -1.6833503379    1.2530092902
     16  C         0.8225094170    0.5075492380   -0.0378896238
     17  S         1.8819996383   -0.7152976632   -0.6200622931
     18  C         1.5905743905    1.5717307663    0.4353683225
     19  C         3.3180444993    0.1184539970   -0.2310394624
     20  N         1.1101111354    2.7319419032    0.9639698880
     21  C         2.9999482064    1.3528522341    0.3225589086
     22  C         4.6284616486   -0.4342992750   -0.4892331656
     23  C         2.0015439581    3.5914454790    1.3500058712
     24  N         3.9065472738    2.2776017178    0.7386413395
     25  C         5.8074067563    0.2402386091   -0.6510657157
     26  S         4.8850816641   -2.1444667495   -0.6248408873
     27  C         3.4077902165    3.3658953694    1.2393865807
     28  C         6.9071431659   -0.6164585343   -0.8958513937
     29  C         6.5587978203   -1.9303080920   -0.9158997343
     30  H        -8.7079182914    0.2293930777   -0.9038503879
     31  H        -7.3004842738    1.4555898742   -2.5667798213
     32  H        -7.5734333333   -0.9161980424    0.9873593657
     33  H        -4.8218052217    1.4487309067   -2.2566524789
     34  H        -0.9757399018    2.0843794217   -1.2984485852
     35  H         1.6419904546    4.5207256323    1.7791130734
     36  H         5.8671709560    1.3134993518   -0.5850669527
     37  H         4.1034001538    4.1246869646    1.5809293147
     38  H         7.9141224354   -0.2621498045   -1.0555087310
     39  H         7.1964088101   -2.7822218358   -1.0791608675
   Point Group: c1    Number of degrees of freedom:   111


   Energy is  -2291.146188024

              Constraints and their Current Values
                                        Value     Constraint
   Dihedral:        4   6   7   8       21.915       21.822
   Dihedral:       10  13  16  17     -120.000     -120.000
   Dihedral:       17  19  22  25      156.426      156.395

 Attempting to Generate Delocalized Internal Coordinates

   Using Lagrange Multiplier Algorithm


114 Hessian modes will be used to form the next step
  Hessian Eigenvalues:
    -0.977753   -0.977753   -0.977753    0.045000    0.045000    0.045000
     0.045000    0.045000    0.045000    0.045000    0.045000    0.045000
     0.045000    0.045000    0.045000    0.045000    0.045001    0.045001
     0.045001    0.045001    0.045001    0.045001    0.045001    0.045002
     0.045002    0.045002    0.045002    0.045003    0.045003    0.045004
     0.045004    0.045007    0.045008    0.045011    0.045025    0.045042
     0.159985    0.159992    0.159996    0.159998    0.159999    0.159999
     0.160000    0.160000    0.160000    0.160000    0.219998    0.221296
     0.223765    0.224234    0.233056    0.237962    0.243336    0.244277
     0.249685    0.249909    0.249932    0.249960    0.249971    0.249981
     0.249981    0.249983    0.249989    0.249990    0.249993    0.249993
     0.249995    0.312595    0.327542    0.334460    0.341192    0.341265
     0.354106    0.354479    0.355757    0.357029    0.359040    0.360710
     0.360954    0.362567    0.363657    0.364145    0.369052    0.372793
     0.376138    0.388441    0.390986    0.406991    0.407226    0.418672
     0.432515    0.440855    0.460521    0.465848    0.471161    0.473690
     0.482795    0.484038    0.485870    0.485956    0.504402    0.517473
     0.518981    0.525383    0.557629    0.572590    0.582389    0.589743
     0.639523    0.655129    0.663889    1.022753    1.022753    1.022753

 Minimum Search - Taking P-RFO Step
 Searching for Lamda that Maximizes Along the Constraint modes Only
 Value Taken    Lamda =   0.00002177
 Searching for Lamda that Minimizes Along All other modes
 Value Taken    Lamda =  -0.00169055
 Step Taken.  Stepsize is  0.103155

                             Maximum     Tolerance    Cnvgd?
         Gradient            0.009214       0.000300      NO
         Displacement        0.042503       0.001200      NO
         Energy change     *********       0.000001      NO


 New Cartesian Coordinates Obtained by Inverse Iteration

 Displacement from previous Coordinates is:  0.565592
 ----------------------------------------------------------------
             Standard Nuclear Orientation (Angstroms)
    I     Atom           X                Y                Z
 ----------------------------------------------------------------
    1      C      -7.6093099632     0.3013769043    -0.7776507940
    2      C      -6.8308726066     0.9700258607    -1.7083331220
    3      C      -6.9696749784    -0.3531472892     0.2626658342
    4      C      -5.4576198516     0.9517164966    -1.5657569981
    5      N      -5.6517653126    -0.3837505789     0.4090523774
    6      C      -4.9085452319     0.2531608533    -0.4921847130
    7      C      -3.4342989709     0.2222960614    -0.3173272757
    8      N      -2.7477543941     1.1747532305    -0.8871188102
    9      C      -2.7452699695    -0.8005185160     0.4165769111
   10      C      -1.3979330759     1.2316836071    -0.7860943533
   11      N      -3.2549004633    -1.8798454211     1.0128183039
   12      C      -1.3198287760    -0.7219568979     0.5292360317
   13      C      -0.6180199536     0.3483846573    -0.0926114389
   14      S      -2.0132632030    -2.6663419039     1.6540766045
   15      N      -0.7803563962    -1.7245642903     1.2215775867
   16      C       0.8313688608     0.4798915805    -0.0321792186
   17      S       1.8925225871    -0.7343423855    -0.6034904018
   18      C       1.5714944946     1.5521357511     0.4280863909
   19      C       3.3212738784     0.1170868669    -0.2200624965
   20      N       1.0478036373     2.7012059742     0.9395997787
   21      C       2.9849800352     1.3508883165     0.3262117282
   22      C       4.6354331495    -0.4326048113    -0.4766747684
   23      C       1.9186278993     3.5801200527     1.3240096499
   24      N       3.8665975231     2.2997775244     0.7438320690
   25      C       5.8130368602     0.2423758734    -0.6472358241
   26      S       4.8919599313    -2.1424240819    -0.6039887280
   27      C       3.3336293681     3.3796274376     1.2271109947
   28      C       6.9120193615    -0.6159291189    -0.8893515219
   29      C       6.5641547293    -1.9294117589    -0.9012096580
   30      H      -8.6873211827     0.2856153699    -0.8529390456
   31      H      -7.2885395188     1.4966883722    -2.5346638751
   32      H      -7.5428388744    -0.8793281155     1.0171439887
   33      H      -4.8050246339     1.4639239938    -2.2556804190
   34      H      -0.9306856183     2.0630051398    -1.2976717998
   35      H       1.5387157111     4.5080224186     1.7377757388
   36      H       5.8744932033     1.3167380174    -0.5890777605
   37      H       4.0064933013     4.1586340601     1.5676113170
   38      H       7.9198989984    -0.2665268489    -1.0531720485
   39      H       7.1992061284    -2.7835608913    -1.0622042894
 ----------------------------------------------------------------
 Molecular Point Group                 C1    NOp =  1
 Largest Abelian Subgroup              C1    NOp =  1
 Nuclear Repulsion Energy =  2926.7009502837 hartrees
 There are      110 alpha and      110 beta electrons
 Applying Cartesian multipole field
    Component          Value
    ---------          -----
     (2,0,0)        1.00000E-12
     (0,2,0)        2.00000E-11
     (0,0,2)       -3.00000E-11
 Nucleus-field energy     =     0.0000000377 hartrees
 Requested basis set is cc-pVTZ
 There are 356 shells and 1022 basis functions
 A cutoff of  1.0D-11 yielded  30916 shell pairs
 There are    243730 function pairs (    318018 Cartesian)
 Smallest overlap matrix eigenvalue = 3.02E-05
 Guess MOs from SCF MO coefficient file
 Reading MOs from coefficient file
 Reading MOs from coefficient file
 Long-range K will be added via erf
 Coulomb attenuation parameter = 0.2 bohr**(-1)
 A restricted hybrid HF-DFT SCF calculation will be
 performed using Pulay DIIS extrapolation
 Exchange:     0.2220 Hartree-Fock + 1.0000 wB97X-D + LR-HF
 Correlation:  1.0000 wB97X-D
 Using SG-2 standard quadrature grid
 Dispersion:   Grimme D
 SCF converges when DIIS error is below 1.0E-08
 Geometry optimization detected.  Setting ReadMinima to 0
 Setting SaveMinima to 0
 using 16 threads for integral computing 
 using 16 threads for integral computing 
 K construction time:  CPU 1098.19 s  wall 72.65 s
 -------------------------------------------------------
 OpenMP BLAS3 based DFT computing Module                
 Release: version 1.0, May 2013, Q-Chem Inc. Pittsburgh 
 -------------------------------------------------------
 ---------------------------------------
  Cycle       Energy         DIIS Error
 ---------------------------------------
    1   -2291.1421674340      2.77E-04
 K construction time:  CPU 1101.60 s  wall 72.78 s
    2   -2291.1468766143      2.99E-05
 K construction time:  CPU 827.34 s  wall 54.74 s
    3   -2291.1469498905      3.08E-05
 K construction time:  CPU 775.87 s  wall 51.42 s
    4   -2291.1470637568      1.03E-05
 K construction time:  CPU 721.38 s  wall 47.76 s
    5   -2291.1470775341      4.56E-06
 K construction time:  CPU 656.43 s  wall 43.52 s
    6   -2291.1470803881      1.51E-06
 K construction time:  CPU 604.41 s  wall 39.94 s
    7   -2291.1470807841      6.28E-07
 K construction time:  CPU 553.02 s  wall 36.46 s
    8   -2291.1470808632      2.36E-07
 K construction time:  CPU 522.19 s  wall 34.43 s
    9   -2291.1470808857      1.34E-07
 K construction time:  CPU 458.24 s  wall 30.10 s
   10   -2291.1470808906      4.98E-08
 K construction time:  CPU 423.13 s  wall 27.88 s
   11   -2291.1470808900      2.58E-08
 K construction time:  CPU 370.32 s  wall 24.35 s
   12   -2291.1470808905      9.60E-09 Convergence criterion met
 ---------------------------------------
 SCF time:  CPU 10931.55 s  wall 741.39 s
 SCF   energy in the final basis set = -2291.1470808905
 Total energy in the final basis set = -2291.1470808905
 
 --------------------------------------------------------------
 
                    Orbital Energies (a.u.)
 --------------------------------------------------------------
 
 Alpha MOs
 -- Occupied --
-89.145 -89.100 -89.079 -14.482 -14.478 -14.460 -14.459 -14.448
-14.435 -10.356 -10.354 -10.351 -10.345 -10.342 -10.342 -10.338
-10.338 -10.337 -10.336 -10.334 -10.334 -10.327 -10.325 -10.319
-10.311 -10.302 -10.300 -10.295 -10.293  -8.156  -8.115  -8.095
 -6.106  -6.100  -6.100  -6.064  -6.060  -6.058  -6.044  -6.040
 -6.037  -1.143  -1.099  -1.071  -1.051  -1.028  -1.013  -1.004
 -0.987  -0.926  -0.913  -0.897  -0.879  -0.868  -0.854  -0.838
 -0.812  -0.777  -0.770  -0.748  -0.739  -0.730  -0.720  -0.711
 -0.672  -0.654  -0.647  -0.630  -0.629  -0.621  -0.605  -0.603
 -0.591  -0.577  -0.569  -0.563  -0.559  -0.544  -0.543  -0.526
 -0.513  -0.505  -0.502  -0.501  -0.494  -0.492  -0.487  -0.481
 -0.473  -0.467  -0.461  -0.458  -0.449  -0.438  -0.428  -0.425
 -0.422  -0.411  -0.398  -0.376  -0.370  -0.362  -0.357  -0.351
 -0.342  -0.339  -0.336  -0.333  -0.318  -0.272
 -- Virtual --
 -0.046  -0.031   0.025   0.031   0.040   0.058   0.066   0.071
  0.087   0.091   0.097   0.122   0.124   0.129   0.131   0.138
  0.146   0.148   0.154   0.158   0.165   0.175   0.177   0.190
  0.197   0.198   0.211   0.216   0.224   0.226   0.240   0.244
  0.256   0.261   0.267   0.272   0.279   0.287   0.293   0.296
  0.299   0.301   0.309   0.311   0.316   0.319   0.322   0.329
  0.330   0.333   0.340   0.344   0.347   0.347   0.353   0.360
  0.364   0.365   0.373   0.376   0.379   0.380   0.384   0.386
  0.391   0.392   0.398   0.400   0.405   0.407   0.409   0.413
  0.416   0.419   0.423   0.428   0.431   0.435   0.436   0.440
  0.442   0.443   0.452   0.455   0.457   0.460   0.462   0.463
  0.467   0.470   0.476   0.480   0.481   0.484   0.486   0.488
  0.491   0.495   0.498   0.506   0.509   0.510   0.519   0.521
  0.524   0.527   0.531   0.535   0.537   0.541   0.545   0.549
  0.554   0.561   0.567   0.574   0.574   0.581   0.583   0.596
  0.601   0.606   0.609   0.615   0.621   0.623   0.630   0.635
  0.639   0.641   0.646   0.655   0.657   0.659   0.666   0.672
  0.672   0.682   0.685   0.688   0.696   0.700   0.708   0.715
  0.717   0.720   0.729   0.731   0.733   0.737   0.740   0.751
  0.755   0.761   0.766   0.772   0.774   0.780   0.781   0.784
  0.789   0.791   0.797   0.802   0.807   0.812   0.816   0.822
  0.827   0.832   0.836   0.838   0.843   0.848   0.853   0.854
  0.861   0.865   0.869   0.870   0.876   0.892   0.898   0.899
  0.903   0.913   0.916   0.920   0.921   0.927   0.931   0.933
  0.938   0.945   0.949   0.953   0.955   0.958   0.966   0.970
  0.977   0.982   0.989   0.995   0.999   1.000   1.005   1.011
  1.018   1.026   1.028   1.034   1.045   1.048   1.050   1.057
  1.062   1.068   1.071   1.079   1.082   1.088   1.089   1.095
  1.101   1.106   1.110   1.112   1.123   1.125   1.129   1.142
  1.147   1.159   1.165   1.171   1.174   1.180   1.186   1.195
  1.200   1.204   1.210   1.217   1.226   1.233   1.239   1.243
  1.247   1.256   1.263   1.269   1.275   1.286   1.288   1.296
  1.309   1.316   1.318   1.329   1.335   1.351   1.354   1.357
  1.359   1.370   1.373   1.377   1.383   1.385   1.387   1.394
  1.402   1.403   1.405   1.415   1.419   1.423   1.433   1.438
  1.441   1.444   1.449   1.457   1.461   1.473   1.477   1.482
  1.485   1.487   1.502   1.504   1.507   1.511   1.517   1.529
  1.539   1.559   1.563   1.568   1.572   1.580   1.585   1.593
  1.599   1.606   1.612   1.617   1.627   1.638   1.649   1.651
  1.653   1.658   1.663   1.669   1.672   1.678   1.686   1.693
  1.702   1.705   1.711   1.723   1.729   1.737   1.744   1.746
  1.751   1.765   1.765   1.775   1.783   1.794   1.800   1.804
  1.821   1.830   1.834   1.851   1.865   1.876   1.880   1.886
  1.891   1.895   1.903   1.909   1.923   1.935   1.939   1.945
  1.954   1.969   1.976   1.983   1.987   1.994   2.004   2.010
  2.014   2.018   2.034   2.039   2.040   2.050   2.057   2.065
  2.077   2.080   2.099   2.104   2.109   2.116   2.123   2.125
  2.138   2.152   2.159   2.169   2.175   2.177   2.185   2.191
  2.202   2.206   2.213   2.219   2.241   2.246   2.249   2.260
  2.261   2.270   2.281   2.289   2.294   2.297   2.300   2.301
  2.314   2.317   2.330   2.339   2.344   2.351   2.359   2.369
  2.375   2.386   2.392   2.399   2.407   2.412   2.414   2.426
  2.439   2.444   2.449   2.452   2.458   2.463   2.465   2.469
  2.482   2.499   2.514   2.519   2.522   2.530   2.533   2.538
  2.540   2.542   2.545   2.552   2.554   2.565   2.582   2.583
  2.602   2.610   2.620   2.627   2.632   2.646   2.648   2.659
  2.664   2.667   2.674   2.681   2.685   2.701   2.708   2.715
  2.727   2.732   2.736   2.741   2.755   2.773   2.775   2.777
  2.783   2.790   2.796   2.802   2.806   2.818   2.822   2.825
  2.829   2.839   2.843   2.850   2.858   2.862   2.868   2.877
  2.881   2.886   2.895   2.907   2.912   2.920   2.926   2.928
  2.937   2.939   2.950   2.954   2.962   2.970   2.975   2.979
  2.987   2.992   3.001   3.008   3.009   3.016   3.019   3.022
  3.024   3.035   3.039   3.044   3.045   3.053   3.056   3.063
  3.068   3.069   3.072   3.076   3.076   3.085   3.090   3.094
  3.097   3.102   3.106   3.110   3.111   3.119   3.123   3.130
  3.137   3.145   3.151   3.156   3.156   3.159   3.165   3.169
  3.174   3.176   3.179   3.185   3.196   3.199   3.205   3.208
  3.210   3.215   3.221   3.223   3.227   3.228   3.236   3.237
  3.241   3.247   3.256   3.260   3.263   3.266   3.267   3.272
  3.276   3.282   3.284   3.287   3.290   3.295   3.301   3.305
  3.310   3.312   3.318   3.325   3.326   3.332   3.341   3.346
  3.348   3.352   3.361   3.369   3.370   3.388   3.390   3.393
  3.401   3.405   3.412   3.414   3.421   3.425   3.427   3.431
  3.435   3.442   3.452   3.453   3.460   3.469   3.472   3.475
  3.481   3.487   3.490   3.498   3.503   3.509   3.514   3.526
  3.533   3.540   3.545   3.548   3.557   3.566   3.569   3.579
  3.586   3.599   3.604   3.611   3.622   3.629   3.638   3.646
  3.651   3.659   3.667   3.685   3.693   3.696   3.702   3.710
  3.717   3.720   3.722   3.734   3.737   3.743   3.752   3.756
  3.769   3.778   3.782   3.788   3.800   3.802   3.807   3.811
  3.816   3.824   3.826   3.838   3.849   3.856   3.872   3.881
  3.888   3.896   3.904   3.905   3.920   3.925   3.927   3.933
  3.933   3.939   3.943   3.943   3.953   3.961   3.967   3.972
  3.980   3.984   3.992   3.999   4.012   4.021   4.028   4.040
  4.043   4.051   4.062   4.070   4.076   4.089   4.091   4.106
  4.109   4.119   4.124   4.132   4.144   4.147   4.161   4.173
  4.177   4.185   4.196   4.197   4.208   4.212   4.220   4.222
  4.231   4.236   4.242   4.248   4.255   4.267   4.274   4.283
  4.297   4.299   4.301   4.309   4.313   4.323   4.330   4.335
  4.343   4.354   4.356   4.361   4.370   4.372   4.380   4.396
  4.398   4.403   4.414   4.431   4.435   4.441   4.446   4.459
  4.462   4.481   4.488   4.501   4.517   4.520   4.531   4.543
  4.551   4.560   4.563   4.566   4.579   4.592   4.597   4.608
  4.618   4.642   4.643   4.649   4.665   4.677   4.681   4.700
  4.711   4.720   4.738   4.748   4.753   4.762   4.774   4.783
  4.797   4.805   4.808   4.817   4.825   4.840   4.846   4.849
  4.863   4.879   4.884   4.891   4.901   4.911   4.919   4.932
  4.935   4.948   4.952   4.970   4.970   4.975   4.985   4.988
  4.997   5.004   5.010   5.014   5.024   5.036   5.039   5.050
  5.052   5.061   5.070   5.083   5.095   5.099   5.114   5.123
  5.132   5.139   5.144   5.148   5.161   5.165   5.186   5.191
  5.210   5.218   5.233   5.249   5.277   5.301   5.306   5.315
  5.324   5.335   5.349   5.362   5.375   5.385   5.400   5.429
  5.433   5.460   5.468   5.488   5.489   5.503   5.522   5.541
  5.563   5.574   5.577   5.590   5.596   5.600   5.626   5.647
  5.671   5.682   5.708   5.720   5.736   5.747   5.760   5.776
  5.796   5.833   5.835   5.859   5.868   5.879   5.898   5.921
  5.947   5.954   5.986   6.047   6.091   6.101   6.133   6.170
  6.198   6.238   6.243   6.279   6.295   6.318   6.376   6.431
  6.444   6.489   6.636   6.849   6.984   7.071   7.957   8.820
  9.811  10.137  10.631  11.052  11.243  11.708  11.980  12.006
 12.349  12.634  12.762  12.776  12.857  12.914  13.061  13.299
 13.397  13.469  13.532  13.781  14.283  14.676  15.061  15.071
 --------------------------------------------------------------
 
          Ground-State Mulliken Net Atomic Charges

     Atom                 Charge (a.u.)
  ----------------------------------------
      1 C                    -0.091546
      2 C                    -0.128176
      3 C                    -0.079575
      4 C                    -0.118172
      5 N                    -0.143824
      6 C                     0.082284
      7 C                     0.111032
      8 N                    -0.175742
      9 C                    -0.014053
     10 C                    -0.058512
     11 N                    -0.220415
     12 C                     0.038510
     13 C                     0.040278
     14 S                     0.407843
     15 N                    -0.277383
     16 C                    -0.080027
     17 S                     0.191412
     18 C                     0.032544
     19 C                    -0.054484
     20 N                    -0.144825
     21 C                     0.041060
     22 C                    -0.015304
     23 C                    -0.049668
     24 N                    -0.161207
     25 C                    -0.142891
     26 S                     0.101613
     27 C                    -0.049844
     28 C                    -0.155863
     29 C                    -0.182807
     30 H                     0.133362
     31 H                     0.119618
     32 H                     0.119673
     33 H                     0.136302
     34 H                     0.125829
     35 H                     0.131262
     36 H                     0.136664
     37 H                     0.127981
     38 H                     0.130632
     39 H                     0.136419
  ----------------------------------------
  Sum of atomic charges =     0.000000

 -----------------------------------------------------------------
                    Cartesian Multipole Moments
 -----------------------------------------------------------------
    Charge (ESU x 10^10)
                 0.0000
    Dipole Moment (Debye)
         X      -0.0516      Y       0.9924      Z      -1.1515
       Tot       1.5210
    Quadrupole Moments (Debye-Ang)
        XX    -152.0878     XY       0.1044     YY    -170.0037
        XZ       5.2575     YZ       1.0275     ZZ    -181.0362
    Octopole Moments (Debye-Ang^2)
       XXX    -109.3092    XXY       2.8263    XYY      54.6791
       YYY      20.6832    XXZ     -75.7228    XYZ      36.3284
       YYZ      24.5964    XZZ     -27.1910    YZZ       8.1941
       ZZZ      13.8985
    Hexadecapole Moments (Debye-Ang^3)
      XXXX  -15865.3551   XXXY    -365.7834   XXYY   -3542.1158
      XYYY     163.7882   YYYY   -2862.1984   XXXZ      97.0907
      XXYZ     -34.2505   XYYZ      29.5564   YYYZ      86.9782
      XXZZ   -3355.1113   XYZZ      15.2367   YYZZ    -655.5961
      XZZZ      57.3000   YZZZ     -32.3577   ZZZZ   -1117.1567
 -----------------------------------------------------------------
 Calculating analytic gradient of the SCF energy
 K construction time:  CPU 2716.20 s  wall 172.26 s
 Gradient of SCF Energy
            1           2           3           4           5           6
    1  -0.0001341   0.0003215   0.0000040  -0.0003918   0.0000650   0.0005500
    2  -0.0000600  -0.0000566   0.0000762   0.0005396  -0.0001608  -0.0003407
    3   0.0001691  -0.0000870  -0.0001694  -0.0000037  -0.0001293  -0.0000744
            7           8           9          10          11          12
    1  -0.0011862   0.0012468  -0.0003394  -0.0017361  -0.0007628  -0.0006188
    2  -0.0000883  -0.0003048  -0.0010955  -0.0012152   0.0007259  -0.0013054
    3   0.0002662  -0.0000209   0.0005777  -0.0021000  -0.0005838   0.0017649
           13          14          15          16          17          18
    1   0.0035543   0.0004432   0.0009962  -0.0033408   0.0020426   0.0003857
    2   0.0018473   0.0020321   0.0005411  -0.0001370   0.0011046   0.0008968
    3   0.0028997  -0.0011573   0.0000315  -0.0001595  -0.0023168   0.0021931
           19          20          21          22          23          24
    1  -0.0003583   0.0005311  -0.0006168  -0.0002772   0.0011521  -0.0005350
    2  -0.0026043  -0.0010349   0.0020511   0.0004657  -0.0003023  -0.0016969
    3  -0.0002025  -0.0008304   0.0009506   0.0001680  -0.0001312  -0.0008494
           25          26          27          28          29          30
    1   0.0006022   0.0001929  -0.0014138   0.0000807  -0.0003469   0.0000301
    2   0.0000669  -0.0001965   0.0009352  -0.0003084  -0.0000847  -0.0000842
    3  -0.0005683  -0.0000398   0.0005566   0.0001777   0.0000180  -0.0001085
           31          32          33          34          35          36
    1  -0.0000074   0.0000544   0.0000699   0.0001553  -0.0004899  -0.0000812
    2   0.0001335   0.0000151  -0.0000773   0.0000051  -0.0001762  -0.0001791
    3   0.0000690   0.0000214  -0.0000574  -0.0000844  -0.0000592   0.0000624
           37          38          39
    1   0.0001524  -0.0001099   0.0001158
    2  -0.0001789   0.0001913   0.0000605
    3  -0.0001518  -0.0001139   0.0000728
 Max gradient component =       3.554E-03
 RMS gradient           =       9.496E-04
 Gradient time:  CPU 3164.39 s  wall 202.84 s
 Geometry Optimization Parameters
   NAtoms,    NIC,     NZ,  NCons,   NDum,   NFix, NCnnct, MaxDiis
       39     293       0       3       0       0       0       0

 Cartesian Hessian Update
 Hessian Updated using BFGS Update


** CONSTRAINED OPTIMIZATION IN DELOCALIZED INTERNAL COORDINATES **
   Searching for a Minimum

   Optimization Cycle:   2

                       Coordinates (Angstroms)
     ATOM                X               Y               Z
      1  C        -7.6093099632    0.3013769043   -0.7776507940
      2  C        -6.8308726066    0.9700258607   -1.7083331220
      3  C        -6.9696749784   -0.3531472892    0.2626658342
      4  C        -5.4576198516    0.9517164966   -1.5657569981
      5  N        -5.6517653126   -0.3837505789    0.4090523774
      6  C        -4.9085452319    0.2531608533   -0.4921847130
      7  C        -3.4342989709    0.2222960614   -0.3173272757
      8  N        -2.7477543941    1.1747532305   -0.8871188102
      9  C        -2.7452699695   -0.8005185160    0.4165769111
     10  C        -1.3979330759    1.2316836071   -0.7860943533
     11  N        -3.2549004633   -1.8798454211    1.0128183039
     12  C        -1.3198287760   -0.7219568979    0.5292360317
     13  C        -0.6180199536    0.3483846573   -0.0926114389
     14  S        -2.0132632030   -2.6663419039    1.6540766045
     15  N        -0.7803563962   -1.7245642903    1.2215775867
     16  C         0.8313688608    0.4798915805   -0.0321792186
     17  S         1.8925225871   -0.7343423855   -0.6034904018
     18  C         1.5714944946    1.5521357511    0.4280863909
     19  C         3.3212738784    0.1170868669   -0.2200624965
     20  N         1.0478036373    2.7012059742    0.9395997787
     21  C         2.9849800352    1.3508883165    0.3262117282
     22  C         4.6354331495   -0.4326048113   -0.4766747684
     23  C         1.9186278993    3.5801200527    1.3240096499
     24  N         3.8665975231    2.2997775244    0.7438320690
     25  C         5.8130368602    0.2423758734   -0.6472358241
     26  S         4.8919599313   -2.1424240819   -0.6039887280
     27  C         3.3336293681    3.3796274376    1.2271109947
     28  C         6.9120193615   -0.6159291189   -0.8893515219
     29  C         6.5641547293   -1.9294117589   -0.9012096580
     30  H        -8.6873211827    0.2856153699   -0.8529390456
     31  H        -7.2885395188    1.4966883722   -2.5346638751
     32  H        -7.5428388744   -0.8793281155    1.0171439887
     33  H        -4.8050246339    1.4639239938   -2.2556804190
     34  H        -0.9306856183    2.0630051398   -1.2976717998
     35  H         1.5387157111    4.5080224186    1.7377757388
     36  H         5.8744932033    1.3167380174   -0.5890777605
     37  H         4.0064933013    4.1586340601    1.5676113170
     38  H         7.9198989984   -0.2665268489   -1.0531720485
     39  H         7.1992061284   -2.7835608913   -1.0622042894
   Point Group: c1    Number of degrees of freedom:   111


   Energy is  -2291.147080891

              Constraints and their Current Values
                                        Value     Constraint
   Dihedral:        4   6   7   8       21.822       21.822
   Dihedral:       10  13  16  17     -120.000     -120.000
   Dihedral:       17  19  22  25      156.395      156.395
 Hessian Updated using BFGS Update

   Using Lagrange Multiplier Algorithm


110 Hessian modes will be used to form the next step
  Hessian Eigenvalues:
    -0.977748    0.037588    0.045000    0.045000    0.045000    0.045000
     0.045000    0.045000    0.045000    0.045000    0.045000    0.045000
     0.045000    0.045000    0.045000    0.045001    0.045001    0.045001
     0.045001    0.045001    0.045001    0.045002    0.045002    0.045002
     0.045002    0.045003    0.045004    0.045004    0.045004    0.045007
     0.045011    0.045025    0.045038    0.045464    0.158502    0.159990
     0.159992    0.159996    0.159999    0.159999    0.160000    0.160000
     0.160000    0.160321    0.219919    0.221249    0.222546    0.224172
     0.227485    0.235066    0.238148    0.244140    0.244408    0.249705
     0.249910    0.249947    0.249962    0.249976    0.249982    0.249985
     0.249989    0.249993    0.249993    0.249994    0.286992    0.312137
     0.319111    0.334588    0.338656    0.341260    0.354106    0.354499
     0.355753    0.357012    0.359040    0.360711    0.360945    0.362062
     0.363640    0.364144    0.369780    0.371771    0.377194    0.388789
     0.391830    0.405537    0.408011    0.418680    0.432492    0.457741
     0.460399    0.464139    0.472870    0.473677    0.482142    0.484672
     0.485752    0.486654    0.505569    0.518953    0.523848    0.531327
     0.560392    0.572752    0.589703    0.591470    0.639531    0.658448
     0.664529    1.022763

 Minimum Search - Taking P-RFO Step
 Searching for Lamda that Maximizes Along the Constraint modes Only
 Value Taken    Lamda =   0.00000001
 Searching for Lamda that Minimizes Along All other modes
 Value Taken    Lamda =  -0.00024896
 Step Taken.  Stepsize is  0.061654

                             Maximum     Tolerance    Cnvgd?
         Gradient            0.002265       0.000300      NO
         Displacement        0.019213       0.001200      NO
         Energy change     -0.000893       0.000001      NO


 New Cartesian Coordinates Obtained by Inverse Iteration

 Displacement from previous Coordinates is:  0.324202
 ----------------------------------------------------------------
             Standard Nuclear Orientation (Angstroms)
    I     Atom           X                Y                Z
 ----------------------------------------------------------------
    1      C      -7.6073243028     0.3317203849    -0.7547229724
    2      C      -6.8310460290     0.9926375304    -1.6925159186
    3      C      -6.9649356099    -0.3301469208     0.2792654303
    4      C      -5.4563494703     0.9610613121    -1.5622204961
    5      N      -5.6461191271    -0.3741316809     0.4129612804
    6      C      -4.9048519895     0.2558605898    -0.4947674152
    7      C      -3.4288814973     0.2140180968    -0.3284995126
    8      N      -2.7383538234     1.1632540843    -0.8992082068
    9      C      -2.7466831246    -0.8187922016     0.3980671020
   10      C      -1.3871481509     1.2108560799    -0.7969385762
   11      N      -3.2613577181    -1.8999294451     0.9900979304
   12      C      -1.3222586035    -0.7491721707     0.5108499430
   13      C      -0.6174670979     0.3243647060    -0.0996456384
   14      S      -2.0275687241    -2.7026104995     1.6269745416
   15      N      -0.7915552620    -1.7619627287     1.1979372001
   16      C       0.8353380155     0.4554070786    -0.0258202190
   17      S       1.8998911925    -0.7542707833    -0.5903894190
   18      C       1.5665095765     1.5363297479     0.4238465609
   19      C       3.3250542531     0.1108910704    -0.2126780277
   20      N       1.0322524155     2.6864729654     0.9271278969
   21      C       2.9823455270     1.3442718396     0.3253378833
   22      C       4.6430783031    -0.4313475395    -0.4652463184
   23      C       1.8971078562     3.5741984717     1.3053697714
   24      N       3.8573715217     2.3037351976     0.7380014134
   25      C       5.8143128125     0.2527731181    -0.6402696462
   26      S       4.9124581362    -2.1391297620    -0.5840651127
   27      C       3.3152098238     3.3823548120     1.2115291688
   28      C       6.9201703596    -0.5978401067    -0.8787764775
   29      C       6.5827630890    -1.9140724468    -0.8841654785
   30      H      -8.6861954348     0.3277171941    -0.8189098303
   31      H      -7.2910735797     1.5235489929    -2.5146138911
   32      H      -7.5368441602    -0.8508368564     1.0385913976
   33      H      -4.8055074632     1.4691265435    -2.2567155116
   34      H      -0.9137888615     2.0440640294    -1.3006902857
   35      H       1.5143765482     4.5040965131     1.7119251583
   36      H       5.8675782284     1.3282758828    -0.5883845014
   37      H       3.9800597179     4.1698946931     1.5483859054
   38      H       7.9259711181    -0.2431890558    -1.0441850824
   39      H       7.2233482184    -2.7646172258    -1.0421341011
 ----------------------------------------------------------------
 Molecular Point Group                 C1    NOp =  1
 Largest Abelian Subgroup              C1    NOp =  1
 Nuclear Repulsion Energy =  2926.2208847354 hartrees
 There are      110 alpha and      110 beta electrons
 Applying Cartesian multipole field
    Component          Value
    ---------          -----
     (2,0,0)        1.00000E-12
     (0,2,0)        2.00000E-11
     (0,0,2)       -3.00000E-11
 Nucleus-field energy     =     0.0000000385 hartrees
 Requested basis set is cc-pVTZ
 There are 356 shells and 1022 basis functions
 A cutoff of  1.0D-11 yielded  30922 shell pairs
 There are    243732 function pairs (    318024 Cartesian)
 Smallest overlap matrix eigenvalue = 3.01E-05
 Guess MOs from SCF MO coefficient file
 Reading MOs from coefficient file
 Reading MOs from coefficient file
 Long-range K will be added via erf
 Coulomb attenuation parameter = 0.2 bohr**(-1)
 A restricted hybrid HF-DFT SCF calculation will be
 performed using Pulay DIIS extrapolation
 Exchange:     0.2220 Hartree-Fock + 1.0000 wB97X-D + LR-HF
 Correlation:  1.0000 wB97X-D
 Using SG-2 standard quadrature grid
 Dispersion:   Grimme D
 SCF converges when DIIS error is below 1.0E-08
 Geometry optimization detected.  Setting ReadMinima to 0
 Setting SaveMinima to 0
 using 16 threads for integral computing 
 using 16 threads for integral computing 
 K construction time:  CPU 1101.51 s  wall 72.86 s
 -------------------------------------------------------
 OpenMP BLAS3 based DFT computing Module                
 Release: version 1.0, May 2013, Q-Chem Inc. Pittsburgh 
 -------------------------------------------------------
 ---------------------------------------
  Cycle       Energy         DIIS Error
 ---------------------------------------
    1   -2291.1399615581      1.62E-04
 K construction time:  CPU 1097.97 s  wall 72.66 s
    2   -2291.1471337862      1.83E-05
 K construction time:  CPU 783.22 s  wall 51.83 s
    3   -2291.1471770060      1.83E-05
 K construction time:  CPU 731.81 s  wall 48.49 s
    4   -2291.1472136163      6.00E-06
 K construction time:  CPU 686.72 s  wall 45.44 s
    5   -2291.1472181864      3.44E-06
 K construction time:  CPU 634.17 s  wall 41.90 s
    6   -2291.1472197637      8.18E-07
 K construction time:  CPU 562.24 s  wall 37.20 s
    7   -2291.1472198915      2.61E-07
 K construction time:  CPU 506.63 s  wall 33.32 s
    8   -2291.1472199090      1.40E-07
 K construction time:  CPU 469.88 s  wall 30.86 s
    9   -2291.1472199149      4.59E-08
 K construction time:  CPU 412.65 s  wall 27.01 s
   10   -2291.1472199141      2.16E-08
 K construction time:  CPU 375.77 s  wall 24.62 s
   11   -2291.1472199136      9.67E-09 Convergence criterion met
 ---------------------------------------
 SCF time:  CPU 9927.82 s  wall 673.62 s
 SCF   energy in the final basis set = -2291.1472199136
 Total energy in the final basis set = -2291.1472199136
 
 --------------------------------------------------------------
 
                    Orbital Energies (a.u.)
 --------------------------------------------------------------
 
 Alpha MOs
 -- Occupied --
-89.146 -89.100 -89.079 -14.482 -14.478 -14.461 -14.459 -14.448
-14.435 -10.357 -10.354 -10.351 -10.344 -10.342 -10.342 -10.338
-10.338 -10.337 -10.336 -10.334 -10.334 -10.328 -10.325 -10.319
-10.311 -10.302 -10.300 -10.295 -10.293  -8.156  -8.115  -8.094
 -6.106  -6.100  -6.100  -6.063  -6.060  -6.058  -6.044  -6.040
 -6.037  -1.142  -1.099  -1.071  -1.051  -1.028  -1.012  -1.003
 -0.986  -0.926  -0.913  -0.897  -0.879  -0.868  -0.854  -0.838
 -0.812  -0.777  -0.770  -0.748  -0.739  -0.730  -0.720  -0.710
 -0.671  -0.654  -0.646  -0.630  -0.629  -0.621  -0.605  -0.603
 -0.591  -0.577  -0.569  -0.563  -0.558  -0.544  -0.543  -0.526
 -0.513  -0.505  -0.502  -0.501  -0.494  -0.492  -0.486  -0.480
 -0.473  -0.468  -0.460  -0.458  -0.449  -0.438  -0.427  -0.425
 -0.422  -0.412  -0.397  -0.376  -0.371  -0.362  -0.357  -0.351
 -0.342  -0.339  -0.336  -0.333  -0.318  -0.272
 -- Virtual --
 -0.046  -0.031   0.025   0.031   0.040   0.058   0.066   0.071
  0.085   0.091   0.098   0.122   0.124   0.129   0.131   0.138
  0.146   0.148   0.154   0.158   0.165   0.175   0.177   0.190
  0.197   0.198   0.211   0.216   0.224   0.226   0.240   0.244
  0.256   0.261   0.267   0.272   0.279   0.287   0.293   0.296
  0.299   0.301   0.310   0.311   0.316   0.319   0.322   0.329
  0.330   0.334   0.340   0.344   0.347   0.347   0.353   0.360
  0.364   0.365   0.373   0.375   0.378   0.380   0.384   0.386
  0.391   0.392   0.398   0.400   0.405   0.407   0.409   0.413
  0.416   0.419   0.423   0.428   0.431   0.435   0.436   0.440
  0.442   0.443   0.452   0.455   0.457   0.460   0.463   0.464
  0.467   0.470   0.477   0.480   0.481   0.483   0.486   0.488
  0.491   0.495   0.497   0.506   0.508   0.510   0.519   0.520
  0.524   0.527   0.531   0.535   0.537   0.541   0.545   0.549
  0.554   0.561   0.567   0.574   0.574   0.581   0.584   0.597
  0.601   0.606   0.609   0.615   0.621   0.623   0.630   0.635
  0.638   0.642   0.646   0.654   0.657   0.659   0.666   0.672
  0.673   0.682   0.686   0.687   0.696   0.700   0.708   0.715
  0.717   0.719   0.729   0.731   0.733   0.737   0.740   0.751
  0.755   0.761   0.766   0.772   0.774   0.780   0.781   0.784
  0.789   0.791   0.797   0.802   0.808   0.813   0.816   0.821
  0.826   0.832   0.836   0.838   0.843   0.847   0.853   0.854
  0.861   0.865   0.869   0.870   0.876   0.891   0.898   0.899
  0.903   0.913   0.916   0.920   0.921   0.927   0.932   0.933
  0.937   0.945   0.949   0.953   0.956   0.959   0.967   0.970
  0.977   0.981   0.990   0.995   0.998   1.001   1.005   1.011
  1.017   1.026   1.029   1.033   1.045   1.048   1.050   1.056
  1.062   1.068   1.071   1.079   1.082   1.088   1.089   1.096
  1.102   1.106   1.110   1.113   1.122   1.125   1.129   1.143
  1.147   1.159   1.165   1.171   1.173   1.180   1.186   1.195
  1.200   1.204   1.209   1.217   1.226   1.233   1.239   1.242
  1.247   1.256   1.263   1.270   1.275   1.286   1.288   1.296
  1.310   1.315   1.318   1.329   1.335   1.350   1.354   1.357
  1.359   1.370   1.374   1.377   1.383   1.385   1.387   1.395
  1.402   1.404   1.405   1.415   1.420   1.423   1.433   1.439
  1.441   1.444   1.449   1.457   1.461   1.473   1.478   1.482
  1.486   1.487   1.502   1.504   1.506   1.510   1.517   1.529
  1.539   1.559   1.563   1.568   1.572   1.580   1.585   1.593
  1.599   1.606   1.613   1.617   1.628   1.638   1.649   1.650
  1.653   1.657   1.663   1.669   1.672   1.678   1.685   1.693
  1.701   1.705   1.710   1.722   1.728   1.736   1.744   1.746
  1.751   1.764   1.765   1.775   1.783   1.794   1.800   1.802
  1.820   1.829   1.833   1.851   1.865   1.876   1.880   1.886
  1.891   1.894   1.903   1.909   1.923   1.935   1.939   1.944
  1.954   1.969   1.976   1.983   1.987   1.994   2.005   2.010
  2.013   2.017   2.033   2.039   2.040   2.049   2.057   2.065
  2.077   2.080   2.099   2.104   2.109   2.116   2.123   2.125
  2.138   2.152   2.159   2.168   2.175   2.176   2.185   2.190
  2.202   2.205   2.213   2.219   2.241   2.246   2.249   2.261
  2.262   2.270   2.282   2.289   2.294   2.297   2.300   2.301
  2.314   2.317   2.329   2.338   2.344   2.351   2.359   2.369
  2.375   2.386   2.392   2.399   2.407   2.412   2.414   2.426
  2.439   2.444   2.449   2.453   2.458   2.463   2.465   2.469
  2.483   2.499   2.514   2.520   2.523   2.531   2.533   2.538
  2.541   2.541   2.545   2.553   2.555   2.565   2.582   2.584
  2.601   2.610   2.620   2.628   2.632   2.647   2.648   2.659
  2.664   2.667   2.673   2.680   2.685   2.701   2.708   2.715
  2.726   2.732   2.736   2.741   2.755   2.774   2.775   2.777
  2.783   2.789   2.795   2.801   2.805   2.817   2.822   2.825
  2.830   2.838   2.842   2.850   2.858   2.860   2.868   2.877
  2.880   2.885   2.895   2.906   2.912   2.920   2.926   2.928
  2.937   2.938   2.950   2.954   2.963   2.971   2.973   2.978
  2.988   2.991   3.001   3.008   3.009   3.016   3.019   3.023
  3.025   3.035   3.039   3.044   3.045   3.053   3.055   3.063
  3.068   3.069   3.072   3.075   3.077   3.085   3.090   3.094
  3.097   3.103   3.107   3.109   3.111   3.119   3.123   3.130
  3.137   3.145   3.151   3.156   3.157   3.160   3.165   3.169
  3.174   3.177   3.179   3.185   3.196   3.198   3.205   3.208
  3.211   3.215   3.222   3.223   3.227   3.229   3.236   3.237
  3.241   3.247   3.256   3.260   3.262   3.266   3.267   3.272
  3.276   3.283   3.284   3.287   3.290   3.295   3.300   3.306
  3.310   3.312   3.317   3.324   3.325   3.331   3.341   3.346
  3.348   3.351   3.361   3.369   3.370   3.387   3.390   3.393
  3.401   3.406   3.411   3.414   3.421   3.425   3.427   3.431
  3.434   3.441   3.452   3.453   3.461   3.469   3.472   3.475
  3.482   3.487   3.490   3.497   3.502   3.508   3.514   3.525
  3.532   3.539   3.545   3.548   3.557   3.566   3.568   3.579
  3.586   3.600   3.603   3.610   3.622   3.629   3.637   3.646
  3.652   3.659   3.667   3.685   3.694   3.696   3.701   3.710
  3.717   3.720   3.722   3.734   3.738   3.743   3.752   3.756
  3.768   3.777   3.782   3.788   3.799   3.802   3.807   3.812
  3.816   3.824   3.826   3.838   3.849   3.857   3.871   3.880
  3.888   3.896   3.903   3.904   3.920   3.925   3.926   3.933
  3.933   3.939   3.943   3.944   3.953   3.961   3.967   3.972
  3.980   3.983   3.991   3.998   4.011   4.021   4.028   4.039
  4.042   4.051   4.063   4.071   4.076   4.088   4.091   4.106
  4.109   4.119   4.125   4.133   4.143   4.148   4.161   4.172
  4.176   4.185   4.195   4.197   4.207   4.212   4.220   4.222
  4.232   4.235   4.242   4.248   4.255   4.266   4.274   4.282
  4.296   4.297   4.301   4.309   4.314   4.323   4.329   4.335
  4.343   4.353   4.357   4.361   4.371   4.372   4.380   4.395
  4.398   4.403   4.414   4.431   4.434   4.441   4.447   4.458
  4.462   4.481   4.487   4.501   4.518   4.519   4.531   4.543
  4.549   4.560   4.563   4.566   4.578   4.591   4.597   4.608
  4.617   4.641   4.642   4.648   4.665   4.676   4.681   4.699
  4.710   4.720   4.738   4.747   4.754   4.761   4.775   4.783
  4.797   4.805   4.808   4.817   4.825   4.839   4.844   4.847
  4.863   4.878   4.884   4.891   4.901   4.911   4.918   4.931
  4.935   4.948   4.951   4.968   4.970   4.975   4.985   4.989
  4.997   5.004   5.010   5.015   5.023   5.035   5.039   5.049
  5.051   5.062   5.069   5.082   5.093   5.099   5.113   5.122
  5.132   5.139   5.143   5.146   5.160   5.165   5.185   5.189
  5.209   5.218   5.232   5.248   5.275   5.300   5.305   5.315
  5.324   5.334   5.350   5.362   5.375   5.385   5.399   5.428
  5.432   5.461   5.468   5.487   5.489   5.501   5.521   5.539
  5.562   5.573   5.577   5.590   5.595   5.598   5.626   5.646
  5.669   5.681   5.708   5.719   5.735   5.748   5.760   5.774
  5.795   5.834   5.835   5.859   5.867   5.878   5.898   5.920
  5.946   5.953   5.986   6.045   6.086   6.102   6.132   6.169
  6.198   6.236   6.243   6.278   6.295   6.317   6.376   6.431
  6.444   6.488   6.636   6.848   6.979   7.070   7.955   8.818
  9.810  10.134  10.614  11.032  11.240  11.708  11.970  11.980
 12.353  12.636  12.760  12.776  12.848  12.901  13.037  13.292
 13.399  13.475  13.538  13.791  14.289  14.684  15.047  15.070
 --------------------------------------------------------------
 
          Ground-State Mulliken Net Atomic Charges

     Atom                 Charge (a.u.)
  ----------------------------------------
      1 C                    -0.091547
      2 C                    -0.128070
      3 C                    -0.079654
      4 C                    -0.118598
      5 N                    -0.143871
      6 C                     0.082552
      7 C                     0.110598
      8 N                    -0.176020
      9 C                    -0.012953
     10 C                    -0.058968
     11 N                    -0.221775
     12 C                     0.038807
     13 C                     0.040831
     14 S                     0.409977
     15 N                    -0.279549
     16 C                    -0.075134
     17 S                     0.191271
     18 C                     0.030241
     19 C                    -0.055659
     20 N                    -0.145578
     21 C                     0.041809
     22 C                    -0.015331
     23 C                    -0.049522
     24 N                    -0.161557
     25 C                    -0.142762
     26 S                     0.101376
     27 C                    -0.049637
     28 C                    -0.156185
     29 C                    -0.182805
     30 H                     0.133328
     31 H                     0.119673
     32 H                     0.119649
     33 H                     0.136319
     34 H                     0.125914
     35 H                     0.131186
     36 H                     0.136609
     37 H                     0.128083
     38 H                     0.130605
     39 H                     0.136346
  ----------------------------------------
  Sum of atomic charges =     0.000000

 -----------------------------------------------------------------
                    Cartesian Multipole Moments
 -----------------------------------------------------------------
    Charge (ESU x 10^10)
                 0.0000
    Dipole Moment (Debye)
         X      -0.0839      Y       1.0198      Z      -1.1308
       Tot       1.5250
    Quadrupole Moments (Debye-Ang)
        XX    -152.1845     XY      -0.0070     YY    -169.7688
        XZ       5.0224     YZ       0.8874     ZZ    -181.1163
    Octopole Moments (Debye-Ang^2)
       XXX    -110.3251    XXY       5.4410    XYY      53.5711
       YYY      23.9265    XXZ     -74.0012    XYZ      36.1221
       YYZ      24.9421    XZZ     -27.4500    YZZ       8.9411
       ZZZ      14.4784
    Hexadecapole Moments (Debye-Ang^3)
      XXXX  -15881.3988   XXXY    -378.7104   XXYY   -3547.8931
      XYYY     172.0065   YYYY   -2871.6198   XXXZ      81.9789
      XXYZ     -37.3548   XYYZ      28.4619   YYYZ      90.5972
      XXZZ   -3357.7975   XYZZ      17.2938   YYZZ    -654.9949
      XZZZ      53.4259   YZZZ     -26.3317   ZZZZ   -1095.1621
 -----------------------------------------------------------------
 Calculating analytic gradient of the SCF energy
 K construction time:  CPU 2722.46 s  wall 172.57 s
 Gradient of SCF Energy
            1           2           3           4           5           6
    1  -0.0000149  -0.0000273  -0.0000401   0.0000408   0.0000998   0.0000190
    2   0.0000064  -0.0000003   0.0000499   0.0005034  -0.0000540  -0.0006967
    3   0.0001466  -0.0001625  -0.0000393   0.0001690  -0.0002048  -0.0005022
            7           8           9          10          11          12
    1   0.0000821   0.0008017  -0.0000769  -0.0001584   0.0007058   0.0000023
    2   0.0002990   0.0003122   0.0005387  -0.0025566   0.0001496   0.0010311
    3   0.0009371  -0.0003971  -0.0007115  -0.0023219   0.0002444  -0.0002530
           13          14          15          16          17          18
    1  -0.0010657   0.0001328  -0.0006469   0.0006815  -0.0000471  -0.0000662
    2   0.0028206  -0.0014980  -0.0001579  -0.0007624   0.0015729  -0.0006830
    3   0.0024688   0.0009576   0.0002486   0.0007293  -0.0022159   0.0007762
           19          20          21          22          23          24
    1  -0.0004003  -0.0005797   0.0003764   0.0001874   0.0005315  -0.0001493
    2  -0.0010296  -0.0007799   0.0004987   0.0002982   0.0002732  -0.0007620
    3   0.0002705  -0.0005667   0.0004716   0.0002333   0.0002158  -0.0004002
           25          26          27          28          29          30
    1   0.0000218   0.0000674  -0.0005016  -0.0000479  -0.0001765   0.0000094
    2  -0.0001721  -0.0000757   0.0005353  -0.0000169   0.0000506  -0.0000850
    3  -0.0005017   0.0000303   0.0002827   0.0001858  -0.0000256  -0.0000299
           31          32          33          34          35          36
    1   0.0000201  -0.0000472  -0.0000035   0.0003293  -0.0000839   0.0000336
    2   0.0000219  -0.0000095  -0.0000194   0.0004270  -0.0000356   0.0001028
    3   0.0001094  -0.0000031   0.0000266  -0.0000265  -0.0000604   0.0000375
           37          38          39
    1   0.0000169  -0.0000277   0.0000016
    2  -0.0000852  -0.0000084  -0.0000032
    3  -0.0000809  -0.0000788   0.0000410
 Max gradient component =       2.821E-03
 RMS gradient           =       6.682E-04
 Gradient time:  CPU 3173.02 s  wall 203.15 s
 Geometry Optimization Parameters
   NAtoms,    NIC,     NZ,  NCons,   NDum,   NFix, NCnnct, MaxDiis
       39     293       0       3       0       0       0       0

 Cartesian Hessian Update
 Hessian Updated using BFGS Update


** CONSTRAINED OPTIMIZATION IN DELOCALIZED INTERNAL COORDINATES **
   Searching for a Minimum

   Optimization Cycle:   3

                       Coordinates (Angstroms)
     ATOM                X               Y               Z
      1  C        -7.6073243028    0.3317203849   -0.7547229724
      2  C        -6.8310460290    0.9926375304   -1.6925159186
      3  C        -6.9649356099   -0.3301469208    0.2792654303
      4  C        -5.4563494703    0.9610613121   -1.5622204961
      5  N        -5.6461191271   -0.3741316809    0.4129612804
      6  C        -4.9048519895    0.2558605898   -0.4947674152
      7  C        -3.4288814973    0.2140180968   -0.3284995126
      8  N        -2.7383538234    1.1632540843   -0.8992082068
      9  C        -2.7466831246   -0.8187922016    0.3980671020
     10  C        -1.3871481509    1.2108560799   -0.7969385762
     11  N        -3.2613577181   -1.8999294451    0.9900979304
     12  C        -1.3222586035   -0.7491721707    0.5108499430
     13  C        -0.6174670979    0.3243647060   -0.0996456384
     14  S        -2.0275687241   -2.7026104995    1.6269745416
     15  N        -0.7915552620   -1.7619627287    1.1979372001
     16  C         0.8353380155    0.4554070786   -0.0258202190
     17  S         1.8998911925   -0.7542707833   -0.5903894190
     18  C         1.5665095765    1.5363297479    0.4238465609
     19  C         3.3250542531    0.1108910704   -0.2126780277
     20  N         1.0322524155    2.6864729654    0.9271278969
     21  C         2.9823455270    1.3442718396    0.3253378833
     22  C         4.6430783031   -0.4313475395   -0.4652463184
     23  C         1.8971078562    3.5741984717    1.3053697714
     24  N         3.8573715217    2.3037351976    0.7380014134
[...]
   Point Group: c1    Number of degrees of freedom:   111


   Energy is  -2291.147337255

              Constraints and their Current Values
                                        Value     Constraint
   Dihedral:        4   6   7   8       21.822       21.822
   Dihedral:       10  13  16  17     -120.000     -120.000
   Dihedral:       17  19  22  25      156.395      156.395
 Hessian Updated using BFGS Update

106 Hessian modes will be used to form the next step
  Hessian Eigenvalues:
     0.007292    0.013791    0.039707    0.045000    0.045000    0.045000
     0.045000    0.045000    0.045000    0.045000    0.045000    0.045000
     0.045001    0.045001    0.045001    0.045001    0.045001    0.045001
     0.045002    0.045002    0.045003    0.045004    0.045005    0.045007
     0.045008    0.045021    0.045028    0.045037    0.045177    0.045658
     0.046372    0.156897    0.159447    0.159991    0.159998    0.159999
     0.160005    0.160019    0.160101    0.160135    0.160779    0.219965
     0.221193    0.223573    0.224331    0.228584    0.235475    0.238576
     0.244024    0.244537    0.247642    0.249753    0.249937    0.249944
     0.249976    0.249989    0.250320    0.251285    0.256603    0.260913
     0.293602    0.311801    0.319363    0.334730    0.336236    0.341586
     0.347250    0.354138    0.354506    0.355770    0.357057    0.359041
     0.360714    0.361009    0.363386    0.364150    0.364312    0.373342
     0.377442    0.390041    0.399029    0.404801    0.406220    0.419507
     0.432503    0.435440    0.455279    0.460469    0.463990    0.473783
     0.474133    0.483338    0.485028    0.487071    0.488543    0.508866
     0.517411    0.519197    0.526195    0.559516    0.572823    0.589804
     0.637321    0.652297    0.655590    0.681960

 Minimum Search - Taking Simple RFO Step
 Searching for Lamda that Minimizes Along All modes
 Value Taken    Lamda =   0.00000000
 Step Taken.  Stepsize is  0.004556

                             Maximum     Tolerance    Cnvgd?
         Gradient           0.000058      0.000300     YES
         Displacement       0.001397      0.001200      NO
         Energy change     -0.000001      0.000001     YES

 Final energy is   -2291.14733725490     


 ******************************
 **  OPTIMIZATION CONVERGED  **
 ******************************

                       Coordinates (Angstroms)
     ATOM                X               Y               Z
      1  C        -7.6020754444    0.3583465859   -0.7616015885
      2  C        -6.8166805008    1.0281675760   -1.6852517312
      3  C        -6.9691290880   -0.3267979436    0.2632084786
      4  C        -5.4428307499    0.9820153353   -1.5508823691
      5  N        -5.6512667083   -0.3851727653    0.4005737729
      6  C        -4.9014028811    0.2529376828   -0.4946831977
      7  C        -3.4271206279    0.1996625347   -0.3200782009
      8  N        -2.7264498550    1.1550813815   -0.8664700352
      9  C        -2.7557912530   -0.8529071055    0.3875822535
     10  C        -1.3761045948    1.1990079572   -0.7438826765
     11  N        -3.2803153202   -1.9541017090    0.9309438243
     12  C        -1.3327585296   -0.7886944370    0.5218290610
     13  C        -0.6173717862    0.3019173771   -0.0458481379
     14  S        -2.0545535701   -2.7795587210    1.5534723247
     15  N        -0.8111411312   -1.8259818729    1.1775401228
     16  C         0.8344247534    0.4263366867    0.0472555321
     17  S         1.9022186910   -0.7829516710   -0.5170865764
     18  C         1.5644020505    1.5286600333    0.4500925227
     19  C         3.3250215288    0.1065580028   -0.1882774458
     20  N         1.0313574934    2.6873650466    0.9365620247
     21  C         2.9796401161    1.3482973458    0.3268706870
     22  C         4.6440770784   -0.4304571622   -0.4463049267
     23  C         1.8951265530    3.5915499885    1.2744561819
     24  N         3.8547953795    2.3244611604    0.7008242143
     25  C         5.8044593212    0.2612172982   -0.6602773859
     26  S         4.9294921765   -2.1376614053   -0.5282850467
     27  C         3.3131491409    3.4094984539    1.1580153843
     28  C         6.9151635894   -0.5835296243   -0.8976928582
     29  C         6.5920344396   -1.9029451273   -0.8638320786
     30  H        -8.6807623241    0.3671371832   -0.8284028691
     31  H        -7.2691048215    1.5767143790   -2.5001147538
     32  H        -7.5483755604   -0.8548821064    1.0117010591
     33  H        -4.7851708162    1.4964256839   -2.2343104891
     34  H        -0.8962691595    2.0370890521   -1.2314299476
     35  H         1.5128341476    4.5273926277    1.6677416225
     36  H         5.8463256979    1.3380592277   -0.6376502912
     37  H         3.9770396331    4.2102159194    1.4647686286
     38  H         7.9143449933   -0.2229061447   -1.0884029710
     39  H         7.2386546219   -2.7506852129   -1.0119661726

Z-matrix Print:
$molecule
0 1
S 
C  1 1.709106
C  2 1.382122 1 109.304123
N  3 1.365059 2 125.073100 1 -178.949877 0
C  4 1.295307 3 115.156355 2 -179.078575 0
H  5 1.084722 4 117.503323 3 179.892167 0
C  3 1.431996 2 113.355936 1 1.741012 0
N  7 1.363317 3 121.374607 2 178.819258 0
C  8 1.296036 7 115.336429 3 0.472132 0
H  9 1.084434 8 117.522412 7 179.918953 0
C  7 1.388014 3 112.987748 2 -0.741360 0
C  11 1.447367 7 128.672293 3 179.707455 0
C  12 1.367730 11 127.839012 7 23.235235 0
H  13 1.077893 12 122.336137 11 -1.148483 0
C  13 1.415495 12 112.964336 11 179.319699 0
H  15 1.079251 13 123.826994 12 -179.913572 0
C  15 1.358829 13 112.873642 12 -0.060260 0
H  17 1.076441 15 128.200916 13 -179.873067 0
C  2 1.460090 1 122.674809 3 -174.073509 0
C  19 1.366638 2 121.915109 1 120.000001 0
H  20 1.081815 19 119.503077 2 0.982990 0
N  20 1.356610 19 125.276176 2 179.467965 0
C  22 1.304726 20 121.360048 19 1.123483 0
C  19 1.422487 2 122.679661 1 -56.795052 0
N  24 1.333419 19 126.579288 2 1.038390 0
C  24 1.430793 19 119.811607 2 179.661955 0
N  26 1.335289 24 112.924459 19 -177.860284 0
C  23 1.485541 22 117.224118 20 -179.080297 0
N  28 1.330776 23 117.577057 22 156.655216 0
C  29 1.326287 28 117.977098 23 -179.052167 0
H  30 1.083808 29 115.981847 28 179.801483 0
C  30 1.385742 29 123.518859 28 -0.169837 0
H  32 1.080789 30 120.371105 29 -179.609003 0
C  32 1.385148 30 118.245271 29 0.600691 0
H  34 1.081477 32 120.697702 30 179.908761 0
C  34 1.381176 32 118.879709 30 -0.238199 0
H  36 1.078985 34 121.919832 32 179.170565 0
S  27 1.603563 26 106.393035 24 -0.723829 0
S  17 1.712230 15 111.647084 13 0.490869 0
$end

 
 --------------------------------------------------------------
 
                    Orbital Energies (a.u.)
 --------------------------------------------------------------
 
 Alpha MOs
 -- Occupied --
-89.146 -89.100 -89.079 -14.482 -14.478 -14.461 -14.460 -14.448
-14.436 -10.356 -10.354 -10.351 -10.344 -10.343 -10.342 -10.338
-10.338 -10.338 -10.336 -10.334 -10.334 -10.328 -10.325 -10.319
-10.311 -10.302 -10.300 -10.295 -10.293  -8.156  -8.115  -8.095
 -6.106  -6.100  -6.100  -6.064  -6.060  -6.058  -6.044  -6.040
 -6.037  -1.142  -1.099  -1.071  -1.051  -1.028  -1.013  -1.003
 -0.986  -0.926  -0.913  -0.897  -0.879  -0.868  -0.854  -0.838
 -0.812  -0.777  -0.770  -0.748  -0.739  -0.730  -0.720  -0.711
 -0.672  -0.654  -0.647  -0.630  -0.629  -0.621  -0.605  -0.603
 -0.591  -0.577  -0.569  -0.563  -0.558  -0.545  -0.542  -0.526
 -0.513  -0.506  -0.502  -0.501  -0.494  -0.492  -0.486  -0.481
 -0.473  -0.468  -0.460  -0.458  -0.449  -0.438  -0.428  -0.426
 -0.422  -0.412  -0.398  -0.376  -0.371  -0.362  -0.357  -0.351
 -0.342  -0.339  -0.336  -0.333  -0.318  -0.271
 -- Virtual --
 -0.046  -0.031   0.025   0.031   0.040   0.057   0.066   0.071
  0.086   0.091   0.098   0.122   0.124   0.128   0.131   0.137
  0.146   0.149   0.154   0.158   0.165   0.175   0.177   0.190
  0.197   0.198   0.210   0.216   0.225   0.227   0.240   0.244
  0.257   0.261   0.268   0.272   0.279   0.288   0.293   0.297
  0.299   0.301   0.310   0.311   0.316   0.320   0.321   0.329
  0.330   0.333   0.340   0.344   0.347   0.347   0.353   0.360
  0.364   0.365   0.373   0.375   0.378   0.380   0.384   0.385
  0.391   0.392   0.398   0.400   0.405   0.408   0.409   0.413
  0.415   0.419   0.423   0.428   0.431   0.435   0.436   0.440
  0.443   0.444   0.452   0.455   0.457   0.460   0.463   0.464
  0.467   0.470   0.477   0.480   0.481   0.484   0.486   0.488
  0.491   0.495   0.497   0.506   0.507   0.509   0.519   0.520
  0.524   0.528   0.530   0.536   0.537   0.541   0.545   0.549
  0.553   0.561   0.567   0.574   0.574   0.582   0.584   0.597
  0.601   0.606   0.609   0.615   0.621   0.623   0.630   0.635
  0.638   0.642   0.646   0.654   0.657   0.659   0.665   0.672
  0.673   0.682   0.685   0.689   0.696   0.702   0.708   0.714
  0.717   0.719   0.729   0.731   0.733   0.738   0.739   0.752
  0.755   0.761   0.766   0.772   0.776   0.780   0.781   0.784
  0.789   0.790   0.797   0.803   0.807   0.813   0.815   0.820
  0.825   0.833   0.836   0.838   0.843   0.848   0.854   0.854
  0.861   0.864   0.869   0.870   0.876   0.890   0.898   0.900
  0.903   0.912   0.916   0.920   0.921   0.927   0.932   0.934
  0.938   0.946   0.949   0.953   0.955   0.961   0.966   0.971
  0.978   0.981   0.990   0.996   0.998   1.002   1.005   1.014
  1.017   1.024   1.030   1.034   1.044   1.046   1.050   1.056
  1.063   1.069   1.073   1.080   1.081   1.088   1.090   1.097
  1.101   1.107   1.109   1.115   1.120   1.124   1.128   1.144
  1.147   1.160   1.165   1.171   1.173   1.181   1.186   1.194
  1.198   1.203   1.209   1.216   1.225   1.231   1.239   1.242
  1.248   1.258   1.264   1.271   1.277   1.283   1.289   1.297
  1.310   1.314   1.319   1.328   1.335   1.349   1.353   1.357
  1.359   1.370   1.374   1.377   1.384   1.385   1.385   1.392
  1.401   1.403   1.406   1.414   1.421   1.424   1.433   1.437
  1.440   1.443   1.450   1.456   1.460   1.474   1.478   1.482
  1.485   1.488   1.502   1.504   1.505   1.510   1.517   1.529
  1.537   1.557   1.562   1.567   1.572   1.579   1.584   1.593
  1.598   1.607   1.615   1.617   1.627   1.637   1.647   1.651
  1.653   1.657   1.662   1.669   1.672   1.677   1.685   1.693
  1.702   1.704   1.709   1.722   1.729   1.734   1.744   1.746
  1.751   1.764   1.765   1.775   1.785   1.795   1.799   1.803
  1.818   1.829   1.832   1.851   1.864   1.875   1.881   1.885
  1.891   1.894   1.904   1.909   1.923   1.935   1.938   1.943
  1.954   1.967   1.978   1.983   1.988   1.994   2.004   2.009
  2.013   2.016   2.029   2.039   2.040   2.049   2.057   2.064
  2.077   2.079   2.099   2.105   2.110   2.115   2.123   2.124
  2.138   2.152   2.159   2.167   2.175   2.177   2.185   2.189
  2.201   2.205   2.213   2.219   2.238   2.245   2.250   2.260
  2.265   2.268   2.283   2.289   2.294   2.296   2.299   2.303
  2.313   2.318   2.328   2.338   2.343   2.351   2.360   2.367
  2.375   2.388   2.390   2.399   2.406   2.412   2.413   2.427
  2.441   2.444   2.449   2.454   2.458   2.464   2.464   2.470
  2.484   2.498   2.512   2.519   2.525   2.531   2.532   2.537
  2.538   2.541   2.546   2.553   2.555   2.564   2.582   2.587
  2.600   2.609   2.620   2.627   2.632   2.648   2.648   2.657
  2.663   2.665   2.671   2.681   2.685   2.700   2.707   2.715
  2.726   2.731   2.736   2.738   2.754   2.774   2.775   2.778
  2.784   2.788   2.795   2.801   2.804   2.818   2.821   2.825
  2.830   2.838   2.841   2.850   2.858   2.860   2.868   2.877
  2.880   2.884   2.895   2.905   2.912   2.920   2.925   2.928
  2.936   2.939   2.950   2.953   2.963   2.968   2.972   2.978
  2.990   2.990   3.000   3.009   3.009   3.015   3.020   3.022
  3.028   3.036   3.037   3.043   3.046   3.053   3.054   3.063
  3.067   3.068   3.071   3.073   3.078   3.086   3.089   3.095
  3.097   3.104   3.106   3.107   3.110   3.119   3.123   3.131
  3.138   3.145   3.150   3.156   3.158   3.161   3.164   3.168
  3.174   3.178   3.179   3.186   3.195   3.198   3.204   3.208
  3.212   3.215   3.222   3.223   3.227   3.229   3.235   3.237
  3.242   3.248   3.256   3.260   3.260   3.264   3.267   3.272
  3.277   3.283   3.283   3.287   3.289   3.294   3.300   3.306
  3.310   3.312   3.316   3.324   3.326   3.330   3.341   3.346
  3.347   3.352   3.361   3.366   3.373   3.387   3.389   3.392
  3.401   3.408   3.410   3.414   3.422   3.425   3.427   3.432
  3.435   3.438   3.452   3.454   3.461   3.467   3.470   3.476
  3.484   3.487   3.491   3.497   3.503   3.508   3.516   3.524
  3.531   3.538   3.545   3.549   3.557   3.566   3.568   3.579
  3.584   3.600   3.602   3.609   3.623   3.628   3.634   3.646
  3.652   3.659   3.667   3.686   3.694   3.696   3.697   3.710
  3.717   3.719   3.723   3.734   3.737   3.744   3.752   3.755
  3.767   3.777   3.781   3.788   3.798   3.802   3.808   3.812
  3.817   3.823   3.824   3.837   3.847   3.858   3.871   3.879
  3.889   3.895   3.903   3.904   3.920   3.923   3.926   3.933
  3.933   3.939   3.942   3.944   3.952   3.961   3.967   3.972
  3.979   3.983   3.989   3.998   4.010   4.022   4.027   4.037
  4.042   4.053   4.063   4.073   4.076   4.088   4.092   4.105
  4.108   4.117   4.125   4.133   4.144   4.149   4.161   4.171
  4.175   4.186   4.193   4.198   4.206   4.213   4.221   4.221
  4.232   4.234   4.242   4.248   4.255   4.266   4.272   4.279
  4.296   4.296   4.302   4.309   4.316   4.322   4.328   4.336
  4.342   4.351   4.357   4.361   4.371   4.374   4.379   4.395
  4.398   4.402   4.415   4.430   4.434   4.441   4.446   4.458
  4.462   4.478   4.486   4.500   4.517   4.520   4.530   4.543
  4.547   4.561   4.563   4.566   4.576   4.590   4.599   4.607
  4.617   4.634   4.643   4.647   4.664   4.675   4.681   4.697
  4.710   4.720   4.738   4.747   4.755   4.760   4.775   4.783
  4.795   4.804   4.807   4.816   4.824   4.839   4.844   4.848
  4.864   4.877   4.885   4.892   4.900   4.911   4.917   4.931
  4.934   4.946   4.951   4.968   4.970   4.975   4.984   4.988
  4.997   5.003   5.010   5.014   5.022   5.035   5.039   5.050
  5.052   5.062   5.070   5.082   5.093   5.099   5.114   5.122
  5.132   5.139   5.142   5.145   5.159   5.164   5.185   5.190
  5.209   5.217   5.231   5.247   5.275   5.299   5.305   5.316
  5.324   5.332   5.350   5.360   5.376   5.385   5.398   5.426
  5.432   5.461   5.468   5.485   5.489   5.502   5.521   5.539
  5.560   5.571   5.577   5.593   5.594   5.597   5.626   5.645
  5.669   5.681   5.709   5.719   5.734   5.747   5.758   5.771
  5.793   5.834   5.836   5.858   5.867   5.878   5.899   5.919
  5.947   5.954   5.987   6.045   6.085   6.101   6.129   6.167
  6.198   6.236   6.243   6.277   6.295   6.318   6.375   6.430
  6.443   6.486   6.635   6.848   6.979   7.069   7.962   8.821
  9.814  10.138  10.617  11.031  11.238  11.697  11.968  11.982
 12.351  12.633  12.756  12.771  12.852  12.892  13.025  13.295
 13.387  13.444  13.540  13.803  14.288  14.674  15.049  15.069
 --------------------------------------------------------------
 
          Ground-State Mulliken Net Atomic Charges

     Atom                 Charge (a.u.)
  ----------------------------------------
      1 C                    -0.091798
      2 C                    -0.127883
      3 C                    -0.079334
      4 C                    -0.118706
      5 N                    -0.144695
      6 C                     0.082687
      7 C                     0.110515
      8 N                    -0.176337
      9 C                    -0.012349
     10 C                    -0.059668
     11 N                    -0.221469
     12 C                     0.036385
     13 C                     0.044117
     14 S                     0.409036
     15 N                    -0.280187
     16 C                    -0.067017
     17 S                     0.190343
     18 C                     0.021946
     19 C                    -0.056280
     20 N                    -0.145894
     21 C                     0.044191
     22 C                    -0.016094
     23 C                    -0.048641
     24 N                    -0.161287
     25 C                    -0.142233
     26 S                     0.101193
     27 C                    -0.049713
     28 C                    -0.156590
     29 C                    -0.182284
     30 H                     0.133315
     31 H                     0.119777
     32 H                     0.119668
     33 H                     0.136170
     34 H                     0.126232
     35 H                     0.131245
     36 H                     0.136711
     37 H                     0.127936
     38 H                     0.130573
     39 H                     0.136420
  ----------------------------------------
  Sum of atomic charges =     0.000000

 -----------------------------------------------------------------
                    Cartesian Multipole Moments
 -----------------------------------------------------------------
    Charge (ESU x 10^10)
                 0.0000
    Dipole Moment (Debye)
         X      -0.0614      Y       1.0858      Z      -1.1907
       Tot       1.6126
    Quadrupole Moments (Debye-Ang)
        XX    -152.2455     XY      -0.2040     YY    -169.4377
        XZ       4.7777     YZ       0.6115     ZZ    -181.4669
    Octopole Moments (Debye-Ang^2)
       XXX    -108.9771    XXY       9.1140    XYY      53.4259
       YYY      30.5051    XXZ     -75.6208    XYZ      35.5199
       YYZ      23.0240    XZZ     -26.7967    YZZ      10.5574
       ZZZ      10.6117
    Hexadecapole Moments (Debye-Ang^3)
      XXXX  -15903.7950   XXXY    -408.5972   XXYY   -3554.5198
      XYYY     165.5874   YYYY   -2924.3224   XXXZ      54.2299
      XXYZ     -43.9656   XYYZ      24.9881   YYYZ      94.5655
      XXZZ   -3352.6983   XYZZ      11.4331   YYZZ    -662.3637
      XZZZ      36.8197   YZZZ     -18.4018   ZZZZ   -1048.0872
 -----------------------------------------------------------------
Archival summary:
1\1\mn251\OPT\ProcedureUnspecified\BasisUnspecified\362010\afmv_a\SatJun1700:20:572017SatJun1700:20:572017\0\\#,OPT,ProcedureUnspecified,BasisUnspecified,\\0,1\S\C,1,1.70911\C,2,1.38212,1,109.304\N,3,1.36506,2,125.073,1,-178.95,0\C,4,1.29531,3,115.156,2,-179.079,0\H,5,1.08472,4,117.503,3,179.892,0\C,3,1.432,2,113.356,1,1.74101,0\N,7,1.36332,3,121.375,2,178.819,0\C,8,1.29604,7,115.336,3,0.472132,0\H,9,1.08443,8,117.522,7,179.919,0\C,7,1.38801,3,112.988,2,-0.74136,0\C,11,1.44737,7,128.672,3,179.707,0\C,12,1.36773,11,127.839,7,23.2352,0\H,13,1.07789,12,122.336,11,-1.14848,0\C,13,1.4155,12,112.964,11,179.32,0\H,15,1.07925,13,123.827,12,-179.914,0\C,15,1.35883,13,112.874,12,-0.06026,0\H,17,1.07644,15,128.201,13,-179.873,0\C,2,1.46009,1,122.675,3,-174.074,0\C,19,1.36664,2,121.915,1,120,0\H,20,1.08182,19,119.503,2,0.98299,0\N,20,1.35661,19,125.276,2,179.468,0\C,22,1.30473,20,121.36,19,1.12348,0\C,19,1.42249,2,122.68,1,-56.7951,0\N,24,1.33342,19,126.579,2,1.03839,0\C,24,1.43079,19,119.812,2,179.662,0\N,26,1.33529,24,112.924,19,-177.86,0\C,23,1.48554,22,117.224,20,-179.08,0\N,28,1.33078,23,117.577,22,156.655,0\C,29,1.32629,28,117.977,23,-179.052,0\H,30,1.08381,29,115.982,28,179.801,0\C,30,1.38574,29,123.519,28,-0.169837,0\H,32,1.08079,30,120.371,29,-179.609,0\C,32,1.38515,30,118.245,29,0.600691,0\H,34,1.08148,32,120.698,30,179.909,0\C,34,1.38118,32,118.88,30,-0.238199,0\H,36,1.07898,34,121.92,32,179.171,0\S,27,1.60356,26,106.393,24,-0.723829,0\S,17,1.71223,15,111.647,13,0.490869,0\\\@

 Total job time:  8003.79s(wall), 119306.19s(cpu) 
 Sat Jun 17 00:20:57 2017

        *************************************************************
        *                                                           *
        *  Thank you very much for using Q-Chem.  Have a nice day.  *
        *                                                           *
        *************************************************************


