
Running Job 1 of 1 C169_2/C169_45.qcin
qchem C169_2/C169_45.qcin_31893.0 /tmpu/cab_g/afmv_a/scratch_qchem/qchem31893/ 1
/tmpu/appuserlic/qchem4.4/serial-multicore/exe/qcprog.exe_s C169_2/C169_45.qcin_31893.0 /tmpu/cab_g/afmv_a/scratch_qchem/qchem31893/
Check license passed

                  Welcome to Q-Chem
     A Quantum Leap Into The Future Of Chemistry


 Q-Chem 4.4, Q-Chem, Inc., Pleasanton, CA (2016)

 Y. Shao,  Z. Gan,  E. Epifanovsky,  A. T. B. Gilbert,  M. Wormit,  
 J. Kussmann,  A. W. Lange,  A. Behn,  J. Deng,  X. Feng,  D. Ghosh,  
 M. Goldey,  P. R. Horn,  L. D. Jacobson,  I. Kaliman,  F. Rob,  
 R. Z. Khaliullin,  T. Kus,  A. Landau,  J. Liu,  E. I. Proynov,  Y. M. Rhee,  
 R. M. Richard,  M. A. Rohrdanz,  R. P. Steele,  E. J. Sundstrom,  
 H. L. Woodcock III,  P. M. Zimmerman,  D. Zuev,  B. Albrecht,  E. Alguire,  
 B. Austin,  S. A. Baeppler,  G. J. O. Beran,  Y. A. Bernard,  E. Berquist,  
 K. Brandhorst,  K. B. Bravaya,  S. T. Brown,  D. Casanova,  C.-M. Chang,  
 Y. Chen,  S. H. Chien,  K. D. Closser,  M. P. Coons,  D. L. Crittenden,  
 S. Dasgupta,  M. Diedenhofen,  R. A. DiStasio Jr.,  H. Do,  A. D. Dutoi,  
 R. G. Edgar,  P.-T. Fang,  S. Fatehi,  Q. Feng,  L. Fusti-Molnar,  
 A. Ghysels,  A. Golubeva-Zadorozhnaya,  J. Gomes,  A. Gunina,  
 M. W. D. Hanson-Heine,  P. H. P. Harbach,  A. W. Hauser,  J. E. Herr,  
 E. G. Hohenstein,  Z. C. Holden,  K. Hui,  T.-C. Jagau,  H. Ji,  B. Kaduk,  
 K. Khistyaev,  Jaehoon Kim,  Jihan Kim,  R. A. King,  P. Klunzinger,  
 K. Koh,  D. Kosenkov,  T. Kowalczyk,  C. M. Krauter,  A. Kunitsa,  
 K. U. Lao,  A. Laurent,  K. V. Lawler,  J. Lee,  D. Lefrancois,  S. Lehtola,  
 S. V. Levchenko,  C. Y. Lin,  Y.-S. Lin,  F. Liu,  E. Livshits,  
 R. C. Lochan,  A. Luenser,  P. Manohar,  S. F. Manzer,  S.-P. Mao,  Y. Mao,  
 N. Mardirossian,  A. V. Marenich,  L. A. Martinez-Martinez,  S. A. Maurer,  
 N. J. Mayhall,  J.-M. Mewes,  A. F. Morrison,  K. Nanda,  T. S. Nguyen-Beck,  
 C. M. Oana,  R. Olivares-Amaya,  D. P. O'Neill,  J. A. Parkhill,  
 T. M. Perrine,  R. Peverati,  P. A. Pieniazek,  F. Plasser,  A. Prociuk,  
 D. R. Rehn,  E. Rosta,  N. J. Russ,  N. Sergueev,  S. M. Sharada,  
 S. Sharma,  D. W. Small,  A. Sodt,  T. Stauch,  T. Stein,  D. Stuck,  
 Y.-C. Su,  A. J. W. Thom,  T. Tsuchimochi,  L. Vogt,  O. Vydrov,  T. Wang,  
 M. A. Watson,  J. Wenzel,  A. White,  C. F. Williams,  V. Vanovschi,  
 K. Yao,  S. Yeganeh,  S. R. Yost,  Z.-Q. You,  I. Y. Zhang,  X. Zhang,  
 Y. Zhao,  B. R. Brooks,  G. K. L. Chan,  D. M. Chipman,  C. J. Cramer,  
 W. A. Goddard III,  M. S. Gordon,  W. J. Hehre,  A. Klamt,  
 H. F. Schaefer III,  M. W. Schmidt,  C. D. Sherrill,  D. G. Truhlar,  
 A. Warshel,  X. Xu,  A. Aspuru-Guzik,  R. Baer,  A. T. Bell,  N. A. Besley,  
 J.-D. Chai,  A. Dreuw,  B. D. Dunietz,  T. R. Furlani,  S. R. Gwaltney,  
 C.-P. Hsu,  Y. Jung,  J. Kong,  D. S. Lambrecht,  W. Liang,  C. Ochsenfeld,  
 V. A. Rassolov,  L. V. Slipchenko,  J. E. Subotnik,  T. Van Voorhis,  
 J. M. Herbert,  A. I. Krylov,  P. M. W. Gill,  M. Head-Gordon

 Contributors to earlier versions of Q-Chem not listed above: 
 R. D. Adamson,  J. Baker,  E. F. C. Byrd,  A. K. Chakraborty,  C.-L. Cheng,  
 H. Dachsel,  R. J. Doerksen,  G. Hawkins,  A. Heyden,  S. Hirata,  
 G. Kedziora,  F. J. Keil,  C. Kelley,  P. P. Korambath,  W. Kurlancheek,  
 A. M. Lee,  M. S. Lee,  D. Liotard,  I. Lotan,  P. E. Maslen,  N. Nair,  
 D. Neuhauser,  R. Olson,  B. Peters,  J. Ritchie,  N. E. Schultz,  
 N. Shenvi,  A. C. Simmonett,  K. S. Thanthiriwatte,  Q. Wu,  W. Zhang

 Please cite Q-Chem as follows:
 Y. Shao et al., Mol. Phys. 113, 184-215 (2015)
 DOI: 10.1080/00268976.2014.952696

 Q-Chem 4.4.2 for Intel X86 Linux

 Parts of Q-Chem use Armadillo 5.200.1 (Boston Tea Smuggler).
 http://arma.sourceforge.net/

 Q-Chem begins on Sat Jun 17 08:56:08 2017  

Host: 
0

     Scratch files written to /tmpu/cab_g/afmv_a/scratch_qchem/qchem31893//
 Dec716 11556_ 22328  22283 4050   
Processing $rem in /tmpu/appuserlic/qchem4.4/serial-multicore/config/preferences.
 MEM_TOTAL  2000 
FILE_GEOM_ORG=        593

Checking the input file for inconsistencies... 	...done.

--------------------------------------------------------------
User input:
--------------------------------------------------------------
$comment
OPTIMIZATION
$end

$rem
JOBTYPE OPT
EXCHANGE omegaB97X-D
BASIS cc-pVTZ
$end

$molecule
0 1
C          0.00000        0.00000        0.00000
C         -0.65396       -1.22126       -0.00000
C          1.38563        0.00000        0.00000
C          0.09526       -2.37957        0.00866
N          2.11912       -1.10562        0.01199
C          1.48546       -2.27640        0.02149
C          2.30642       -3.51253        0.03449
N          1.74513       -4.60745       -0.39909
C          3.65824       -3.56714        0.50995
C          2.40434       -5.79109       -0.42442
N          4.38617       -2.58332        1.04242
C          4.35289       -4.81920        0.47143
C          3.70163       -5.99343       -0.01477
S          5.80914       -3.21778        1.41887
N          5.59255       -4.74484        0.95148
C          4.33823       -7.30129       -0.04468
S          4.21474       -8.36465       -1.39035
C          5.13036       -7.90891        0.92985
C          5.15330       -9.60897       -0.69790
N          5.46782       -7.37157        2.13557
C          5.59343       -9.21076        0.55873
C          5.42200      -10.85094       -1.38688
C          6.21213       -8.11127        2.89798
N          6.37315       -9.95888        1.38490
C          6.46261      -11.71541       -1.18453
S          4.37606      -11.44361       -2.63736
C          6.66794       -9.41255        2.52442
C          6.42289      -12.84099       -2.04171
C          5.35611      -12.82582       -2.88414
H         -0.54853        0.93120        0.00000
H         -1.73532       -1.26909       -0.00410
H          1.93662        0.93286       -0.01167
H         -0.36319       -3.35650        0.00329
H          1.82722       -6.62671       -0.78554
H          6.48907       -7.70587        3.86541
H          7.21695      -11.53887       -0.43646
H          7.28864       -9.98234        3.20734
H          7.16514      -13.62456       -2.03058
H          5.09092      -13.55509       -3.63034
$end

$opt
CONSTRAINT
tors 4 6 7 8 21.82164
tors 10 13 16 17 45.00000
tors 17 19 22 25 156.39459
ENDCONSTRAINT
$end
--------------------------------------------------------------
 ----------------------------------------------------------------
             Standard Nuclear Orientation (Angstroms)
    I     Atom           X                Y                Z
 ----------------------------------------------------------------
    1      C      -7.4704294910     1.6150166060    -0.2478913378
    2      C      -6.5963032319     2.2912953779    -1.0831697195
    3      C      -6.9496391254     0.6545964373     0.6043650741
    4      C      -5.2536725508     1.9774563598    -1.0391744357
    5      N      -5.6616827196     0.3397172071     0.6550236521
    6      C      -4.8274857084     0.9860835224    -0.1565593608
    7      C      -3.3871083644     0.6337029607    -0.0990898456
    8      N      -2.5361393391     1.5250162132    -0.5272256778
    9      C      -2.8924055094    -0.6248500527     0.3781681284
   10      C      -1.1995743764     1.3018922417    -0.5236372807
   11      N      -3.5920605795    -1.6803358115     0.7997612665
   12      C      -1.4780175640    -0.8508477102     0.3885823136
   13      C      -0.5811120804     0.1540002665    -0.0859566392
   14      S      -2.5256682787    -2.8132853441     1.1848982970
   15      N      -1.1443506160    -2.0584097299     0.8393535016
   16      C       0.8614781838    -0.0275760355    -0.1370968770
   17      S       1.9697878438     1.1905248167     0.3575666753
   18      C       1.5863317768    -1.1452155017    -0.5516448410
   19      C       3.3711912895     0.2843458995     0.0059670579
   20      N       1.0594916532    -2.3179872693    -1.0026660279
   21      C       3.0037297184    -0.9696841322    -0.4670924006
   22      C       4.7030479382     0.8053111637     0.2160519742
   23      C       1.9158029104    -3.2304519945    -1.3440772612
   24      N       3.8725612776    -1.9496150509    -0.8346121934
   25      C       5.8598898975     0.1007861515     0.4070605183
   26      S       5.0203177914     2.5104652929     0.2432122173
   27      C       3.3302751339    -3.0482911735    -1.2620697462
   28      C       6.9915440331     0.9315597940     0.5871705944
   29      C       6.6891194288     2.2556339704     0.5296820185
   30      H      -8.5305224466     1.8251828926    -0.2550787118
   31      H      -6.9583252253     3.0524098459    -1.7623521776
   32      H      -7.5964411207     0.1104880604     1.2822641829
   33      H      -4.5294020292     2.4773517320    -1.6637817465
   34      H      -0.6020089535     2.1063034336    -0.9205933649
   35      H       1.5190116004    -4.1710234534    -1.7112934313
   36      H       5.8816760257    -0.9759353691     0.4068083219
   37      H       3.9949261918    -3.8506750041    -1.5632806690
   38      H       7.9875819361     0.5524025966     0.7580190649
   39      H       7.3577947314     3.0929351986     0.6334842436
 ----------------------------------------------------------------
 Molecular Point Group                 C1    NOp =  1
 Largest Abelian Subgroup              C1    NOp =  1
 Nuclear Repulsion Energy =  2926.6059891852 hartrees
 There are      110 alpha and      110 beta electrons
 Requested basis set is cc-pVTZ
 There are 356 shells and 1022 basis functions

 Total QAlloc Memory Limit   2000 MB
 Mega-Array Size        61 MB
 MEM_STATIC part        62 MB
 A cutoff of  1.0D-11 yielded  31002 shell pairs
 There are    244862 function pairs (    319713 Cartesian)
 
 -------------------------------------------------------
 OpenMP Integral Computing Module                       
 Release: version 1.0, May 2013, Q-Chem Inc. Pittsburgh 
 -------------------------------------------------------
 Integral Job Info:
 Integral job number is                      11
 Integral operator is                         1
 short-range coefficients              22203600
 long-range coefficients              100000000
 Omega coefficients                         200
 if combine SR and LR in K                    1
 Integral screening is                        0
 Integral computing path is                   2
 max size of driver memory is            800000
 size of driver memory is                776718
 size of scratch memory is             26248924
 max col of scratch BK array              10000
 max len of scratch array in speh3          662
 max len of scratch index in speh4           32
 max int batch size is                      520
 min int batch size is                       52
 fixed nKL is                                52
 max L of basis functions is                  3
 order of int derivative is                   0
 number of shells is                        356
 number of basis is                        1177
 number of cartesian basis is              1177
 number of contracted shell pairs         31002
 number of primitive shell pairs          93984
 maxK2 (contraction) of shell pair          121
 max number of K2 of shell pair               1
 max number of CS2 of shell pair           4268
 max number of PS2 of shell pair          13160
 mem total for path MDJ                  842240
 -------------------------------------------------------
 Smallest overlap matrix eigenvalue = 3.01E-05

 Scale SEOQF with 1.000000e-02/1.000000e-01/1.000000e-01

 Standard Electronic Orientation quadrupole field applied
 Nucleus-field energy     =     0.0000000528 hartrees
 Guess from superposition of atomic densities
 Warning:  Energy on first SCF cycle will be non-variational
 Long-range K will be added via erf
 Coulomb attenuation parameter = 0.2 bohr**(-1)
 A restricted hybrid HF-DFT SCF calculation will be
 performed using Pulay DIIS extrapolation
 Exchange:     0.2220 Hartree-Fock + 1.0000 wB97X-D + LR-HF
 Correlation:  1.0000 wB97X-D
 Using SG-2 standard quadrature grid
 Dispersion:   Grimme D
 SCF converges when DIIS error is below 1.0E-08
 using 16 threads for integral computing 
 using 16 threads for integral computing 
 K construction time:  CPU 71.00 s  wall 4.70 s
 -------------------------------------------------------
 OpenMP BLAS3 based DFT computing Module                
 Release: version 1.0, May 2013, Q-Chem Inc. Pittsburgh 
 -------------------------------------------------------
 ---------------------------------------
  Cycle       Energy         DIIS Error
 ---------------------------------------
    1   -2301.3454116962      1.83E-02
 K construction time:  CPU 1120.69 s  wall 74.24 s
    2   -2290.8916028880      1.35E-03
 K construction time:  CPU 1067.74 s  wall 70.63 s
    3   -2290.9332070924      1.34E-03
 K construction time:  CPU 1022.75 s  wall 67.60 s
    4   -2291.1394714984      1.88E-04
 K construction time:  CPU 936.58 s  wall 61.86 s
    5   -2291.1436001571      9.73E-05
 K construction time:  CPU 881.94 s  wall 58.29 s
    6   -2291.1447671804      4.05E-05
 K construction time:  CPU 827.77 s  wall 54.78 s
    7   -2291.1449737245      1.77E-05
 K construction time:  CPU 777.31 s  wall 51.45 s
    8   -2291.1450262538      5.70E-06
 K construction time:  CPU 746.98 s  wall 49.36 s
    9   -2291.1450385944      3.27E-06
 K construction time:  CPU 704.76 s  wall 46.52 s
   10   -2291.1450419653      1.12E-06
 K construction time:  CPU 639.91 s  wall 42.18 s
   11   -2291.1450424474      6.69E-07
 K construction time:  CPU 582.32 s  wall 38.51 s
   12   -2291.1450425609      2.33E-07
 K construction time:  CPU 517.77 s  wall 34.24 s
   13   -2291.1450425765      1.04E-07
 K construction time:  CPU 453.77 s  wall 29.89 s
   14   -2291.1450425777      2.86E-08
 K construction time:  CPU 383.25 s  wall 25.13 s
   15   -2291.1450425802      1.46E-08
 K construction time:  CPU 1112.92 s  wall 73.60 s
   16   -2291.1450425775      4.62E-09 Convergence criterion met
 ---------------------------------------
 SCF time:  CPU 15806.85 s  wall 1071.83 s
 SCF   energy in the final basis set = -2291.1450425775
 Total energy in the final basis set = -2291.1450425775
 
 --------------------------------------------------------------
 
                    Orbital Energies (a.u.)
 --------------------------------------------------------------
 
 Alpha MOs
 -- Occupied --
-89.142 -89.104 -89.081 -14.476 -14.472 -14.460 -14.456 -14.447
-14.434 -10.354 -10.351 -10.348 -10.346 -10.342 -10.342 -10.341
-10.339 -10.337 -10.337 -10.335 -10.335 -10.332 -10.324 -10.320
-10.310 -10.301 -10.299 -10.296 -10.293  -8.152  -8.118  -8.096
 -6.102  -6.096  -6.096  -6.067  -6.064  -6.062  -6.045  -6.041
 -6.039  -1.138  -1.098  -1.070  -1.050  -1.026  -1.012  -0.999
 -0.987  -0.925  -0.912  -0.896  -0.878  -0.870  -0.853  -0.839
 -0.813  -0.777  -0.770  -0.745  -0.737  -0.729  -0.721  -0.708
 -0.671  -0.655  -0.647  -0.629  -0.628  -0.622  -0.605  -0.600
 -0.588  -0.575  -0.567  -0.563  -0.557  -0.545  -0.543  -0.527
 -0.512  -0.506  -0.502  -0.502  -0.493  -0.492  -0.487  -0.480
 -0.472  -0.467  -0.462  -0.458  -0.450  -0.438  -0.427  -0.427
 -0.418  -0.408  -0.387  -0.374  -0.369  -0.361  -0.357  -0.352
 -0.344  -0.338  -0.335  -0.331  -0.318  -0.269
 -- Virtual --
 -0.048  -0.028   0.028   0.032   0.041   0.050   0.067   0.074
  0.089   0.089   0.103   0.122   0.124   0.129   0.129   0.136
  0.147   0.150   0.153   0.160   0.166   0.174   0.178   0.189
  0.194   0.200   0.208   0.216   0.221   0.225   0.244   0.247
  0.257   0.261   0.263   0.271   0.281   0.291   0.293   0.297
  0.300   0.302   0.306   0.314   0.316   0.319   0.323   0.330
  0.334   0.337   0.339   0.346   0.348   0.350   0.357   0.361
  0.363   0.366   0.374   0.374   0.379   0.381   0.387   0.388
  0.391   0.393   0.395   0.397   0.405   0.408   0.410   0.413
  0.416   0.419   0.422   0.427   0.433   0.435   0.436   0.441
  0.441   0.448   0.449   0.456   0.457   0.459   0.463   0.464
  0.465   0.469   0.478   0.481   0.483   0.484   0.489   0.490
  0.491   0.499   0.504   0.506   0.509   0.518   0.520   0.523
  0.523   0.526   0.530   0.534   0.537   0.539   0.542   0.549
  0.556   0.559   0.560   0.570   0.571   0.579   0.594   0.596
  0.604   0.606   0.608   0.612   0.617   0.621   0.627   0.635
  0.638   0.647   0.651   0.655   0.659   0.661   0.666   0.669
  0.671   0.677   0.691   0.695   0.700   0.705   0.713   0.717
  0.722   0.723   0.726   0.732   0.739   0.741   0.752   0.753
  0.756   0.759   0.766   0.770   0.775   0.779   0.783   0.784
  0.791   0.796   0.801   0.807   0.809   0.814   0.816   0.819
  0.828   0.835   0.837   0.841   0.847   0.852   0.856   0.861
  0.866   0.869   0.873   0.876   0.880   0.889   0.897   0.898
  0.902   0.911   0.921   0.922   0.926   0.932   0.934   0.936
  0.939   0.947   0.949   0.954   0.959   0.962   0.966   0.972
  0.976   0.981   0.986   0.991   1.001   1.008   1.016   1.017
  1.022   1.030   1.032   1.041   1.046   1.052   1.054   1.059
  1.069   1.069   1.075   1.082   1.085   1.086   1.091   1.094
  1.099   1.104   1.107   1.113   1.116   1.126   1.129   1.143
  1.145   1.149   1.168   1.174   1.177   1.182   1.187   1.192
  1.201   1.203   1.216   1.221   1.230   1.236   1.238   1.242
  1.254   1.255   1.261   1.265   1.275   1.282   1.295   1.303
  1.305   1.313   1.321   1.326   1.328   1.341   1.353   1.356
  1.360   1.368   1.373   1.377   1.380   1.384   1.389   1.393
  1.399   1.402   1.411   1.414   1.421   1.428   1.432   1.433
  1.442   1.445   1.453   1.454   1.459   1.466   1.478   1.484
  1.489   1.491   1.499   1.505   1.507   1.510   1.516   1.528
  1.530   1.544   1.560   1.569   1.574   1.584   1.590   1.594
  1.601   1.609   1.612   1.615   1.628   1.639   1.642   1.647
  1.653   1.662   1.664   1.674   1.675   1.676   1.682   1.689
  1.698   1.702   1.723   1.726   1.727   1.738   1.746   1.748
  1.752   1.755   1.763   1.773   1.784   1.801   1.807   1.812
  1.816   1.830   1.842   1.850   1.861   1.876   1.881   1.888
  1.897   1.900   1.905   1.913   1.916   1.934   1.941   1.944
  1.950   1.968   1.974   1.983   1.988   1.990   1.998   2.009
  2.012   2.018   2.029   2.034   2.038   2.057   2.059   2.061
  2.072   2.087   2.091   2.104   2.111   2.115   2.124   2.138
  2.146   2.153   2.160   2.171   2.174   2.180   2.185   2.194
  2.201   2.207   2.214   2.218   2.234   2.242   2.251   2.254
  2.264   2.274   2.280   2.289   2.293   2.298   2.301   2.307
  2.314   2.326   2.333   2.347   2.349   2.351   2.367   2.377
  2.379   2.389   2.395   2.402   2.409   2.418   2.420   2.434
  2.441   2.444   2.449   2.456   2.459   2.466   2.472   2.478
  2.485   2.492   2.505   2.519   2.521   2.529   2.530   2.534
  2.539   2.542   2.546   2.549   2.556   2.568   2.583   2.593
  2.597   2.610   2.620   2.628   2.629   2.638   2.646   2.655
  2.659   2.664   2.668   2.683   2.688   2.699   2.704   2.715
  2.720   2.729   2.735   2.754   2.758   2.772   2.775   2.778
  2.782   2.787   2.794   2.800   2.818   2.819   2.823   2.826
  2.830   2.839   2.843   2.847   2.853   2.860   2.868   2.871
  2.879   2.890   2.894   2.912   2.913   2.918   2.929   2.933
  2.937   2.943   2.948   2.955   2.957   2.961   2.976   2.979
  2.985   2.993   3.003   3.007   3.009   3.013   3.014   3.019
  3.025   3.031   3.039   3.047   3.051   3.055   3.060   3.061
  3.068   3.068   3.073   3.077   3.081   3.085   3.087   3.090
  3.097   3.103   3.106   3.112   3.115   3.118   3.119   3.128
  3.135   3.141   3.152   3.155   3.157   3.163   3.166   3.170
  3.172   3.176   3.188   3.192   3.193   3.197   3.204   3.206
  3.211   3.213   3.217   3.226   3.229   3.233   3.237   3.244
  3.245   3.249   3.252   3.257   3.262   3.266   3.269   3.271
  3.277   3.282   3.284   3.288   3.291   3.300   3.302   3.308
  3.309   3.316   3.320   3.325   3.327   3.331   3.335   3.338
  3.347   3.354   3.363   3.365   3.371   3.378   3.385   3.389
  3.403   3.407   3.409   3.410   3.413   3.418   3.429   3.438
  3.440   3.446   3.448   3.455   3.463   3.467   3.472   3.473
  3.484   3.486   3.495   3.501   3.508   3.512   3.519   3.522
  3.527   3.531   3.540   3.550   3.558   3.565   3.569   3.578
  3.582   3.595   3.606   3.609   3.620   3.628   3.638   3.650
  3.654   3.661   3.668   3.674   3.689   3.697   3.705   3.709
  3.715   3.719   3.728   3.735   3.738   3.740   3.755   3.758
  3.765   3.777   3.780   3.787   3.797   3.799   3.804   3.808
  3.819   3.826   3.831   3.836   3.854   3.862   3.867   3.875
  3.886   3.895   3.904   3.906   3.912   3.920   3.925   3.926
  3.933   3.936   3.939   3.947   3.950   3.961   3.963   3.973
  3.983   3.984   3.994   4.004   4.010   4.020   4.027   4.034
  4.043   4.046   4.059   4.066   4.078   4.084   4.088   4.091
  4.097   4.108   4.121   4.140   4.144   4.155   4.163   4.166
  4.182   4.188   4.191   4.198   4.205   4.214   4.219   4.226
  4.230   4.237   4.247   4.250   4.253   4.261   4.272   4.280
  4.291   4.295   4.303   4.309   4.320   4.325   4.337   4.339
  4.343   4.351   4.360   4.364   4.369   4.379   4.382   4.392
  4.397   4.412   4.422   4.428   4.437   4.438   4.444   4.457
  4.475   4.480   4.489   4.498   4.509   4.519   4.526   4.537
  4.549   4.563   4.564   4.565   4.583   4.593   4.601   4.607
  4.620   4.624   4.645   4.648   4.666   4.676   4.681   4.699
  4.712   4.723   4.726   4.745   4.755   4.765   4.769   4.784
  4.794   4.800   4.808   4.815   4.825   4.836   4.843   4.857
  4.861   4.879   4.891   4.897   4.903   4.912   4.916   4.924
  4.936   4.944   4.954   4.961   4.972   4.980   4.986   4.996
  4.998   5.006   5.011   5.023   5.027   5.032   5.041   5.048
  5.061   5.064   5.072   5.085   5.095   5.104   5.114   5.117
  5.134   5.143   5.144   5.161   5.164   5.168   5.196   5.200
  5.211   5.218   5.224   5.250   5.274   5.297   5.308   5.317
  5.325   5.345   5.350   5.373   5.377   5.386   5.405   5.428
  5.439   5.466   5.471   5.487   5.498   5.503   5.532   5.542
  5.563   5.573   5.584   5.595   5.597   5.607   5.626   5.648
  5.668   5.693   5.717   5.726   5.742   5.747   5.759   5.768
  5.801   5.831   5.833   5.854   5.876   5.883   5.891   5.904
  5.943   5.965   5.979   6.046   6.103   6.106   6.149   6.170
  6.205   6.229   6.249   6.282   6.290   6.333   6.382   6.430
  6.446   6.490   6.636   6.850   6.990   7.073   7.934   8.850
  9.803  10.187  10.634  11.114  11.260  11.717  12.044  12.062
 12.351  12.572  12.683  12.784  12.845  12.897  13.089  13.273
 13.401  13.488  13.536  13.665  14.292  14.606  15.057  15.071
 --------------------------------------------------------------
 
          Ground-State Mulliken Net Atomic Charges

     Atom                 Charge (a.u.)
  ----------------------------------------
      1 C                    -0.091645
      2 C                    -0.128684
      3 C                    -0.079398
      4 C                    -0.118591
      5 N                    -0.142828
      6 C                     0.081938
      7 C                     0.108373
      8 N                    -0.175491
      9 C                    -0.012976
     10 C                    -0.111082
     11 N                    -0.225573
     12 C                     0.042276
     13 C                     0.074040
     14 S                     0.406427
     15 N                    -0.261353
     16 C                    -0.081632
     17 S                     0.170802
     18 C                     0.037805
     19 C                    -0.057366
     20 N                    -0.134984
     21 C                     0.052385
     22 C                    -0.013340
     23 C                    -0.046278
     24 N                    -0.164369
     25 C                    -0.141227
     26 S                     0.098300
     27 C                    -0.046498
     28 C                    -0.155706
     29 C                    -0.182307
     30 H                     0.133039
     31 H                     0.119272
     32 H                     0.119141
     33 H                     0.136743
     34 H                     0.131270
     35 H                     0.126486
     36 H                     0.138145
     37 H                     0.127094
     38 H                     0.130949
     39 H                     0.136846
  ----------------------------------------
  Sum of atomic charges =     0.000000

 -----------------------------------------------------------------
                    Cartesian Multipole Moments
 -----------------------------------------------------------------
    Charge (ESU x 10^10)
                 0.0000
    Dipole Moment (Debye)
         X       0.3903      Y      -0.1341      Z      -1.0100
       Tot       1.0911
    Quadrupole Moments (Debye-Ang)
        XX    -153.3459     XY      -7.7127     YY    -167.0544
        XZ       5.5936     YZ       0.0729     ZZ    -183.7695
    Octopole Moments (Debye-Ang^2)
       XXX     -71.1865    XXY      87.6453    XYY      26.3182
       YYY     -56.4351    XXZ      -1.9986    XYZ      36.7970
       YYZ     -20.5403    XZZ     -17.4663    YZZ     -11.2145
       ZZZ       0.3325
    Hexadecapole Moments (Debye-Ang^3)
      XXXX  -16267.0661   XXXY    -246.3847   XXYY   -3436.9538
      XYYY      12.1295   YYYY   -3329.8749   XXXZ     323.2035
      XXYZ     -70.5971   XYYZ       3.5100   YYYZ      37.4860
      XXZZ   -3441.8145   XYZZ     -42.1310   YYZZ    -682.9939
      XZZZ     -40.8492   YZZZ     -19.2832   ZZZZ    -760.0066
 -----------------------------------------------------------------
 Calculating analytic gradient of the SCF energy
 K construction time:  CPU 2794.52 s  wall 177.11 s
 Gradient of SCF Energy
            1           2           3           4           5           6
    1  -0.0003793   0.0015099  -0.0004469  -0.0015512  -0.0005832   0.0017505
    2   0.0000141  -0.0007534  -0.0002455   0.0006839  -0.0003931  -0.0004395
    3   0.0001683   0.0005133  -0.0002901  -0.0000282   0.0000633   0.0003311
            7           8           9          10          11          12
    1  -0.0026363  -0.0004193   0.0004482  -0.0005997   0.0025839  -0.0020813
    2   0.0008696  -0.0029718   0.0005439   0.0075488  -0.0004474   0.0044370
    3  -0.0007759   0.0000297   0.0007453  -0.0030969   0.0003433   0.0009318
           13          14          15          16          17          18
    1   0.0066872  -0.0030068   0.0004853  -0.0080432   0.0057531   0.0009094
    2  -0.0059167  -0.0042118   0.0014399   0.0075722   0.0011457  -0.0012228
    3   0.0019403   0.0013659  -0.0049081   0.0008975   0.0014313  -0.0044813
           19          20          21          22          23          24
    1  -0.0012445   0.0007810   0.0013890  -0.0008895   0.0037551  -0.0008338
    2   0.0012254  -0.0003277  -0.0031959  -0.0019241  -0.0017493   0.0021590
    3   0.0004119   0.0055653  -0.0010032  -0.0001883  -0.0006744   0.0013554
           25          26          27          28          29          30
    1   0.0002365  -0.0000092  -0.0019909   0.0008122  -0.0008145  -0.0000042
    2  -0.0003760   0.0002971  -0.0019894   0.0002089   0.0008099   0.0000207
    3   0.0001624  -0.0002447  -0.0017673  -0.0000392   0.0000200  -0.0003009
           31          32          33          34          35          36
    1  -0.0003370   0.0001968   0.0002526  -0.0016317  -0.0003335  -0.0002784
    2   0.0005091   0.0002801  -0.0001132  -0.0030739  -0.0000092   0.0004830
    3  -0.0002498   0.0000547  -0.0000514   0.0016898   0.0001552  -0.0001880
           37          38          39
    1   0.0002464  -0.0001397   0.0004568
    2  -0.0000378  -0.0005880  -0.0002617
    3   0.0000177   0.0002175  -0.0001231
 Max gradient component =       8.043E-03
 RMS gradient           =       2.179E-03
 Gradient time:  CPU 3249.68 s  wall 208.01 s
 Geometry Optimization Parameters
   NAtoms,    NIC,     NZ,  NCons,   NDum,   NFix, NCnnct, MaxDiis
       39     293       0       3       0       0       0       0


** CONSTRAINED OPTIMIZATION IN DELOCALIZED INTERNAL COORDINATES **
   Searching for a Minimum

   Optimization Cycle:   1

                       Coordinates (Angstroms)
     ATOM                X               Y               Z
      1  C        -7.4704294910    1.6150166060   -0.2478913378
      2  C        -6.5963032319    2.2912953779   -1.0831697195
      3  C        -6.9496391254    0.6545964373    0.6043650741
      4  C        -5.2536725508    1.9774563598   -1.0391744357
      5  N        -5.6616827196    0.3397172071    0.6550236521
      6  C        -4.8274857084    0.9860835224   -0.1565593608
      7  C        -3.3871083644    0.6337029607   -0.0990898456
      8  N        -2.5361393391    1.5250162132   -0.5272256778
      9  C        -2.8924055094   -0.6248500527    0.3781681284
     10  C        -1.1995743764    1.3018922417   -0.5236372807
     11  N        -3.5920605795   -1.6803358115    0.7997612665
     12  C        -1.4780175640   -0.8508477102    0.3885823136
     13  C        -0.5811120804    0.1540002665   -0.0859566392
     14  S        -2.5256682787   -2.8132853441    1.1848982970
     15  N        -1.1443506160   -2.0584097299    0.8393535016
     16  C         0.8614781838   -0.0275760355   -0.1370968770
     17  S         1.9697878438    1.1905248167    0.3575666753
     18  C         1.5863317768   -1.1452155017   -0.5516448410
     19  C         3.3711912895    0.2843458995    0.0059670579
     20  N         1.0594916532   -2.3179872693   -1.0026660279
     21  C         3.0037297184   -0.9696841322   -0.4670924006
     22  C         4.7030479382    0.8053111637    0.2160519742
     23  C         1.9158029104   -3.2304519945   -1.3440772612
     24  N         3.8725612776   -1.9496150509   -0.8346121934
     25  C         5.8598898975    0.1007861515    0.4070605183
     26  S         5.0203177914    2.5104652929    0.2432122173
     27  C         3.3302751339   -3.0482911735   -1.2620697462
     28  C         6.9915440331    0.9315597940    0.5871705944
     29  C         6.6891194288    2.2556339704    0.5296820185
     30  H        -8.5305224466    1.8251828926   -0.2550787118
     31  H        -6.9583252253    3.0524098459   -1.7623521776
     32  H        -7.5964411207    0.1104880604    1.2822641829
     33  H        -4.5294020292    2.4773517320   -1.6637817465
     34  H        -0.6020089535    2.1063034336   -0.9205933649
     35  H         1.5190116004   -4.1710234534   -1.7112934313
     36  H         5.8816760257   -0.9759353691    0.4068083219
     37  H         3.9949261918   -3.8506750041   -1.5632806690
     38  H         7.9875819361    0.5524025966    0.7580190649
     39  H         7.3577947314    3.0929351986    0.6334842436
   Point Group: c1    Number of degrees of freedom:   111


   Energy is  -2291.145042578

              Constraints and their Current Values
                                        Value     Constraint
   Dihedral:        4   6   7   8       21.915       21.822
   Dihedral:       10  13  16  17       45.001       45.000
   Dihedral:       17  19  22  25      156.426      156.395

 Attempting to Generate Delocalized Internal Coordinates

   Using Lagrange Multiplier Algorithm


114 Hessian modes will be used to form the next step
  Hessian Eigenvalues:
    -0.977753   -0.977753   -0.977753    0.045000    0.045000    0.045000
     0.045000    0.045000    0.045000    0.045000    0.045000    0.045000
     0.045000    0.045000    0.045000    0.045000    0.045001    0.045001
     0.045001    0.045001    0.045001    0.045001    0.045001    0.045002
     0.045002    0.045002    0.045002    0.045003    0.045003    0.045004
     0.045004    0.045007    0.045008    0.045011    0.045025    0.045042
     0.159985    0.159992    0.159996    0.159998    0.159999    0.159999
     0.160000    0.160000    0.160000    0.160000    0.219998    0.221296
     0.223765    0.224234    0.233056    0.237961    0.243336    0.244277
     0.249685    0.249909    0.249932    0.249960    0.249971    0.249981
     0.249981    0.249983    0.249989    0.249990    0.249993    0.249993
     0.249995    0.312587    0.327539    0.334461    0.341192    0.341262
     0.354110    0.354468    0.355757    0.357029    0.359040    0.360705
     0.360954    0.362567    0.363664    0.364135    0.369052    0.372791
     0.376138    0.388446    0.390986    0.406991    0.407225    0.418674
     0.432515    0.440852    0.460521    0.465844    0.471161    0.473690
     0.482787    0.484038    0.485870    0.485956    0.504394    0.517471
     0.518981    0.525383    0.557629    0.572590    0.582389    0.589743
     0.639523    0.655132    0.663891    1.022753    1.022753    1.022753

 Minimum Search - Taking P-RFO Step
 Searching for Lamda that Maximizes Along the Constraint modes Only
 Value Taken    Lamda =   0.00001412
 Searching for Lamda that Minimizes Along All other modes
 Value Taken    Lamda =  -0.00308271
 Step Taken.  Stepsize is  0.199507

                             Maximum     Tolerance    Cnvgd?
         Gradient            0.010719       0.000300      NO
         Displacement        0.090144       0.001200      NO
         Energy change     *********       0.000001      NO


 New Cartesian Coordinates Obtained by Inverse Iteration

 Displacement from previous Coordinates is:  1.309026
 ----------------------------------------------------------------
             Standard Nuclear Orientation (Angstroms)
    I     Atom           X                Y                Z
 ----------------------------------------------------------------
    1      C      -7.4234732166     1.7108394400    -0.2162861223
    2      C      -6.5470981367     2.3332031016    -1.0903246734
    3      C      -6.9156781514     0.7604067922     0.6547437660
    4      C      -5.2131987771     1.9780521173    -1.0628070556
    5      N      -5.6380270997     0.4055958281     0.6884838301
    6      C      -4.8022686450     0.9993383965    -0.1597110716
    7      C      -3.3714695065     0.6059298455    -0.1094773028
    8      N      -2.5038397205     1.4614798651    -0.5744054105
    9      C      -2.9124043527    -0.6509830877     0.4078118048
   10      C      -1.1779671865     1.1918467902    -0.5715031631
   11      N      -3.6450663855    -1.6579160793     0.8856022456
   12      C      -1.5045922305    -0.9252213874     0.4165262551
   13      C      -0.5942165953     0.0408475743    -0.1108120492
   14      S      -2.6024949854    -2.7898578321     1.3343483445
   15      N      -1.1980969479    -2.1052691407     0.9517594021
   16      C       0.8486047875    -0.1470874845    -0.1543868510
   17      S       1.9087331464     1.1036967288     0.3384247879
   18      C       1.5977784531    -1.2336555691    -0.5836557466
   19      C       3.3413583744     0.2417854448     0.0018954961
   20      N       1.0963778575    -2.3909461066    -1.0987302142
   21      C       3.0101008896    -1.0177188873    -0.4846419987
   22      C       4.6526570152     0.8101675644     0.2281362076
   23      C       1.9780556877    -3.2714832700    -1.4509777411
   24      N       3.9057958248    -1.9684539065    -0.8672719144
   25      C       5.8325323675     0.1491571699     0.4342690736
   26      S       4.9032326683     2.5254511363     0.2677582294
   27      C       3.3891779293    -3.0645178998    -1.3287438475
   28      C       6.9285651414     1.0228288680     0.6304941687
   29      C       6.5764722776     2.3339835424     0.5741373061
   30      H      -8.4763697574     1.9543542106    -0.2064934363
   31      H      -6.8981997372     3.0840067927    -1.7850705690
   32      H      -7.5656762338     0.2565770276     1.3606659956
   33      H      -4.4870405024     2.4374046788    -1.7153618723
   34      H      -0.5568757204     1.9708690467    -0.9970129415
   35      H       1.6115759694    -4.2066378143    -1.8607329286
   36      H       5.8974377655    -0.9265325261     0.4330858860
   37      H       4.0732114760    -3.8447456072    -1.6435352437
   38      H       7.9375203822     0.6856576254     0.8121869593
   39      H       7.2080759263     3.1978414200     0.6907077521
 ----------------------------------------------------------------
 Molecular Point Group                 C1    NOp =  1
 Largest Abelian Subgroup              C1    NOp =  1
 Nuclear Repulsion Energy =  2925.7559053190 hartrees
 There are      110 alpha and      110 beta electrons
 Applying Cartesian multipole field
    Component          Value
    ---------          -----
     (2,0,0)        1.00000E-12
     (0,2,0)        2.00000E-11
     (0,0,2)       -3.00000E-11
 Nucleus-field energy     =     0.0000000515 hartrees
 Requested basis set is cc-pVTZ
 There are 356 shells and 1022 basis functions
 A cutoff of  1.0D-11 yielded  30973 shell pairs
 There are    244317 function pairs (    318898 Cartesian)
 Smallest overlap matrix eigenvalue = 2.95E-05
 Guess MOs from SCF MO coefficient file
 Reading MOs from coefficient file
 Reading MOs from coefficient file
 Long-range K will be added via erf
 Coulomb attenuation parameter = 0.2 bohr**(-1)
 A restricted hybrid HF-DFT SCF calculation will be
 performed using Pulay DIIS extrapolation
 Exchange:     0.2220 Hartree-Fock + 1.0000 wB97X-D + LR-HF
 Correlation:  1.0000 wB97X-D
 Using SG-2 standard quadrature grid
 Dispersion:   Grimme D
 SCF converges when DIIS error is below 1.0E-08
 Geometry optimization detected.  Setting ReadMinima to 0
 Setting SaveMinima to 0
 using 16 threads for integral computing 
 using 16 threads for integral computing 
 K construction time:  CPU 1108.83 s  wall 73.30 s
 -------------------------------------------------------
 OpenMP BLAS3 based DFT computing Module                
 Release: version 1.0, May 2013, Q-Chem Inc. Pittsburgh 
 -------------------------------------------------------
 ---------------------------------------
  Cycle       Energy         DIIS Error
 ---------------------------------------
    1   -2291.1252824864      6.92E-04
 K construction time:  CPU 1114.74 s  wall 73.68 s
    2   -2291.1447678398      7.51E-05
 K construction time:  CPU 883.80 s  wall 58.48 s
    3   -2291.1456713551      7.46E-05
 K construction time:  CPU 830.96 s  wall 54.99 s
    4   -2291.1462797512      2.86E-05
 K construction time:  CPU 786.66 s  wall 52.09 s
    5   -2291.1463942616      1.16E-05
 K construction time:  CPU 735.82 s  wall 48.83 s
    6   -2291.1464136398      3.91E-06
 K construction time:  CPU 670.09 s  wall 44.30 s
    7   -2291.1464160880      1.33E-06
 K construction time:  CPU 618.61 s  wall 40.89 s
    8   -2291.1464164877      6.18E-07
 K construction time:  CPU 574.21 s  wall 37.98 s
    9   -2291.1464165748      2.53E-07
 K construction time:  CPU 515.10 s  wall 33.90 s
   10   -2291.1464165906      1.31E-07
 K construction time:  CPU 469.39 s  wall 30.92 s
   11   -2291.1464165955      4.72E-08
 K construction time:  CPU 437.12 s  wall 28.69 s
   12   -2291.1464165957      2.20E-08
 K construction time:  CPU 366.65 s  wall 24.10 s
   13   -2291.1464165988      9.61E-09 Convergence criterion met
 ---------------------------------------
 SCF time:  CPU 12234.73 s  wall 829.78 s
 SCF   energy in the final basis set = -2291.1464165988
 Total energy in the final basis set = -2291.1464165988
 
 --------------------------------------------------------------
 
                    Orbital Energies (a.u.)
 --------------------------------------------------------------
 
 Alpha MOs
 -- Occupied --
-89.142 -89.102 -89.080 -14.479 -14.475 -14.460 -14.457 -14.447
-14.435 -10.355 -10.353 -10.349 -10.346 -10.342 -10.341 -10.341
-10.339 -10.338 -10.337 -10.336 -10.335 -10.331 -10.324 -10.320
-10.310 -10.302 -10.299 -10.296 -10.294  -8.153  -8.117  -8.096
 -6.103  -6.097  -6.097  -6.066  -6.062  -6.061  -6.045  -6.041
 -6.039  -1.140  -1.099  -1.071  -1.050  -1.027  -1.013  -1.002
 -0.988  -0.926  -0.913  -0.896  -0.879  -0.870  -0.852  -0.839
 -0.813  -0.777  -0.770  -0.746  -0.738  -0.729  -0.721  -0.709
 -0.671  -0.655  -0.647  -0.629  -0.629  -0.623  -0.606  -0.601
 -0.589  -0.576  -0.567  -0.563  -0.558  -0.546  -0.543  -0.527
 -0.512  -0.506  -0.502  -0.502  -0.494  -0.492  -0.487  -0.481
 -0.472  -0.467  -0.462  -0.458  -0.450  -0.438  -0.428  -0.427
 -0.420  -0.410  -0.392  -0.375  -0.370  -0.362  -0.357  -0.352
 -0.344  -0.338  -0.335  -0.333  -0.319  -0.269
 -- Virtual --
 -0.047  -0.028   0.027   0.032   0.041   0.050   0.067   0.075
  0.089   0.091   0.102   0.123   0.125   0.129   0.130   0.137
  0.145   0.149   0.153   0.160   0.165   0.174   0.178   0.189
  0.195   0.200   0.208   0.216   0.220   0.224   0.243   0.246
  0.257   0.260   0.263   0.271   0.280   0.290   0.292   0.296
  0.300   0.302   0.307   0.314   0.316   0.320   0.324   0.330
  0.333   0.337   0.340   0.344   0.348   0.350   0.358   0.360
  0.363   0.366   0.374   0.374   0.378   0.381   0.387   0.388
  0.392   0.392   0.396   0.396   0.404   0.409   0.410   0.413
  0.417   0.419   0.422   0.426   0.433   0.435   0.438   0.441
  0.441   0.446   0.449   0.456   0.457   0.459   0.462   0.463
  0.464   0.469   0.478   0.482   0.482   0.483   0.490   0.490
  0.492   0.499   0.505   0.505   0.508   0.516   0.519   0.521
  0.523   0.526   0.529   0.535   0.536   0.538   0.542   0.546
  0.555   0.558   0.560   0.570   0.571   0.579   0.594   0.595
  0.603   0.607   0.608   0.612   0.615   0.622   0.627   0.635
  0.637   0.644   0.649   0.652   0.658   0.661   0.667   0.668
  0.672   0.678   0.690   0.696   0.700   0.706   0.713   0.715
  0.721   0.724   0.726   0.732   0.739   0.743   0.752   0.753
  0.755   0.762   0.766   0.767   0.775   0.780   0.783   0.786
  0.790   0.794   0.799   0.807   0.809   0.813   0.818   0.820
  0.828   0.834   0.835   0.842   0.846   0.851   0.854   0.862
  0.865   0.866   0.872   0.873   0.878   0.889   0.895   0.898
  0.901   0.909   0.920   0.920   0.926   0.931   0.934   0.937
  0.938   0.943   0.948   0.955   0.959   0.962   0.967   0.971
  0.977   0.981   0.986   0.990   1.001   1.005   1.014   1.016
  1.019   1.027   1.030   1.035   1.045   1.050   1.054   1.059
  1.062   1.071   1.075   1.076   1.083   1.088   1.091   1.095
  1.099   1.104   1.106   1.114   1.118   1.125   1.130   1.142
  1.146   1.150   1.167   1.172   1.174   1.182   1.187   1.195
  1.202   1.209   1.214   1.220   1.225   1.234   1.238   1.247
  1.252   1.253   1.262   1.264   1.275   1.281   1.295   1.302
  1.303   1.312   1.321   1.326   1.328   1.341   1.352   1.355
  1.359   1.364   1.372   1.376   1.380   1.385   1.389   1.392
  1.395   1.401   1.410   1.412   1.421   1.427   1.431   1.432
  1.441   1.447   1.452   1.453   1.460   1.471   1.477   1.483
  1.485   1.491   1.499   1.504   1.507   1.510   1.515   1.527
  1.533   1.548   1.563   1.568   1.575   1.585   1.591   1.594
  1.601   1.610   1.611   1.614   1.628   1.637   1.643   1.646
  1.653   1.662   1.664   1.673   1.674   1.678   1.684   1.690
  1.699   1.703   1.720   1.724   1.728   1.738   1.744   1.750
  1.753   1.757   1.763   1.775   1.787   1.803   1.810   1.810
  1.817   1.827   1.845   1.852   1.863   1.879   1.880   1.889
  1.897   1.899   1.905   1.913   1.915   1.933   1.941   1.945
  1.951   1.968   1.975   1.983   1.989   1.994   1.996   2.009
  2.013   2.018   2.031   2.035   2.039   2.052   2.057   2.062
  2.072   2.087   2.090   2.103   2.110   2.117   2.125   2.134
  2.145   2.147   2.154   2.170   2.174   2.179   2.183   2.192
  2.200   2.205   2.213   2.221   2.235   2.241   2.248   2.254
  2.264   2.274   2.280   2.288   2.290   2.297   2.300   2.302
  2.313   2.323   2.331   2.345   2.349   2.352   2.369   2.371
  2.377   2.390   2.395   2.400   2.408   2.417   2.419   2.431
  2.438   2.446   2.448   2.455   2.459   2.467   2.471   2.478
  2.487   2.492   2.512   2.516   2.524   2.527   2.530   2.534
  2.540   2.543   2.547   2.548   2.554   2.568   2.582   2.588
  2.600   2.610   2.620   2.628   2.629   2.641   2.644   2.656
  2.658   2.664   2.669   2.681   2.686   2.697   2.705   2.716
  2.721   2.729   2.730   2.754   2.756   2.771   2.775   2.777
  2.781   2.787   2.792   2.799   2.815   2.819   2.821   2.822
  2.828   2.835   2.841   2.851   2.854   2.862   2.869   2.873
  2.879   2.890   2.895   2.911   2.912   2.918   2.926   2.932
  2.939   2.940   2.945   2.956   2.960   2.962   2.975   2.977
  2.983   2.994   3.003   3.006   3.009   3.011   3.014   3.020
  3.025   3.032   3.038   3.046   3.050   3.057   3.059   3.064
  3.067   3.069   3.072   3.078   3.080   3.085   3.088   3.090
  3.097   3.105   3.107   3.111   3.116   3.119   3.122   3.126
  3.135   3.139   3.153   3.156   3.158   3.164   3.166   3.169
  3.173   3.176   3.190   3.192   3.194   3.197   3.205   3.207
  3.210   3.213   3.217   3.224   3.229   3.231   3.236   3.243
  3.246   3.249   3.252   3.260   3.262   3.267   3.269   3.273
  3.276   3.279   3.283   3.289   3.293   3.299   3.301   3.307
  3.310   3.315   3.320   3.325   3.327   3.331   3.335   3.341
  3.349   3.355   3.361   3.365   3.367   3.377   3.383   3.391
  3.402   3.405   3.410   3.411   3.414   3.418   3.429   3.437
  3.438   3.447   3.448   3.454   3.461   3.467   3.471   3.474
  3.483   3.485   3.496   3.501   3.505   3.510   3.519   3.522
  3.527   3.533   3.538   3.546   3.559   3.564   3.569   3.578
  3.582   3.597   3.608   3.610   3.617   3.629   3.637   3.649
  3.651   3.661   3.667   3.675   3.688   3.695   3.705   3.709
  3.716   3.718   3.727   3.736   3.737   3.739   3.754   3.757
  3.765   3.777   3.781   3.786   3.796   3.801   3.805   3.809
  3.818   3.826   3.829   3.835   3.854   3.860   3.867   3.875
  3.885   3.894   3.903   3.906   3.912   3.920   3.925   3.928
  3.932   3.936   3.939   3.946   3.950   3.961   3.965   3.970
  3.984   3.988   3.994   4.003   4.008   4.017   4.025   4.034
  4.043   4.045   4.060   4.065   4.077   4.083   4.087   4.092
  4.101   4.111   4.118   4.139   4.148   4.158   4.163   4.166
  4.181   4.188   4.192   4.197   4.204   4.212   4.215   4.226
  4.229   4.234   4.249   4.252   4.254   4.258   4.272   4.276
  4.291   4.294   4.302   4.309   4.320   4.327   4.333   4.337
  4.344   4.354   4.360   4.363   4.369   4.381   4.385   4.392
  4.396   4.412   4.419   4.433   4.437   4.439   4.445   4.457
  4.475   4.481   4.488   4.497   4.512   4.520   4.527   4.538
  4.547   4.559   4.561   4.568   4.581   4.591   4.601   4.607
  4.621   4.628   4.645   4.648   4.666   4.678   4.685   4.702
  4.712   4.723   4.730   4.743   4.755   4.766   4.769   4.785
  4.794   4.800   4.807   4.813   4.826   4.837   4.844   4.856
  4.860   4.878   4.889   4.897   4.908   4.914   4.914   4.925
  4.936   4.943   4.952   4.960   4.975   4.977   4.989   4.994
  4.999   5.004   5.010   5.013   5.024   5.030   5.041   5.049
  5.058   5.063   5.070   5.080   5.091   5.103   5.114   5.118
  5.134   5.142   5.145   5.160   5.164   5.168   5.197   5.198
  5.210   5.220   5.223   5.253   5.274   5.294   5.310   5.315
  5.326   5.348   5.351   5.367   5.376   5.384   5.407   5.430
  5.439   5.466   5.471   5.487   5.499   5.502   5.529   5.541
  5.562   5.572   5.584   5.592   5.598   5.609   5.626   5.646
  5.666   5.692   5.715   5.726   5.740   5.744   5.760   5.767
  5.802   5.831   5.834   5.852   5.870   5.881   5.891   5.906
  5.944   5.966   5.977   6.045   6.094   6.108   6.152   6.166
  6.205   6.230   6.248   6.277   6.291   6.333   6.384   6.430
  6.448   6.494   6.644   6.851   6.986   7.073   7.955   8.856
  9.811  10.170  10.629  11.113  11.246  11.707  12.030  12.050
 12.348  12.590  12.681  12.792  12.859  12.901  13.062  13.283
 13.404  13.515  13.547  13.717  14.285  14.653  15.069  15.080
 --------------------------------------------------------------
 
          Ground-State Mulliken Net Atomic Charges

     Atom                 Charge (a.u.)
  ----------------------------------------
      1 C                    -0.091399
      2 C                    -0.128216
      3 C                    -0.080502
      4 C                    -0.119427
      5 N                    -0.143296
      6 C                     0.083712
      7 C                     0.109422
      8 N                    -0.174347
      9 C                    -0.013526
     10 C                    -0.114575
     11 N                    -0.222188
     12 C                     0.041655
     13 C                     0.074074
     14 S                     0.406084
     15 N                    -0.260931
     16 C                    -0.079649
     17 S                     0.169687
     18 C                     0.040143
     19 C                    -0.057403
     20 N                    -0.136438
     21 C                     0.046329
     22 C                    -0.014103
     23 C                    -0.046157
     24 N                    -0.162344
     25 C                    -0.140738
     26 S                     0.097923
     27 C                    -0.047358
     28 C                    -0.155435
     29 C                    -0.182139
     30 H                     0.133014
     31 H                     0.119498
     32 H                     0.119476
     33 H                     0.137002
     34 H                     0.131645
     35 H                     0.128263
     36 H                     0.137297
     37 H                     0.127194
     38 H                     0.130889
     39 H                     0.136861
  ----------------------------------------
  Sum of atomic charges =     0.000000

 -----------------------------------------------------------------
                    Cartesian Multipole Moments
 -----------------------------------------------------------------
    Charge (ESU x 10^10)
                 0.0000
    Dipole Moment (Debye)
         X       0.2945      Y      -0.0105      Z      -1.0089
       Tot       1.0511
    Quadrupole Moments (Debye-Ang)
        XX    -153.3788     XY      -7.9130     YY    -167.3467
        XZ       5.1481     YZ       0.3173     ZZ    -183.2766
    Octopole Moments (Debye-Ang^2)
       XXX     -64.7680    XXY      92.2711    XYY      29.6130
       YYY     -46.1745    XXZ      -0.9298    XYZ      39.1318
       YYZ     -22.8143    XZZ     -14.4119    YZZ     -10.1671
       ZZZ      -5.2266
    Hexadecapole Moments (Debye-Ang^3)
      XXXX  -16151.7749   XXXY    -245.0095   XXYY   -3382.7606
      XYYY      43.9433   YYYY   -3383.1590   XXXZ     351.6437
      XXYZ     -57.6403   XYYZ      12.8649   YYYZ      40.8865
      XXZZ   -3398.8817   XYZZ     -34.5592   YYZZ    -697.6203
      XZZZ      -2.7507   YZZZ     -24.1249   ZZZZ    -841.4020
 -----------------------------------------------------------------
 Calculating analytic gradient of the SCF energy
 K construction time:  CPU 2770.81 s  wall 175.69 s
 Gradient of SCF Energy
            1           2           3           4           5           6
    1  -0.0000450   0.0003652  -0.0000614  -0.0002608   0.0002633   0.0003745
    2  -0.0001585   0.0000978   0.0000896   0.0005683  -0.0003572  -0.0004617
    3   0.0002057  -0.0001270  -0.0000865   0.0001135  -0.0000743  -0.0004087
            7           8           9          10          11          12
    1  -0.0002817   0.0006473  -0.0008894  -0.0011207  -0.0011378  -0.0015510
    2   0.0007238  -0.0014514  -0.0012470   0.0012963   0.0007433  -0.0020664
    3   0.0001053  -0.0008577   0.0028911   0.0013409  -0.0008828   0.0001640
           13          14          15          16          17          18
    1   0.0033736   0.0000941   0.0004312  -0.0032466   0.0019965   0.0002084
    2  -0.0018601   0.0024648   0.0000836   0.0030847   0.0000098  -0.0019808
    3  -0.0001660  -0.0015337   0.0008429   0.0007489  -0.0016454  -0.0020757
           19          20          21          22          23          24
    1  -0.0006102   0.0019504   0.0000375  -0.0003822   0.0011867  -0.0004630
    2   0.0010953  -0.0000370  -0.0022084  -0.0003270   0.0004593   0.0014255
    3   0.0009231   0.0002628  -0.0004531  -0.0002463  -0.0001781   0.0003601
           25          26          27          28          29          30
    1   0.0004753   0.0003196  -0.0012887   0.0002050  -0.0005158   0.0000159
    2  -0.0000730   0.0002747  -0.0008026   0.0003466   0.0000665  -0.0000737
    3   0.0007024   0.0000542  -0.0001696  -0.0002233  -0.0001313  -0.0001682
           31          32          33          34          35          36
    1  -0.0000607   0.0000888   0.0000333  -0.0000702  -0.0002142  -0.0001055
    2   0.0000551  -0.0000356   0.0000426   0.0002023  -0.0000754   0.0001437
    3   0.0000420   0.0000304   0.0000716   0.0003019   0.0003448  -0.0000771
           37          38          39
    1   0.0002061  -0.0001299   0.0001621
    2   0.0003090  -0.0002592  -0.0001077
    3  -0.0000961   0.0000787   0.0000165
 Max gradient component =       3.374E-03
 RMS gradient           =       9.694E-04
 Gradient time:  CPU 3223.60 s  wall 206.55 s
 Geometry Optimization Parameters
   NAtoms,    NIC,     NZ,  NCons,   NDum,   NFix, NCnnct, MaxDiis
       39     293       0       3       0       0       0       0

 Cartesian Hessian Update
 Hessian Updated using BFGS Update


** CONSTRAINED OPTIMIZATION IN DELOCALIZED INTERNAL COORDINATES **
   Searching for a Minimum

   Optimization Cycle:   2

                       Coordinates (Angstroms)
     ATOM                X               Y               Z
      1  C        -7.4234732166    1.7108394400   -0.2162861223
      2  C        -6.5470981367    2.3332031016   -1.0903246734
      3  C        -6.9156781514    0.7604067922    0.6547437660
      4  C        -5.2131987771    1.9780521173   -1.0628070556
      5  N        -5.6380270997    0.4055958281    0.6884838301
      6  C        -4.8022686450    0.9993383965   -0.1597110716
      7  C        -3.3714695065    0.6059298455   -0.1094773028
      8  N        -2.5038397205    1.4614798651   -0.5744054105
      9  C        -2.9124043527   -0.6509830877    0.4078118048
     10  C        -1.1779671865    1.1918467902   -0.5715031631
     11  N        -3.6450663855   -1.6579160793    0.8856022456
     12  C        -1.5045922305   -0.9252213874    0.4165262551
     13  C        -0.5942165953    0.0408475743   -0.1108120492
     14  S        -2.6024949854   -2.7898578321    1.3343483445
     15  N        -1.1980969479   -2.1052691407    0.9517594021
     16  C         0.8486047875   -0.1470874845   -0.1543868510
     17  S         1.9087331464    1.1036967288    0.3384247879
     18  C         1.5977784531   -1.2336555691   -0.5836557466
     19  C         3.3413583744    0.2417854448    0.0018954961
     20  N         1.0963778575   -2.3909461066   -1.0987302142
     21  C         3.0101008896   -1.0177188873   -0.4846419987
     22  C         4.6526570152    0.8101675644    0.2281362076
     23  C         1.9780556877   -3.2714832700   -1.4509777411
     24  N         3.9057958248   -1.9684539065   -0.8672719144
     25  C         5.8325323675    0.1491571699    0.4342690736
     26  S         4.9032326683    2.5254511363    0.2677582294
     27  C         3.3891779293   -3.0645178998   -1.3287438475
     28  C         6.9285651414    1.0228288680    0.6304941687
     29  C         6.5764722776    2.3339835424    0.5741373061
     30  H        -8.4763697574    1.9543542106   -0.2064934363
     31  H        -6.8981997372    3.0840067927   -1.7850705690
     32  H        -7.5656762338    0.2565770276    1.3606659956
     33  H        -4.4870405024    2.4374046788   -1.7153618723
     34  H        -0.5568757204    1.9708690467   -0.9970129415
     35  H         1.6115759694   -4.2066378143   -1.8607329286
     36  H         5.8974377655   -0.9265325261    0.4330858860
     37  H         4.0732114760   -3.8447456072   -1.6435352437
     38  H         7.9375203822    0.6856576254    0.8121869593
     39  H         7.2080759263    3.1978414200    0.6907077521
   Point Group: c1    Number of degrees of freedom:   111


   Energy is  -2291.146416599

              Constraints and their Current Values
                                        Value     Constraint
   Dihedral:        4   6   7   8       21.822       21.822
   Dihedral:       10  13  16  17       45.000       45.000
   Dihedral:       17  19  22  25      156.395      156.395
 Hessian Updated using BFGS Update

   Using Lagrange Multiplier Algorithm


112 Hessian modes will be used to form the next step
  Hessian Eigenvalues:
    -0.977753   -0.977471    0.038289    0.045000    0.045000    0.045000
     0.045000    0.045000    0.045000    0.045000    0.045000    0.045000
     0.045000    0.045000    0.045000    0.045001    0.045001    0.045001
     0.045001    0.045001    0.045001    0.045001    0.045002    0.045002
     0.045002    0.045002    0.045003    0.045004    0.045004    0.045005
     0.045008    0.045010    0.045021    0.045031    0.049320    0.159260
     0.159992    0.159995    0.159996    0.159999    0.159999    0.160000
     0.160000    0.160000    0.160094    0.219996    0.221125    0.222566
     0.224233    0.229465    0.233698    0.237996    0.244231    0.244289
     0.249685    0.249937    0.249957    0.249963    0.249974    0.249981
     0.249983    0.249989    0.249993    0.249993    0.249995    0.306883
     0.312849    0.324233    0.334500    0.341192    0.344531    0.354110
     0.354479    0.355755    0.357010    0.359040    0.360706    0.360953
     0.361787    0.363652    0.364135    0.372256    0.375959    0.377615
     0.388266    0.397273    0.406228    0.413774    0.418742    0.432504
     0.434488    0.460448    0.462968    0.471595    0.473662    0.482756
     0.483258    0.485902    0.486954    0.504359    0.517778    0.518977
     0.527346    0.558968    0.572689    0.586230    0.589746    0.640320
     0.655230    0.664428    1.022753    1.023224

 Minimum Search - Taking P-RFO Step
 Searching for Lamda that Maximizes Along the Constraint modes Only
 Value Taken    Lamda =   0.00000106
 Searching for Lamda that Minimizes Along All other modes
 Value Taken    Lamda =  -0.00045097
 Step Taken.  Stepsize is  0.064570

                             Maximum     Tolerance    Cnvgd?
         Gradient            0.005106       0.000300      NO
         Displacement        0.026636       0.001200      NO
         Energy change     -0.001374       0.000001      NO


 New Cartesian Coordinates Obtained by Inverse Iteration

 Displacement from previous Coordinates is:  0.276904
 ----------------------------------------------------------------
             Standard Nuclear Orientation (Angstroms)
    I     Atom           X                Y                Z
 ----------------------------------------------------------------
    1      C      -7.4208553424     1.7100851729    -0.1938748806
    2      C      -6.5548279234     2.3245298779    -1.0833826938
    3      C      -6.9038254354     0.7627075222     0.6750368343
    4      C      -5.2210563290     1.9664807101    -1.0712631945
    5      N      -5.6267467803     0.4047633685     0.6932631598
    6      C      -4.8005331221     0.9913776023    -0.1692045569
    7      C      -3.3670382765     0.6019684165    -0.1307278012
    8      N      -2.5069175541     1.4607256521    -0.6062924880
    9      C      -2.8986154206    -0.6520857678     0.3868896142
   10      C      -1.1790071445     1.1958231608    -0.6088760643
   11      N      -3.6175575972    -1.6619552880     0.8832033656
   12      C      -1.4910924764    -0.9163562944     0.3939290387
   13      C      -0.5922705839     0.0515893657    -0.1394783903
   14      S      -2.5667067750    -2.7839247935     1.3412167313
   15      N      -1.1727499511    -2.0893841796     0.9394353864
   16      C       0.8510443779    -0.1403383383    -0.1629726186
   17      S       1.9062503085     1.1081451976     0.3382162655
   18      C       1.5949837844    -1.2278035842    -0.5820574141
   19      C       3.3404030204     0.2421850981     0.0059123071
   20      N       1.0824436617    -2.3767393423    -1.1063258999
   21      C       3.0074420742    -1.0174640487    -0.4776704603
   22      C       4.6521484321     0.8086188181     0.2351172673
   23      C       1.9595768850    -3.2633634916    -1.4538103740
   24      N       3.8979428026    -1.9768626703    -0.8554550924
   25      C       5.8301106913     0.1458516892     0.4450424487
   26      S       4.9037138765     2.5230491695     0.2760998410
   27      C       3.3732569103    -3.0678309037    -1.3194816243
   28      C       6.9261534491     1.0185426637     0.6465241572
   29      C       6.5756507692     2.3300555726     0.5895965725
   30      H      -8.4726901727     1.9573372566    -0.1695117509
   31      H      -6.9126201806     3.0724369962    -1.7775683962
   32      H      -7.5459829569     0.2648254054     1.3923705759
   33      H      -4.5027178964     2.4214773183    -1.7353793550
   34      H      -0.5610974421     1.9743063277    -1.0419845324
   35      H       1.5906070247    -4.1936726368    -1.8722042967
   36      H       5.8946045101    -0.9301733985     0.4444214164
   37      H       4.0506937465    -3.8554653902    -1.6302572932
   38      H       7.9349349373     0.6825627364     0.8314554447
   39      H       7.2061581500     3.1942694377     0.7091441083
 ----------------------------------------------------------------
 Molecular Point Group                 C1    NOp =  1
 Largest Abelian Subgroup              C1    NOp =  1
 Nuclear Repulsion Energy =  2927.6990937641 hartrees
 There are      110 alpha and      110 beta electrons
 Applying Cartesian multipole field
    Component          Value
    ---------          -----
     (2,0,0)        1.00000E-12
     (0,2,0)        2.00000E-11
     (0,0,2)       -3.00000E-11
 Nucleus-field energy     =     0.0000000511 hartrees
 Requested basis set is cc-pVTZ
 There are 356 shells and 1022 basis functions
 A cutoff of  1.0D-11 yielded  30992 shell pairs
 There are    244534 function pairs (    319188 Cartesian)
 Smallest overlap matrix eigenvalue = 2.95E-05
 Guess MOs from SCF MO coefficient file
 Reading MOs from coefficient file
 Reading MOs from coefficient file
 Long-range K will be added via erf
 Coulomb attenuation parameter = 0.2 bohr**(-1)
 A restricted hybrid HF-DFT SCF calculation will be
 performed using Pulay DIIS extrapolation
 Exchange:     0.2220 Hartree-Fock + 1.0000 wB97X-D + LR-HF
 Correlation:  1.0000 wB97X-D
 Using SG-2 standard quadrature grid
 Dispersion:   Grimme D
 SCF converges when DIIS error is below 1.0E-08
 Geometry optimization detected.  Setting ReadMinima to 0
 Setting SaveMinima to 0
 using 16 threads for integral computing 
 using 16 threads for integral computing 
 K construction time:  CPU 1121.11 s  wall 74.11 s
 -------------------------------------------------------
 OpenMP BLAS3 based DFT computing Module                
 Release: version 1.0, May 2013, Q-Chem Inc. Pittsburgh 
 -------------------------------------------------------
 ---------------------------------------
  Cycle       Energy         DIIS Error
 ---------------------------------------
    1   -2291.1397181790      1.72E-04
 K construction time:  CPU 1114.31 s  wall 73.69 s
    2   -2291.1465627142      1.90E-05
 K construction time:  CPU 793.01 s  wall 52.45 s
    3   -2291.1466217094      1.82E-05
 K construction time:  CPU 734.37 s  wall 48.66 s
    4   -2291.1466561983      7.03E-06
 K construction time:  CPU 698.01 s  wall 46.23 s
    5   -2291.1466629547      3.28E-06
 K construction time:  CPU 646.69 s  wall 42.72 s
    6   -2291.1466645388      9.94E-07
 K construction time:  CPU 590.28 s  wall 38.95 s
    7   -2291.1466647362      3.68E-07
 K construction time:  CPU 543.08 s  wall 35.83 s
    8   -2291.1466647696      2.34E-07
 K construction time:  CPU 501.71 s  wall 33.00 s
    9   -2291.1466647817      6.93E-08
 K construction time:  CPU 445.03 s  wall 29.23 s
   10   -2291.1466647823      3.03E-08
 K construction time:  CPU 388.14 s  wall 25.44 s
   11   -2291.1466647807      1.62E-08
 K construction time:  CPU 339.30 s  wall 22.21 s
   12   -2291.1466647796      5.14E-09 Convergence criterion met
 ---------------------------------------
 SCF time:  CPU 10688.54 s  wall 724.81 s
 SCF   energy in the final basis set = -2291.1466647796
 Total energy in the final basis set = -2291.1466647796
 
 --------------------------------------------------------------
 
                    Orbital Energies (a.u.)
 --------------------------------------------------------------
 
 Alpha MOs
 -- Occupied --
-89.143 -89.102 -89.080 -14.478 -14.475 -14.460 -14.457 -14.448
-14.435 -10.355 -10.352 -10.349 -10.346 -10.342 -10.341 -10.339
-10.338 -10.337 -10.337 -10.335 -10.335 -10.330 -10.324 -10.320
-10.310 -10.302 -10.299 -10.296 -10.294  -8.153  -8.117  -8.096
 -6.103  -6.097  -6.097  -6.066  -6.062  -6.060  -6.045  -6.041
 -6.039  -1.139  -1.099  -1.071  -1.050  -1.027  -1.013  -1.001
 -0.988  -0.926  -0.912  -0.896  -0.879  -0.870  -0.852  -0.839
 -0.813  -0.777  -0.770  -0.746  -0.738  -0.729  -0.722  -0.709
 -0.671  -0.655  -0.647  -0.629  -0.629  -0.622  -0.606  -0.601
 -0.589  -0.576  -0.567  -0.563  -0.557  -0.545  -0.543  -0.526
 -0.512  -0.506  -0.502  -0.502  -0.493  -0.492  -0.487  -0.481
 -0.472  -0.467  -0.462  -0.458  -0.450  -0.438  -0.427  -0.426
 -0.419  -0.410  -0.391  -0.375  -0.370  -0.362  -0.357  -0.353
 -0.343  -0.339  -0.335  -0.333  -0.319  -0.270
 -- Virtual --
 -0.047  -0.029   0.027   0.032   0.041   0.050   0.068   0.075
  0.089   0.090   0.102   0.123   0.125   0.129   0.130   0.137
  0.146   0.150   0.153   0.160   0.165   0.174   0.178   0.189
  0.195   0.200   0.209   0.216   0.220   0.224   0.243   0.247
  0.257   0.260   0.263   0.271   0.280   0.290   0.292   0.296
  0.300   0.302   0.307   0.314   0.316   0.320   0.324   0.330
  0.334   0.337   0.340   0.345   0.348   0.350   0.358   0.361
  0.364   0.366   0.374   0.374   0.378   0.381   0.387   0.388
  0.392   0.393   0.396   0.396   0.404   0.409   0.410   0.413
  0.417   0.420   0.422   0.426   0.433   0.435   0.438   0.441
  0.441   0.446   0.449   0.456   0.457   0.459   0.462   0.463
  0.465   0.469   0.479   0.481   0.482   0.483   0.489   0.490
  0.492   0.500   0.505   0.506   0.508   0.517   0.519   0.520
  0.523   0.527   0.529   0.536   0.536   0.538   0.542   0.547
  0.556   0.558   0.560   0.570   0.571   0.578   0.595   0.595
  0.603   0.607   0.608   0.612   0.616   0.622   0.627   0.635
  0.637   0.644   0.650   0.652   0.658   0.662   0.667   0.669
  0.672   0.677   0.690   0.696   0.701   0.706   0.714   0.715
  0.721   0.724   0.726   0.732   0.739   0.744   0.752   0.754
  0.755   0.762   0.766   0.767   0.775   0.781   0.784   0.786
  0.790   0.794   0.799   0.806   0.809   0.812   0.818   0.820
  0.828   0.834   0.835   0.842   0.846   0.851   0.853   0.863
  0.865   0.866   0.872   0.873   0.878   0.889   0.896   0.898
  0.901   0.908   0.920   0.921   0.926   0.931   0.934   0.938
  0.939   0.944   0.948   0.955   0.959   0.963   0.967   0.972
  0.978   0.981   0.986   0.990   1.001   1.006   1.014   1.017
  1.021   1.027   1.031   1.036   1.045   1.050   1.054   1.060
  1.063   1.071   1.074   1.076   1.083   1.088   1.091   1.095
  1.099   1.104   1.107   1.114   1.118   1.126   1.130   1.143
  1.146   1.151   1.165   1.172   1.176   1.182   1.187   1.195
  1.202   1.210   1.216   1.221   1.226   1.234   1.237   1.246
  1.252   1.254   1.263   1.266   1.275   1.281   1.296   1.302
  1.303   1.313   1.321   1.327   1.329   1.341   1.352   1.355
  1.360   1.365   1.372   1.376   1.379   1.386   1.389   1.393
  1.397   1.402   1.410   1.412   1.421   1.428   1.431   1.433
  1.441   1.447   1.452   1.453   1.461   1.472   1.477   1.483
  1.487   1.491   1.499   1.504   1.506   1.510   1.514   1.526
  1.534   1.549   1.563   1.568   1.575   1.585   1.591   1.595
  1.601   1.610   1.611   1.615   1.629   1.637   1.643   1.646
  1.652   1.662   1.664   1.673   1.674   1.678   1.683   1.689
  1.699   1.703   1.721   1.724   1.727   1.738   1.746   1.750
  1.754   1.757   1.763   1.775   1.786   1.802   1.810   1.811
  1.817   1.827   1.845   1.851   1.865   1.879   1.880   1.889
  1.897   1.899   1.906   1.913   1.916   1.933   1.941   1.946
  1.952   1.968   1.975   1.983   1.989   1.993   1.995   2.009
  2.013   2.018   2.031   2.035   2.039   2.051   2.057   2.064
  2.073   2.088   2.091   2.104   2.110   2.117   2.127   2.134
  2.146   2.148   2.154   2.170   2.174   2.179   2.183   2.193
  2.200   2.204   2.213   2.221   2.236   2.241   2.248   2.255
  2.264   2.276   2.280   2.288   2.290   2.298   2.301   2.302
  2.312   2.323   2.331   2.344   2.349   2.351   2.369   2.373
  2.378   2.390   2.395   2.400   2.408   2.418   2.419   2.432
  2.437   2.446   2.449   2.455   2.459   2.468   2.473   2.480
  2.490   2.492   2.514   2.516   2.524   2.527   2.530   2.534
  2.540   2.543   2.547   2.549   2.556   2.568   2.584   2.590
  2.601   2.609   2.620   2.627   2.629   2.641   2.645   2.656
  2.659   2.665   2.669   2.681   2.686   2.698   2.706   2.716
  2.720   2.729   2.730   2.754   2.757   2.772   2.775   2.777
  2.781   2.787   2.792   2.799   2.815   2.819   2.822   2.823
  2.828   2.834   2.841   2.851   2.853   2.862   2.869   2.873
  2.879   2.890   2.895   2.911   2.913   2.918   2.926   2.932
  2.940   2.941   2.946   2.957   2.960   2.962   2.974   2.976
  2.984   2.995   3.003   3.006   3.008   3.011   3.014   3.020
  3.025   3.032   3.039   3.046   3.050   3.057   3.059   3.064
  3.067   3.069   3.072   3.079   3.080   3.086   3.088   3.091
  3.097   3.105   3.107   3.112   3.115   3.119   3.123   3.126
  3.136   3.139   3.154   3.156   3.158   3.164   3.166   3.169
  3.174   3.176   3.190   3.192   3.194   3.197   3.205   3.207
  3.210   3.213   3.216   3.224   3.229   3.231   3.236   3.243
  3.246   3.249   3.252   3.260   3.263   3.267   3.270   3.273
  3.277   3.280   3.283   3.289   3.293   3.299   3.302   3.308
  3.310   3.316   3.320   3.325   3.327   3.331   3.335   3.342
  3.348   3.356   3.364   3.366   3.368   3.378   3.383   3.392
  3.403   3.405   3.411   3.412   3.416   3.417   3.429   3.438
  3.439   3.447   3.450   3.455   3.461   3.467   3.472   3.474
  3.483   3.485   3.495   3.501   3.505   3.510   3.519   3.521
  3.527   3.534   3.538   3.547   3.559   3.563   3.569   3.579
  3.582   3.597   3.608   3.611   3.618   3.630   3.638   3.649
  3.652   3.661   3.668   3.675   3.689   3.695   3.705   3.710
  3.717   3.718   3.727   3.737   3.738   3.740   3.754   3.758
  3.765   3.778   3.781   3.786   3.796   3.801   3.808   3.810
  3.818   3.826   3.829   3.837   3.855   3.860   3.866   3.876
  3.887   3.894   3.903   3.906   3.911   3.920   3.924   3.928
  3.932   3.936   3.939   3.947   3.951   3.962   3.967   3.971
  3.984   3.988   3.994   4.002   4.009   4.018   4.025   4.035
  4.044   4.045   4.059   4.066   4.077   4.083   4.087   4.094
  4.103   4.111   4.119   4.139   4.148   4.159   4.163   4.166
  4.182   4.189   4.193   4.196   4.205   4.212   4.215   4.226
  4.229   4.233   4.250   4.253   4.254   4.257   4.273   4.277
  4.290   4.296   4.302   4.310   4.320   4.327   4.333   4.337
  4.345   4.357   4.359   4.363   4.368   4.382   4.385   4.392
  4.397   4.413   4.421   4.434   4.438   4.439   4.445   4.459
  4.475   4.481   4.489   4.496   4.513   4.521   4.527   4.540
  4.548   4.559   4.562   4.568   4.583   4.590   4.601   4.608
  4.622   4.629   4.644   4.649   4.666   4.676   4.686   4.702
  4.711   4.724   4.733   4.744   4.757   4.766   4.769   4.786
  4.796   4.800   4.807   4.813   4.826   4.837   4.843   4.853
  4.861   4.877   4.888   4.897   4.909   4.914   4.917   4.924
  4.936   4.943   4.951   4.960   4.974   4.977   4.989   4.994
  4.998   5.005   5.011   5.014   5.025   5.031   5.041   5.047
  5.058   5.064   5.069   5.081   5.092   5.103   5.114   5.118
  5.134   5.142   5.145   5.160   5.164   5.168   5.195   5.198
  5.210   5.220   5.223   5.254   5.273   5.295   5.310   5.315
  5.326   5.348   5.351   5.367   5.376   5.384   5.406   5.430
  5.437   5.466   5.471   5.488   5.498   5.501   5.527   5.539
  5.562   5.572   5.584   5.593   5.598   5.609   5.627   5.647
  5.665   5.692   5.715   5.725   5.739   5.745   5.761   5.769
  5.804   5.831   5.835   5.852   5.869   5.883   5.890   5.907
  5.944   5.964   5.977   6.045   6.092   6.110   6.152   6.168
  6.206   6.230   6.248   6.276   6.291   6.332   6.383   6.431
  6.448   6.492   6.643   6.851   6.982   7.072   7.947   8.865
  9.806  10.169  10.624  11.106  11.244  11.715  12.033  12.044
 12.353  12.610  12.695  12.782  12.858  12.910  13.060  13.280
 13.406  13.529  13.568  13.751  14.288  14.664  15.067  15.076
 --------------------------------------------------------------
 
          Ground-State Mulliken Net Atomic Charges

     Atom                 Charge (a.u.)
  ----------------------------------------
      1 C                    -0.091263
      2 C                    -0.128302
      3 C                    -0.080359
      4 C                    -0.119151
      5 N                    -0.143301
      6 C                     0.083242
      7 C                     0.108175
      8 N                    -0.174283
      9 C                    -0.013986
     10 C                    -0.114423
     11 N                    -0.223966
     12 C                     0.042731
     13 C                     0.076215
     14 S                     0.407973
     15 N                    -0.262867
     16 C                    -0.076765
     17 S                     0.168827
     18 C                     0.044402
     19 C                    -0.058101
     20 N                    -0.137036
     21 C                     0.043244
     22 C                    -0.013889
     23 C                    -0.047179
     24 N                    -0.162599
     25 C                    -0.140952
     26 S                     0.097845
     27 C                    -0.047185
     28 C                    -0.155556
     29 C                    -0.182195
     30 H                     0.133002
     31 H                     0.119575
     32 H                     0.119584
     33 H                     0.136941
     34 H                     0.131175
     35 H                     0.128051
     36 H                     0.137491
     37 H                     0.127201
     38 H                     0.130850
     39 H                     0.136833
  ----------------------------------------
  Sum of atomic charges =     0.000000

 -----------------------------------------------------------------
                    Cartesian Multipole Moments
 -----------------------------------------------------------------
    Charge (ESU x 10^10)
                 0.0000
    Dipole Moment (Debye)
         X       0.2684      Y      -0.0340      Z      -0.9813
       Tot       1.0179
    Quadrupole Moments (Debye-Ang)
        XX    -153.6257     XY      -7.9061     YY    -167.2096
        XZ       5.0458     YZ       0.2936     ZZ    -183.1599
    Octopole Moments (Debye-Ang^2)
       XXX     -67.4820    XXY      93.4480    XYY      28.8061
       YYY     -47.4729    XXZ       1.0683    XYZ      38.8202
       YYZ     -22.0990    XZZ     -15.1360    YZZ     -10.4747
       ZZZ      -4.6134
    Hexadecapole Moments (Debye-Ang^3)
      XXXX  -16117.2415   XXXY    -246.2142   XXYY   -3377.1107
      XYYY      48.5390   YYYY   -3369.8912   XXXZ     333.4814
      XXYZ     -55.1383   XYYZ       8.6726   YYYZ      39.4739
      XXZZ   -3389.0880   XYZZ     -32.5007   YYZZ    -695.6378
      XZZZ     -15.9402   YZZZ     -26.0454   ZZZZ    -846.6083
 -----------------------------------------------------------------
 Calculating analytic gradient of the SCF energy
 K construction time:  CPU 2774.83 s  wall 175.82 s
 Gradient of SCF Energy
            1           2           3           4           5           6
    1  -0.0000071  -0.0000365  -0.0001028   0.0001662   0.0000344  -0.0001531
    2  -0.0001127   0.0000970   0.0001455   0.0005208   0.0000349  -0.0007866
    3   0.0002012  -0.0001350  -0.0000276   0.0004218  -0.0001058  -0.0009330
            7           8           9          10          11          12
    1   0.0002000   0.0005622  -0.0001013  -0.0008780   0.0008925   0.0000218
    2   0.0006911  -0.0001568   0.0010815   0.0002751   0.0000953  -0.0001541
    3   0.0008039  -0.0011227   0.0005596   0.0015395  -0.0004967  -0.0007157
           13          14          15          16          17          18
    1   0.0002882   0.0002552  -0.0006299  -0.0001834   0.0002610  -0.0002460
    2  -0.0009635  -0.0011342  -0.0000981  -0.0007428  -0.0002643  -0.0007045
    3  -0.0008384   0.0004494   0.0004233   0.0005282  -0.0011093  -0.0002701
           19          20          21          22          23          24
    1  -0.0003633   0.0001996  -0.0000213   0.0000585   0.0004180  -0.0002317
    2   0.0009475   0.0007270  -0.0009641   0.0000256   0.0002509   0.0010382
    3   0.0004871   0.0002766  -0.0001880  -0.0003705  -0.0000959   0.0002340
           25          26          27          28          29          30
    1   0.0000570   0.0001925  -0.0006726  -0.0000052  -0.0001813  -0.0000183
    2   0.0000647   0.0000922  -0.0005960   0.0001380  -0.0000737  -0.0000662
    3   0.0005358  -0.0000028  -0.0000379  -0.0001330  -0.0000649  -0.0000889
           31          32          33          34          35          36
    1   0.0000193  -0.0000111   0.0000238   0.0002977  -0.0001474   0.0000255
    2  -0.0000419  -0.0000304   0.0000589   0.0005372  -0.0000419  -0.0000276
    3   0.0000922   0.0000152   0.0000963  -0.0000506   0.0002308  -0.0000271
           37          38          39
    1   0.0000548  -0.0000513   0.0000133
    2   0.0001929  -0.0000404  -0.0000146
    3  -0.0001452   0.0000517   0.0000125
 Max gradient component =       1.539E-03
 RMS gradient           =       4.543E-04
 Gradient time:  CPU 3229.86 s  wall 206.69 s
 Geometry Optimization Parameters
   NAtoms,    NIC,     NZ,  NCons,   NDum,   NFix, NCnnct, MaxDiis
       39     293       0       3       0       0       0       0

 Cartesian Hessian Update
 Hessian Updated using BFGS Update


** CONSTRAINED OPTIMIZATION IN DELOCALIZED INTERNAL COORDINATES **
   Searching for a Minimum

   Optimization Cycle:   3

                       Coordinates (Angstroms)
     ATOM                X               Y               Z
      1  C        -7.4208553424    1.7100851729   -0.1938748806
      2  C        -6.5548279234    2.3245298779   -1.0833826938
      3  C        -6.9038254354    0.7627075222    0.6750368343
      4  C        -5.2210563290    1.9664807101   -1.0712631945
      5  N        -5.6267467803    0.4047633685    0.6932631598
      6  C        -4.8005331221    0.9913776023   -0.1692045569
      7  C        -3.3670382765    0.6019684165   -0.1307278012
      8  N        -2.5069175541    1.4607256521   -0.6062924880
      9  C        -2.8986154206   -0.6520857678    0.3868896142
     10  C        -1.1790071445    1.1958231608   -0.6088760643
     11  N        -3.6175575972   -1.6619552880    0.8832033656
     12  C        -1.4910924764   -0.9163562944    0.3939290387
     13  C        -0.5922705839    0.0515893657   -0.1394783903
     14  S        -2.5667067750   -2.7839247935    1.3412167313
     15  N        -1.1727499511   -2.0893841796    0.9394353864
     16  C         0.8510443779   -0.1403383383   -0.1629726186
     17  S         1.9062503085    1.1081451976    0.3382162655
     18  C         1.5949837844   -1.2278035842   -0.5820574141
     19  C         3.3404030204    0.2421850981    0.0059123071
     20  N         1.0824436617   -2.3767393423   -1.1063258999
     21  C         3.0074420742   -1.0174640487   -0.4776704603
[...]
     39  H         7.2129212474    3.1820489077    0.7515519514
   Point Group: c1    Number of degrees of freedom:   111


   Energy is  -2291.146727632

              Constraints and their Current Values
                                        Value     Constraint
   Dihedral:        4   6   7   8       21.822       21.822
   Dihedral:       10  13  16  17       45.000       45.000
   Dihedral:       17  19  22  25      156.395      156.395
 Hessian Updated using BFGS Update

103 Hessian modes will be used to form the next step
  Hessian Eigenvalues:
     0.010587    0.024997    0.042564    0.045000    0.045000    0.045000
     0.045000    0.045000    0.045001    0.045001    0.045001    0.045001
     0.045001    0.045002    0.045002    0.045002    0.045003    0.045003
     0.045004    0.045006    0.045006    0.045008    0.045015    0.045021
     0.045038    0.045420    0.046470    0.049797    0.158670    0.159416
     0.159937    0.159996    0.159999    0.160000    0.160001    0.160043
     0.160076    0.161035    0.220019    0.221284    0.221959    0.224338
     0.226108    0.233634    0.238112    0.241895    0.244315    0.245652
     0.249771    0.249809    0.249964    0.249979    0.249986    0.249994
     0.251408    0.266063    0.273560    0.296087    0.312403    0.326024
     0.334188    0.335907    0.342014    0.350310    0.354155    0.354481
     0.355760    0.357054    0.359040    0.360710    0.361099    0.363078
     0.364118    0.364143    0.375366    0.382796    0.389147    0.399760
     0.404866    0.416686    0.419157    0.432508    0.436341    0.458426
     0.460108    0.462286    0.473501    0.474275    0.482930    0.484716
     0.486113    0.492693    0.505557    0.510936    0.519264    0.526676
     0.563856    0.572987    0.589701    0.639134    0.655483    0.662670
     0.669517

 Minimum Search - Taking Simple RFO Step
 Searching for Lamda that Minimizes Along All modes
 Value Taken    Lamda =   0.00000000
 Step Taken.  Stepsize is  0.002327

                             Maximum     Tolerance    Cnvgd?
         Gradient           0.000043      0.000300     YES
         Displacement       0.000995      0.001200     YES
         Energy change      0.000000      0.000001     YES

 Final energy is   -2291.14672763159     


 ******************************
 **  OPTIMIZATION CONVERGED  **
 ******************************

                       Coordinates (Angstroms)
     ATOM                X               Y               Z
      1  C        -7.4214685047    1.7130096002   -0.1728965076
      2  C        -6.5661130978    2.3110904688   -1.0833622739
      3  C        -6.8960952015    0.7739873147    0.7004310902
      4  C        -5.2338228537    1.9476090837   -1.0851740511
      5  N        -5.6202617677    0.4114840821    0.7060817410
      6  C        -4.8040625880    0.9839631831   -0.1754170683
      7  C        -3.3697213771    0.5967920159   -0.1453958417
      8  N        -2.5151993766    1.4506220387   -0.6389172383
      9  C        -2.8957742888   -0.6511935324    0.3809020504
     10  C        -1.1850109646    1.1908063605   -0.6467109519
     11  N        -3.6102477871   -1.6550712596    0.8956001666
     12  C        -1.4871675276   -0.9080825017    0.3859816367
     13  C        -0.5928748679    0.0561633294   -0.1632396987
     14  S        -2.5518295725   -2.7663974513    1.3609153368
     15  N        -1.1614355940   -2.0735432200    0.9426755068
     16  C         0.8523703575   -0.1313740644   -0.1693708328
     17  S         1.9082058509    1.1176139203    0.3303591188
     18  C         1.5964355863   -1.2186061497   -0.5894957660
     19  C         3.3427039563    0.2479783972   -0.0018577326
     20  N         1.0827315293   -2.3664896440   -1.1189463757
     21  C         3.0088558717   -1.0108549895   -0.4835812585
     22  C         4.6550837211    0.8088739461    0.2368071048
     23  C         1.9588383562   -3.2543744655   -1.4645479188
     24  N         3.8989696255   -1.9757006346   -0.8539168631
     25  C         5.8297126122    0.1405227940    0.4475087579
     26  S         4.9110193202    2.5218535676    0.2968675586
     27  C         3.3733712614   -3.0643109985   -1.3199127377
     28  C         6.9269913377    1.0078425518    0.6652780884
     29  C         6.5806638281    2.3209599280    0.6194478473
     30  H        -8.4712410974    1.9670680438   -0.1342345424
     31  H        -6.9307317331    3.0510523991   -1.7827115919
     32  H        -7.5301799693    0.2888101008    1.4334450328
     33  H        -4.5234431697    2.3890086229   -1.7668796668
     34  H        -0.5730898981    1.9641806886   -1.0949941601
     35  H         1.5908014402   -4.1812467651   -1.8913669334
     36  H         5.8907139870   -0.9355689924    0.4376974383
     37  H         4.0486196712   -3.8575785996   -1.6214970618
     38  H         7.9339717284    0.6673463312    0.8519720037
     39  H         7.2129212474    3.1820489077    0.7515519514

Z-matrix Print:
$molecule
0 1
S 
C  1 1.710093
C  2 1.388587 1 109.070449
N  3 1.363957 2 125.350800 1 -179.927539 0
C  4 1.295561 3 115.296200 2 177.731714 0
H  5 1.084522 4 117.518420 3 179.742666 0
C  3 1.431541 2 113.231181 1 -1.055632 0
N  7 1.364495 3 121.482951 2 -176.030693 0
C  8 1.294350 7 115.204450 3 -2.411118 0
H  9 1.084766 8 117.486162 7 179.909857 0
C  7 1.382827 3 113.222819 2 1.018954 0
C  2 1.447033 1 122.115430 3 178.968388 0
C  12 1.367787 2 127.942468 1 -156.394599 0
H  13 1.077864 12 122.346190 2 -1.124608 0
C  13 1.415517 12 112.955031 2 179.254636 0
H  15 1.079260 13 123.818808 12 -179.824105 0
C  15 1.358794 13 112.914722 12 -0.028066 0
H  17 1.076418 15 128.259140 13 -179.906109 0
C  11 1.457375 7 129.497866 3 -177.887357 0
C  19 1.368132 11 122.305804 7 132.146612 0
H  20 1.083288 19 119.592599 11 -2.975381 0
N  20 1.355347 19 125.571721 11 178.009199 0
C  22 1.304913 20 121.294565 19 -0.034027 0
C  19 1.425192 11 122.467782 7 -49.976915 0
N  24 1.332032 19 126.839660 11 0.431582 0
C  24 1.431849 19 119.640222 11 -178.918677 0
N  26 1.335349 24 112.961844 19 -178.392570 0
C  23 1.485980 22 116.998682 20 -179.502756 0
N  28 1.330772 23 117.810388 22 156.336850 0
C  29 1.326345 28 118.006650 23 -178.676966 0
H  30 1.083868 29 115.945527 28 179.856397 0
C  30 1.385814 29 123.542050 28 -0.065158 0
H  32 1.080770 30 120.329704 29 -179.779779 0
C  32 1.385020 30 118.212205 29 0.413648 0
H  34 1.081471 32 120.819767 30 179.855545 0
C  34 1.380985 32 118.881849 30 -0.119254 0
H  36 1.078979 34 121.892079 32 179.422820 0
S  27 1.603687 26 106.240853 24 -1.441420 0
S  17 1.712346 15 111.607947 13 0.465664 0
$end

 
 --------------------------------------------------------------
 
                    Orbital Energies (a.u.)
 --------------------------------------------------------------
 
 Alpha MOs
 -- Occupied --
-89.143 -89.102 -89.080 -14.478 -14.475 -14.460 -14.458 -14.448
-14.435 -10.355 -10.352 -10.349 -10.346 -10.342 -10.341 -10.340
-10.338 -10.337 -10.337 -10.335 -10.335 -10.330 -10.324 -10.320
-10.310 -10.302 -10.299 -10.296 -10.293  -8.153  -8.117  -8.096
 -6.103  -6.097  -6.097  -6.066  -6.062  -6.060  -6.045  -6.041
 -6.039  -1.140  -1.098  -1.071  -1.050  -1.027  -1.012  -1.001
 -0.988  -0.926  -0.913  -0.896  -0.879  -0.870  -0.852  -0.839
 -0.813  -0.777  -0.770  -0.746  -0.738  -0.729  -0.722  -0.709
 -0.671  -0.655  -0.647  -0.629  -0.629  -0.622  -0.606  -0.601
 -0.589  -0.576  -0.567  -0.563  -0.557  -0.545  -0.543  -0.526
 -0.512  -0.506  -0.502  -0.502  -0.493  -0.492  -0.487  -0.480
 -0.472  -0.467  -0.462  -0.458  -0.450  -0.438  -0.428  -0.426
 -0.419  -0.410  -0.391  -0.375  -0.370  -0.362  -0.357  -0.353
 -0.343  -0.339  -0.335  -0.333  -0.319  -0.270
 -- Virtual --
 -0.047  -0.029   0.027   0.032   0.041   0.050   0.068   0.074
  0.089   0.090   0.102   0.123   0.125   0.129   0.130   0.137
  0.146   0.149   0.153   0.160   0.165   0.174   0.178   0.189
  0.195   0.200   0.209   0.216   0.220   0.224   0.243   0.247
  0.258   0.260   0.263   0.271   0.280   0.290   0.292   0.296
  0.300   0.302   0.307   0.314   0.316   0.319   0.324   0.330
  0.334   0.337   0.340   0.345   0.347   0.350   0.358   0.360
  0.363   0.367   0.373   0.374   0.378   0.380   0.387   0.388
  0.391   0.393   0.395   0.396   0.404   0.409   0.410   0.413
  0.417   0.420   0.422   0.426   0.432   0.435   0.437   0.441
  0.441   0.446   0.449   0.456   0.457   0.459   0.462   0.464
  0.465   0.469   0.479   0.481   0.482   0.483   0.489   0.490
  0.492   0.500   0.504   0.506   0.508   0.516   0.519   0.520
  0.523   0.527   0.529   0.536   0.536   0.538   0.542   0.546
  0.555   0.558   0.560   0.570   0.571   0.578   0.595   0.595
  0.602   0.607   0.608   0.611   0.615   0.622   0.627   0.635
  0.636   0.644   0.650   0.652   0.657   0.662   0.668   0.669
  0.672   0.677   0.690   0.697   0.701   0.707   0.715   0.715
  0.721   0.724   0.727   0.732   0.739   0.744   0.751   0.754
  0.754   0.761   0.765   0.767   0.776   0.781   0.784   0.786
  0.789   0.794   0.799   0.806   0.810   0.812   0.818   0.820
  0.828   0.834   0.835   0.842   0.846   0.851   0.853   0.863
  0.864   0.866   0.872   0.872   0.878   0.889   0.896   0.898
  0.902   0.908   0.920   0.920   0.926   0.931   0.934   0.939
  0.939   0.943   0.948   0.955   0.959   0.963   0.967   0.972
  0.979   0.981   0.987   0.991   1.001   1.005   1.013   1.017
  1.021   1.026   1.031   1.037   1.045   1.050   1.054   1.060
  1.063   1.071   1.074   1.076   1.084   1.088   1.091   1.095
  1.098   1.105   1.107   1.113   1.117   1.126   1.129   1.143
  1.146   1.151   1.165   1.172   1.178   1.182   1.187   1.195
  1.202   1.211   1.216   1.220   1.225   1.234   1.237   1.246
  1.252   1.254   1.263   1.266   1.274   1.281   1.296   1.301
  1.304   1.313   1.321   1.327   1.330   1.342   1.353   1.355
  1.360   1.365   1.372   1.377   1.379   1.386   1.389   1.393
  1.397   1.402   1.410   1.413   1.421   1.428   1.431   1.433
  1.441   1.448   1.451   1.453   1.461   1.472   1.476   1.482
  1.487   1.490   1.499   1.504   1.507   1.509   1.513   1.526
  1.534   1.549   1.563   1.568   1.575   1.585   1.591   1.596
  1.601   1.610   1.612   1.615   1.629   1.637   1.641   1.646
  1.651   1.662   1.663   1.673   1.674   1.678   1.683   1.688
  1.699   1.703   1.721   1.724   1.728   1.738   1.745   1.749
  1.754   1.757   1.764   1.775   1.786   1.802   1.810   1.812
  1.817   1.827   1.845   1.850   1.865   1.879   1.880   1.889
  1.897   1.899   1.906   1.913   1.916   1.932   1.941   1.946
  1.952   1.968   1.975   1.983   1.989   1.992   1.995   2.008
  2.013   2.018   2.031   2.035   2.039   2.051   2.057   2.064
  2.073   2.087   2.092   2.104   2.110   2.117   2.127   2.134
  2.146   2.148   2.154   2.169   2.174   2.178   2.183   2.192
  2.200   2.204   2.213   2.222   2.237   2.241   2.249   2.255
  2.264   2.276   2.279   2.288   2.290   2.297   2.300   2.301
  2.312   2.323   2.331   2.344   2.349   2.352   2.368   2.373
  2.379   2.389   2.395   2.400   2.408   2.418   2.419   2.431
  2.437   2.446   2.450   2.454   2.459   2.466   2.473   2.481
  2.491   2.492   2.513   2.515   2.524   2.527   2.530   2.535
  2.541   2.543   2.547   2.549   2.557   2.567   2.584   2.590
  2.601   2.608   2.620   2.627   2.628   2.640   2.645   2.656
  2.659   2.664   2.669   2.682   2.686   2.698   2.706   2.717
  2.719   2.729   2.730   2.754   2.757   2.771   2.775   2.777
  2.781   2.787   2.793   2.799   2.815   2.820   2.822   2.823
  2.829   2.834   2.842   2.851   2.853   2.863   2.869   2.873
  2.879   2.889   2.895   2.912   2.913   2.918   2.926   2.933
  2.939   2.941   2.945   2.957   2.960   2.962   2.974   2.976
  2.983   2.995   3.002   3.006   3.007   3.011   3.014   3.020
  3.026   3.032   3.039   3.045   3.050   3.057   3.059   3.063
  3.067   3.069   3.072   3.078   3.079   3.086   3.089   3.091
  3.097   3.105   3.107   3.111   3.114   3.118   3.123   3.126
  3.136   3.139   3.154   3.156   3.159   3.165   3.165   3.169
  3.175   3.176   3.189   3.191   3.195   3.197   3.205   3.207
  3.211   3.212   3.217   3.224   3.228   3.231   3.236   3.243
  3.245   3.249   3.253   3.260   3.263   3.267   3.270   3.273
  3.277   3.280   3.284   3.289   3.293   3.299   3.302   3.307
  3.310   3.316   3.319   3.325   3.326   3.331   3.335   3.342
  3.348   3.356   3.364   3.366   3.368   3.378   3.383   3.392
  3.402   3.404   3.410   3.412   3.416   3.417   3.429   3.438
  3.439   3.448   3.450   3.455   3.461   3.467   3.472   3.475
  3.482   3.485   3.495   3.501   3.504   3.510   3.519   3.521
  3.527   3.534   3.538   3.548   3.559   3.563   3.569   3.579
  3.582   3.597   3.607   3.611   3.618   3.630   3.637   3.649
  3.653   3.660   3.668   3.675   3.689   3.695   3.704   3.709
  3.718   3.719   3.727   3.736   3.738   3.740   3.754   3.758
  3.764   3.778   3.781   3.786   3.795   3.801   3.809   3.810
  3.818   3.827   3.830   3.836   3.855   3.859   3.866   3.876
  3.887   3.894   3.903   3.906   3.911   3.920   3.924   3.928
  3.932   3.937   3.939   3.947   3.951   3.963   3.967   3.971
  3.984   3.988   3.993   4.001   4.010   4.018   4.025   4.034
  4.043   4.045   4.059   4.066   4.077   4.082   4.086   4.093
  4.104   4.111   4.120   4.139   4.147   4.158   4.163   4.166
  4.182   4.189   4.193   4.196   4.205   4.212   4.214   4.226
  4.229   4.233   4.250   4.254   4.254   4.257   4.272   4.277
  4.290   4.296   4.302   4.310   4.319   4.327   4.332   4.336
  4.345   4.358   4.359   4.362   4.369   4.382   4.385   4.393
  4.397   4.414   4.421   4.434   4.438   4.439   4.446   4.459
  4.475   4.480   4.489   4.496   4.514   4.521   4.527   4.540
  4.548   4.560   4.562   4.567   4.584   4.589   4.601   4.609
  4.622   4.629   4.645   4.648   4.666   4.675   4.685   4.703
  4.710   4.724   4.733   4.744   4.757   4.765   4.769   4.785
  4.794   4.800   4.806   4.813   4.825   4.837   4.842   4.854
  4.860   4.877   4.887   4.898   4.907   4.913   4.917   4.923
  4.935   4.942   4.951   4.960   4.974   4.978   4.990   4.994
  4.998   5.005   5.011   5.014   5.025   5.031   5.041   5.047
  5.060   5.063   5.069   5.081   5.091   5.103   5.114   5.118
  5.134   5.142   5.145   5.159   5.165   5.168   5.193   5.198
  5.210   5.220   5.223   5.254   5.273   5.295   5.310   5.314
  5.326   5.347   5.351   5.368   5.375   5.384   5.406   5.430
  5.437   5.466   5.470   5.487   5.497   5.501   5.526   5.538
  5.561   5.573   5.583   5.593   5.597   5.608   5.627   5.646
  5.666   5.692   5.715   5.725   5.738   5.744   5.761   5.769
  5.804   5.831   5.835   5.852   5.869   5.882   5.890   5.906
  5.944   5.965   5.977   6.046   6.089   6.110   6.151   6.169
  6.205   6.230   6.247   6.276   6.291   6.329   6.382   6.430
  6.448   6.490   6.639   6.850   6.980   7.071   7.943   8.853
  9.804  10.165  10.614  11.106  11.241  11.716  12.033  12.042
 12.348  12.611  12.698  12.779  12.859  12.907  13.047  13.278
 13.405  13.528  13.560  13.745  14.295  14.656  15.060  15.072
 --------------------------------------------------------------
 
          Ground-State Mulliken Net Atomic Charges

     Atom                 Charge (a.u.)
  ----------------------------------------
      1 C                    -0.091166
      2 C                    -0.128297
      3 C                    -0.080545
      4 C                    -0.118793
      5 N                    -0.143641
      6 C                     0.083159
      7 C                     0.108444
      8 N                    -0.174558
      9 C                    -0.013850
     10 C                    -0.114089
     11 N                    -0.223661
     12 C                     0.042537
     13 C                     0.076315
     14 S                     0.407193
     15 N                    -0.262992
     16 C                    -0.077693
     17 S                     0.168443
     18 C                     0.047062
     19 C                    -0.057660
     20 N                    -0.137532
     21 C                     0.042426
     22 C                    -0.013461
     23 C                    -0.047929
     24 N                    -0.162928
     25 C                    -0.140481
     26 S                     0.097672
     27 C                    -0.046831
     28 C                    -0.155842
     29 C                    -0.182148
     30 H                     0.132992
     31 H                     0.119564
     32 H                     0.119749
     33 H                     0.136753
     34 H                     0.131416
     35 H                     0.128011
     36 H                     0.137683
     37 H                     0.126979
     38 H                     0.130839
     39 H                     0.136860
  ----------------------------------------
  Sum of atomic charges =     0.000000

 -----------------------------------------------------------------
                    Cartesian Multipole Moments
 -----------------------------------------------------------------
    Charge (ESU x 10^10)
                 0.0000
    Dipole Moment (Debye)
         X       0.2592      Y      -0.0401      Z      -0.9722
       Tot       1.0070
    Quadrupole Moments (Debye-Ang)
        XX    -153.5893     XY      -8.0462     YY    -167.3328
        XZ       5.0113     YZ       0.4038     ZZ    -183.0311
    Octopole Moments (Debye-Ang^2)
       XXX     -69.0684    XXY      93.4633    XYY      28.8169
       YYY     -48.9310    XXZ       2.7159    XYZ      38.9526
       YYZ     -21.7902    XZZ     -15.7383    YZZ     -10.7803
       ZZZ      -5.0338
    Hexadecapole Moments (Debye-Ang^3)
      XXXX  -16128.2989   XXXY    -252.7135   XXYY   -3377.2149
      XYYY      51.1245   YYYY   -3350.8857   XXXZ     327.0931
      XXYZ     -49.5530   XYYZ       7.6502   YYYZ      39.0750
      XXZZ   -3387.5877   XYZZ     -30.8172   YYZZ    -693.5354
      XZZZ     -21.9403   YZZZ     -29.2666   ZZZZ    -862.9584
 -----------------------------------------------------------------
Archival summary:
1\1\mn251\OPT\ProcedureUnspecified\BasisUnspecified\362010\afmv_a\SatJun1710:55:272017SatJun1710:55:272017\0\\#,OPT,ProcedureUnspecified,BasisUnspecified,\\0,1\S\C,1,1.71009\C,2,1.38859,1,109.07\N,3,1.36396,2,125.351,1,-179.928,0\C,4,1.29556,3,115.296,2,177.732,0\H,5,1.08452,4,117.518,3,179.743,0\C,3,1.43154,2,113.231,1,-1.05563,0\N,7,1.36449,3,121.483,2,-176.031,0\C,8,1.29435,7,115.204,3,-2.41112,0\H,9,1.08477,8,117.486,7,179.91,0\C,7,1.38283,3,113.223,2,1.01895,0\C,2,1.44703,1,122.115,3,178.968,0\C,12,1.36779,2,127.942,1,-156.395,0\H,13,1.07786,12,122.346,2,-1.12461,0\C,13,1.41552,12,112.955,2,179.255,0\H,15,1.07926,13,123.819,12,-179.824,0\C,15,1.35879,13,112.915,12,-0.0280661,0\H,17,1.07642,15,128.259,13,-179.906,0\C,11,1.45737,7,129.498,3,-177.887,0\C,19,1.36813,11,122.306,7,132.147,0\H,20,1.08329,19,119.593,11,-2.97538,0\N,20,1.35535,19,125.572,11,178.009,0\C,22,1.30491,20,121.295,19,-0.0340275,0\C,19,1.42519,11,122.468,7,-49.9769,0\N,24,1.33203,19,126.84,11,0.431582,0\C,24,1.43185,19,119.64,11,-178.919,0\N,26,1.33535,24,112.962,19,-178.393,0\C,23,1.48598,22,116.999,20,-179.503,0\N,28,1.33077,23,117.81,22,156.337,0\C,29,1.32635,28,118.007,23,-178.677,0\H,30,1.08387,29,115.946,28,179.856,0\C,30,1.38581,29,123.542,28,-0.0651584,0\H,32,1.08077,30,120.33,29,-179.78,0\C,32,1.38502,30,118.212,29,0.413648,0\H,34,1.08147,32,120.82,30,179.856,0\C,34,1.38098,32,118.882,30,-0.119254,0\H,36,1.07898,34,121.892,32,179.423,0\S,27,1.60369,26,106.241,24,-1.44142,0\S,17,1.71235,15,111.608,13,0.465664,0\\\@

 Total job time:  7158.53s(wall), 106694.65s(cpu) 
 Sat Jun 17 10:55:27 2017

        *************************************************************
        *                                                           *
        *  Thank you very much for using Q-Chem.  Have a nice day.  *
        *                                                           *
        *************************************************************


